Generated by trjconv : CNT in water t= 315.00000
33518
    1C        C    1   2.840   2.771   4.748
    1C        C    2   2.896   2.717   4.866
    1C        C    3   2.842   2.769   4.985
    1C        C    4   2.848   2.774   4.261
    1C        C    5   2.903   2.729   4.383
    1C        C    6   2.849   2.775   4.506
    1C        C    7   3.020   2.651   4.627
    1C        C    8   2.899   2.725   4.628
    1C        C    9   3.079   2.607   4.748
    1C        C   10   3.006   2.629   4.866
    1C        C   11   3.186   2.503   4.978
    1C        C   12   3.059   2.562   4.977
    1C        C   13   2.854   2.781   3.774
    1C        C   14   2.906   2.731   3.895
    1C        C   15   2.851   2.774   4.017
    1C        C   16   3.022   2.649   4.139
    1C        C   17   2.905   2.730   4.140
    1C        C   18   3.082   2.618   4.262
    1C        C   19   3.020   2.651   4.385
    1C        C   20   3.212   2.560   4.504
    1C        C   21   3.079   2.609   4.506
    1C        C   22   3.283   2.539   4.625
    1C        C   23   3.213   2.559   4.746
    1C        C   24   3.414   2.485   4.868
    1C        C   25   3.272   2.508   4.864
    1C        C   26   3.491   2.479   4.984
    1C        C   27   2.854   2.777   3.284
    1C        C   28   2.904   2.728   3.406
    1C        C   29   2.857   2.779   3.530
    1C        C   30   3.020   2.646   3.652
    1C        C   31   2.907   2.731   3.653
    1C        C   32   3.080   2.609   3.774
    1C        C   33   3.021   2.649   3.897
    1C        C   34   3.214   2.558   4.016
    1C        C   35   3.083   2.611   4.018
    1C        C   36   3.278   2.540   4.141
    1C        C   37   3.213   2.564   4.263
    1C        C   38   3.421   2.511   4.382
    1C        C   39   3.282   2.539   4.384
    1C        C   40   3.490   2.504   4.505
    1C        C   41   3.422   2.511   4.629
    1C        C   42   3.634   2.486   4.747
    1C        C   43   3.492   2.488   4.749
    1C        C   44   3.709   2.489   4.866
    1C        C   45   3.630   2.479   4.982
    1C        C   46   2.845   2.763   2.798
    1C        C   47   2.899   2.717   2.920
    1C        C   48   2.848   2.770   3.040
    1C        C   49   3.022   2.648   3.164
    1C        C   50   2.905   2.726   3.162
    1C        C   51   3.083   2.610   3.286
    1C        C   52   3.019   2.646   3.407
    1C        C   53   3.209   2.551   3.531
    1C        C   54   3.081   2.612   3.529
    1C        C   55   3.279   2.532   3.652
    1C        C   56   3.210   2.555   3.774
    1C        C   57   3.420   2.505   3.894
    1C        C   58   3.282   2.535   3.894
    1C        C   59   3.489   2.498   4.017
    1C        C   60   3.416   2.508   4.138
    1C        C   61   3.630   2.504   4.262
    1C        C   62   3.488   2.498   4.259
    1C        C   63   3.703   2.512   4.382
    1C        C   64   3.631   2.507   4.504
    1C        C   65   3.840   2.541   4.624
    1C        C   66   3.703   2.506   4.625
    1C        C   67   3.907   2.566   4.745
    1C        C   68   3.844   2.529   4.866
    1C        C   69   4.056   2.579   4.978
    1C        C   70   3.929   2.520   4.978
    1C        C   71   2.830   2.738   2.313
    1C        C   72   2.886   2.695   2.435
    1C        C   73   2.841   2.753   2.555
    1C        C   74   3.015   2.633   2.675
    1C        C   75   2.898   2.712   2.677
    1C        C   76   3.077   2.598   2.797
    1C        C   77   3.017   2.639   2.918
    1C        C   78   3.210   2.554   3.041
    1C        C   79   3.080   2.609   3.041
    1C        C   80   3.278   2.533   3.163
    1C        C   81   3.211   2.550   3.286
    1C        C   82   3.415   2.500   3.405
    1C        C   83   3.276   2.525   3.409
    1C        C   84   3.487   2.498   3.526
    1C        C   85   3.417   2.503   3.648
    1C        C   86   3.630   2.498   3.772
    1C        C   87   3.488   2.496   3.770
    1C        C   88   3.700   2.512   3.894
    1C        C   89   3.629   2.508   4.016
    1C        C   90   3.835   2.552   4.138
    1C        C   91   3.699   2.514   4.139
    1C        C   92   3.903   2.576   4.259
    1C        C   93   3.840   2.547   4.382
    1C        C   94   4.036   2.629   4.500
    1C        C   95   3.906   2.575   4.503
    1C        C   96   4.094   2.670   4.622
    1C        C   97   4.034   2.629   4.743
    1C        C   98   4.192   2.766   4.865
    1C        C   99   4.099   2.657   4.866
    1C        C  100   4.214   2.845   4.978
    1C        C  101   2.824   2.734   2.073
    1C        C  102   2.992   2.594   2.193
    1C        C  103   2.880   2.684   2.191
    1C        C  104   3.065   2.575   2.314
    1C        C  105   3.003   2.615   2.435
    1C        C  106   3.204   2.534   2.553
    1C        C  107   3.075   2.591   2.554
    1C        C  108   3.273   2.518   2.675
    1C        C  109   3.207   2.543   2.798
    1C        C  110   3.416   2.499   2.918
    1C        C  111   3.277   2.525   2.919
    1C        C  112   3.487   2.491   3.040
    1C        C  113   3.416   2.504   3.162
    1C        C  114   3.628   2.499   3.281
    1C        C  115   3.487   2.498   3.284
    1C        C  116   3.699   2.506   3.403
    1C        C  117   3.629   2.499   3.526
    1C        C  118   3.836   2.542   3.646
    1C        C  119   3.698   2.511   3.649
    1C        C  120   3.903   2.565   3.768
    1C        C  121   3.837   2.547   3.892
    1C        C  122   4.027   2.638   4.013
    1C        C  123   3.902   2.571   4.015
    1C        C  124   4.090   2.673   4.134
    1C        C  125   4.031   2.636   4.257
    1C        C  126   4.199   2.767   4.381
    1C        C  127   4.093   2.673   4.379
    1C        C  128   4.250   2.819   4.502
    1C        C  129   4.195   2.769   4.622
    1C        C  130   4.324   2.937   4.742
    1C        C  131   4.244   2.820   4.744
    1C        C  132   4.353   3.008   4.860
    1C        C  133   4.291   2.961   4.977
    1C        C  134   3.174   2.471   2.085
    1C        C  135   3.041   2.516   2.084
    1C        C  136   3.262   2.483   2.193
    1C        C  137   3.199   2.529   2.311
    1C        C  138   3.408   2.478   2.432
    1C        C  139   3.270   2.507   2.431
    1C        C  140   3.482   2.479   2.553
    1C        C  141   3.412   2.493   2.675
    1C        C  142   3.627   2.501   2.792
    1C        C  143   3.486   2.493   2.795
    1C        C  144   3.697   2.500   2.914
    1C        C  145   3.628   2.493   3.037
    1C        C  146   3.836   2.537   3.157
    1C        C  147   3.699   2.502   3.159
    1C        C  148   3.903   2.561   3.279
    1C        C  149   3.837   2.535   3.402
    1C        C  150   4.027   2.629   3.525
    1C        C  151   3.904   2.560   3.524
    1C        C  152   4.086   2.670   3.646
    1C        C  153   4.029   2.630   3.769
    1C        C  154   4.194   2.765   3.889
    1C        C  155   4.086   2.674   3.890
    1C        C  156   4.245   2.814   4.011
    1C        C  157   4.198   2.764   4.135
    1C        C  158   4.335   2.926   4.255
    1C        C  159   4.249   2.813   4.257
    1C        C  160   4.372   2.989   4.375
    1C        C  161   4.334   2.932   4.499
    1C        C  162   4.435   3.120   4.619
    1C        C  163   4.369   2.995   4.621
    1C        C  164   4.467   3.188   4.739
    1C        C  165   4.439   3.120   4.859
    1C        C  166   4.522   3.316   4.977
    1C        C  167   4.485   3.182   4.976
    1C        C  168   3.476   2.442   2.076
    1C        C  169   3.401   2.461   2.193
    1C        C  170   3.621   2.468   2.309
    1C        C  171   3.479   2.463   2.311
    1C        C  172   3.696   2.485   2.428
    1C        C  173   3.623   2.492   2.548
    1C        C  174   3.833   2.539   2.666
    1C        C  175   3.696   2.506   2.668
    1C        C  176   3.898   2.560   2.789
    1C        C  177   3.834   2.536   2.912
    1C        C  178   4.027   2.626   3.033
    1C        C  179   3.900   2.564   3.034
    1C        C  180   4.087   2.664   3.155
    1C        C  181   4.027   2.628   3.277
    1C        C  182   4.196   2.752   3.401
    1C        C  183   4.086   2.663   3.401
    1C        C  184   4.246   2.807   3.521
    1C        C  185   4.196   2.759   3.644
    1C        C  186   4.339   2.917   3.769
    1C        C  187   4.245   2.811   3.766
    1C        C  188   4.380   2.979   3.889
    1C        C  189   4.339   2.920   4.011
    1C        C  190   4.444   3.106   4.131
    1C        C  191   4.378   2.980   4.132
    1C        C  192   4.464   3.176   4.252
    1C        C  193   4.441   3.113   4.376
    1C        C  194   4.514   3.314   4.493
    1C        C  195   4.471   3.180   4.497
    1C        C  196   4.529   3.385   4.614
    1C        C  197   4.514   3.322   4.740
    1C        C  198   4.550   3.536   4.856
    1C        C  199   4.536   3.394   4.861
    1C        C  200   4.586   3.623   4.964
    1C        C  201   3.614   2.422   2.075
    1C        C  202   3.828   2.515   2.185
    1C        C  203   3.694   2.464   2.187
    1C        C  204   3.902   2.542   2.303
    1C        C  205   3.833   2.517   2.423
    1C        C  206   4.025   2.619   2.544
    1C        C  207   3.901   2.551   2.542
    1C        C  208   4.084   2.659   2.666
    1C        C  209   4.021   2.630   2.790
    1C        C  210   4.198   2.751   2.913
    1C        C  211   4.081   2.672   2.910
    1C        C  212   4.253   2.796   3.035
    1C        C  213   4.202   2.746   3.157
    1C        C  214   4.334   2.913   3.277
    1C        C  215   4.250   2.799   3.279
    1C        C  216   4.369   2.977   3.399
    1C        C  217   4.336   2.916   3.522
    1C        C  218   4.433   3.101   3.641
    1C        C  219   4.379   2.971   3.644
    1C        C  220   4.462   3.168   3.762
    1C        C  221   4.443   3.105   3.887
    1C        C  222   4.502   3.309   4.008
    1C        C  223   4.471   3.171   4.009
    1C        C  224   4.513   3.382   4.129
    1C        C  225   4.505   3.311   4.250
    1C        C  226   4.516   3.526   4.370
    1C        C  227   4.519   3.384   4.370
    1C        C  228   4.521   3.598   4.492
    1C        C  229   4.526   3.527   4.614
    1C        C  230   4.501   3.740   4.732
    1C        C  231   4.541   3.603   4.731
    1C        C  232   4.490   3.816   4.851
    1C        C  233   4.537   3.754   4.967
    1C        C  234   4.018   2.616   2.062
    1C        C  235   3.893   2.555   2.068
    1C        C  236   4.089   2.647   2.179
    1C        C  237   4.027   2.611   2.300
    1C        C  238   4.203   2.733   2.425
    1C        C  239   4.090   2.647   2.422
    1C        C  240   4.254   2.785   2.546
    1C        C  241   4.200   2.739   2.669
    1C        C  242   4.337   2.905   2.787
    1C        C  243   4.251   2.793   2.789
    1C        C  244   4.379   2.962   2.909
    1C        C  245   4.346   2.902   3.033
    1C        C  246   4.434   3.096   3.150
    1C        C  247   4.378   2.967   3.154
    1C        C  248   4.454   3.165   3.272
    1C        C  249   4.429   3.105   3.397
    1C        C  250   4.495   3.306   3.517
    1C        C  251   4.454   3.170   3.519
    1C        C  252   4.504   3.374   3.640
    1C        C  253   4.499   3.304   3.763
    1C        C  254   4.520   3.517   3.881
    1C        C  255   4.513   3.376   3.884
    1C        C  256   4.517   3.591   4.002
    1C        C  257   4.523   3.523   4.126
    1C        C  258   4.491   3.734   4.244
    1C        C  259   4.514   3.595   4.247
    1C        C  260   4.468   3.802   4.366
    1C        C  261   4.488   3.735   4.490
    1C        C  262   4.424   3.939   4.608
    1C        C  263   4.474   3.806   4.611
    1C        C  264   4.401   4.010   4.728
    1C        C  265   4.435   3.946   4.849
    1C        C  266   4.322   4.137   4.960
    1C        C  267   4.397   4.020   4.963
    1C        C  268   4.270   2.774   2.066
    1C        C  269   4.200   2.734   2.181
    1C        C  270   4.347   2.889   2.303
    1C        C  271   4.256   2.779   2.303
    1C        C  272   4.387   2.953   2.422
    1C        C  273   4.348   2.890   2.542
    1C        C  274   4.445   3.083   2.664
    1C        C  275   4.379   2.958   2.662
    1C        C  276   4.469   3.154   2.784
    1C        C  277   4.441   3.089   2.906
    1C        C  278   4.504   3.294   3.027
    1C        C  279   4.467   3.157   3.027
    1C        C  280   4.511   3.367   3.147
    1C        C  281   4.494   3.301   3.271
    1C        C  282   4.522   3.512   3.390
    1C        C  283   4.512   3.371   3.393
    1C        C  284   4.520   3.582   3.512
    1C        C  285   4.513   3.515   3.636
    1C        C  286   4.487   3.724   3.754
    1C        C  287   4.515   3.586   3.758
    1C        C  288   4.473   3.795   3.876
    1C        C  289   4.487   3.729   4.000
    1C        C  290   4.425   3.933   4.117
    1C        C  291   4.473   3.800   4.121
    1C        C  292   4.396   3.998   4.239
    1C        C  293   4.423   3.935   4.363
    1C        C  294   4.325   4.125   4.480
    1C        C  295   4.395   4.002   4.485
    1C        C  296   4.282   4.186   4.600
    1C        C  297   4.322   4.128   4.723
    1C        C  298   4.198   4.314   4.843
    1C        C  299   4.277   4.194   4.840
    1C        C  300   4.170   4.402   4.952
    1C        C  301   4.356   2.883   2.067
    1C        C  302   4.477   3.066   2.180
    1C        C  303   4.403   2.944   2.184
    1C        C  304   4.490   3.140   2.301
    1C        C  305   4.456   3.076   2.422
    1C        C  306   4.510   3.284   2.541
    1C        C  307   4.477   3.147   2.543
    1C        C  308   4.517   3.359   2.660
    1C        C  309   4.509   3.290   2.783
    1C        C  310   4.521   3.503   2.897
    1C        C  311   4.520   3.362   2.904
    1C        C  312   4.517   3.574   3.019
    1C        C  313   4.520   3.508   3.144
    1C        C  314   4.490   3.718   3.268
    1C        C  315   4.516   3.580   3.266
    1C        C  316   4.470   3.789   3.388
    1C        C  317   4.495   3.721   3.510
    1C        C  318   4.428   3.925   3.631
    1C        C  319   4.475   3.792   3.631
    1C        C  320   4.396   3.991   3.752
    1C        C  321   4.427   3.929   3.876
    1C        C  322   4.319   4.117   3.993
    1C        C  323   4.395   3.998   3.995
    1C        C  324   4.275   4.169   4.117
    1C        C  325   4.318   4.115   4.240
    1C        C  326   4.186   4.287   4.357
    1C        C  327   4.279   4.181   4.359
    1C        C  328   4.136   4.341   4.477
    1C        C  329   4.191   4.294   4.599
    1C        C  330   4.026   4.434   4.715
    1C        C  331   4.143   4.352   4.718
    1C        C  332   3.971   4.489   4.833
    1C        C  333   4.054   4.480   4.945
    1C        C  334   4.548   3.271   2.063
    1C        C  335   4.541   3.131   2.070
    1C        C  336   4.544   3.349   2.179
    1C        C  337   4.518   3.279   2.299
    1C        C  338   4.521   3.495   2.412
    1C        C  339   4.521   3.354   2.419
    1C        C  340   4.524   3.570   2.532
    1C        C  341   4.519   3.501   2.655
    1C        C  342   4.501   3.715   2.776
    1C        C  343   4.514   3.574   2.776
    1C        C  344   4.481   3.783   2.898
    1C        C  345   4.495   3.714   3.021
    1C        C  346   4.429   3.916   3.142
    1C        C  347   4.474   3.782   3.143
    1C        C  348   4.395   3.983   3.262
    1C        C  349   4.418   3.921   3.387
    1C        C  350   4.321   4.108   3.506
    1C        C  351   4.395   3.987   3.509
    1C        C  352   4.274   4.162   3.627
    1C        C  353   4.317   4.108   3.751
    1C        C  354   4.175   4.272   3.869
    1C        C  355   4.271   4.168   3.870
    1C        C  356   4.123   4.318   3.992
    1C        C  357   4.176   4.270   4.114
    1C        C  358   4.014   4.409   4.232
    1C        C  359   4.130   4.328   4.234
    1C        C  360   3.954   4.446   4.354
    1C        C  361   4.017   4.418   4.478
    1C        C  362   3.828   4.523   4.597
    1C        C  363   3.956   4.463   4.597
    1C        C  364   3.762   4.555   4.718
    1C        C  365   3.840   4.543   4.834
    1C        C  366   3.628   4.596   4.952
    1C        C  367   3.765   4.571   4.949
    1C        C  368   4.522   3.563   2.054
    1C        C  369   4.523   3.489   2.173
    1C        C  370   4.504   3.708   2.288
    1C        C  371   4.518   3.567   2.291
    1C        C  372   4.494   3.780   2.408
    1C        C  373   4.509   3.711   2.530
    1C        C  374   4.426   3.908   2.653
    1C        C  375   4.482   3.779   2.651
    1C        C  376   4.397   3.976   2.773
    1C        C  377   4.428   3.913   2.896
    1C        C  378   4.321   4.096   3.015
    1C        C  379   4.398   3.978   3.019
    1C        C  380   4.277   4.156   3.135
    1C        C  381   4.318   4.101   3.259
    1C        C  382   4.173   4.254   3.379
    1C        C  383   4.274   4.155   3.382
    1C        C  384   4.124   4.308   3.500
    1C        C  385   4.174   4.262   3.624
    1C        C  386   4.009   4.400   3.745
    1C        C  387   4.121   4.314   3.745
    1C        C  388   3.948   4.435   3.868
    1C        C  389   4.004   4.394   3.991
    1C        C  390   3.819   4.499   4.111
    1C        C  391   3.949   4.443   4.111
    1C        C  392   3.752   4.520   4.234
    1C        C  393   3.825   4.505   4.354
    1C        C  394   3.621   4.566   4.477
    1C        C  395   3.759   4.536   4.474
    1C        C  396   3.546   4.575   4.597
    1C        C  397   3.622   4.577   4.715
    1C        C  398   3.411   4.553   4.843
    1C        C  399   3.550   4.579   4.836
    1C        C  400   3.341   4.528   4.962
    1C        C  401   4.509   3.701   2.054
    1C        C  402   4.453   3.917   2.167
    1C        C  403   4.494   3.781   2.168
    1C        C  404   4.414   3.978   2.289
    1C        C  405   4.442   3.912   2.410
    1C        C  406   4.326   4.094   2.529
    1C        C  407   4.399   3.973   2.530
    1C        C  408   4.279   4.151   2.649
    1C        C  409   4.319   4.093   2.772
    1C        C  410   4.174   4.248   2.891
    1C        C  411   4.278   4.153   2.893
    1C        C  412   4.117   4.293   3.012
    1C        C  413   4.175   4.254   3.135
    1C        C  414   4.000   4.376   3.256
    1C        C  415   4.118   4.298   3.257
    1C        C  416   3.943   4.416   3.379
    1C        C  417   4.007   4.387   3.501
    1C        C  418   3.813   4.476   3.622
    1C        C  419   3.946   4.427   3.622
    1C        C  420   3.746   4.502   3.744
    1C        C  421   3.817   4.489   3.865
    1C        C  422   3.612   4.536   3.990
    1C        C  423   3.752   4.515   3.988
    1C        C  424   3.542   4.549   4.112
    1C        C  425   3.613   4.543   4.235
    1C        C  426   3.405   4.558   4.359
    1C        C  427   3.546   4.565   4.357
    1C        C  428   3.335   4.544   4.481
    1C        C  429   3.405   4.558   4.603
    1C        C  430   3.194   4.528   4.724
    1C        C  431   3.335   4.552   4.725
    1C        C  432   3.127   4.500   4.846
    1C        C  433   3.204   4.505   4.962
    1C        C  434   4.387   4.129   2.053
    1C        C  435   4.447   4.002   2.056
    1C        C  436   4.305   4.162   2.165
    1C        C  437   4.337   4.097   2.288
    1C        C  438   4.183   4.249   2.402
    1C        C  439   4.287   4.154   2.407
    1C        C  440   4.126   4.296   2.523
    1C        C  441   4.179   4.251   2.646
    1C        C  442   4.004   4.372   2.767
    1C        C  443   4.121   4.293   2.768
    1C        C  444   3.942   4.412   2.888
    1C        C  445   4.003   4.376   3.010
    1C        C  446   3.810   4.466   3.132
    1C        C  447   3.939   4.409   3.132
    1C        C  448   3.746   4.493   3.255
    1C        C  449   3.813   4.471   3.378
    1C        C  450   3.609   4.529   3.498
    1C        C  451   3.747   4.500   3.499
    1C        C  452   3.541   4.547   3.620
    1C        C  453   3.610   4.542   3.744
    1C        C  454   3.402   4.547   3.868
    1C        C  455   3.543   4.548   3.868
    1C        C  456   3.333   4.535   3.990
    1C        C  457   3.401   4.542   4.114
    1C        C  458   3.197   4.508   4.238
    1C        C  459   3.334   4.540   4.238
    1C        C  460   3.127   4.491   4.360
    1C        C  461   3.197   4.516   4.480
    1C        C  462   3.001   4.439   4.606
    1C        C  463   3.128   4.501   4.602
    1C        C  464   2.933   4.403   4.725
    1C        C  465   2.993   4.449   4.845
    1C        C  466   2.811   4.336   4.962
    1C        C  467   2.914   4.430   4.964
    1C        C  468   4.122   4.280   2.044
    1C        C  469   4.190   4.248   2.162
    1C        C  470   4.005   4.367   2.279
    1C        C  471   4.127   4.295   2.281
    1C        C  472   3.944   4.405   2.400
    1C        C  473   4.009   4.374   2.522
    1C        C  474   3.813   4.459   2.645
    1C        C  475   3.944   4.407   2.644
    1C        C  476   3.744   4.486   2.765
    1C        C  477   3.811   4.465   2.888
    1C        C  478   3.606   4.521   3.012
    1C        C  479   3.744   4.488   3.009
    1C        C  480   3.536   4.537   3.133
    1C        C  481   3.608   4.523   3.254
    1C        C  482   3.397   4.541   3.381
    1C        C  483   3.538   4.533   3.376
    1C        C  484   3.328   4.536   3.504
    1C        C  485   3.400   4.544   3.625
    1C        C  486   3.192   4.505   3.749
    1C        C  487   3.328   4.543   3.747
    1C        C  488   3.127   4.478   3.872
    1C        C  489   3.194   4.506   3.993
    1C        C  490   3.008   4.412   4.119
    1C        C  491   3.129   4.484   4.116
    1C        C  492   2.947   4.378   4.242
    1C        C  493   3.002   4.425   4.363
    1C        C  494   2.831   4.306   4.487
    1C        C  495   2.941   4.394   4.487
    1C        C  496   2.782   4.253   4.609
    1C        C  497   2.823   4.313   4.730
    1C        C  498   2.666   4.166   4.847
    1C        C  499   2.756   4.275   4.848
    1C        C  500   2.605   4.114   4.962
    1C        C  501   4.006   4.356   2.044
    1C        C  502   3.811   4.461   2.158
    1C        C  503   3.937   4.398   2.159
    1C        C  504   3.745   4.485   2.281
    1C        C  505   3.813   4.458   2.401
    1C        C  506   3.607   4.512   2.524
    1C        C  507   3.745   4.482   2.523
    1C        C  508   3.535   4.517   2.646
    1C        C  509   3.605   4.511   2.768
    1C        C  510   3.394   4.532   2.890
    1C        C  511   3.535   4.525   2.890
    1C        C  512   3.324   4.530   3.013
    1C        C  513   3.395   4.539   3.134
    1C        C  514   3.190   4.499   3.259
    1C        C  515   3.328   4.533   3.258
    1C        C  516   3.125   4.475   3.382
    1C        C  517   3.190   4.503   3.505
    1C        C  518   3.000   4.414   3.629
    1C        C  519   3.125   4.480   3.628
    1C        C  520   2.942   4.372   3.751
    1C        C  521   3.005   4.408   3.872
    1C        C  522   2.840   4.282   3.997
    1C        C  523   2.948   4.373   3.997
    1C        C  524   2.797   4.231   4.121
    1C        C  525   2.840   4.286   4.244
    1C        C  526   2.698   4.135   4.367
    1C        C  527   2.783   4.248   4.368
    1C        C  528   2.661   4.074   4.489
    1C        C  529   2.699   4.139   4.609
    1C        C  530   2.594   3.958   4.732
    1C        C  531   2.646   4.090   4.730
    1C        C  532   2.545   3.901   4.853
    1C        C  533   2.531   3.995   4.959
    1C        C  534   3.619   4.558   2.042
    1C        C  535   3.751   4.513   2.042
    1C        C  536   3.536   4.540   2.158
    1C        C  537   3.606   4.514   2.279
    1C        C  538   3.395   4.520   2.401
    1C        C  539   3.537   4.516   2.402
    1C        C  540   3.323   4.518   2.522
    1C        C  541   3.394   4.521   2.645
    1C        C  542   3.189   4.484   2.768
    1C        C  543   3.324   4.523   2.768
    1C        C  544   3.123   4.464   2.891
    1C        C  545   3.187   4.492   3.014
    1C        C  546   2.998   4.406   3.138
    1C        C  547   3.123   4.473   3.138
    1C        C  548   2.943   4.365   3.261
    1C        C  549   3.002   4.406   3.383
    1C        C  550   2.833   4.284   3.509
    1C        C  551   2.942   4.374   3.506
    1C        C  552   2.781   4.234   3.630
    1C        C  553   2.833   4.283   3.752
    1C        C  554   2.699   4.122   3.878
    1C        C  555   2.784   4.235   3.876
    1C        C  556   2.662   4.065   4.002
    1C        C  557   2.702   4.126   4.123
    1C        C  558   2.605   3.941   4.248
    1C        C  559   2.664   4.069   4.246
    1C        C  560   2.569   3.880   4.371
    1C        C  561   2.592   3.951   4.491
    1C        C  562   2.529   3.750   4.618
    1C        C  563   2.564   3.887   4.614
    1C        C  564   2.515   3.680   4.740
    1C        C  565   2.520   3.760   4.858
    1C        C  566   2.524   3.545   4.978
    1C        C  567   2.525   3.684   4.975
    1C        C  568   3.331   4.474   2.042
    1C        C  569   3.397   4.514   2.159
    1C        C  570   3.186   4.478   2.283
    1C        C  571   3.323   4.515   2.280
    1C        C  572   3.116   4.462   2.405
    1C        C  573   3.186   4.486   2.525
    1C        C  574   2.989   4.406   2.650
    1C        C  575   3.118   4.465   2.647
    1C        C  576   2.929   4.370   2.773
    1C        C  577   2.994   4.407   2.893
    1C        C  578   2.831   4.273   3.017
    1C        C  579   2.941   4.362   3.016
    1C        C  580   2.783   4.224   3.141
    1C        C  581   2.832   4.277   3.262
    1C        C  582   2.709   4.111   3.387
    1C        C  583   2.787   4.229   3.387
    1C        C  584   2.667   4.055   3.510
    1C        C  585   2.700   4.118   3.632
    1C        C  586   2.599   3.935   3.757
    1C        C  587   2.664   4.060   3.756
    1C        C  588   2.578   3.870   3.881
    1C        C  589   2.604   3.936   4.003
    1C        C  590   2.538   3.738   4.129
    1C        C  591   2.577   3.874   4.127
    1C        C  592   2.524   3.673   4.253
    1C        C  593   2.531   3.744   4.375
    1C        C  594   2.512   3.536   4.501
    1C        C  595   2.517   3.677   4.498
    1C        C  596   2.519   3.463   4.622
    1C        C  597   2.517   3.538   4.743
    1C        C  598   2.533   3.324   4.864
    1C        C  599   2.528   3.465   4.863
    1C        C  600   2.534   3.250   4.983
    1C        C  601   3.197   4.439   2.046
    1C        C  602   2.984   4.395   2.161
    1C        C  603   3.118   4.443   2.162
    1C        C  604   2.926   4.357   2.286
    1C        C  605   2.990   4.398   2.405
    1C        C  606   2.821   4.275   2.530
    1C        C  607   2.932   4.363   2.528
    1C        C  608   2.775   4.222   2.653
    1C        C  609   2.823   4.277   2.774
    1C        C  610   2.692   4.111   2.896
    1C        C  611   2.780   4.222   2.896
    1C        C  612   2.658   4.053   3.021
    1C        C  613   2.699   4.111   3.143
    1C        C  614   2.595   3.929   3.268
    1C        C  615   2.663   4.053   3.267
    1C        C  616   2.567   3.868   3.393
    1C        C  617   2.596   3.933   3.515
    1C        C  618   2.533   3.731   3.639
    1C        C  619   2.567   3.868   3.637
    1C        C  620   2.522   3.666   3.764
    1C        C  621   2.530   3.738   3.885
    1C        C  622   2.510   3.527   4.012
    1C        C  623   2.516   3.668   4.008
    1C        C  624   2.514   3.459   4.136
    1C        C  625   2.513   3.532   4.257
    1C        C  626   2.540   3.324   4.381
    1C        C  627   2.514   3.463   4.380
    1C        C  628   2.562   3.255   4.502
    1C        C  629   2.540   3.324   4.623
    1C        C  630   2.592   3.115   4.746
    1C        C  631   2.550   3.251   4.744
    1C        C  632   2.616   3.050   4.870
    1C        C  633   2.559   3.113   4.985
    1C        C  634   2.784   4.303   2.056
    1C        C  635   2.897   4.385   2.048
    1C        C  636   2.748   4.229   2.170
    1C        C  637   2.813   4.271   2.288
    1C        C  638   2.681   4.108   2.412
    1C        C  639   2.767   4.221   2.412
    1C        C  640   2.647   4.049   2.536
    1C        C  641   2.692   4.108   2.657
    1C        C  642   2.591   3.918   2.777
    1C        C  643   2.653   4.045   2.777
    1C        C  644   2.566   3.860   2.903
    1C        C  645   2.594   3.927   3.024
    1C        C  646   2.527   3.727   3.152
    1C        C  647   2.567   3.863   3.147
    1C        C  648   2.508   3.660   3.276
    1C        C  649   2.525   3.733   3.395
    1C        C  650   2.507   3.521   3.521
    1C        C  651   2.513   3.662   3.517
    1C        C  652   2.516   3.453   3.644
    1C        C  653   2.512   3.525   3.766
    1C        C  654   2.540   3.317   3.891
    1C        C  655   2.515   3.456   3.890
    1C        C  656   2.553   3.250   4.015
    1C        C  657   2.535   3.320   4.137
    1C        C  658   2.606   3.121   4.260
    1C        C  659   2.557   3.254   4.260
    1C        C  660   2.637   3.057   4.382
    1C        C  661   2.604   3.120   4.504
    1C        C  662   2.706   2.936   4.626
    1C        C  663   2.621   3.048   4.625
    1C        C  664   2.751   2.881   4.749
    1C        C  665   2.696   2.931   4.870
    1C        C  666   2.747   2.869   4.985
    1C        C  667   2.690   4.022   2.055
    1C        C  668   2.688   4.102   2.171
    1C        C  669   2.592   3.912   2.293
    1C        C  670   2.645   4.044   2.292
    1C        C  671   2.560   3.850   2.416
    1C        C  672   2.584   3.923   2.535
    1C        C  673   2.519   3.719   2.661
    1C        C  674   2.557   3.855   2.656
    1C        C  675   2.505   3.652   2.785
    1C        C  676   2.524   3.725   2.905
    1C        C  677   2.504   3.518   3.035
    1C        C  678   2.513   3.659   3.029
    1C        C  679   2.511   3.446   3.156
    1C        C  680   2.503   3.519   3.276
    1C        C  681   2.523   3.309   3.404
    1C        C  682   2.505   3.449   3.399
    1C        C  683   2.540   3.241   3.527
    1C        C  684   2.530   3.313   3.648
    1C        C  685   2.588   3.108   3.772
    1C        C  686   2.549   3.244   3.770
    1C        C  687   2.634   3.054   3.894
    1C        C  688   2.602   3.117   4.017
    1C        C  689   2.713   2.936   4.140
    1C        C  690   2.637   3.055   4.139
    1C        C  691   2.757   2.883   4.263
    1C        C  692   2.714   2.939   4.385
    1C        C  693   2.756   2.881   4.506
    1C        C  694   2.634   3.894   2.058
    1C        C  695   2.531   3.704   2.179
    1C        C  696   2.580   3.837   2.174
    1C        C  697   2.506   3.639   2.302
    1C        C  698   2.521   3.715   2.420
    1C        C  699   2.487   3.505   2.547
    1C        C  700   2.504   3.645   2.542
    1C        C  701   2.498   3.438   2.671
    1C        C  702   2.497   3.511   2.792
    1C        C  703   2.520   3.302   2.913
    1C        C  704   2.501   3.442   2.915
    1C        C  705   2.540   3.235   3.035
    1C        C  706   2.534   3.306   3.157
    1C        C  707   2.600   3.111   3.281
    1C        C  708   2.549   3.242   3.282
    1C        C  709   2.634   3.051   3.404
    1C        C  710   2.600   3.113   3.527
    1C        C  711   2.711   2.936   3.650
    1C        C  712   2.623   3.047   3.650
    1C        C  713   2.757   2.884   3.773
    1C        C  714   2.719   2.941   3.896
    1C        C  715   2.756   2.880   4.018
    1C        C  716   2.451   3.501   2.063
    1C        C  717   2.496   3.634   2.064
    1C        C  718   2.461   3.424   2.183
    1C        C  719   2.480   3.499   2.302
    1C        C  720   2.515   3.292   2.428
    1C        C  721   2.488   3.431   2.426
    1C        C  722   2.538   3.224   2.549
    1C        C  723   2.519   3.298   2.668
    1C        C  724   2.591   3.101   2.791
    1C        C  725   2.539   3.232   2.791
    1C        C  726   2.623   3.038   2.914
    1C        C  727   2.593   3.104   3.035
    1C        C  728   2.708   2.928   3.160
    1C        C  729   2.628   3.045   3.159
    1C        C  730   2.755   2.878   3.284
    1C        C  731   2.716   2.935   3.407
    1C        C  732   2.757   2.878   3.529
    1C        C  733   2.485   3.198   2.076
    1C        C  734   2.488   3.283   2.187
    1C        C  735   2.585   3.089   2.308
    1C        C  736   2.525   3.218   2.308
    1C        C  737   2.616   3.022   2.428
    1C        C  738   2.586   3.091   2.547
    1C        C  739   2.696   2.913   2.670
    1C        C  740   2.620   3.032   2.671
    1C        C  741   2.750   2.868   2.793
    1C        C  742   2.700   2.920   2.915
    1C        C  743   2.750   2.873   3.038
    1C        C  744   2.548   3.074   2.074
    1C        C  745   2.687   2.901   2.187
    1C        C  746   2.610   3.020   2.188
    1C        C  747   2.733   2.842   2.307
    1C        C  748   2.694   2.903   2.428
    1C        C  749   2.740   2.852   2.551
    1C        C  750   2.743   2.847   2.071
    1C        C  751   3.671   2.343   1.963
    1C        O  752   3.679   2.218   1.975
    1C        O  753   3.670   2.390   1.831
    1C        C  754   4.652   3.068   1.995
    1C        O  755   4.661   3.084   1.870
    1C        O  756   4.777   3.051   2.056
    1C        C  757   4.460   4.227   1.970
    1C        O  758   4.580   4.256   1.997
    1C        O  759   4.425   4.225   1.834
    1C        C  760   3.578   4.653   1.936
    1C        O  761   3.569   4.777   1.951
    1C        O  762   3.577   4.623   1.799
    1C        C  763   2.890   4.494   1.948
    1C        O  764   2.919   4.484   1.826
    1C        O  765   2.795   4.596   1.965
    1C        C  766   2.332   3.482   1.977
    1C        O  767   2.344   3.442   1.858
    1C        O  768   2.206   3.448   2.027
    1C        C  769   4.704   3.602   5.051
    1C        O  770   4.687   3.581   5.174
    1C        O  771   4.832   3.657   5.034
    1C        C  772   4.279   4.462   5.032
    1C        O  773   4.277   4.443   5.157
    1C        O  774   4.339   4.588   5.018
    1C        C  775   4.160   2.516   5.063
    1C        O  776   4.190   2.396   5.038
    1C        O  777   4.175   2.546   5.199
    1C        C  778   2.887   4.545   5.053
    1C        O  779   2.799   4.630   5.025
    1C        O  780   2.895   4.528   5.192
    1C        C  781   2.473   3.040   5.081
    1C        O  782   2.375   2.980   5.028
    1C        O  783   2.498   3.002   5.212
    1C        C  784   2.416   3.989   5.052
    1C        O  785   2.328   4.079   5.058
    1C        O  786   2.428   3.911   5.168
    1C        C  787   2.952   2.440   1.993
    1C        O  788   2.967   2.415   1.871
    1C        O  789   2.875   2.340   2.052
    1C        C  790   3.189   2.382   5.063
    1C        O  791   3.155   2.268   5.021
    1C        O  792   3.178   2.387   5.203
    1C        H  793   4.280   3.024   5.063
    1C        H  794   4.136   2.843   5.052
    1C        H  795   4.518   3.120   5.056
    1C        H  796   4.499   3.363   5.071
    1C        H  797   4.483   3.784   5.055
    1C        H  798   4.436   3.994   5.059
    1C        H  799   4.270   4.163   5.049
    1C        H  800   4.035   4.550   5.024
    1C        H  801   3.814   4.546   5.041
    1C        H  802   3.581   4.641   5.036
    1C        H  803   3.388   4.501   5.055
    1C        H  804   3.173   4.455   5.051
    1C        H  805   3.892   2.474   5.067
    1C        H  806   3.679   2.445   5.070
    1C        H  807   2.987   2.531   5.051
    1C        H  808   3.444   2.419   5.060
    1C        H  809   2.895   2.756   5.077
    1C        H  810   2.720   2.907   5.082
    1C        H  811   2.549   3.305   5.074
    1C        H  812   2.574   3.504   5.064
    1C        H  813   2.541   3.730   5.071
    1C        H  814   2.639   4.135   5.062
    1C        H  815   2.787   4.295   5.058
    1C        H  816   2.697   2.860   1.975
    1C        H  817   2.820   2.671   1.987
    1C        H  818   3.199   2.390   2.018
    1C        H  819   3.420   2.412   1.990
    1C        H  820   3.844   2.539   1.974
    1C        H  821   4.056   2.632   1.963
    1C        H  822   4.294   2.695   1.998
    1C        H  823   4.381   2.922   1.971
    1C        H  824   4.537   3.316   1.967
    1C        H  825   4.552   3.514   1.964
    1C        H  826   4.516   3.752   1.960
    1C        H  827   3.808   4.530   1.953
    1C        H  828   3.950   4.354   1.952
    1C        H  829   4.160   4.233   1.956
    1C        H  830   4.481   3.964   1.962
    1C        H  831   2.617   3.849   1.963
    1C        H  832   2.723   4.060   1.961
    1C        H  833   2.695   4.336   2.005
    1C        H  834   3.377   4.481   1.946
    1C        H  835   3.149   4.448   1.951
    1C        H  836   2.537   3.009   1.990
    1C        H  837   2.415   3.213   1.996
    1C        H  838   2.523   3.675   1.969
    2V3OU   H29  839   2.804   3.551   3.234
    2V3OU   C27  840   2.791   3.507   3.336
    2V3OU   H27  841   2.735   3.576   3.405
    2V3OU   H28  842   2.744   3.407   3.321
    2V3OU   O11  843   2.920   3.476   3.390
    2V3OU   C15  844   2.930   3.402   3.506
    2V3OU   C13  845   3.057   3.376   3.562
    2V3OU   C14  846   3.079   3.270   3.651
    2V3OU   C16  847   2.981   3.188   3.705
    2V3OU    H6  848   2.999   3.106   3.776
    2V3OU   C12  849   3.214   3.228   3.694
    2V3OU    O2  850   3.237   3.119   3.751
    2V3OU   C10  851   3.325   3.311   3.645
    2V3OU    C8  852   3.457   3.277   3.674
    2V3OU   O10  853   3.492   3.165   3.743
    2V3OU   H26  854   3.411   3.113   3.751
    2V3OU    C6  855   3.570   3.357   3.638
    2V3OU    C5  856   3.540   3.472   3.567
    2V3OU    C4  857   3.707   3.299   3.650
    2V3OU    H4  858   3.726   3.235   3.742
    2V3OU    H5  859   3.715   3.226   3.564
    2V3OU    C2  860   3.819   3.402   3.640
    2V3OU    O6  861   3.813   3.478   3.761
    2V3OU   H21  862   3.764   3.557   3.730
    2V3OU    C3  863   3.784   3.499   3.526
    2V3OU    H2  864   3.868   3.572   3.524
    2V3OU    H3  865   3.786   3.442   3.430
    2V3OU   C25  866   3.953   3.329   3.626
    2V3OU    O7  867   3.997   3.292   3.517
    2V3OU   C26  868   4.032   3.292   3.751
    2V3OU   H22  869   4.065   3.387   3.799
    2V3OU   H23  870   4.120   3.228   3.723
    2V3OU    O8  871   3.960   3.211   3.841
    2V3OU   H24  872   3.936   3.270   3.914
    2V3OU    C1  873   3.649   3.569   3.535
    2V3OU    H1  874   3.629   3.624   3.438
    2V3OU    O3  875   3.653   3.656   3.648
    2V3OU   C19  876   3.621   3.795   3.640
    2V3OU    H9  877   3.525   3.804   3.582
    2V3OU    O4  878   3.716   3.857   3.556
    2V3OU   C20  879   3.848   3.873   3.607
    2V3OU   H10  880   3.891   3.772   3.636
    2V3OU   C24  881   3.609   3.855   3.780
    2V3OU   H16  882   3.543   3.794   3.846
    2V3OU   H17  883   3.559   3.954   3.762
    2V3OU   C23  884   3.751   3.875   3.834
    2V3OU   H15  885   3.799   3.773   3.854
    2V3OU    N1  886   3.742   3.958   3.952
    2V3OU   H19  887   3.813   3.918   4.010
    2V3OU   H20  888   3.651   3.943   3.990
    2V3OU   C21  889   3.850   3.950   3.739
    2V3OU   H11  890   3.957   3.939   3.773
    2V3OU    O5  891   3.829   4.090   3.734
    2V3OU   H18  892   3.779   4.111   3.815
    2V3OU   C22  893   3.919   3.946   3.494
    2V3OU   H12  894   3.863   4.039   3.467
    2V3OU   H13  895   3.906   3.890   3.398
    2V3OU   H14  896   4.028   3.960   3.515
    2V3OU   C11  897   3.164   3.470   3.528
    2V3OU    O1  898   3.134   3.590   3.509
    2V3OU    C9  899   3.300   3.423   3.562
    2V3OU    C7  900   3.407   3.504   3.524
    2V3OU    O9  901   3.390   3.621   3.453
    2V3OU   H25  902   3.294   3.630   3.441
    2V3OU   C17  903   2.833   3.320   3.566
    2V3OU    H7  904   2.735   3.352   3.532
    2V3OU   C18  905   2.853   3.222   3.663
    2V3OU    H8  906   2.790   3.176   3.741
    3SOL     OW  907   2.660   4.882   5.934
    3SOL    HW1  908   2.743   4.839   5.897
    3SOL    HW2  909   2.672   4.898   6.032
    4SOL     OW  910   6.850   0.188   0.218
    4SOL    HW1  911   6.907   0.154   0.292
    4SOL    HW2  912   6.807   0.111   0.170
    5SOL     OW  913   5.174   2.295   1.912
    5SOL    HW1  914   5.162   2.196   1.909
    5SOL    HW2  915   5.099   2.339   1.863
    6SOL     OW  916   4.595   2.034   2.433
    6SOL    HW1  917   4.501   2.065   2.422
    6SOL    HW2  918   4.624   2.047   2.528
    7SOL     OW  919   0.507   4.212   3.567
    7SOL    HW1  920   0.524   4.229   3.470
    7SOL    HW2  921   0.594   4.211   3.617
    8SOL     OW  922   2.543   2.416   5.880
    8SOL    HW1  923   2.545   2.316   5.881
    8SOL    HW2  924   2.538   2.449   5.974
    9SOL     OW  925   6.011   2.546   5.948
    9SOL    HW1  926   5.968   2.456   5.944
    9SOL    HW2  927   5.997   2.585   6.039
   10SOL     OW  928   3.127   5.313   4.829
   10SOL    HW1  929   3.142   5.275   4.920
   10SOL    HW2  930   3.106   5.411   4.837
   11SOL     OW  931   1.878   1.345   6.215
   11SOL    HW1  932   1.846   1.399   6.138
   11SOL    HW2  933   1.976   1.361   6.228
   12SOL     OW  934   3.052   5.003   3.741
   12SOL    HW1  935   2.957   5.016   3.770
   12SOL    HW2  936   3.100   4.948   3.809
   13SOL     OW  937   3.864   6.095   3.850
   13SOL    HW1  938   3.835   6.038   3.773
   13SOL    HW2  939   3.901   6.181   3.816
   14SOL     OW  940   4.123   4.994   5.917
   14SOL    HW1  941   4.169   5.009   5.830
   14SOL    HW2  942   4.073   5.077   5.942
   15SOL     OW  943   0.797   6.402   0.406
   15SOL    HW1  944   0.893   6.389   0.379
   15SOL    HW2  945   0.770   6.496   0.388
   16SOL     OW  946   5.336   2.432   6.557
   16SOL    HW1  947   5.239   2.410   6.551
   16SOL    HW2  948   5.383   2.361   6.609
   17SOL     OW  949   5.071   0.110   6.728
   17SOL    HW1  950   5.070   0.126   6.629
   17SOL    HW2  951   4.979   0.088   6.759
   18SOL     OW  952   3.205   0.818   4.940
   18SOL    HW1  953   3.289   0.792   4.988
   18SOL    HW2  954   3.159   0.892   4.990
   19SOL     OW  955   0.166   2.464   2.208
   19SOL    HW1  956   0.214   2.548   2.233
   19SOL    HW2  957   0.127   2.474   2.116
   20SOL     OW  958   4.641   2.216   5.394
   20SOL    HW1  959   4.585   2.149   5.345
   20SOL    HW2  960   4.610   2.221   5.489
   21SOL     OW  961   2.881   0.849   3.127
   21SOL    HW1  962   2.859   0.934   3.079
   21SOL    HW2  963   2.824   0.841   3.209
   22SOL     OW  964   1.619   5.985   0.285
   22SOL    HW1  965   1.618   6.031   0.374
   22SOL    HW2  966   1.639   6.052   0.214
   23SOL     OW  967   3.889   5.103   2.068
   23SOL    HW1  968   3.854   5.182   2.120
   23SOL    HW2  969   3.821   5.030   2.070
   24SOL     OW  970   3.824   0.512   2.393
   24SOL    HW1  971   3.879   0.559   2.324
   24SOL    HW2  972   3.761   0.449   2.348
   25SOL     OW  973   2.399   6.911   3.602
   25SOL    HW1  974   2.489   6.878   3.575
   25SOL    HW2  975   2.329   6.843   3.577
   26SOL     OW  976   6.692   2.007   6.989
   26SOL    HW1  977   6.730   2.043   0.046
   26SOL    HW2  978   6.737   2.051   6.911
   27SOL     OW  979   1.683   1.450   1.716
   27SOL    HW1  980   1.730   1.533   1.747
   27SOL    HW2  981   1.707   1.374   1.777
   28SOL     OW  982   0.940   1.134   4.751
   28SOL    HW1  983   0.899   1.119   4.661
   28SOL    HW2  984   0.876   1.185   4.809
   29SOL     OW  985   6.505   1.419   0.857
   29SOL    HW1  986   6.476   1.332   0.816
   29SOL    HW2  987   6.424   1.468   0.889
   30SOL     OW  988   4.734   0.293   5.285
   30SOL    HW1  989   4.697   0.341   5.205
   30SOL    HW2  990   4.707   0.197   5.281
   31SOL     OW  991   0.600   2.248   6.059
   31SOL    HW1  992   0.633   2.210   5.972
   31SOL    HW2  993   0.518   2.199   6.088
   32SOL     OW  994   0.976   1.853   2.454
   32SOL    HW1  995   0.963   1.756   2.433
   32SOL    HW2  996   0.939   1.909   2.380
   33SOL     OW  997   0.829   4.803   5.029
   33SOL    HW1  998   0.865   4.895   5.013
   33SOL    HW2  999   0.747   4.809   5.084
   34SOL     OW 1000   2.482   5.867   5.063
   34SOL    HW1 1001   2.520   5.894   5.151
   34SOL    HW2 1002   2.540   5.797   5.021
   35SOL     OW 1003   4.279   2.186   5.711
   35SOL    HW1 1004   4.340   2.203   5.789
   35SOL    HW2 1005   4.184   2.184   5.742
   36SOL     OW 1006   4.538   1.872   3.946
   36SOL    HW1 1007   4.457   1.929   3.961
   36SOL    HW2 1008   4.510   1.784   3.908
   37SOL     OW 1009   1.340   2.226   5.002
   37SOL    HW1 1010   1.272   2.194   5.068
   37SOL    HW2 1011   1.396   2.149   4.972
   38SOL     OW 1012   1.276   4.798   1.540
   38SOL    HW1 1013   1.356   4.804   1.480
   38SOL    HW2 1014   1.238   4.889   1.556
   39SOL     OW 1015   5.960   4.967   6.251
   39SOL    HW1 1016   5.886   5.023   6.213
   39SOL    HW2 1017   5.974   4.886   6.193
   40SOL     OW 1018   3.554   2.246   0.605
   40SOL    HW1 1019   3.572   2.150   0.583
   40SOL    HW2 1020   3.466   2.273   0.566
   41SOL     OW 1021   5.604   3.442   3.424
   41SOL    HW1 1022   5.701   3.439   3.448
   41SOL    HW2 1023   5.593   3.473   3.330
   42SOL     OW 1024   3.128   6.260   4.606
   42SOL    HW1 1025   3.159   6.316   4.529
   42SOL    HW2 1026   3.133   6.312   4.691
   43SOL     OW 1027   4.706   0.895   5.375
   43SOL    HW1 1028   4.650   0.916   5.454
   43SOL    HW2 1029   4.656   0.832   5.315
   44SOL     OW 1030   5.612   2.692   5.031
   44SOL    HW1 1031   5.702   2.653   5.012
   44SOL    HW2 1032   5.621   2.789   5.055
   45SOL     OW 1033   4.380   5.215   1.870
   45SOL    HW1 1034   4.322   5.283   1.914
   45SOL    HW2 1035   4.456   5.191   1.931
   46SOL     OW 1036   1.324   2.157   3.963
   46SOL    HW1 1037   1.379   2.073   3.956
   46SOL    HW2 1038   1.368   2.230   3.910
   47SOL     OW 1039   3.905   3.979   1.158
   47SOL    HW1 1040   3.965   3.902   1.135
   47SOL    HW2 1041   3.933   4.061   1.109
   48SOL     OW 1042   6.909   2.408   6.931
   48SOL    HW1 1043   6.920   2.400   0.002
   48SOL    HW2 1044   6.997   2.433   6.890
   49SOL     OW 1045   6.027   2.646   1.945
   49SOL    HW1 1046   6.033   2.721   2.010
   49SOL    HW2 1047   6.062   2.562   1.987
   50SOL     OW 1048   6.628   1.176   5.421
   50SOL    HW1 1049   6.688   1.110   5.467
   50SOL    HW2 1050   6.683   1.247   5.378
   51SOL     OW 1051   1.988   6.459   2.537
   51SOL    HW1 1052   2.086   6.476   2.525
   51SOL    HW2 1053   1.968   6.447   2.635
   52SOL     OW 1054   5.113   3.695   1.424
   52SOL    HW1 1055   5.114   3.788   1.460
   52SOL    HW2 1056   5.181   3.640   1.472
   53SOL     OW 1057   4.783   0.963   3.515
   53SOL    HW1 1058   4.774   0.963   3.416
   53SOL    HW2 1059   4.749   0.876   3.551
   54SOL     OW 1060   5.586   6.662   1.087
   54SOL    HW1 1061   5.644   6.715   1.025
   54SOL    HW2 1062   5.643   6.623   1.160
   55SOL     OW 1063   2.033   2.624   4.932
   55SOL    HW1 1064   2.004   2.561   4.859
   55SOL    HW2 1065   2.080   2.702   4.892
   56SOL     OW 1066   0.867   0.924   1.160
   56SOL    HW1 1067   0.902   0.937   1.068
   56SOL    HW2 1068   0.943   0.918   1.225
   57SOL     OW 1069   3.861   1.099   0.933
   57SOL    HW1 1070   3.888   1.056   1.019
   57SOL    HW2 1071   3.922   1.069   0.860
   58SOL     OW 1072   0.597   6.535   6.099
   58SOL    HW1 1073   0.532   6.517   6.025
   58SOL    HW2 1074   0.688   6.504   6.072
   59SOL     OW 1075   0.018   3.763   5.895
   59SOL    HW1 1076   0.117   3.753   5.905
   59SOL    HW2 1077   7.018   3.852   5.929
   60SOL     OW 1078   4.707   2.677   4.178
   60SOL    HW1 1079   4.704   2.773   4.151
   60SOL    HW2 1080   4.625   2.630   4.144
   61SOL     OW 1081   0.085   1.207   4.550
   61SOL    HW1 1082   0.077   1.220   4.451
   61SOL    HW2 1083   0.157   1.266   4.586
   62SOL     OW 1084   2.302   1.504   1.949
   62SOL    HW1 1085   2.373   1.487   2.017
   62SOL    HW2 1086   2.218   1.531   1.995
   63SOL     OW 1087   3.448   0.191   4.277
   63SOL    HW1 1088   3.477   0.126   4.207
   63SOL    HW2 1089   3.349   0.184   4.290
   64SOL     OW 1090   0.111   3.038   5.942
   64SOL    HW1 1091   0.096   2.979   6.021
   64SOL    HW2 1092   0.100   2.984   5.858
   65SOL     OW 1093   0.995   5.592   6.104
   65SOL    HW1 1094   1.073   5.609   6.164
   65SOL    HW2 1095   0.950   5.678   6.081
   66SOL     OW 1096   3.584   0.834   3.360
   66SOL    HW1 1097   3.608   0.818   3.264
   66SOL    HW2 1098   3.661   0.809   3.418
   67SOL     OW 1099   0.274   3.217   6.330
   67SOL    HW1 1100   0.359   3.206   6.279
   67SOL    HW2 1101   0.264   3.313   6.357
   68SOL     OW 1102   0.296   1.773   6.652
   68SOL    HW1 1103   0.224   1.783   6.721
   68SOL    HW2 1104   0.261   1.798   6.562
   69SOL     OW 1105   1.104   3.110   5.272
   69SOL    HW1 1106   1.029   3.054   5.306
   69SOL    HW2 1107   1.072   3.204   5.258
   70SOL     OW 1108   5.147   5.082   4.558
   70SOL    HW1 1109   5.112   5.108   4.648
   70SOL    HW2 1110   5.071   5.052   4.500
   71SOL     OW 1111   5.059   2.314   3.443
   71SOL    HW1 1112   5.027   2.324   3.349
   71SOL    HW2 1113   5.022   2.230   3.482
   72SOL     OW 1114   0.575   1.151   3.073
   72SOL    HW1 1115   0.608   1.246   3.069
   72SOL    HW2 1116   0.650   1.089   3.051
   73SOL     OW 1117   3.364   0.512   1.264
   73SOL    HW1 1118   3.288   0.529   1.202
   73SOL    HW2 1119   3.450   0.508   1.212
   74SOL     OW 1120   3.427   1.121   6.942
   74SOL    HW1 1121   3.379   1.208   6.956
   74SOL    HW2 1122   3.378   1.065   6.876
   75SOL     OW 1123   4.061   1.135   1.534
   75SOL    HW1 1124   4.109   1.055   1.498
   75SOL    HW2 1125   4.003   1.107   1.610
   76SOL     OW 1126   3.122   3.409   6.524
   76SOL    HW1 1127   3.098   3.331   6.466
   76SOL    HW2 1128   3.047   3.476   6.522
   77SOL     OW 1129   1.717   6.492   3.044
   77SOL    HW1 1130   1.642   6.441   3.085
   77SOL    HW2 1131   1.694   6.513   2.949
   78SOL     OW 1132   4.652   1.468   0.987
   78SOL    HW1 1133   4.637   1.538   0.917
   78SOL    HW2 1134   4.587   1.393   0.974
   79SOL     OW 1135   3.138   6.574   1.526
   79SOL    HW1 1136   3.221   6.544   1.573
   79SOL    HW2 1137   3.100   6.498   1.473
   80SOL     OW 1138   4.153   1.591   4.505
   80SOL    HW1 1139   4.151   1.687   4.480
   80SOL    HW2 1140   4.247   1.565   4.528
   81SOL     OW 1141   1.601   6.712   1.839
   81SOL    HW1 1142   1.612   6.770   1.759
   81SOL    HW2 1143   1.581   6.618   1.810
   82SOL     OW 1144   6.274   5.665   1.491
   82SOL    HW1 1145   6.231   5.585   1.533
   82SOL    HW2 1146   6.274   5.655   1.392
   83SOL     OW 1147   0.785   0.866   6.579
   83SOL    HW1 1148   0.804   0.784   6.633
   83SOL    HW2 1149   0.727   0.842   6.501
   84SOL     OW 1150   5.593   3.856   3.259
   84SOL    HW1 1151   5.675   3.804   3.282
   84SOL    HW2 1152   5.528   3.797   3.210
   85SOL     OW 1153   1.470   0.958   3.217
   85SOL    HW1 1154   1.452   0.883   3.281
   85SOL    HW2 1155   1.555   0.939   3.168
   86SOL     OW 1156   7.006   1.327   6.899
   86SOL    HW1 1157   7.005   1.274   6.984
   86SOL    HW2 1158   6.930   1.297   6.840
   87SOL     OW 1159   3.481   3.940   0.847
   87SOL    HW1 1160   3.542   3.966   0.773
   87SOL    HW2 1161   3.454   4.022   0.898
   88SOL     OW 1162   2.988   2.334   6.300
   88SOL    HW1 1163   3.001   2.357   6.396
   88SOL    HW2 1164   2.902   2.284   6.288
   89SOL     OW 1165   3.250   3.531   6.989
   89SOL    HW1 1166   3.218   3.462   0.026
   89SOL    HW2 1167   3.325   3.494   6.935
   90SOL     OW 1168   3.670   5.113   2.894
   90SOL    HW1 1169   3.694   5.073   2.982
   90SOL    HW2 1170   3.649   5.039   2.829
   91SOL     OW 1171   6.156   4.034   5.716
   91SOL    HW1 1172   6.096   4.104   5.679
   91SOL    HW2 1173   6.190   3.976   5.641
   92SOL     OW 1174   4.749   4.199   0.441
   92SOL    HW1 1175   4.822   4.237   0.498
   92SOL    HW2 1176   4.662   4.207   0.489
   93SOL     OW 1177   3.196   3.258   6.743
   93SOL    HW1 1178   3.184   3.334   6.679
   93SOL    HW2 1179   3.264   3.284   6.812
   94SOL     OW 1180   2.360   6.125   0.085
   94SOL    HW1 1181   2.352   6.187   0.163
   94SOL    HW2 1182   2.429   6.160   0.022
   95SOL     OW 1183   1.864   0.751   3.473
   95SOL    HW1 1184   1.830   0.698   3.394
   95SOL    HW2 1185   1.860   0.848   3.452
   96SOL     OW 1186   4.428   5.625   5.795
   96SOL    HW1 1187   4.362   5.551   5.787
   96SOL    HW2 1188   4.513   5.590   5.833
   97SOL     OW 1189   2.080   3.802   5.168
   97SOL    HW1 1190   2.125   3.865   5.105
   97SOL    HW2 1191   2.101   3.829   5.262
   98SOL     OW 1192   1.001   1.792   0.359
   98SOL    HW1 1193   0.958   1.882   0.351
   98SOL    HW2 1194   1.049   1.786   0.446
   99SOL     OW 1195   3.630   3.730   2.263
   99SOL    HW1 1196   3.552   3.753   2.322
   99SOL    HW2 1197   3.698   3.803   2.268
  100SOL     OW 1198   0.010   6.868   4.401
  100SOL    HW1 1199   0.083   6.833   4.342
  100SOL    HW2 1200   0.009   6.968   4.397
  101SOL     OW 1201   6.978   5.555   2.467
  101SOL    HW1 1202   6.917   5.541   2.389
  101SOL    HW2 1203   7.016   5.467   2.496
  102SOL     OW 1204   3.704   5.916   1.812
  102SOL    HW1 1205   3.741   5.862   1.737
  102SOL    HW2 1206   3.774   5.926   1.883
  103SOL     OW 1207   1.979   2.142   2.748
  103SOL    HW1 1208   1.998   2.210   2.818
  103SOL    HW2 1209   1.891   2.098   2.766
  104SOL     OW 1210   1.365   5.059   1.859
  104SOL    HW1 1211   1.406   5.070   1.769
  104SOL    HW2 1212   1.382   4.967   1.893
  105SOL     OW 1213   5.590   0.933   6.200
  105SOL    HW1 1214   5.560   0.892   6.113
  105SOL    HW2 1215   5.574   0.868   6.274
  106SOL     OW 1216   4.336   6.148   3.318
  106SOL    HW1 1217   4.413   6.112   3.370
  106SOL    HW2 1218   4.257   6.087   3.329
  107SOL     OW 1219   7.007   1.170   0.101
  107SOL    HW1 1220   0.061   1.189   0.155
  107SOL    HW2 1221   6.997   1.071   0.089
  108SOL     OW 1222   3.783   6.664   6.233
  108SOL    HW1 1223   3.736   6.688   6.148
  108SOL    HW2 1224   3.755   6.573   6.262
  109SOL     OW 1225   2.897   0.791   2.615
  109SOL    HW1 1226   2.909   0.870   2.676
  109SOL    HW2 1227   2.949   0.714   2.651
  110SOL     OW 1228   2.530   4.865   4.150
  110SOL    HW1 1229   2.567   4.914   4.229
  110SOL    HW2 1230   2.460   4.920   4.106
  111SOL     OW 1231   1.954   1.273   3.432
  111SOL    HW1 1232   1.924   1.178   3.435
  111SOL    HW2 1233   1.976   1.304   3.524
  112SOL     OW 1234   5.331   6.380   0.840
  112SOL    HW1 1235   5.261   6.409   0.775
  112SOL    HW2 1236   5.422   6.396   0.801
  113SOL     OW 1237   1.353   5.703   2.801
  113SOL    HW1 1238   1.310   5.645   2.732
  113SOL    HW2 1239   1.324   5.673   2.892
  114SOL     OW 1240   1.721   6.327   1.964
  114SOL    HW1 1241   1.793   6.356   2.026
  114SOL    HW2 1242   1.759   6.319   1.871
  115SOL     OW 1243   5.149   0.068   2.957
  115SOL    HW1 1244   5.196   0.000   3.013
  115SOL    HW2 1245   5.050   0.063   2.974
  116SOL     OW 1246   0.205   5.792   1.380
  116SOL    HW1 1247   0.189   5.828   1.472
  116SOL    HW2 1248   0.178   5.695   1.377
  117SOL     OW 1249   1.207   0.664   0.575
  117SOL    HW1 1250   1.180   0.760   0.569
  117SOL    HW2 1251   1.284   0.655   0.637
  118SOL     OW 1252   1.775   2.154   3.178
  118SOL    HW1 1253   1.712   2.145   3.100
  118SOL    HW2 1254   1.792   2.251   3.196
  119SOL     OW 1255   7.025   1.005   6.741
  119SOL    HW1 1256   0.013   0.942   6.817
  119SOL    HW2 1257   0.084   1.048   6.714
  120SOL     OW 1258   4.856   0.553   4.487
  120SOL    HW1 1259   4.783   0.491   4.514
  120SOL    HW2 1260   4.835   0.592   4.397
  121SOL     OW 1261   1.030   4.012   0.681
  121SOL    HW1 1262   1.076   4.014   0.770
  121SOL    HW2 1263   0.965   4.088   0.676
  122SOL     OW 1264   1.615   3.660   0.409
  122SOL    HW1 1265   1.611   3.729   0.336
  122SOL    HW2 1266   1.553   3.686   0.483
  123SOL     OW 1267   0.908   1.243   2.086
  123SOL    HW1 1268   0.910   1.305   2.164
  123SOL    HW2 1269   0.983   1.265   2.024
  124SOL     OW 1270   3.334   2.360   0.839
  124SOL    HW1 1271   3.344   2.434   0.906
  124SOL    HW2 1272   3.277   2.392   0.763
  125SOL     OW 1273   3.317   3.003   0.610
  125SOL    HW1 1274   3.416   3.015   0.605
  125SOL    HW2 1275   3.289   2.995   0.706
  126SOL     OW 1276   3.603   2.904   2.840
  126SOL    HW1 1277   3.618   2.986   2.895
  126SOL    HW2 1278   3.690   2.859   2.822
  127SOL     OW 1279   6.726   6.122   6.187
  127SOL    HW1 1280   6.772   6.058   6.126
  127SOL    HW2 1281   6.723   6.083   6.279
  128SOL     OW 1282   4.895   3.253   1.603
  128SOL    HW1 1283   4.937   3.318   1.540
  128SOL    HW2 1284   4.895   3.162   1.561
  129SOL     OW 1285   2.887   4.037   0.296
  129SOL    HW1 1286   2.896   4.066   0.200
  129SOL    HW2 1287   2.959   4.081   0.350
  130SOL     OW 1288   6.301   0.516   4.601
  130SOL    HW1 1289   6.272   0.573   4.678
  130SOL    HW2 1290   6.365   0.568   4.544
  131SOL     OW 1291   5.458   0.330   3.889
  131SOL    HW1 1292   5.505   0.336   3.977
  131SOL    HW2 1293   5.479   0.411   3.835
  132SOL     OW 1294   3.132   2.873   1.252
  132SOL    HW1 1295   3.196   2.945   1.225
  132SOL    HW2 1296   3.177   2.783   1.242
  133SOL     OW 1297   5.557   0.597   4.002
  133SOL    HW1 1298   5.550   0.606   3.902
  133SOL    HW2 1299   5.479   0.644   4.044
  134SOL     OW 1300   0.106   0.240   2.891
  134SOL    HW1 1301   0.041   0.218   2.819
  134SOL    HW2 1302   0.199   0.232   2.856
  135SOL     OW 1303   5.306   3.571   4.287
  135SOL    HW1 1304   5.227   3.583   4.226
  135SOL    HW2 1305   5.275   3.532   4.374
  136SOL     OW 1306   1.550   6.098   4.477
  136SOL    HW1 1307   1.484   6.022   4.466
  136SOL    HW2 1308   1.541   6.137   4.568
  137SOL     OW 1309   4.317   1.296   4.569
  137SOL    HW1 1310   4.223   1.262   4.565
  137SOL    HW2 1311   4.377   1.224   4.602
  138SOL     OW 1312   0.605   4.190   2.963
  138SOL    HW1 1313   0.687   4.225   3.009
  138SOL    HW2 1314   0.577   4.104   3.007
  139SOL     OW 1315   2.168   5.761   6.020
  139SOL    HW1 1316   2.253   5.740   6.069
  139SOL    HW2 1317   2.179   5.847   5.971
  140SOL     OW 1318   1.289   6.612   3.648
  140SOL    HW1 1319   1.262   6.697   3.603
  140SOL    HW2 1320   1.296   6.539   3.580
  141SOL     OW 1321   6.513   2.485   6.326
  141SOL    HW1 1322   6.575   2.426   6.275
  141SOL    HW2 1323   6.566   2.547   6.384
  142SOL     OW 1324   2.072   3.632   2.218
  142SOL    HW1 1325   2.133   3.565   2.177
  142SOL    HW2 1326   2.037   3.597   2.306
  143SOL     OW 1327   5.709   5.723   0.742
  143SOL    HW1 1328   5.743   5.759   0.829
  143SOL    HW2 1329   5.609   5.722   0.743
  144SOL     OW 1330   2.057   4.882   5.551
  144SOL    HW1 1331   2.019   4.905   5.461
  144SOL    HW2 1332   2.144   4.834   5.540
  145SOL     OW 1333   1.833   5.454   1.056
  145SOL    HW1 1334   1.799   5.462   1.150
  145SOL    HW2 1335   1.896   5.377   1.049
  146SOL     OW 1336   5.134   0.841   6.890
  146SOL    HW1 1337   5.123   0.935   6.856
  146SOL    HW2 1338   5.170   0.843   6.983
  147SOL     OW 1339   5.297   1.468   5.939
  147SOL    HW1 1340   5.261   1.402   6.005
  147SOL    HW2 1341   5.260   1.559   5.960
  148SOL     OW 1342   0.571   5.560   1.570
  148SOL    HW1 1343   0.537   5.650   1.598
  148SOL    HW2 1344   0.654   5.538   1.621
  149SOL     OW 1345   3.350   1.793   4.875
  149SOL    HW1 1346   3.401   1.707   4.872
  149SOL    HW2 1347   3.338   1.822   4.970
  150SOL     OW 1348   4.945   0.363   6.136
  150SOL    HW1 1349   5.034   0.403   6.112
  150SOL    HW2 1350   4.955   0.264   6.144
  151SOL     OW 1351   3.483   1.036   1.755
  151SOL    HW1 1352   3.414   1.060   1.824
  151SOL    HW2 1353   3.521   0.946   1.777
  152SOL     OW 1354   0.047   1.468   0.208
  152SOL    HW1 1355   6.992   1.424   0.240
  152SOL    HW2 1356   0.061   1.555   0.257
  153SOL     OW 1357   2.909   6.940   3.014
  153SOL    HW1 1358   3.004   6.943   2.986
  153SOL    HW2 1359   2.898   6.873   3.087
  154SOL     OW 1360   0.144   3.309   0.510
  154SOL    HW1 1361   0.204   3.251   0.565
  154SOL    HW2 1362   0.083   3.251   0.455
  155SOL     OW 1363   0.928   0.299   3.012
  155SOL    HW1 1364   1.026   0.305   3.032
  155SOL    HW2 1365   0.877   0.343   3.086
  156SOL     OW 1366   6.207   0.414   6.930
  156SOL    HW1 1367   6.294   0.379   6.895
  156SOL    HW2 1368   6.188   0.373   7.019
  157SOL     OW 1369   5.583   3.375   0.750
  157SOL    HW1 1370   5.636   3.327   0.820
  157SOL    HW2 1371   5.546   3.309   0.685
  158SOL     OW 1372   1.870   2.652   0.959
  158SOL    HW1 1373   1.872   2.584   0.886
  158SOL    HW2 1374   1.847   2.608   1.045
  159SOL     OW 1375   4.108   5.152   1.480
  159SOL    HW1 1376   4.086   5.180   1.387
  159SOL    HW2 1377   4.130   5.233   1.535
  160SOL     OW 1378   6.237   0.204   0.565
  160SOL    HW1 1379   6.250   0.264   0.644
  160SOL    HW2 1380   6.321   0.204   0.510
  161SOL     OW 1381   1.920   0.054   2.428
  161SOL    HW1 1382   1.947   0.030   2.335
  161SOL    HW2 1383   2.000   0.049   2.488
  162SOL     OW 1384   3.291   6.746   0.162
  162SOL    HW1 1385   3.330   6.748   0.254
  162SOL    HW2 1386   3.304   6.835   0.118
  163SOL     OW 1387   0.577   5.605   2.777
  163SOL    HW1 1388   0.557   5.703   2.788
  163SOL    HW2 1389   0.498   5.558   2.739
  164SOL     OW 1390   1.092   3.272   2.392
  164SOL    HW1 1391   1.052   3.324   2.467
  164SOL    HW2 1392   1.030   3.198   2.366
  165SOL     OW 1393   5.598   4.981   0.313
  165SOL    HW1 1394   5.673   5.047   0.307
  165SOL    HW2 1395   5.553   4.990   0.401
  166SOL     OW 1396   0.219   3.624   2.351
  166SOL    HW1 1397   0.148   3.603   2.284
  166SOL    HW2 1398   0.225   3.549   2.418
  167SOL     OW 1399   6.410   1.243   6.377
  167SOL    HW1 1400   6.327   1.274   6.424
  167SOL    HW2 1401   6.388   1.217   6.283
  168SOL     OW 1402   4.243   2.077   1.401
  168SOL    HW1 1403   4.261   2.162   1.353
  168SOL    HW2 1404   4.321   2.053   1.458
  169SOL     OW 1405   5.906   2.400   0.002
  169SOL    HW1 1406   5.914   2.315   0.054
  169SOL    HW2 1407   5.997   2.441   7.019
  170SOL     OW 1408   6.821   5.775   2.982
  170SOL    HW1 1409   6.845   5.871   2.992
  170SOL    HW2 1410   6.732   5.767   2.938
  171SOL     OW 1411   2.331   4.408   0.493
  171SOL    HW1 1412   2.370   4.497   0.516
  171SOL    HW2 1413   2.248   4.421   0.438
  172SOL     OW 1414   5.981   2.115   2.472
  172SOL    HW1 1415   5.933   2.196   2.507
  172SOL    HW2 1416   5.979   2.043   2.541
  173SOL     OW 1417   6.089   1.454   4.830
  173SOL    HW1 1418   6.103   1.494   4.739
  173SOL    HW2 1419   6.178   1.440   4.874
  174SOL     OW 1420   4.329   5.607   3.838
  174SOL    HW1 1421   4.295   5.562   3.920
  174SOL    HW2 1422   4.275   5.579   3.759
  175SOL     OW 1423   3.372   1.054   1.266
  175SOL    HW1 1424   3.420   0.998   1.199
  175SOL    HW2 1425   3.419   1.142   1.276
  176SOL     OW 1426   5.155   4.491   2.577
  176SOL    HW1 1427   5.210   4.558   2.527
  176SOL    HW2 1428   5.145   4.408   2.522
  177SOL     OW 1429   4.808   3.030   4.718
  177SOL    HW1 1430   4.755   2.945   4.725
  177SOL    HW2 1431   4.821   3.053   4.621
  178SOL     OW 1432   2.607   4.999   5.160
  178SOL    HW1 1433   2.701   4.998   5.124
  178SOL    HW2 1434   2.571   4.906   5.161
  179SOL     OW 1435   4.143   0.043   6.979
  179SOL    HW1 1436   4.077   6.996   6.987
  179SOL    HW2 1437   4.235   0.008   6.995
  180SOL     OW 1438   2.232   6.841   0.375
  180SOL    HW1 1439   2.301   6.778   0.409
  180SOL    HW2 1440   2.266   6.935   0.380
  181SOL     OW 1441   3.588   3.085   6.052
  181SOL    HW1 1442   3.533   3.058   6.131
  181SOL    HW2 1443   3.532   3.140   5.990
  182SOL     OW 1444   4.226   2.425   6.722
  182SOL    HW1 1445   4.283   2.358   6.769
  182SOL    HW2 1446   4.284   2.491   6.674
  183SOL     OW 1447   3.541   2.102   3.436
  183SOL    HW1 1448   3.635   2.136   3.426
  183SOL    HW2 1449   3.527   2.070   3.530
  184SOL     OW 1450   0.516   6.423   3.518
  184SOL    HW1 1451   0.591   6.391   3.461
  184SOL    HW2 1452   0.504   6.522   3.506
  185SOL     OW 1453   1.348   1.371   4.161
  185SOL    HW1 1454   1.301   1.300   4.109
  185SOL    HW2 1455   1.286   1.409   4.229
  186SOL     OW 1456   5.101   0.481   4.574
  186SOL    HW1 1457   5.133   0.547   4.642
  186SOL    HW2 1458   5.013   0.511   4.538
  187SOL     OW 1459   5.834   6.474   2.515
  187SOL    HW1 1460   5.809   6.559   2.560
  187SOL    HW2 1461   5.837   6.489   2.416
  188SOL     OW 1462   0.552   3.251   3.822
  188SOL    HW1 1463   0.552   3.246   3.922
  188SOL    HW2 1464   0.570   3.160   3.784
  189SOL     OW 1465   1.519   5.111   6.780
  189SOL    HW1 1466   1.549   5.021   6.748
  189SOL    HW2 1467   1.422   5.123   6.760
  190SOL     OW 1468   6.186   4.419   6.321
  190SOL    HW1 1469   6.197   4.346   6.254
  190SOL    HW2 1470   6.243   4.400   6.401
  191SOL     OW 1471   6.758   1.255   6.767
  191SOL    HW1 1472   6.732   1.159   6.782
  191SOL    HW2 1473   6.686   1.315   6.801
  192SOL     OW 1474   0.394   4.552   1.434
  192SOL    HW1 1475   0.489   4.577   1.449
  192SOL    HW2 1476   0.389   4.480   1.364
  193SOL     OW 1477   4.840   4.034   5.135
  193SOL    HW1 1478   4.862   3.990   5.048
  193SOL    HW2 1479   4.864   4.131   5.131
  194SOL     OW 1480   3.879   6.256   3.253
  194SOL    HW1 1481   3.865   6.178   3.314
  194SOL    HW2 1482   3.965   6.300   3.274
  195SOL     OW 1483   1.835   1.194   3.144
  195SOL    HW1 1484   1.886   1.133   3.084
  195SOL    HW2 1485   1.890   1.276   3.161
  196SOL     OW 1486   3.369   0.023   0.415
  196SOL    HW1 1487   3.399   0.087   0.486
  196SOL    HW2 1488   3.390   0.062   0.325
  197SOL     OW 1489   2.681   6.845   0.381
  197SOL    HW1 1490   2.617   6.838   0.304
  197SOL    HW2 1491   2.774   6.856   0.345
  198SOL     OW 1492   4.719   6.742   2.003
  198SOL    HW1 1493   4.631   6.747   1.956
  198SOL    HW2 1494   4.746   6.647   2.016
  199SOL     OW 1495   6.343   1.132   3.077
  199SOL    HW1 1496   6.363   1.037   3.051
  199SOL    HW2 1497   6.377   1.193   3.006
  200SOL     OW 1498   1.141   4.467   2.495
  200SOL    HW1 1499   1.153   4.404   2.571
  200SOL    HW2 1500   1.043   4.477   2.475
  201SOL     OW 1501   4.450   6.885   6.318
  201SOL    HW1 1502   4.524   6.873   6.384
  201SOL    HW2 1503   4.477   6.954   6.250
  202SOL     OW 1504   5.468   0.354   5.312
  202SOL    HW1 1505   5.564   0.356   5.285
  202SOL    HW2 1506   5.409   0.349   5.231
  203SOL     OW 1507   5.249   2.173   4.846
  203SOL    HW1 1508   5.198   2.176   4.932
  203SOL    HW2 1509   5.327   2.236   4.851
  204SOL     OW 1510   0.417   0.787   6.793
  204SOL    HW1 1511   0.341   0.722   6.800
  204SOL    HW2 1512   0.394   0.858   6.727
  205SOL     OW 1513   0.633   1.374   2.092
  205SOL    HW1 1514   0.618   1.383   1.993
  205SOL    HW2 1515   0.726   1.342   2.108
  206SOL     OW 1516   0.447   4.974   2.556
  206SOL    HW1 1517   0.348   4.965   2.563
  206SOL    HW2 1518   0.483   4.901   2.499
  207SOL     OW 1519   4.309   0.009   4.927
  207SOL    HW1 1520   4.392   7.015   4.876
  207SOL    HW2 1521   4.308   0.107   4.948
  208SOL     OW 1522   5.104   3.999   5.904
  208SOL    HW1 1523   5.080   3.904   5.926
  208SOL    HW2 1524   5.132   4.004   5.808
  209SOL     OW 1525   0.944   5.575   5.510
  209SOL    HW1 1526   1.020   5.511   5.520
  209SOL    HW2 1527   0.860   5.532   5.545
  210SOL     OW 1528   4.122   2.206   1.686
  210SOL    HW1 1529   4.050   2.176   1.749
  210SOL    HW2 1530   4.099   2.177   1.594
  211SOL     OW 1531   1.092   6.555   4.431
  211SOL    HW1 1532   1.038   6.625   4.477
  211SOL    HW2 1533   1.080   6.562   4.332
  212SOL     OW 1534   2.168   4.651   2.026
  212SOL    HW1 1535   2.096   4.596   1.983
  212SOL    HW2 1536   2.161   4.642   2.125
  213SOL     OW 1537   3.945   0.766   6.401
  213SOL    HW1 1538   3.962   0.835   6.331
  213SOL    HW2 1539   3.979   0.800   6.489
  214SOL     OW 1540   3.347   6.004   2.509
  214SOL    HW1 1541   3.416   5.932   2.522
  214SOL    HW2 1542   3.367   6.055   2.426
  215SOL     OW 1543   3.186   4.114   1.820
  215SOL    HW1 1544   3.097   4.082   1.852
  215SOL    HW2 1545   3.257   4.049   1.847
  216SOL     OW 1546   1.909   6.743   5.169
  216SOL    HW1 1547   1.913   6.766   5.072
  216SOL    HW2 1548   1.987   6.684   5.193
  217SOL     OW 1549   2.681   2.470   3.873
  217SOL    HW1 1550   2.623   2.433   3.800
  217SOL    HW2 1551   2.630   2.539   3.924
  218SOL     OW 1552   0.908   3.123   4.727
  218SOL    HW1 1553   0.984   3.084   4.675
  218SOL    HW2 1554   0.829   3.062   4.722
  219SOL     OW 1555   3.017   6.443   6.590
  219SOL    HW1 1556   3.084   6.384   6.546
  219SOL    HW2 1557   2.926   6.426   6.551
  220SOL     OW 1558   3.446   6.169   6.548
  220SOL    HW1 1559   3.457   6.073   6.520
  220SOL    HW2 1560   3.535   6.207   6.569
  221SOL     OW 1561   6.726   3.957   2.605
  221SOL    HW1 1562   6.752   3.888   2.672
  221SOL    HW2 1563   6.703   3.912   2.518
  222SOL     OW 1564   2.060   4.940   5.828
  222SOL    HW1 1565   2.150   4.983   5.838
  222SOL    HW2 1566   2.035   4.937   5.731
  223SOL     OW 1567   6.599   3.963   0.472
  223SOL    HW1 1568   6.658   3.965   0.552
  223SOL    HW2 1569   6.627   3.888   0.412
  224SOL     OW 1570   2.557   1.861   3.797
  224SOL    HW1 1571   2.571   1.847   3.895
  224SOL    HW2 1572   2.512   1.780   3.759
  225SOL     OW 1573   5.171   1.130   6.401
  225SOL    HW1 1574   5.244   1.180   6.447
  225SOL    HW2 1575   5.207   1.090   6.316
  226SOL     OW 1576   0.548   7.022   6.274
  226SOL    HW1 1577   0.500   6.998   6.190
  226SOL    HW2 1578   0.573   6.938   6.324
  227SOL     OW 1579   1.498   4.356   2.174
  227SOL    HW1 1580   1.490   4.369   2.076
  227SOL    HW2 1581   1.421   4.402   2.220
  228SOL     OW 1582   3.263   6.244   3.861
  228SOL    HW1 1583   3.285   6.340   3.879
  228SOL    HW2 1584   3.249   6.231   3.763
  229SOL     OW 1585   5.865   6.054   0.496
  229SOL    HW1 1586   5.902   5.970   0.456
  229SOL    HW2 1587   5.772   6.037   0.529
  230SOL     OW 1588   3.019   4.816   3.023
  230SOL    HW1 1589   2.988   4.902   2.982
  230SOL    HW2 1590   2.974   4.739   2.977
  231SOL     OW 1591   6.166   1.740   5.916
  231SOL    HW1 1592   6.105   1.664   5.935
  231SOL    HW2 1593   6.195   1.782   6.002
  232SOL     OW 1594   0.817   4.005   6.113
  232SOL    HW1 1595   0.797   4.009   6.015
  232SOL    HW2 1596   0.752   3.945   6.158
  233SOL     OW 1597   2.114   0.735   4.227
  233SOL    HW1 1598   2.213   0.726   4.240
  233SOL    HW2 1599   2.092   0.830   4.206
  234SOL     OW 1600   2.946   6.274   5.446
  234SOL    HW1 1601   2.997   6.219   5.512
  234SOL    HW2 1602   3.000   6.284   5.362
  235SOL     OW 1603   2.956   3.516   2.452
  235SOL    HW1 1604   2.966   3.605   2.407
  235SOL    HW2 1605   2.922   3.449   2.386
  236SOL     OW 1606   6.229   2.809   6.627
  236SOL    HW1 1607   6.184   2.759   6.553
  236SOL    HW2 1608   6.327   2.786   6.628
  237SOL     OW 1609   6.700   6.661   0.843
  237SOL    HW1 1610   6.758   6.641   0.763
  237SOL    HW2 1611   6.633   6.589   0.855
  238SOL     OW 1612   6.237   2.158   7.022
  238SOL    HW1 1613   6.223   2.207   0.080
  238SOL    HW2 1614   6.332   2.168   6.993
  239SOL     OW 1615   6.590   5.145   0.005
  239SOL    HW1 1616   6.507   5.165   6.980
  239SOL    HW2 1617   6.581   5.054   0.047
  240SOL     OW 1618   0.028   2.978   5.311
  240SOL    HW1 1619   0.008   3.001   5.406
  240SOL    HW2 1620   0.126   2.992   5.294
  241SOL     OW 1621   1.099   0.357   3.896
  241SOL    HW1 1622   1.017   0.413   3.902
  241SOL    HW2 1623   1.074   0.260   3.900
  242SOL     OW 1624   2.327   2.990   6.283
  242SOL    HW1 1625   2.347   3.056   6.211
  242SOL    HW2 1626   2.237   2.950   6.267
  243SOL     OW 1627   5.123   6.788   6.366
  243SOL    HW1 1628   5.103   6.733   6.446
  243SOL    HW2 1629   5.073   6.874   6.371
  244SOL     OW 1630   4.798   2.964   4.437
  244SOL    HW1 1631   4.800   2.992   4.342
  244SOL    HW2 1632   4.794   2.864   4.443
  245SOL     OW 1633   6.827   2.284   4.454
  245SOL    HW1 1634   6.735   2.321   4.449
  245SOL    HW2 1635   6.853   2.275   4.551
  246SOL     OW 1636   5.549   2.990   3.312
  246SOL    HW1 1637   5.616   3.023   3.245
  246SOL    HW2 1638   5.523   2.896   3.290
  247SOL     OW 1639   1.919   1.792   2.317
  247SOL    HW1 1640   1.891   1.749   2.231
  247SOL    HW2 1641   1.857   1.869   2.337
  248SOL     OW 1642   4.558   2.422   4.862
  248SOL    HW1 1643   4.529   2.363   4.938
  248SOL    HW2 1644   4.602   2.504   4.899
  249SOL     OW 1645   4.825   7.001   5.307
  249SOL    HW1 1646   4.880   0.033   5.248
  249SOL    HW2 1647   4.880   6.922   5.334
  250SOL     OW 1648   4.595   2.163   5.659
  250SOL    HW1 1649   4.620   2.069   5.682
  250SOL    HW2 1650   4.595   2.218   5.742
  251SOL     OW 1651   4.443   4.556   5.989
  251SOL    HW1 1652   4.462   4.650   6.017
  251SOL    HW2 1653   4.352   4.530   6.020
  252SOL     OW 1654   6.847   0.579   6.930
  252SOL    HW1 1655   6.860   0.498   6.988
  252SOL    HW2 1656   6.805   0.551   6.843
  253SOL     OW 1657   2.140   4.443   0.295
  253SOL    HW1 1658   2.176   4.433   0.202
  253SOL    HW2 1659   2.055   4.496   0.292
  254SOL     OW 1660   6.568   2.853   3.458
  254SOL    HW1 1661   6.543   2.933   3.404
  254SOL    HW2 1662   6.516   2.774   3.426
  255SOL     OW 1663   2.038   2.895   4.156
  255SOL    HW1 1664   1.978   2.973   4.141
  255SOL    HW2 1665   1.992   2.829   4.215
  256SOL     OW 1666   6.742   4.703   0.258
  256SOL    HW1 1667   6.760   4.725   0.354
  256SOL    HW2 1668   6.754   4.605   0.243
  257SOL     OW 1669   3.561   5.449   5.292
  257SOL    HW1 1670   3.613   5.478   5.212
  257SOL    HW2 1671   3.466   5.430   5.265
  258SOL     OW 1672   5.736   3.875   4.663
  258SOL    HW1 1673   5.713   3.802   4.599
  258SOL    HW2 1674   5.835   3.888   4.666
  259SOL     OW 1675   2.179   3.040   2.267
  259SOL    HW1 1676   2.108   2.974   2.292
  259SOL    HW2 1677   2.138   3.128   2.245
  260SOL     OW 1678   4.399   0.713   1.014
  260SOL    HW1 1679   4.353   0.627   0.991
  260SOL    HW2 1680   4.336   0.772   1.064
  261SOL     OW 1681   6.672   3.758   1.200
  261SOL    HW1 1682   6.590   3.762   1.257
  261SOL    HW2 1683   6.753   3.773   1.255
  262SOL     OW 1684   0.677   3.972   1.745
  262SOL    HW1 1685   0.609   3.908   1.779
  262SOL    HW2 1686   0.739   3.925   1.682
  263SOL     OW 1687   0.303   1.273   3.779
  263SOL    HW1 1688   0.346   1.328   3.708
  263SOL    HW2 1689   0.232   1.215   3.739
  264SOL     OW 1690   5.836   4.463   5.425
  264SOL    HW1 1691   5.813   4.425   5.335
  264SOL    HW2 1692   5.827   4.562   5.422
  265SOL     OW 1693   4.885   3.866   3.071
  265SOL    HW1 1694   4.896   3.835   3.165
  265SOL    HW2 1695   4.869   3.787   3.011
  266SOL     OW 1696   3.361   2.952   6.135
  266SOL    HW1 1697   3.269   2.931   6.167
  266SOL    HW2 1698   3.427   2.899   6.187
  267SOL     OW 1699   6.642   2.573   5.808
  267SOL    HW1 1700   6.722   2.513   5.808
  267SOL    HW2 1701   6.606   2.580   5.715
  268SOL     OW 1702   5.109   5.654   5.343
  268SOL    HW1 1703   5.052   5.641   5.261
  268SOL    HW2 1704   5.096   5.577   5.405
  269SOL     OW 1705   1.544   1.926   0.464
  269SOL    HW1 1706   1.611   1.879   0.407
  269SOL    HW2 1707   1.452   1.906   0.431
  270SOL     OW 1708   6.987   0.874   1.967
  270SOL    HW1 1709   6.894   0.893   1.938
  270SOL    HW2 1710   0.018   0.862   1.887
  271SOL     OW 1711   2.885   1.676   0.540
  271SOL    HW1 1712   2.901   1.762   0.493
  271SOL    HW2 1713   2.846   1.610   0.477
  272SOL     OW 1714   3.280   5.447   4.298
  272SOL    HW1 1715   3.336   5.365   4.285
  272SOL    HW2 1716   3.294   5.483   4.391
  273SOL     OW 1717   1.439   5.391   5.211
  273SOL    HW1 1718   1.417   5.458   5.140
  273SOL    HW2 1719   1.394   5.417   5.296
  274SOL     OW 1720   5.485   2.178   4.186
  274SOL    HW1 1721   5.489   2.165   4.087
  274SOL    HW2 1722   5.518   2.269   4.210
  275SOL     OW 1723   0.549   5.740   6.214
  275SOL    HW1 1724   0.569   5.669   6.146
  275SOL    HW2 1725   0.459   5.722   6.255
  276SOL     OW 1726   6.581   5.443   3.829
  276SOL    HW1 1727   6.668   5.467   3.786
  276SOL    HW2 1728   6.559   5.348   3.808
  277SOL     OW 1729   3.078   1.309   6.645
  277SOL    HW1 1730   3.097   1.261   6.560
  277SOL    HW2 1731   3.071   1.243   6.720
  278SOL     OW 1732   6.447   3.506   2.202
  278SOL    HW1 1733   6.382   3.528   2.274
  278SOL    HW2 1734   6.490   3.418   2.222
  279SOL     OW 1735   6.338   2.835   4.276
  279SOL    HW1 1736   6.436   2.828   4.294
  279SOL    HW2 1737   6.321   2.820   4.179
  280SOL     OW 1738   4.284   6.945   3.286
  280SOL    HW1 1739   4.302   6.975   3.192
  280SOL    HW2 1740   4.314   6.851   3.297
  281SOL     OW 1741   2.858   4.808   3.295
  281SOL    HW1 1742   2.874   4.818   3.393
  281SOL    HW2 1743   2.942   4.825   3.245
  282SOL     OW 1744   3.979   2.477   5.360
  282SOL    HW1 1745   4.039   2.519   5.292
  282SOL    HW2 1746   3.920   2.410   5.315
  283SOL     OW 1747   5.902   0.644   5.843
  283SOL    HW1 1748   5.847   0.571   5.883
  283SOL    HW2 1749   5.997   0.614   5.836
  284SOL     OW 1750   0.934   4.548   4.663
  284SOL    HW1 1751   0.999   4.560   4.588
  284SOL    HW2 1752   0.983   4.520   4.745
  285SOL     OW 1753   5.046   5.644   0.328
  285SOL    HW1 1754   4.963   5.682   0.368
  285SOL    HW2 1755   5.121   5.650   0.393
  286SOL     OW 1756   4.443   4.756   5.619
  286SOL    HW1 1757   4.375   4.701   5.571
  286SOL    HW2 1758   4.535   4.726   5.592
  287SOL     OW 1759   1.415   5.532   6.409
  287SOL    HW1 1760   1.431   5.440   6.374
  287SOL    HW2 1761   1.326   5.565   6.378
  288SOL     OW 1762   3.984   1.200   0.070
  288SOL    HW1 1763   3.976   1.195   6.998
  288SOL    HW2 1764   3.927   1.274   0.105
  289SOL     OW 1765   0.412   5.337   5.583
  289SOL    HW1 1766   0.414   5.328   5.484
  289SOL    HW2 1767   0.367   5.422   5.608
  290SOL     OW 1768   4.859   1.072   4.064
  290SOL    HW1 1769   4.837   1.004   3.994
  290SOL    HW2 1770   4.839   1.163   4.030
  291SOL     OW 1771   4.157   1.230   4.209
  291SOL    HW1 1772   4.086   1.218   4.140
  291SOL    HW2 1773   4.171   1.328   4.226
  292SOL     OW 1774   4.999   1.376   3.842
  292SOL    HW1 1775   4.960   1.447   3.783
  292SOL    HW2 1776   5.087   1.346   3.805
  293SOL     OW 1777   4.190   6.387   1.570
  293SOL    HW1 1778   4.241   6.469   1.543
  293SOL    HW2 1779   4.094   6.411   1.585
  294SOL     OW 1780   5.834   5.606   7.000
  294SOL    HW1 1781   5.742   5.643   6.990
  294SOL    HW2 1782   5.880   5.609   6.911
  295SOL     OW 1783   2.255   2.211   5.262
  295SOL    HW1 1784   2.309   2.192   5.180
  295SOL    HW2 1785   2.301   2.280   5.318
  296SOL     OW 1786   6.850   2.490   1.765
  296SOL    HW1 1787   6.800   2.559   1.713
  296SOL    HW2 1788   6.843   2.510   1.863
  297SOL     OW 1789   3.142   5.143   3.313
  297SOL    HW1 1790   3.148   5.045   3.293
  297SOL    HW2 1791   3.173   5.160   3.406
  298SOL     OW 1792   4.521   6.750   0.127
  298SOL    HW1 1793   4.468   6.710   0.051
  298SOL    HW2 1794   4.510   6.693   0.208
  299SOL     OW 1795   4.356   2.115   6.795
  299SOL    HW1 1796   4.358   2.117   6.895
  299SOL    HW2 1797   4.262   2.125   6.763
  300SOL     OW 1798   4.265   0.478   2.680
  300SOL    HW1 1799   4.219   0.567   2.677
  300SOL    HW2 1800   4.364   0.491   2.671
  301SOL     OW 1801   5.054   1.546   1.103
  301SOL    HW1 1802   5.127   1.512   1.163
  301SOL    HW2 1803   4.993   1.606   1.155
  302SOL     OW 1804   0.066   0.970   2.539
  302SOL    HW1 1805   0.083   0.885   2.488
  302SOL    HW2 1806   0.001   0.952   2.613
  303SOL     OW 1807   6.425   5.731   1.969
  303SOL    HW1 1808   6.446   5.813   1.915
  303SOL    HW2 1809   6.423   5.755   2.066
  304SOL     OW 1810   2.093   6.669   6.684
  304SOL    HW1 1811   1.994   6.675   6.673
  304SOL    HW2 1812   2.125   6.582   6.646
  305SOL     OW 1813   1.249   3.014   1.047
  305SOL    HW1 1814   1.200   3.027   1.133
  305SOL    HW2 1815   1.278   3.103   1.012
  306SOL     OW 1816   0.317   0.977   2.697
  306SOL    HW1 1817   0.223   0.999   2.671
  306SOL    HW2 1818   0.378   1.050   2.665
  307SOL     OW 1819   4.236   4.054   0.034
  307SOL    HW1 1820   4.317   4.111   0.046
  307SOL    HW2 1821   4.162   4.109   7.023
  308SOL     OW 1822   5.801   2.364   4.209
  308SOL    HW1 1823   5.800   2.332   4.114
  308SOL    HW2 1824   5.868   2.437   4.219
  309SOL     OW 1825   1.658   6.185   0.113
  309SOL    HW1 1826   1.581   6.250   0.113
  309SOL    HW2 1827   1.743   6.235   0.096
  310SOL     OW 1828   5.116   6.450   4.736
  310SOL    HW1 1829   5.035   6.426   4.789
  310SOL    HW2 1830   5.093   6.523   4.671
  311SOL     OW 1831   2.906   5.128   2.697
  311SOL    HW1 1832   2.971   5.154   2.627
  311SOL    HW2 1833   2.954   5.116   2.784
  312SOL     OW 1834   3.650   2.139   3.872
  312SOL    HW1 1835   3.555   2.109   3.883
  312SOL    HW2 1836   3.694   2.085   3.799
  313SOL     OW 1837   3.515   3.980   2.415
  313SOL    HW1 1838   3.540   4.024   2.329
  313SOL    HW2 1839   3.549   4.034   2.492
  314SOL     OW 1840   2.524   4.680   5.420
  314SOL    HW1 1841   2.564   4.669   5.329
  314SOL    HW2 1842   2.594   4.659   5.489
  315SOL     OW 1843   0.897   2.237   4.122
  315SOL    HW1 1844   0.971   2.169   4.118
  315SOL    HW2 1845   0.936   2.329   4.132
  316SOL     OW 1846   3.735   0.541   4.335
  316SOL    HW1 1847   3.768   0.520   4.243
  316SOL    HW2 1848   3.802   0.510   4.402
  317SOL     OW 1849   0.175   1.590   1.402
  317SOL    HW1 1850   0.187   1.663   1.470
  317SOL    HW2 1851   0.083   1.553   1.409
  318SOL     OW 1852   6.463   6.955   0.064
  318SOL    HW1 1853   6.535   7.015   0.026
  318SOL    HW2 1854   6.456   6.873   0.008
  319SOL     OW 1855   6.489   1.531   3.529
  319SOL    HW1 1856   6.486   1.480   3.615
  319SOL    HW2 1857   6.426   1.608   3.534
  320SOL     OW 1858   5.691   2.653   0.210
  320SOL    HW1 1859   5.636   2.589   0.156
  320SOL    HW2 1860   5.670   2.746   0.182
  321SOL     OW 1861   4.031   2.294   6.829
  321SOL    HW1 1862   3.987   2.357   6.893
  321SOL    HW2 1863   4.096   2.344   6.772
  322SOL     OW 1864   3.232   3.134   4.308
  322SOL    HW1 1865   3.188   3.116   4.396
  322SOL    HW2 1866   3.228   3.232   4.289
  323SOL     OW 1867   1.012   2.718   5.628
  323SOL    HW1 1868   1.085   2.786   5.625
  323SOL    HW2 1869   1.029   2.648   5.558
  324SOL     OW 1870   2.523   0.301   3.088
  324SOL    HW1 1871   2.604   0.246   3.109
  324SOL    HW2 1872   2.551   0.385   3.042
  325SOL     OW 1873   0.507   3.054   2.163
  325SOL    HW1 1874   0.537   3.040   2.068
  325SOL    HW2 1875   0.490   3.151   2.179
  326SOL     OW 1876   0.772   4.502   6.201
  326SOL    HW1 1877   0.870   4.510   6.181
  326SOL    HW2 1878   0.743   4.408   6.188
  327SOL     OW 1879   2.333   4.654   2.952
  327SOL    HW1 1880   2.312   4.708   3.034
  327SOL    HW2 1881   2.397   4.581   2.976
  328SOL     OW 1882   2.028   4.955   1.903
  328SOL    HW1 1883   2.061   5.049   1.900
  328SOL    HW2 1884   2.047   4.916   1.993
  329SOL     OW 1885   2.647   3.702   5.814
  329SOL    HW1 1886   2.579   3.749   5.757
  329SOL    HW2 1887   2.653   3.606   5.787
  330SOL     OW 1888   3.066   6.477   0.923
  330SOL    HW1 1889   3.135   6.418   0.881
  330SOL    HW2 1890   3.032   6.432   1.006
  331SOL     OW 1891   4.546   5.470   0.379
  331SOL    HW1 1892   4.581   5.412   0.304
  331SOL    HW2 1893   4.559   5.566   0.356
  332SOL     OW 1894   5.491   2.893   5.327
  332SOL    HW1 1895   5.510   2.816   5.389
  332SOL    HW2 1896   5.578   2.932   5.296
  333SOL     OW 1897   4.420   0.770   5.585
  333SOL    HW1 1898   4.335   0.823   5.587
  333SOL    HW2 1899   4.418   0.701   5.656
  334SOL     OW 1900   3.054   2.089   0.297
  334SOL    HW1 1901   3.123   2.036   0.346
  334SOL    HW2 1902   3.026   2.167   0.353
  335SOL     OW 1903   3.582   0.336   6.511
  335SOL    HW1 1904   3.536   0.384   6.437
  335SOL    HW2 1905   3.515   0.281   6.562
  336SOL     OW 1906   3.126   0.895   3.322
  336SOL    HW1 1907   3.185   0.817   3.303
  336SOL    HW2 1908   3.034   0.877   3.286
  337SOL     OW 1909   6.878   3.440   5.337
  337SOL    HW1 1910   6.831   3.528   5.324
  337SOL    HW2 1911   6.921   3.440   5.427
  338SOL     OW 1912   3.167   2.370   1.344
  338SOL    HW1 1913   3.171   2.437   1.418
  338SOL    HW2 1914   3.213   2.286   1.372
  339SOL     OW 1915   4.404   5.535   4.642
  339SOL    HW1 1916   4.458   5.583   4.711
  339SOL    HW2 1917   4.460   5.519   4.561
  340SOL     OW 1918   5.510   3.308   4.462
  340SOL    HW1 1919   5.552   3.223   4.494
  340SOL    HW2 1920   5.512   3.309   4.362
  341SOL     OW 1921   6.159   6.505   4.475
  341SOL    HW1 1922   6.235   6.562   4.505
  341SOL    HW2 1923   6.073   6.543   4.510
  342SOL     OW 1924   5.748   3.498   0.158
  342SOL    HW1 1925   5.689   3.578   0.159
  342SOL    HW2 1926   5.691   3.416   0.149
  343SOL     OW 1927   0.799   6.054   1.659
  343SOL    HW1 1928   0.751   6.141   1.646
  343SOL    HW2 1929   0.783   5.995   1.580
  344SOL     OW 1930   0.668   3.284   1.878
  344SOL    HW1 1931   0.574   3.254   1.860
  344SOL    HW2 1932   0.679   3.303   1.976
  345SOL     OW 1933   5.229   2.238   3.641
  345SOL    HW1 1934   5.209   2.140   3.637
  345SOL    HW2 1935   5.177   2.285   3.570
  346SOL     OW 1936   1.725   1.165   2.252
  346SOL    HW1 1937   1.654   1.124   2.309
  346SOL    HW2 1938   1.725   1.123   2.162
  347SOL     OW 1939   3.041   5.699   0.303
  347SOL    HW1 1940   3.028   5.798   0.311
  347SOL    HW2 1941   3.099   5.679   0.224
  348SOL     OW 1942   4.850   3.706   2.705
  348SOL    HW1 1943   4.859   3.669   2.612
  348SOL    HW2 1944   4.818   3.800   2.699
  349SOL     OW 1945   6.948   5.152   1.617
  349SOL    HW1 1946   6.979   5.171   1.711
  349SOL    HW2 1947   6.857   5.189   1.604
  350SOL     OW 1948   2.948   1.883   1.589
  350SOL    HW1 1949   3.009   1.914   1.663
  350SOL    HW2 1950   2.860   1.929   1.597
  351SOL     OW 1951   2.407   3.398   0.907
  351SOL    HW1 1952   2.398   3.440   0.997
  351SOL    HW2 1953   2.478   3.446   0.855
  352SOL     OW 1954   3.493   6.759   3.682
  352SOL    HW1 1955   3.543   6.692   3.737
  352SOL    HW2 1956   3.409   6.718   3.647
  353SOL     OW 1957   3.414   0.180   0.182
  353SOL    HW1 1958   3.471   0.213   0.107
  353SOL    HW2 1959   3.386   0.258   0.239
  354SOL     OW 1960   4.534   2.282   1.595
  354SOL    HW1 1961   4.453   2.325   1.636
  354SOL    HW2 1962   4.507   2.195   1.554
  355SOL     OW 1963   1.502   4.550   3.086
  355SOL    HW1 1964   1.525   4.583   3.177
  355SOL    HW2 1965   1.403   4.553   3.073
  356SOL     OW 1966   2.288   0.534   5.363
  356SOL    HW1 1967   2.365   0.515   5.423
  356SOL    HW2 1968   2.242   0.618   5.392
  357SOL     OW 1969   6.948   6.786   5.350
  357SOL    HW1 1970   6.852   6.794   5.375
  357SOL    HW2 1971   6.962   6.703   5.296
  358SOL     OW 1972   4.534   6.214   0.514
  358SOL    HW1 1973   4.461   6.158   0.474
  358SOL    HW2 1974   4.496   6.303   0.541
  359SOL     OW 1975   3.056   1.948   2.011
  359SOL    HW1 1976   3.099   1.975   1.925
  359SOL    HW2 1977   2.963   1.984   2.015
  360SOL     OW 1978   1.188   4.516   5.545
  360SOL    HW1 1979   1.282   4.503   5.514
  360SOL    HW2 1980   1.187   4.527   5.645
  361SOL     OW 1981   6.703   6.417   3.145
  361SOL    HW1 1982   6.660   6.349   3.085
  361SOL    HW2 1983   6.759   6.370   3.213
  362SOL     OW 1984   3.429   2.674   1.563
  362SOL    HW1 1985   3.462   2.597   1.509
  362SOL    HW2 1986   3.479   2.678   1.650
  363SOL     OW 1987   5.524   3.977   2.958
  363SOL    HW1 1988   5.464   4.055   2.976
  363SOL    HW2 1989   5.593   3.971   3.030
  364SOL     OW 1990   6.636   5.069   6.373
  364SOL    HW1 1991   6.591   5.156   6.396
  364SOL    HW2 1992   6.720   5.060   6.427
  365SOL     OW 1993   5.433   0.083   2.317
  365SOL    HW1 1994   5.353   0.051   2.266
  365SOL    HW2 1995   5.488   0.144   2.259
  366SOL     OW 1996   5.350   1.470   6.938
  366SOL    HW1 1997   5.427   1.433   6.885
  366SOL    HW2 1998   5.306   1.396   6.989
  367SOL     OW 1999   5.891   2.368   1.288
  367SOL    HW1 2000   5.976   2.422   1.287
  367SOL    HW2 2001   5.905   2.285   1.341
  368SOL     OW 2002   0.741   2.678   5.657
  368SOL    HW1 2003   0.839   2.691   5.648
  368SOL    HW2 2004   0.695   2.766   5.666
  369SOL     OW 2005   5.734   4.998   2.346
  369SOL    HW1 2006   5.830   5.017   2.362
  369SOL    HW2 2007   5.725   4.922   2.282
  370SOL     OW 2008   1.423   1.484   5.254
  370SOL    HW1 2009   1.378   1.478   5.165
  370SOL    HW2 2010   1.357   1.515   5.322
  371SOL     OW 2011   1.542   4.872   6.048
  371SOL    HW1 2012   1.500   4.782   6.056
  371SOL    HW2 2013   1.508   4.918   5.966
  372SOL     OW 2014   1.779   0.117   6.283
  372SOL    HW1 2015   1.781   0.158   6.192
  372SOL    HW2 2016   1.687   0.126   6.321
  373SOL     OW 2017   6.090   6.175   4.828
  373SOL    HW1 2018   6.103   6.076   4.831
  373SOL    HW2 2019   6.090   6.206   4.732
  374SOL     OW 2020   2.654   1.801   4.102
  374SOL    HW1 2021   2.713   1.726   4.075
  374SOL    HW2 2022   2.709   1.874   4.143
  375SOL     OW 2023   0.595   4.437   3.694
  375SOL    HW1 2024   0.564   4.411   3.785
  375SOL    HW2 2025   0.525   4.415   3.626
  376SOL     OW 2026   2.143   1.083   5.236
  376SOL    HW1 2027   2.208   1.080   5.312
  376SOL    HW2 2028   2.124   1.178   5.213
  377SOL     OW 2029   1.127   2.005   0.826
  377SOL    HW1 2030   1.218   2.033   0.856
  377SOL    HW2 2031   1.094   1.931   0.884
  378SOL     OW 2032   4.632   2.312   6.898
  378SOL    HW1 2033   4.588   2.381   6.956
  378SOL    HW2 2034   4.571   2.233   6.888
  379SOL     OW 2035   6.118   2.159   1.644
  379SOL    HW1 2036   6.144   2.200   1.557
  379SOL    HW2 2037   6.030   2.197   1.674
  380SOL     OW 2038   3.262   1.103   0.962
  380SOL    HW1 2039   3.235   1.166   0.889
  380SOL    HW2 2040   3.338   1.046   0.931
  381SOL     OW 2041   1.878   4.140   3.337
  381SOL    HW1 2042   1.894   4.135   3.436
  381SOL    HW2 2043   1.962   4.118   3.288
  382SOL     OW 2044   6.221   0.709   0.432
  382SOL    HW1 2045   6.241   0.611   0.438
  382SOL    HW2 2046   6.262   0.746   0.349
  383SOL     OW 2047   4.013   3.450   6.554
  383SOL    HW1 2048   4.087   3.509   6.585
  383SOL    HW2 2049   3.934   3.506   6.529
  384SOL     OW 2050   6.474   5.451   4.679
  384SOL    HW1 2051   6.501   5.486   4.769
  384SOL    HW2 2052   6.417   5.519   4.632
  385SOL     OW 2053   3.075   4.739   5.214
  385SOL    HW1 2054   3.058   4.795   5.294
  385SOL    HW2 2055   3.001   4.673   5.202
  386SOL     OW 2056   3.073   6.806   4.021
  386SOL    HW1 2057   2.990   6.781   3.970
  386SOL    HW2 2058   3.048   6.852   4.106
  387SOL     OW 2059   1.128   6.463   2.595
  387SOL    HW1 2060   1.153   6.383   2.539
  387SOL    HW2 2061   1.211   6.510   2.624
  388SOL     OW 2062   1.152   2.656   5.352
  388SOL    HW1 2063   1.106   2.571   5.378
  388SOL    HW2 2064   1.247   2.637   5.328
  389SOL     OW 2065   3.829   3.660   1.793
  389SOL    HW1 2066   3.823   3.621   1.701
  389SOL    HW2 2067   3.743   3.642   1.842
  390SOL     OW 2068   2.542   1.918   2.293
  390SOL    HW1 2069   2.611   1.984   2.322
  390SOL    HW2 2070   2.539   1.842   2.359
  391SOL     OW 2071   2.296   2.257   6.605
  391SOL    HW1 2072   2.201   2.284   6.621
  391SOL    HW2 2073   2.302   2.158   6.594
  392SOL     OW 2074   1.498   4.734   0.333
  392SOL    HW1 2075   1.571   4.668   0.315
  392SOL    HW2 2076   1.500   4.760   0.429
  393SOL     OW 2077   1.146   4.378   6.364
  393SOL    HW1 2078   1.158   4.456   6.425
  393SOL    HW2 2079   1.108   4.301   6.416
  394SOL     OW 2080   6.937   1.780   0.028
  394SOL    HW1 2081   6.897   1.711   6.995
  394SOL    HW2 2082   6.868   1.848   0.052
  395SOL     OW 2083   4.939   3.589   2.921
  395SOL    HW1 2084   4.881   3.618   2.845
  395SOL    HW2 2085   5.034   3.583   2.890
  396SOL     OW 2086   3.400   3.745   1.189
  396SOL    HW1 2087   3.488   3.786   1.170
  396SOL    HW2 2088   3.412   3.648   1.210
  397SOL     OW 2089   5.559   1.321   5.886
  397SOL    HW1 2090   5.499   1.399   5.905
  397SOL    HW2 2091   5.610   1.297   5.968
  398SOL     OW 2092   0.822   6.222   2.291
  398SOL    HW1 2093   0.839   6.269   2.204
  398SOL    HW2 2094   0.737   6.257   2.332
  399SOL     OW 2095   6.276   6.039   2.801
  399SOL    HW1 2096   6.287   6.119   2.742
  399SOL    HW2 2097   6.250   5.960   2.745
  400SOL     OW 2098   6.695   6.409   5.713
  400SOL    HW1 2099   6.651   6.471   5.648
  400SOL    HW2 2100   6.787   6.386   5.680
  401SOL     OW 2101   5.455   0.595   5.914
  401SOL    HW1 2102   5.489   0.687   5.935
  401SOL    HW2 2103   5.517   0.527   5.954
  402SOL     OW 2104   5.565   6.935   3.188
  402SOL    HW1 2105   5.640   6.869   3.193
  402SOL    HW2 2106   5.600   7.027   3.207
  403SOL     OW 2107   3.867   2.173   4.067
  403SOL    HW1 2108   3.913   2.084   4.075
  403SOL    HW2 2109   3.801   2.169   3.992
  404SOL     OW 2110   1.585   4.985   4.289
  404SOL    HW1 2111   1.554   5.047   4.217
  404SOL    HW2 2112   1.626   5.038   4.363
  405SOL     OW 2113   1.567   3.718   1.782
  405SOL    HW1 2114   1.657   3.690   1.815
  405SOL    HW2 2115   1.559   3.818   1.786
  406SOL     OW 2116   1.090   4.602   4.453
  406SOL    HW1 2117   1.176   4.559   4.427
  406SOL    HW2 2118   1.108   4.695   4.487
  407SOL     OW 2119   1.297   0.677   4.030
  407SOL    HW1 2120   1.329   0.772   4.028
  407SOL    HW2 2121   1.376   0.616   4.028
  408SOL     OW 2122   1.358   2.164   2.873
  408SOL    HW1 2123   1.405   2.076   2.867
  408SOL    HW2 2124   1.353   2.193   2.968
  409SOL     OW 2125   6.907   3.161   1.490
  409SOL    HW1 2126   6.963   3.112   1.423
  409SOL    HW2 2127   6.841   3.219   1.442
  410SOL     OW 2128   1.794   1.761   1.400
  410SOL    HW1 2129   1.723   1.701   1.365
  410SOL    HW2 2130   1.876   1.707   1.421
  411SOL     OW 2131   5.733   0.206   1.830
  411SOL    HW1 2132   5.676   0.259   1.892
  411SOL    HW2 2133   5.736   0.251   1.741
  412SOL     OW 2134   4.457   5.902   4.036
  412SOL    HW1 2135   4.426   5.976   3.977
  412SOL    HW2 2136   4.382   5.838   4.053
  413SOL     OW 2137   5.119   3.952   1.553
  413SOL    HW1 2138   5.092   4.047   1.540
  413SOL    HW2 2139   5.067   3.912   1.628
  414SOL     OW 2140   3.569   5.599   3.214
  414SOL    HW1 2141   3.622   5.576   3.132
  414SOL    HW2 2142   3.474   5.617   3.188
  415SOL     OW 2143   0.906   6.094   6.806
  415SOL    HW1 2144   0.843   6.171   6.817
  415SOL    HW2 2145   0.984   6.106   6.868
  416SOL     OW 2146   4.985   6.699   4.032
  416SOL    HW1 2147   4.969   6.795   4.057
  416SOL    HW2 2148   5.016   6.693   3.938
  417SOL     OW 2149   2.792   5.375   6.298
  417SOL    HW1 2150   2.860   5.368   6.224
  417SOL    HW2 2151   2.748   5.287   6.310
  418SOL     OW 2152   4.269   6.381   0.005
  418SOL    HW1 2153   4.200   6.314   0.032
  418SOL    HW2 2154   4.360   6.345   0.028
  419SOL     OW 2155   2.025   0.346   1.840
  419SOL    HW1 2156   1.991   0.436   1.811
  419SOL    HW2 2157   2.115   0.330   1.800
  420SOL     OW 2158   5.718   1.379   0.062
  420SOL    HW1 2159   5.693   1.366   6.994
  420SOL    HW2 2160   5.798   1.440   0.067
  421SOL     OW 2161   6.949   4.371   6.055
  421SOL    HW1 2162   7.010   4.308   6.006
  421SOL    HW2 2163   7.003   4.432   6.113
  422SOL     OW 2164   6.156   3.446   1.569
  422SOL    HW1 2165   6.103   3.517   1.616
  422SOL    HW2 2166   6.115   3.357   1.587
  423SOL     OW 2167   0.910   2.139   6.112
  423SOL    HW1 2168   0.817   2.110   6.133
  423SOL    HW2 2169   0.975   2.075   6.153
  424SOL     OW 2170   2.209   4.976   0.887
  424SOL    HW1 2171   2.165   4.957   0.799
  424SOL    HW2 2172   2.257   4.894   0.919
  425SOL     OW 2173   4.973   1.511   3.446
  425SOL    HW1 2174   4.993   1.589   3.387
  425SOL    HW2 2175   4.986   1.537   3.541
  426SOL     OW 2176   3.734   2.042   4.802
  426SOL    HW1 2177   3.659   2.087   4.754
  426SOL    HW2 2178   3.697   1.981   4.871
  427SOL     OW 2179   5.337   6.536   3.302
  427SOL    HW1 2180   5.434   6.527   3.280
  427SOL    HW2 2181   5.290   6.582   3.226
  428SOL     OW 2182   4.137   0.343   4.918
  428SOL    HW1 2183   4.097   0.303   5.001
  428SOL    HW2 2184   4.219   0.395   4.943
  429SOL     OW 2185   1.346   3.949   1.190
  429SOL    HW1 2186   1.348   3.908   1.099
  429SOL    HW2 2187   1.356   4.048   1.182
  430SOL     OW 2188   0.781   0.905   5.053
  430SOL    HW1 2189   0.758   0.989   5.004
  430SOL    HW2 2190   0.776   0.827   4.990
  431SOL     OW 2191   3.064   0.128   0.940
  431SOL    HW1 2192   3.085   0.064   0.866
  431SOL    HW2 2193   3.127   0.206   0.936
  432SOL     OW 2194   6.620   1.711   0.701
  432SOL    HW1 2195   6.704   1.675   0.741
  432SOL    HW2 2196   6.568   1.636   0.660
  433SOL     OW 2197   2.618   6.745   5.005
  433SOL    HW1 2198   2.575   6.723   4.917
  433SOL    HW2 2199   2.580   6.685   5.076
  434SOL     OW 2200   3.163   5.781   3.140
  434SOL    HW1 2201   3.118   5.828   3.064
  434SOL    HW2 2202   3.100   5.774   3.217
  435SOL     OW 2203   5.072   2.727   6.826
  435SOL    HW1 2204   5.040   2.677   6.745
  435SOL    HW2 2205   5.169   2.704   6.841
  436SOL     OW 2206   2.929   6.102   1.367
  436SOL    HW1 2207   2.841   6.144   1.346
  436SOL    HW2 2208   2.929   6.069   1.461
  437SOL     OW 2209   0.858   1.535   0.307
  437SOL    HW1 2210   0.817   1.544   0.217
  437SOL    HW2 2211   0.947   1.581   0.308
  438SOL     OW 2212   1.761   3.837   3.518
  438SOL    HW1 2213   1.835   3.862   3.455
  438SOL    HW2 2214   1.792   3.763   3.578
  439SOL     OW 2215   5.517   4.941   2.970
  439SOL    HW1 2216   5.548   4.924   3.063
  439SOL    HW2 2217   5.510   5.040   2.955
  440SOL     OW 2218   2.253   1.399   4.991
  440SOL    HW1 2219   2.338   1.348   5.002
  440SOL    HW2 2220   2.190   1.374   5.065
  441SOL     OW 2221   0.598   2.874   4.099
  441SOL    HW1 2222   0.626   2.907   4.189
  441SOL    HW2 2223   0.625   2.778   4.089
  442SOL     OW 2224   3.601   5.530   5.574
  442SOL    HW1 2225   3.595   5.507   5.477
  442SOL    HW2 2226   3.689   5.499   5.610
  443SOL     OW 2227   5.976   4.784   4.371
  443SOL    HW1 2228   6.075   4.779   4.358
  443SOL    HW2 2229   5.945   4.705   4.425
  444SOL     OW 2230   4.774   0.860   5.819
  444SOL    HW1 2231   4.731   0.822   5.901
  444SOL    HW2 2232   4.798   0.786   5.757
  445SOL     OW 2233   1.171   5.923   2.994
  445SOL    HW1 2234   1.197   5.842   3.048
  445SOL    HW2 2235   1.073   5.938   3.001
  446SOL     OW 2236   2.627   5.657   4.019
  446SOL    HW1 2237   2.595   5.678   4.111
  446SOL    HW2 2238   2.727   5.648   4.019
  447SOL     OW 2239   0.494   2.822   6.037
  447SOL    HW1 2240   0.472   2.803   6.133
  447SOL    HW2 2241   0.527   2.916   6.029
  448SOL     OW 2242   2.066   0.436   3.317
  448SOL    HW1 2243   2.094   0.346   3.285
  448SOL    HW2 2244   2.102   0.506   3.256
  449SOL     OW 2245   3.514   0.713   4.099
  449SOL    HW1 2246   3.515   0.792   4.037
  449SOL    HW2 2247   3.583   0.647   4.068
  450SOL     OW 2248   1.143   5.226   3.028
  450SOL    HW1 2249   1.216   5.211   2.961
  450SOL    HW2 2250   1.075   5.154   3.020
  451SOL     OW 2251   1.576   2.175   3.442
  451SOL    HW1 2252   1.556   2.257   3.389
  451SOL    HW2 2253   1.663   2.135   3.411
  452SOL     OW 2254   5.389   6.922   0.498
  452SOL    HW1 2255   5.343   6.879   0.420
  452SOL    HW2 2256   5.466   6.977   0.466
  453SOL     OW 2257   4.225   0.613   6.080
  453SOL    HW1 2258   4.261   0.622   6.173
  453SOL    HW2 2259   4.127   0.596   6.085
  454SOL     OW 2260   6.668   4.695   6.513
  454SOL    HW1 2261   6.600   4.760   6.549
  454SOL    HW2 2262   6.625   4.637   6.444
  455SOL     OW 2263   5.972   2.283   3.526
  455SOL    HW1 2264   5.949   2.319   3.435
  455SOL    HW2 2265   5.888   2.253   3.572
  456SOL     OW 2266   6.297   6.753   3.707
  456SOL    HW1 2267   6.343   6.667   3.729
  456SOL    HW2 2268   6.223   6.736   3.642
  457SOL     OW 2269   1.735   2.425   3.993
  457SOL    HW1 2270   1.675   2.348   4.016
  457SOL    HW2 2271   1.683   2.510   4.001
  458SOL     OW 2272   4.591   5.774   3.226
  458SOL    HW1 2273   4.570   5.817   3.138
  458SOL    HW2 2274   4.584   5.841   3.299
  459SOL     OW 2275   1.711   6.506   5.625
  459SOL    HW1 2276   1.744   6.536   5.536
  459SOL    HW2 2277   1.781   6.524   5.694
  460SOL     OW 2278   2.513   6.355   3.956
  460SOL    HW1 2279   2.585   6.333   3.890
  460SOL    HW2 2280   2.424   6.346   3.912
  461SOL     OW 2281   6.766   6.280   6.630
  461SOL    HW1 2282   6.769   6.339   6.549
  461SOL    HW2 2283   6.852   6.230   6.638
  462SOL     OW 2284   4.140   3.427   6.975
  462SOL    HW1 2285   4.054   3.377   6.988
  462SOL    HW2 2286   4.211   3.387   0.004
  463SOL     OW 2287   5.372   5.746   3.213
  463SOL    HW1 2288   5.289   5.691   3.224
  463SOL    HW2 2289   5.348   5.843   3.215
  464SOL     OW 2290   2.523   1.775   5.602
  464SOL    HW1 2291   2.603   1.715   5.610
  464SOL    HW2 2292   2.531   1.831   5.520
  465SOL     OW 2293   0.561   2.881   0.219
  465SOL    HW1 2294   0.508   2.804   0.182
  465SOL    HW2 2295   0.654   2.878   0.182
  466SOL     OW 2296   1.275   6.438   3.456
  466SOL    HW1 2297   1.238   6.359   3.408
  466SOL    HW2 2298   1.267   6.519   3.398
  467SOL     OW 2299   1.553   1.058   0.898
  467SOL    HW1 2300   1.648   1.076   0.923
  467SOL    HW2 2301   1.509   1.144   0.871
  468SOL     OW 2302   3.746   0.098   6.021
  468SOL    HW1 2303   3.735   0.191   5.988
  468SOL    HW2 2304   3.686   0.082   6.100
  469SOL     OW 2305   2.834   3.150   6.362
  469SOL    HW1 2306   2.783   3.194   6.435
  469SOL    HW2 2307   2.771   3.097   6.305
  470SOL     OW 2308   4.439   6.306   1.834
  470SOL    HW1 2309   4.488   6.256   1.906
  470SOL    HW2 2310   4.505   6.360   1.781
  471SOL     OW 2311   2.422   2.709   3.619
  471SOL    HW1 2312   2.492   2.637   3.610
  471SOL    HW2 2313   2.335   2.675   3.585
  472SOL     OW 2314   4.519   3.379   6.770
  472SOL    HW1 2315   4.473   3.360   6.683
  472SOL    HW2 2316   4.452   3.415   6.835
  473SOL     OW 2317   1.321   2.643   2.843
  473SOL    HW1 2318   1.280   2.557   2.811
  473SOL    HW2 2319   1.369   2.687   2.767
  474SOL     OW 2320   5.355   4.898   4.384
  474SOL    HW1 2321   5.442   4.897   4.334
  474SOL    HW2 2322   5.298   4.972   4.349
  475SOL     OW 2323   5.824   1.390   6.366
  475SOL    HW1 2324   5.913   1.373   6.409
  475SOL    HW2 2325   5.774   1.303   6.359
  476SOL     OW 2326   0.561   3.292   3.267
  476SOL    HW1 2327   0.543   3.247   3.354
  476SOL    HW2 2328   0.541   3.390   3.275
  477SOL     OW 2329   2.534   6.348   2.981
  477SOL    HW1 2330   2.490   6.336   3.070
  477SOL    HW2 2331   2.613   6.286   2.974
  478SOL     OW 2332   3.730   6.215   2.485
  478SOL    HW1 2333   3.737   6.292   2.548
  478SOL    HW2 2334   3.787   6.231   2.405
  479SOL     OW 2335   4.580   1.896   6.080
  479SOL    HW1 2336   4.549   1.801   6.080
  479SOL    HW2 2337   4.508   1.954   6.041
  480SOL     OW 2338   2.860   0.649   0.230
  480SOL    HW1 2339   2.905   0.584   0.291
  480SOL    HW2 2340   2.855   0.610   0.137
  481SOL     OW 2341   2.028   7.000   1.420
  481SOL    HW1 2342   2.042   6.992   1.321
  481SOL    HW2 2343   2.071   0.056   1.453
  482SOL     OW 2344   4.158   4.772   2.198
  482SOL    HW1 2345   4.075   4.791   2.251
  482SOL    HW2 2346   4.215   4.706   2.247
  483SOL     OW 2347   6.352   1.706   2.124
  483SOL    HW1 2348   6.394   1.633   2.069
  483SOL    HW2 2349   6.418   1.737   2.192
  484SOL     OW 2350   1.861   3.451   4.791
  484SOL    HW1 2351   1.824   3.444   4.698
  484SOL    HW2 2352   1.819   3.530   4.837
  485SOL     OW 2353   4.054   5.529   2.784
  485SOL    HW1 2354   4.049   5.601   2.715
  485SOL    HW2 2355   3.963   5.515   2.823
  486SOL     OW 2356   6.862   1.579   0.803
  486SOL    HW1 2357   6.838   1.497   0.854
  486SOL    HW2 2358   6.956   1.570   0.769
  487SOL     OW 2359   0.671   0.878   2.836
  487SOL    HW1 2360   0.576   0.900   2.858
  487SOL    HW2 2361   0.688   0.781   2.854
  488SOL     OW 2362   0.573   1.365   1.806
  488SOL    HW1 2363   0.632   1.286   1.789
  488SOL    HW2 2364   0.480   1.344   1.777
  489SOL     OW 2365   4.242   6.154   5.968
  489SOL    HW1 2366   4.198   6.065   5.976
  489SOL    HW2 2367   4.224   6.192   5.877
  490SOL     OW 2368   0.460   6.041   2.984
  490SOL    HW1 2369   0.417   6.131   2.976
  490SOL    HW2 2370   0.389   5.970   2.983
  491SOL     OW 2371   0.909   4.048   2.262
  491SOL    HW1 2372   0.886   3.958   2.223
  491SOL    HW2 2373   0.894   4.046   2.360
  492SOL     OW 2374   1.342   0.485   4.756
  492SOL    HW1 2375   1.291   0.419   4.701
  492SOL    HW2 2376   1.394   0.546   4.696
  493SOL     OW 2377   5.154   6.135   5.738
  493SOL    HW1 2378   5.214   6.183   5.674
  493SOL    HW2 2379   5.194   6.045   5.760
  494SOL     OW 2380   0.352   6.240   0.019
  494SOL    HW1 2381   0.256   6.225   7.022
  494SOL    HW2 2382   0.389   6.315   6.991
  495SOL     OW 2383   4.818   5.707   3.728
  495SOL    HW1 2384   4.727   5.672   3.751
  495SOL    HW2 2385   4.858   5.749   3.809
  496SOL     OW 2386   5.071   2.572   1.741
  496SOL    HW1 2387   5.071   2.557   1.840
  496SOL    HW2 2388   5.002   2.512   1.699
  497SOL     OW 2389   2.688   1.544   4.779
  497SOL    HW1 2390   2.598   1.552   4.823
  497SOL    HW2 2391   2.683   1.580   4.686
  498SOL     OW 2392   0.923   4.531   1.203
  498SOL    HW1 2393   0.830   4.524   1.240
  498SOL    HW2 2394   0.982   4.578   1.269
  499SOL     OW 2395   1.409   5.823   4.414
  499SOL    HW1 2396   1.380   5.728   4.409
  499SOL    HW2 2397   1.351   5.879   4.354
  500SOL     OW 2398   0.081   2.428   5.951
  500SOL    HW1 2399   0.137   2.510   5.941
  500SOL    HW2 2400   0.093   2.370   5.870
  501SOL     OW 2401   3.107   6.748   0.911
  501SOL    HW1 2402   3.043   6.796   0.851
  501SOL    HW2 2403   3.120   6.655   0.877
  502SOL     OW 2404   1.194   3.863   6.342
  502SOL    HW1 2405   1.259   3.896   6.410
  502SOL    HW2 2406   1.201   3.917   6.259
  503SOL     OW 2407   0.148   5.361   6.748
  503SOL    HW1 2408   0.224   5.422   6.770
  503SOL    HW2 2409   0.063   5.400   6.783
  504SOL     OW 2410   1.129   4.975   2.544
  504SOL    HW1 2411   1.191   4.898   2.556
  504SOL    HW2 2412   1.174   5.047   2.490
  505SOL     OW 2413   3.101   6.087   5.108
  505SOL    HW1 2414   3.114   6.179   5.146
  505SOL    HW2 2415   3.110   6.019   5.180
  506SOL     OW 2416   2.828   4.940   3.976
  506SOL    HW1 2417   2.819   4.849   3.936
  506SOL    HW2 2418   2.829   4.933   4.075
  507SOL     OW 2419   3.726   6.972   3.337
  507SOL    HW1 2420   3.628   6.955   3.327
  507SOL    HW2 2421   3.743   7.027   3.419
  508SOL     OW 2422   6.449   3.486   2.824
  508SOL    HW1 2423   6.360   3.445   2.805
  508SOL    HW2 2424   6.447   3.583   2.798
  509SOL     OW 2425   2.719   1.602   1.350
  509SOL    HW1 2426   2.690   1.576   1.442
  509SOL    HW2 2427   2.799   1.662   1.356
  510SOL     OW 2428   6.421   4.076   6.566
  510SOL    HW1 2429   6.364   4.028   6.632
  510SOL    HW2 2430   6.408   4.175   6.577
  511SOL     OW 2431   1.147   2.498   6.128
  511SOL    HW1 2432   1.092   2.427   6.084
  511SOL    HW2 2433   1.141   2.488   6.227
  512SOL     OW 2434   6.652   2.922   6.318
  512SOL    HW1 2435   6.589   2.873   6.257
  512SOL    HW2 2436   6.601   2.985   6.376
  513SOL     OW 2437   5.991   6.937   3.522
  513SOL    HW1 2438   6.020   6.994   3.445
  513SOL    HW2 2439   5.895   6.956   3.543
  514SOL     OW 2440   6.339   1.272   4.200
  514SOL    HW1 2441   6.316   1.306   4.292
  514SOL    HW2 2442   6.353   1.173   4.203
  515SOL     OW 2443   0.702   6.840   0.079
  515SOL    HW1 2444   0.763   6.792   0.016
  515SOL    HW2 2445   0.757   6.890   0.146
  516SOL     OW 2446   2.850   4.810   2.105
  516SOL    HW1 2447   2.761   4.845   2.133
  516SOL    HW2 2448   2.838   4.731   2.045
  517SOL     OW 2449   4.308   5.648   1.253
  517SOL    HW1 2450   4.254   5.647   1.169
  517SOL    HW2 2451   4.296   5.735   1.300
  518SOL     OW 2452   2.510   2.022   3.355
  518SOL    HW1 2453   2.516   2.062   3.447
  518SOL    HW2 2454   2.484   1.926   3.363
  519SOL     OW 2455   0.331   6.236   4.424
  519SOL    HW1 2456   0.284   6.171   4.484
  519SOL    HW2 2457   0.269   6.264   4.351
  520SOL     OW 2458   6.037   3.625   6.698
  520SOL    HW1 2459   6.031   3.531   6.732
  520SOL    HW2 2460   5.950   3.671   6.714
  521SOL     OW 2461   6.174   5.661   5.258
  521SOL    HW1 2462   6.148   5.664   5.162
  521SOL    HW2 2463   6.148   5.746   5.303
  522SOL     OW 2464   3.484   3.276   4.671
  522SOL    HW1 2465   3.560   3.266   4.607
  522SOL    HW2 2466   3.412   3.330   4.628
  523SOL     OW 2467   1.119   6.052   1.539
  523SOL    HW1 2468   1.061   6.133   1.543
  523SOL    HW2 2469   1.208   6.073   1.579
  524SOL     OW 2470   0.498   1.683   2.718
  524SOL    HW1 2471   0.421   1.660   2.778
  524SOL    HW2 2472   0.475   1.764   2.664
  525SOL     OW 2473   2.189   3.936   5.910
  525SOL    HW1 2474   2.164   3.958   6.004
  525SOL    HW2 2475   2.258   4.001   5.878
  526SOL     OW 2476   3.994   5.674   3.917
  526SOL    HW1 2477   3.913   5.651   3.863
  526SOL    HW2 2478   4.051   5.738   3.866
  527SOL     OW 2479   5.914   2.954   0.487
  527SOL    HW1 2480   5.983   3.018   0.453
  527SOL    HW2 2481   5.824   2.979   0.451
  528SOL     OW 2482   0.864   2.092   3.874
  528SOL    HW1 2483   0.891   2.006   3.829
  528SOL    HW2 2484   0.922   2.108   3.954
  529SOL     OW 2485   1.143   6.548   4.873
  529SOL    HW1 2486   1.131   6.581   4.966
  529SOL    HW2 2487   1.238   6.519   4.860
  530SOL     OW 2488   3.499   3.275   4.308
  530SOL    HW1 2489   3.583   3.273   4.363
  530SOL    HW2 2490   3.495   3.193   4.251
  531SOL     OW 2491   0.512   1.942   3.010
  531SOL    HW1 2492   0.522   2.035   3.046
  531SOL    HW2 2493   0.602   1.899   3.007
  532SOL     OW 2494   0.562   3.042   6.528
  532SOL    HW1 2495   0.616   3.062   6.609
  532SOL    HW2 2496   0.466   3.031   6.554
  533SOL     OW 2497   3.765   6.256   4.240
  533SOL    HW1 2498   3.810   6.177   4.197
  533SOL    HW2 2499   3.717   6.309   4.170
  534SOL     OW 2500   5.548   6.162   2.090
  534SOL    HW1 2501   5.623   6.097   2.100
  534SOL    HW2 2502   5.492   6.161   2.173
  535SOL     OW 2503   0.080   3.359   4.743
  535SOL    HW1 2504   0.115   3.442   4.786
  535SOL    HW2 2505   0.028   3.384   4.661
  536SOL     OW 2506   6.004   4.769   2.021
  536SOL    HW1 2507   6.027   4.863   2.045
  536SOL    HW2 2508   5.973   4.766   1.926
  537SOL     OW 2509   2.470   6.703   4.743
  537SOL    HW1 2510   2.452   6.797   4.713
  537SOL    HW2 2511   2.562   6.676   4.716
  538SOL     OW 2512   1.087   5.141   3.730
  538SOL    HW1 2513   1.035   5.061   3.701
  538SOL    HW2 2514   1.029   5.200   3.785
  539SOL     OW 2515   1.734   6.120   1.164
  539SOL    HW1 2516   1.663   6.069   1.213
  539SOL    HW2 2517   1.709   6.126   1.067
  540SOL     OW 2518   1.921   1.100   2.667
  540SOL    HW1 2519   1.928   1.001   2.652
  540SOL    HW2 2520   2.012   1.140   2.673
  541SOL     OW 2521   4.988   5.489   3.707
  541SOL    HW1 2522   4.911   5.553   3.709
  541SOL    HW2 2523   4.972   5.415   3.772
  542SOL     OW 2524   6.281   6.244   6.625
  542SOL    HW1 2525   6.268   6.331   6.673
  542SOL    HW2 2526   6.267   6.258   6.527
  543SOL     OW 2527   1.051   3.347   5.145
  543SOL    HW1 2528   0.970   3.405   5.138
  543SOL    HW2 2529   1.052   3.282   5.069
  544SOL     OW 2530   2.192   5.020   6.873
  544SOL    HW1 2531   2.141   5.104   6.852
  544SOL    HW2 2532   2.142   4.967   6.941
  545SOL     OW 2533   3.285   1.447   1.680
  545SOL    HW1 2534   3.194   1.451   1.639
  545SOL    HW2 2535   3.334   1.367   1.647
  546SOL     OW 2536   2.181   3.102   0.539
  546SOL    HW1 2537   2.133   3.015   0.542
  546SOL    HW2 2538   2.203   3.124   0.444
  547SOL     OW 2539   3.530   0.675   0.364
  547SOL    HW1 2540   3.576   0.759   0.393
  547SOL    HW2 2541   3.549   0.603   0.430
  548SOL     OW 2542   3.700   3.456   2.292
  548SOL    HW1 2543   3.670   3.551   2.302
  548SOL    HW2 2544   3.739   3.425   2.379
  549SOL     OW 2545   5.171   3.116   1.379
  549SOL    HW1 2546   5.076   3.094   1.404
  549SOL    HW2 2547   5.221   3.032   1.361
  550SOL     OW 2548   0.860   5.375   3.725
  550SOL    HW1 2549   0.895   5.468   3.722
  550SOL    HW2 2550   0.762   5.377   3.746
  551SOL     OW 2551   1.115   0.490   2.421
  551SOL    HW1 2552   1.211   0.517   2.410
  551SOL    HW2 2553   1.109   0.416   2.488
  552SOL     OW 2554   5.858   4.422   6.777
  552SOL    HW1 2555   5.896   4.374   6.856
  552SOL    HW2 2556   5.785   4.484   6.808
  553SOL     OW 2557   2.706   6.792   2.642
  553SOL    HW1 2558   2.739   6.793   2.548
  553SOL    HW2 2559   2.625   6.851   2.649
  554SOL     OW 2560   5.662   0.327   6.610
  554SOL    HW1 2561   5.631   0.289   6.696
  554SOL    HW2 2562   5.634   0.267   6.535
  555SOL     OW 2563   1.704   4.707   4.108
  555SOL    HW1 2564   1.778   4.679   4.047
  555SOL    HW2 2565   1.667   4.627   4.155
  556SOL     OW 2566   4.246   2.189   3.461
  556SOL    HW1 2567   4.147   2.190   3.469
  556SOL    HW2 2568   4.279   2.095   3.469
  557SOL     OW 2569   0.069   5.282   0.833
  557SOL    HW1 2570   0.025   5.364   0.871
  557SOL    HW2 2571   0.166   5.282   0.857
  558SOL     OW 2572   3.128   3.036   4.573
  558SOL    HW1 2573   3.032   3.061   4.589
  558SOL    HW2 2574   3.181   3.051   4.656
  559SOL     OW 2575   6.775   6.190   0.162
  559SOL    HW1 2576   6.823   6.266   0.118
  559SOL    HW2 2577   6.685   6.178   0.119
  560SOL     OW 2578   4.867   4.789   6.801
  560SOL    HW1 2579   4.938   4.783   6.730
  560SOL    HW2 2580   4.789   4.734   6.774
  561SOL     OW 2581   0.838   1.407   1.575
  561SOL    HW1 2582   0.764   1.438   1.635
  561SOL    HW2 2583   0.833   1.308   1.566
  562SOL     OW 2584   4.933   0.433   5.762
  562SOL    HW1 2585   4.964   0.503   5.826
  562SOL    HW2 2586   4.909   0.350   5.812
  563SOL     OW 2587   2.353   0.840   3.825
  563SOL    HW1 2588   2.295   0.769   3.785
  563SOL    HW2 2589   2.438   0.848   3.772
  564SOL     OW 2590   1.691   2.033   0.053
  564SOL    HW1 2591   1.780   2.078   0.051
  564SOL    HW2 2592   1.703   1.936   0.029
  565SOL     OW 2593   3.471   2.775   5.186
  565SOL    HW1 2594   3.525   2.835   5.245
  565SOL    HW2 2595   3.469   2.811   5.093
  566SOL     OW 2596   0.066   5.032   3.751
  566SOL    HW1 2597   0.102   5.077   3.669
  566SOL    HW2 2598   7.000   5.003   3.734
  567SOL     OW 2599   2.862   2.759   1.316
  567SOL    HW1 2600   2.948   2.791   1.274
  567SOL    HW2 2601   2.880   2.679   1.372
  568SOL     OW 2602   4.720   1.594   0.300
  568SOL    HW1 2603   4.681   1.506   0.331
  568SOL    HW2 2604   4.655   1.639   0.239
  569SOL     OW 2605   1.636   3.214   6.634
  569SOL    HW1 2606   1.553   3.218   6.578
  569SOL    HW2 2607   1.705   3.274   6.595
  570SOL     OW 2608   3.310   6.596   6.910
  570SOL    HW1 2609   3.279   6.670   6.850
  570SOL    HW2 2610   3.314   6.630   7.004
  571SOL     OW 2611   3.120   0.150   1.779
  571SOL    HW1 2612   3.081   0.195   1.859
  571SOL    HW2 2613   3.140   0.054   1.801
  572SOL     OW 2614   2.683   4.941   5.530
  572SOL    HW1 2615   2.781   4.935   5.549
  572SOL    HW2 2616   2.660   4.882   5.452
  573SOL     OW 2617   5.422   1.777   5.646
  573SOL    HW1 2618   5.460   1.721   5.572
  573SOL    HW2 2619   5.445   1.737   5.734
  574SOL     OW 2620   3.338   1.590   4.213
  574SOL    HW1 2621   3.299   1.516   4.268
  574SOL    HW2 2622   3.388   1.551   4.135
  575SOL     OW 2623   5.101   4.086   0.155
  575SOL    HW1 2624   5.180   4.071   0.097
  575SOL    HW2 2625   5.077   4.183   0.157
  576SOL     OW 2626   0.918   2.148   3.010
  576SOL    HW1 2627   0.905   2.196   3.096
  576SOL    HW2 2628   0.982   2.072   3.024
  577SOL     OW 2629   1.328   1.431   2.321
  577SOL    HW1 2630   1.276   1.506   2.362
  577SOL    HW2 2631   1.286   1.404   2.234
  578SOL     OW 2632   5.816   5.999   3.431
  578SOL    HW1 2633   5.741   6.032   3.374
  578SOL    HW2 2634   5.784   5.985   3.524
  579SOL     OW 2635   1.977   2.684   2.594
  579SOL    HW1 2636   1.910   2.648   2.659
  579SOL    HW2 2637   1.971   2.784   2.592
  580SOL     OW 2638   6.344   5.298   0.489
  580SOL    HW1 2639   6.250   5.320   0.461
  580SOL    HW2 2640   6.400   5.381   0.486
  581SOL     OW 2641   3.001   3.552   1.802
  581SOL    HW1 2642   3.039   3.567   1.712
  581SOL    HW2 2643   2.916   3.499   1.794
  582SOL     OW 2644   4.467   6.917   2.090
  582SOL    HW1 2645   4.401   6.989   2.071
  582SOL    HW2 2646   4.469   6.852   2.014
  583SOL     OW 2647   3.031   5.082   5.872
  583SOL    HW1 2648   3.124   5.046   5.875
  583SOL    HW2 2649   2.984   5.047   5.791
  584SOL     OW 2650   2.924   4.089   6.200
  584SOL    HW1 2651   2.889   4.089   6.107
  584SOL    HW2 2652   2.855   4.128   6.262
  585SOL     OW 2653   5.569   2.885   6.436
  585SOL    HW1 2654   5.510   2.964   6.457
  585SOL    HW2 2655   5.517   2.801   6.449
  586SOL     OW 2656   3.611   1.668   5.835
  586SOL    HW1 2657   3.557   1.587   5.857
  586SOL    HW2 2658   3.550   1.744   5.812
  587SOL     OW 2659   4.249   1.534   6.014
  587SOL    HW1 2660   4.215   1.455   6.066
  587SOL    HW2 2661   4.215   1.528   5.920
  588SOL     OW 2662   2.062   4.741   1.704
  588SOL    HW1 2663   2.020   4.802   1.637
  588SOL    HW2 2664   2.072   4.790   1.791
  589SOL     OW 2665   3.281   4.687   1.416
  589SOL    HW1 2666   3.195   4.728   1.385
  589SOL    HW2 2667   3.306   4.725   1.505
  590SOL     OW 2668   4.903   3.366   3.597
  590SOL    HW1 2669   4.875   3.271   3.578
  590SOL    HW2 2670   4.996   3.366   3.633
  591SOL     OW 2671   4.130   5.440   4.005
  591SOL    HW1 2672   4.148   5.455   4.102
  591SOL    HW2 2673   4.078   5.518   3.969
  592SOL     OW 2674   3.398   0.898   1.526
  592SOL    HW1 2675   3.402   0.957   1.607
  592SOL    HW2 2676   3.430   0.949   1.446
  593SOL     OW 2677   4.930   2.287   3.215
  593SOL    HW1 2678   4.920   2.317   3.120
  593SOL    HW2 2679   4.841   2.257   3.250
  594SOL     OW 2680   6.155   2.379   6.513
  594SOL    HW1 2681   6.217   2.360   6.437
  594SOL    HW2 2682   6.190   2.335   6.596
  595SOL     OW 2683   6.118   6.696   3.508
  595SOL    HW1 2684   6.060   6.630   3.555
  595SOL    HW2 2685   6.075   6.786   3.511
  596SOL     OW 2686   1.652   4.892   3.267
  596SOL    HW1 2687   1.723   4.863   3.203
  596SOL    HW2 2688   1.611   4.812   3.311
  597SOL     OW 2689   3.781   6.936   0.309
  597SOL    HW1 2690   3.695   6.888   0.288
  597SOL    HW2 2691   3.856   6.891   0.260
  598SOL     OW 2692   3.993   4.946   5.431
  598SOL    HW1 2693   3.997   4.901   5.342
  598SOL    HW2 2694   3.928   4.899   5.490
  599SOL     OW 2695   2.634   6.345   2.198
  599SOL    HW1 2696   2.640   6.348   2.297
  599SOL    HW2 2697   2.711   6.395   2.158
  600SOL     OW 2698   0.570   1.206   0.264
  600SOL    HW1 2699   0.532   1.232   0.175
  600SOL    HW2 2700   0.514   1.133   0.304
  601SOL     OW 2701   2.692   0.312   4.216
  601SOL    HW1 2702   2.732   0.221   4.204
  601SOL    HW2 2703   2.731   0.374   4.148
  602SOL     OW 2704   2.388   2.647   6.580
  602SOL    HW1 2705   2.382   2.565   6.523
  602SOL    HW2 2706   2.311   2.708   6.559
  603SOL     OW 2707   3.090   2.115   3.923
  603SOL    HW1 2708   3.042   2.027   3.929
  603SOL    HW2 2709   3.095   2.143   3.827
  604SOL     OW 2710   1.062   3.371   1.459
  604SOL    HW1 2711   1.088   3.416   1.373
  604SOL    HW2 2712   1.145   3.343   1.508
  605SOL     OW 2713   0.212   6.549   2.309
  605SOL    HW1 2714   0.209   6.583   2.215
  605SOL    HW2 2715   0.161   6.611   2.369
  606SOL     OW 2716   4.756   0.359   6.859
  606SOL    HW1 2717   4.700   0.395   6.784
  606SOL    HW2 2718   4.847   0.398   6.855
  607SOL     OW 2719   6.297   0.012   6.201
  607SOL    HW1 2720   6.280   0.103   6.164
  607SOL    HW2 2721   6.339   0.020   6.291
  608SOL     OW 2722   2.739   6.415   6.484
  608SOL    HW1 2723   2.746   6.470   6.401
  608SOL    HW2 2724   2.684   6.333   6.465
  609SOL     OW 2725   4.037   3.168   3.255
  609SOL    HW1 2726   4.082   3.235   3.197
  609SOL    HW2 2727   4.035   3.201   3.350
  610SOL     OW 2728   4.953   3.330   2.217
  610SOL    HW1 2729   4.969   3.313   2.120
  610SOL    HW2 2730   4.884   3.266   2.251
  611SOL     OW 2731   3.921   0.200   0.360
  611SOL    HW1 2732   3.896   0.104   0.343
  611SOL    HW2 2733   3.860   0.260   0.307
  612SOL     OW 2734   4.076   6.767   5.624
  612SOL    HW1 2735   4.114   6.711   5.698
  612SOL    HW2 2736   4.029   6.708   5.558
  613SOL     OW 2737   4.433   0.062   5.641
  613SOL    HW1 2738   4.394   6.999   5.653
  613SOL    HW2 2739   4.404   0.121   5.716
  614SOL     OW 2740   4.590   4.391   1.110
  614SOL    HW1 2741   4.657   4.462   1.127
  614SOL    HW2 2742   4.500   4.432   1.096
  615SOL     OW 2743   6.931   2.725   1.899
  615SOL    HW1 2744   6.959   2.760   1.810
  615SOL    HW2 2745   6.965   2.786   1.971
  616SOL     OW 2746   0.588   2.054   3.803
  616SOL    HW1 2747   0.647   2.023   3.729
  616SOL    HW2 2748   0.639   2.051   3.889
  617SOL     OW 2749   6.347   3.481   6.128
  617SOL    HW1 2750   6.350   3.395   6.077
  617SOL    HW2 2751   6.425   3.538   6.101
  618SOL     OW 2752   6.763   2.495   6.743
  618SOL    HW1 2753   6.810   2.484   6.656
  618SOL    HW2 2754   6.821   2.460   6.817
  619SOL     OW 2755   4.463   0.794   6.789
  619SOL    HW1 2756   4.504   0.758   6.873
  619SOL    HW2 2757   4.414   0.720   6.742
  620SOL     OW 2758   4.679   3.040   1.228
  620SOL    HW1 2759   4.607   2.973   1.215
  620SOL    HW2 2760   4.727   3.055   1.141
  621SOL     OW 2761   2.439   6.353   6.429
  621SOL    HW1 2762   2.442   6.413   6.348
  621SOL    HW2 2763   2.380   6.275   6.410
  622SOL     OW 2764   1.461   1.329   4.539
  622SOL    HW1 2765   1.510   1.270   4.603
  622SOL    HW2 2766   1.526   1.376   4.480
  623SOL     OW 2767   1.190   6.128   6.088
  623SOL    HW1 2768   1.175   6.035   6.120
  623SOL    HW2 2769   1.147   6.193   6.150
  624SOL     OW 2770   0.120   1.852   1.809
  624SOL    HW1 2771   0.183   1.923   1.777
  624SOL    HW2 2772   0.088   1.797   1.732
  625SOL     OW 2773   1.146   1.968   2.002
  625SOL    HW1 2774   1.197   1.911   2.067
  625SOL    HW2 2775   1.064   1.919   1.972
  626SOL     OW 2776   0.884   5.903   2.953
  626SOL    HW1 2777   0.865   5.807   2.930
  626SOL    HW2 2778   0.811   5.938   3.012
  627SOL     OW 2779   6.522   6.475   0.906
  627SOL    HW1 2780   6.514   6.384   0.866
  627SOL    HW2 2781   6.431   6.512   0.924
  628SOL     OW 2782   5.508   5.641   5.820
  628SOL    HW1 2783   5.497   5.740   5.823
  628SOL    HW2 2784   5.537   5.613   5.729
  629SOL     OW 2785   0.586   0.695   6.962
  629SOL    HW1 2786   0.616   0.602   6.937
  629SOL    HW2 2787   0.511   0.723   6.902
  630SOL     OW 2788   0.343   1.548   1.006
  630SOL    HW1 2789   0.303   1.633   1.040
  630SOL    HW2 2790   0.434   1.536   1.047
  631SOL     OW 2791   4.035   1.476   5.417
  631SOL    HW1 2792   4.094   1.556   5.435
  631SOL    HW2 2793   3.948   1.507   5.379
  632SOL     OW 2794   4.102   1.730   1.734
  632SOL    HW1 2795   4.099   1.792   1.656
  632SOL    HW2 2796   4.132   1.640   1.704
  633SOL     OW 2797   3.342   3.601   6.542
  633SOL    HW1 2798   3.264   3.539   6.541
  633SOL    HW2 2799   3.427   3.548   6.531
  634SOL     OW 2800   4.113   3.244   2.559
  634SOL    HW1 2801   4.143   3.263   2.465
  634SOL    HW2 2802   4.177   3.181   2.602
  635SOL     OW 2803   4.449   5.514   0.648
  635SOL    HW1 2804   4.467   5.499   0.551
  635SOL    HW2 2805   4.423   5.610   0.663
  636SOL     OW 2806   3.272   6.352   0.445
  636SOL    HW1 2807   3.223   6.367   0.359
  636SOL    HW2 2808   3.214   6.298   0.507
  637SOL     OW 2809   6.932   3.360   2.875
  637SOL    HW1 2810   6.963   3.276   2.830
  637SOL    HW2 2811   6.944   3.351   2.974
  638SOL     OW 2812   5.510   2.430   3.376
  638SOL    HW1 2813   5.500   2.402   3.471
  638SOL    HW2 2814   5.581   2.376   3.332
  639SOL     OW 2815   4.860   3.522   3.188
  639SOL    HW1 2816   4.850   3.597   3.254
  639SOL    HW2 2817   4.869   3.561   3.096
  640SOL     OW 2818   0.157   5.121   3.984
  640SOL    HW1 2819   0.101   5.194   4.022
  640SOL    HW2 2820   0.123   5.096   3.894
  641SOL     OW 2821   0.485   4.215   5.177
  641SOL    HW1 2822   0.476   4.116   5.188
  641SOL    HW2 2823   0.526   4.235   5.088
  642SOL     OW 2824   6.895   3.260   3.868
  642SOL    HW1 2825   6.945   3.178   3.896
  642SOL    HW2 2826   6.960   3.333   3.849
  643SOL     OW 2827   5.924   6.296   6.156
  643SOL    HW1 2828   5.982   6.377   6.144
  643SOL    HW2 2829   5.833   6.325   6.185
  644SOL     OW 2830   1.889   6.603   4.259
  644SOL    HW1 2831   1.841   6.549   4.190
  644SOL    HW2 2832   1.919   6.544   4.334
  645SOL     OW 2833   4.459   0.221   5.031
  645SOL    HW1 2834   4.535   0.274   4.994
  645SOL    HW2 2835   4.486   0.183   5.120
  646SOL     OW 2836   3.731   0.836   4.597
  646SOL    HW1 2837   3.653   0.821   4.536
  646SOL    HW2 2838   3.753   0.934   4.599
  647SOL     OW 2839   5.454   1.978   5.193
  647SOL    HW1 2840   5.430   1.976   5.290
  647SOL    HW2 2841   5.473   1.886   5.161
  648SOL     OW 2842   0.809   3.694   3.367
  648SOL    HW1 2843   0.810   3.609   3.419
  648SOL    HW2 2844   0.823   3.675   3.270
  649SOL     OW 2845   2.347   4.313   0.876
  649SOL    HW1 2846   2.447   4.313   0.885
  649SOL    HW2 2847   2.309   4.389   0.929
  650SOL     OW 2848   5.956   4.224   6.933
  650SOL    HW1 2849   5.939   4.249   7.028
  650SOL    HW2 2850   5.939   4.126   6.921
  651SOL     OW 2851   0.541   6.466   6.376
  651SOL    HW1 2852   0.586   6.501   6.294
  651SOL    HW2 2853   0.602   6.404   6.425
  652SOL     OW 2854   5.028   0.357   4.110
  652SOL    HW1 2855   4.931   0.380   4.111
  652SOL    HW2 2856   5.080   0.430   4.155
  653SOL     OW 2857   1.211   5.763   6.681
  653SOL    HW1 2858   1.177   5.817   6.758
  653SOL    HW2 2859   1.135   5.741   6.620
  654SOL     OW 2860   0.600   5.471   7.003
  654SOL    HW1 2861   0.596   5.397   0.042
  654SOL    HW2 2862   0.695   5.499   6.990
  655SOL     OW 2863   0.057   6.002   1.552
  655SOL    HW1 2864   0.136   5.999   1.613
  655SOL    HW2 2865   0.069   6.076   1.485
  656SOL     OW 2866   1.973   6.483   1.308
  656SOL    HW1 2867   1.913   6.563   1.311
  656SOL    HW2 2868   1.930   6.408   1.357
  657SOL     OW 2869   2.559   4.044   1.692
  657SOL    HW1 2870   2.552   4.095   1.778
  657SOL    HW2 2871   2.471   4.046   1.645
  658SOL     OW 2872   2.203   3.869   6.655
  658SOL    HW1 2873   2.147   3.793   6.686
  658SOL    HW2 2874   2.212   3.865   6.555
  659SOL     OW 2875   1.230   5.928   5.182
  659SOL    HW1 2876   1.216   6.024   5.159
  659SOL    HW2 2877   1.141   5.886   5.201
  660SOL     OW 2878   5.513   3.709   2.289
  660SOL    HW1 2879   5.552   3.764   2.215
  660SOL    HW2 2880   5.424   3.673   2.259
  661SOL     OW 2881   4.860   4.227   3.137
  661SOL    HW1 2882   4.807   4.309   3.157
  661SOL    HW2 2883   4.801   4.147   3.138
  662SOL     OW 2884   4.415   0.446   4.654
  662SOL    HW1 2885   4.421   0.506   4.733
  662SOL    HW2 2886   4.434   0.352   4.682
  663SOL     OW 2887   1.312   3.489   6.643
  663SOL    HW1 2888   1.296   3.586   6.624
  663SOL    HW2 2889   1.382   3.480   6.714
  664SOL     OW 2890   0.066   5.153   6.524
  664SOL    HW1 2891   0.076   5.158   6.424
  664SOL    HW2 2892   0.017   5.234   6.556
  665SOL     OW 2893   4.390   4.847   1.005
  665SOL    HW1 2894   4.440   4.904   0.939
  665SOL    HW2 2895   4.318   4.900   1.048
  666SOL     OW 2896   5.056   1.574   2.865
  666SOL    HW1 2897   5.023   1.652   2.813
  666SOL    HW2 2898   5.146   1.547   2.832
  667SOL     OW 2899   6.198   3.710   3.451
  667SOL    HW1 2900   6.262   3.774   3.495
  667SOL    HW2 2901   6.193   3.730   3.353
  668SOL     OW 2902   4.889   5.939   6.586
  668SOL    HW1 2903   4.812   5.951   6.649
  668SOL    HW2 2904   4.913   5.842   6.581
  669SOL     OW 2905   3.812   6.033   3.373
  669SOL    HW1 2906   3.762   5.992   3.296
  669SOL    HW2 2907   3.777   5.994   3.458
  670SOL     OW 2908   2.624   2.832   1.428
  670SOL    HW1 2909   2.706   2.809   1.376
  670SOL    HW2 2910   2.580   2.912   1.388
  671SOL     OW 2911   2.618   5.829   0.334
  671SOL    HW1 2912   2.539   5.833   0.272
  671SOL    HW2 2913   2.664   5.917   0.335
  672SOL     OW 2914   1.056   4.441   1.712
  672SOL    HW1 2915   1.069   4.390   1.797
  672SOL    HW2 2916   1.144   4.479   1.682
  673SOL     OW 2917   6.757   0.801   1.396
  673SOL    HW1 2918   6.782   0.770   1.304
  673SOL    HW2 2919   6.661   0.782   1.413
  674SOL     OW 2920   6.939   3.043   4.467
  674SOL    HW1 2921   6.866   3.055   4.534
  674SOL    HW2 2922   6.919   3.099   4.386
  675SOL     OW 2923   0.874   0.875   4.004
  675SOL    HW1 2924   0.827   0.787   4.011
  675SOL    HW2 2925   0.810   0.943   3.967
  676SOL     OW 2926   4.120   5.993   2.730
  676SOL    HW1 2927   4.105   6.028   2.637
  676SOL    HW2 2928   4.119   6.070   2.794
  677SOL     OW 2929   5.732   1.551   6.740
  677SOL    HW1 2930   5.729   1.613   6.661
  677SOL    HW2 2931   5.827   1.536   6.767
  678SOL     OW 2932   1.635   1.177   4.706
  678SOL    HW1 2933   1.693   1.255   4.732
  678SOL    HW2 2934   1.672   1.093   4.745
  679SOL     OW 2935   4.799   1.820   4.488
  679SOL    HW1 2936   4.894   1.790   4.500
  679SOL    HW2 2937   4.794   1.888   4.415
  680SOL     OW 2938   6.231   5.564   6.090
  680SOL    HW1 2939   6.193   5.509   6.015
  680SOL    HW2 2940   6.211   5.661   6.074
  681SOL     OW 2941   5.314   6.058   1.469
  681SOL    HW1 2942   5.290   6.104   1.554
  681SOL    HW2 2943   5.341   6.126   1.401
  682SOL     OW 2944   1.637   0.557   0.527
  682SOL    HW1 2945   1.640   0.513   0.617
  682SOL    HW2 2946   1.542   0.564   0.496
  683SOL     OW 2947   3.799   2.894   6.758
  683SOL    HW1 2948   3.894   2.925   6.753
  683SOL    HW2 2949   3.740   2.962   6.715
  684SOL     OW 2950   6.326   0.823   0.210
  684SOL    HW1 2951   6.422   0.795   0.209
  684SOL    HW2 2952   6.279   0.781   0.133
  685SOL     OW 2953   4.680   1.380   4.340
  685SOL    HW1 2954   4.730   1.382   4.426
  685SOL    HW2 2955   4.637   1.291   4.328
  686SOL     OW 2956   5.964   2.306   3.931
  686SOL    HW1 2957   5.867   2.280   3.929
  686SOL    HW2 2958   6.019   2.233   3.892
  687SOL     OW 2959   0.464   2.502   4.815
  687SOL    HW1 2960   0.460   2.535   4.909
  687SOL    HW2 2961   0.372   2.498   4.776
  688SOL     OW 2962   1.628   2.918   7.007
  688SOL    HW1 2963   1.551   2.973   0.011
  688SOL    HW2 2964   1.638   2.929   6.908
  689SOL     OW 2965   0.103   4.229   5.924
  689SOL    HW1 2966   0.183   4.172   5.904
  689SOL    HW2 2967   0.096   4.301   5.855
  690SOL     OW 2968   0.742   4.063   3.227
  690SOL    HW1 2969   0.696   4.147   3.258
  690SOL    HW2 2970   0.805   4.032   3.298
  691SOL     OW 2971   2.620   0.056   6.323
  691SOL    HW1 2972   2.543   0.080   6.383
  691SOL    HW2 2973   2.703   0.046   6.377
  692SOL     OW 2974   4.204   5.817   4.068
  692SOL    HW1 2975   4.192   5.828   4.166
  692SOL    HW2 2976   4.156   5.891   4.020
  693SOL     OW 2977   6.609   0.542   3.717
  693SOL    HW1 2978   6.597   0.458   3.664
  693SOL    HW2 2979   6.559   0.616   3.672
  694SOL     OW 2980   4.259   6.380   2.639
  694SOL    HW1 2981   4.206   6.462   2.663
  694SOL    HW2 2982   4.288   6.333   2.722
  695SOL     OW 2983   4.331   5.855   4.943
  695SOL    HW1 2984   4.364   5.925   5.008
  695SOL    HW2 2985   4.251   5.889   4.895
  696SOL     OW 2986   3.293   5.408   2.443
  696SOL    HW1 2987   3.237   5.491   2.451
  696SOL    HW2 2988   3.384   5.433   2.411
  697SOL     OW 2989   2.207   3.021   4.002
  697SOL    HW1 2990   2.273   2.969   3.948
  697SOL    HW2 2991   2.147   2.957   4.051
  698SOL     OW 2992   5.578   0.454   6.960
  698SOL    HW1 2993   5.608   0.447   0.028
  698SOL    HW2 2994   5.644   0.407   6.902
  699SOL     OW 2995   1.760   3.876   6.001
  699SOL    HW1 2996   1.675   3.921   6.031
  699SOL    HW2 2997   1.739   3.783   5.971
  700SOL     OW 2998   2.683   1.278   3.604
  700SOL    HW1 2999   2.636   1.313   3.523
  700SOL    HW2 3000   2.781   1.278   3.588
  701SOL     OW 3001   5.747   3.188   4.920
  701SOL    HW1 3002   5.809   3.114   4.946
  701SOL    HW2 3003   5.775   3.224   4.831
  702SOL     OW 3004   0.315   6.673   6.014
  702SOL    HW1 3005   0.366   6.714   6.090
  702SOL    HW2 3006   0.220   6.702   6.018
  703SOL     OW 3007   3.314   4.236   6.486
  703SOL    HW1 3008   3.405   4.250   6.447
  703SOL    HW2 3009   3.252   4.201   6.415
  704SOL     OW 3010   1.082   1.557   6.929
  704SOL    HW1 3011   1.164   1.597   6.970
  704SOL    HW2 3012   1.021   1.631   6.898
  705SOL     OW 3013   6.009   6.141   3.207
  705SOL    HW1 3014   6.028   6.217   3.269
  705SOL    HW2 3015   6.079   6.139   3.135
  706SOL     OW 3016   4.577   2.474   4.039
  706SOL    HW1 3017   4.674   2.501   4.042
  706SOL    HW2 3018   4.570   2.374   4.035
  707SOL     OW 3019   5.033   6.680   2.208
  707SOL    HW1 3020   5.073   6.612   2.147
  707SOL    HW2 3021   5.033   6.644   2.302
  708SOL     OW 3022   3.789   0.733   1.498
  708SOL    HW1 3023   3.704   0.696   1.535
  708SOL    HW2 3024   3.793   0.714   1.399
  709SOL     OW 3025   0.946   5.604   0.664
  709SOL    HW1 3026   0.930   5.681   0.727
  709SOL    HW2 3027   0.882   5.609   0.588
  710SOL     OW 3028   3.572   2.871   2.512
  710SOL    HW1 3029   3.509   2.913   2.577
  710SOL    HW2 3030   3.542   2.777   2.493
  711SOL     OW 3031   0.096   2.383   5.501
  711SOL    HW1 3032   0.011   2.410   5.454
  711SOL    HW2 3033   0.170   2.444   5.474
  712SOL     OW 3034   4.022   3.607   0.947
  712SOL    HW1 3035   4.070   3.589   0.861
  712SOL    HW2 3036   3.924   3.605   0.931
  713SOL     OW 3037   4.113   3.057   6.197
  713SOL    HW1 3038   4.075   2.994   6.129
  713SOL    HW2 3039   4.049   3.064   6.274
  714SOL     OW 3040   6.670   4.199   4.323
  714SOL    HW1 3041   6.698   4.225   4.231
  714SOL    HW2 3042   6.586   4.247   4.348
  715SOL     OW 3043   5.735   5.407   0.130
  715SOL    HW1 3044   5.772   5.317   0.107
  715SOL    HW2 3045   5.790   5.477   0.085
  716SOL     OW 3046   1.114   0.045   0.959
  716SOL    HW1 3047   1.161   0.114   1.015
  716SOL    HW2 3048   1.102   6.990   1.013
  717SOL     OW 3049   6.221   4.658   6.004
  717SOL    HW1 3050   6.284   4.715   6.057
  717SOL    HW2 3051   6.256   4.565   6.000
  718SOL     OW 3052   4.996   2.602   6.606
  718SOL    HW1 3053   4.971   2.603   6.509
  718SOL    HW2 3054   5.023   2.509   6.632
  719SOL     OW 3055   6.609   0.627   2.052
  719SOL    HW1 3056   6.705   0.651   2.069
  719SOL    HW2 3057   6.601   0.580   1.965
  720SOL     OW 3058   3.407   0.988   6.474
  720SOL    HW1 3059   3.461   0.918   6.520
  720SOL    HW2 3060   3.429   1.078   6.513
  721SOL     OW 3061   2.474   1.193   4.212
  721SOL    HW1 3062   2.544   1.149   4.156
  721SOL    HW2 3063   2.465   1.289   4.185
  722SOL     OW 3064   2.945   0.315   4.632
  722SOL    HW1 3065   2.868   0.257   4.658
  722SOL    HW2 3066   2.920   0.372   4.554
  723SOL     OW 3067   1.906   3.905   2.706
  723SOL    HW1 3068   2.001   3.918   2.676
  723SOL    HW2 3069   1.877   3.985   2.759
  724SOL     OW 3070   1.231   2.822   4.533
  724SOL    HW1 3071   1.321   2.864   4.518
  724SOL    HW2 3072   1.202   2.840   4.627
  725SOL     OW 3073   3.634   5.861   0.916
  725SOL    HW1 3074   3.720   5.854   0.865
  725SOL    HW2 3075   3.654   5.855   1.014
  726SOL     OW 3076   4.348   4.952   0.695
  726SOL    HW1 3077   4.325   4.859   0.666
  726SOL    HW2 3078   4.419   4.989   0.636
  727SOL     OW 3079   5.376   4.938   6.234
  727SOL    HW1 3080   5.367   5.030   6.197
  727SOL    HW2 3081   5.370   4.871   6.160
  728SOL     OW 3082   6.375   3.606   4.838
  728SOL    HW1 3083   6.449   3.573   4.898
  728SOL    HW2 3084   6.313   3.531   4.818
  729SOL     OW 3085   1.280   2.371   0.819
  729SOL    HW1 3086   1.270   2.470   0.829
  729SOL    HW2 3087   1.216   2.324   0.880
  730SOL     OW 3088   5.338   0.906   3.240
  730SOL    HW1 3089   5.407   0.880   3.308
  730SOL    HW2 3090   5.259   0.946   3.286
  731SOL     OW 3091   5.530   4.492   5.659
  731SOL    HW1 3092   5.583   4.425   5.608
  731SOL    HW2 3093   5.461   4.445   5.714
  732SOL     OW 3094   0.079   2.534   1.975
  732SOL    HW1 3095   7.026   2.585   1.945
  732SOL    HW2 3096   0.150   2.540   1.904
  733SOL     OW 3097   5.960   6.350   5.654
  733SOL    HW1 3098   6.049   6.304   5.647
  733SOL    HW2 3099   5.903   6.303   5.721
  734SOL     OW 3100   7.012   4.571   2.593
  734SOL    HW1 3101   0.073   4.609   2.619
  734SOL    HW2 3102   6.939   4.623   2.638
  735SOL     OW 3103   3.749   2.365   0.754
  735SOL    HW1 3104   3.681   2.310   0.706
  735SOL    HW2 3105   3.722   2.461   0.752
  736SOL     OW 3106   0.788   0.689   3.134
  736SOL    HW1 3107   0.837   0.610   3.170
  736SOL    HW2 3108   0.854   0.754   3.095
  737SOL     OW 3109   4.852   2.264   5.816
  737SOL    HW1 3110   4.949   2.286   5.812
  737SOL    HW2 3111   4.831   2.190   5.752
  738SOL     OW 3112   1.753   4.701   2.252
  738SOL    HW1 3113   1.729   4.726   2.345
  738SOL    HW2 3114   1.750   4.601   2.242
  739SOL     OW 3115   4.332   0.543   3.868
  739SOL    HW1 3116   4.384   0.460   3.887
  739SOL    HW2 3117   4.307   0.588   3.954
  740SOL     OW 3118   5.210   0.119   1.224
  740SOL    HW1 3119   5.207   0.132   1.125
  740SOL    HW2 3120   5.140   0.175   1.267
  741SOL     OW 3121   2.219   6.508   3.253
  741SOL    HW1 3122   2.122   6.483   3.252
  741SOL    HW2 3123   2.228   6.607   3.264
  742SOL     OW 3124   2.765   6.751   2.126
  742SOL    HW1 3125   2.667   6.729   2.132
  742SOL    HW2 3126   2.778   6.827   2.062
  743SOL     OW 3127   0.277   3.909   4.058
  743SOL    HW1 3128   0.244   3.869   4.143
  743SOL    HW2 3129   0.329   3.841   4.006
  744SOL     OW 3130   5.478   0.753   6.933
  744SOL    HW1 3131   5.519   0.662   6.936
  744SOL    HW2 3132   5.418   0.767   7.012
  745SOL     OW 3133   0.713   5.914   5.092
  745SOL    HW1 3134   0.730   5.830   5.042
  745SOL    HW2 3135   0.751   5.992   5.041
  746SOL     OW 3136   0.060   4.991   5.955
  746SOL    HW1 3137   0.135   4.945   5.908
  746SOL    HW2 3138   0.074   4.984   6.054
  747SOL     OW 3139   3.774   6.349   4.492
  747SOL    HW1 3140   3.869   6.347   4.522
  747SOL    HW2 3141   3.768   6.314   4.398
  748SOL     OW 3142   3.933   4.803   2.347
  748SOL    HW1 3143   3.896   4.847   2.428
  748SOL    HW2 3144   3.875   4.824   2.268
  749SOL     OW 3145   6.291   4.191   5.145
  749SOL    HW1 3146   6.367   4.168   5.205
  749SOL    HW2 3147   6.326   4.231   5.060
  750SOL     OW 3148   1.532   2.255   0.786
  750SOL    HW1 3149   1.445   2.304   0.785
  750SOL    HW2 3150   1.519   2.163   0.822
  751SOL     OW 3151   3.705   2.278   6.756
  751SOL    HW1 3152   3.689   2.264   6.854
  751SOL    HW2 3153   3.774   2.213   6.724
  752SOL     OW 3154   3.531   1.229   2.336
  752SOL    HW1 3155   3.468   1.267   2.268
  752SOL    HW2 3156   3.513   1.270   2.426
  753SOL     OW 3157   1.916   3.272   5.131
  753SOL    HW1 3158   1.898   3.370   5.124
  753SOL    HW2 3159   1.995   3.249   5.074
  754SOL     OW 3160   5.395   2.605   5.567
  754SOL    HW1 3161   5.353   2.660   5.639
  754SOL    HW2 3162   5.331   2.535   5.536
  755SOL     OW 3163   1.198   4.372   5.203
  755SOL    HW1 3164   1.147   4.438   5.147
  755SOL    HW2 3165   1.261   4.421   5.264
  756SOL     OW 3166   3.757   7.013   0.602
  756SOL    HW1 3167   3.740   7.004   0.504
  756SOL    HW2 3168   3.723   0.074   0.634
  757SOL     OW 3169   1.091   0.065   3.899
  757SOL    HW1 3170   1.058   7.026   3.832
  757SOL    HW2 3171   1.178   0.034   3.937
  758SOL     OW 3172   3.760   7.019   1.966
  758SOL    HW1 3173   3.829   6.984   2.030
  758SOL    HW2 3174   3.791   0.078   1.928
  759SOL     OW 3175   0.295   1.187   1.096
  759SOL    HW1 3176   0.204   1.189   1.054
  759SOL    HW2 3177   0.307   1.268   1.154
  760SOL     OW 3178   5.460   0.290   5.568
  760SOL    HW1 3179   5.417   0.200   5.572
  760SOL    HW2 3180   5.453   0.326   5.475
  761SOL     OW 3181   5.667   2.855   5.620
  761SOL    HW1 3182   5.692   2.782   5.556
  761SOL    HW2 3183   5.586   2.826   5.671
  762SOL     OW 3184   2.448   0.749   4.848
  762SOL    HW1 3185   2.496   0.817   4.904
  762SOL    HW2 3186   2.493   0.742   4.759
  763SOL     OW 3187   4.166   5.477   6.047
  763SOL    HW1 3188   4.249   5.425   6.065
  763SOL    HW2 3189   4.145   5.537   6.125
  764SOL     OW 3190   5.236   2.169   5.262
  764SOL    HW1 3191   5.318   2.126   5.224
  764SOL    HW2 3192   5.182   2.101   5.310
  765SOL     OW 3193   1.258   6.356   1.433
  765SOL    HW1 3194   1.346   6.311   1.427
  765SOL    HW2 3195   1.210   6.348   1.346
  766SOL     OW 3196   2.472   3.605   6.706
  766SOL    HW1 3197   2.425   3.693   6.714
  766SOL    HW2 3198   2.539   3.597   6.779
  767SOL     OW 3199   6.087   5.543   1.808
  767SOL    HW1 3200   5.996   5.531   1.769
  767SOL    HW2 3201   6.151   5.482   1.762
  768SOL     OW 3202   2.328   6.342   2.136
  768SOL    HW1 3203   2.275   6.424   2.116
  768SOL    HW2 3204   2.422   6.366   2.158
  769SOL     OW 3205   3.285   0.582   4.809
  769SOL    HW1 3206   3.297   0.603   4.712
  769SOL    HW2 3207   3.251   0.662   4.857
  770SOL     OW 3208   2.136   4.384   3.120
  770SOL    HW1 3209   2.094   4.474   3.115
  770SOL    HW2 3210   2.187   4.366   3.036
  771SOL     OW 3211   2.516   5.306   2.578
  771SOL    HW1 3212   2.611   5.331   2.557
  771SOL    HW2 3213   2.454   5.369   2.531
  772SOL     OW 3214   5.712   5.006   0.717
  772SOL    HW1 3215   5.757   4.932   0.666
  772SOL    HW2 3216   5.781   5.069   0.752
  773SOL     OW 3217   0.629   3.550   5.163
  773SOL    HW1 3218   0.573   3.468   5.158
  773SOL    HW2 3219   0.571   3.630   5.147
  774SOL     OW 3220   0.887   1.654   1.115
  774SOL    HW1 3221   0.881   1.596   1.196
  774SOL    HW2 3222   0.805   1.710   1.108
  775SOL     OW 3223   0.795   2.394   2.824
  775SOL    HW1 3224   0.714   2.453   2.837
  775SOL    HW2 3225   0.786   2.312   2.881
  776SOL     OW 3226   1.210   0.262   6.212
  776SOL    HW1 3227   1.145   0.236   6.140
  776SOL    HW2 3228   1.299   0.222   6.193
  777SOL     OW 3229   2.245   4.808   1.329
  777SOL    HW1 3230   2.215   4.715   1.346
  777SOL    HW2 3231   2.303   4.840   1.404
  778SOL     OW 3232   3.001   1.388   2.362
  778SOL    HW1 3233   2.952   1.473   2.342
  778SOL    HW2 3234   3.041   1.352   2.278
  779SOL     OW 3235   6.918   2.783   2.633
  779SOL    HW1 3236   7.000   2.729   2.620
  779SOL    HW2 3237   6.909   2.849   2.559
  780SOL     OW 3238   6.482   3.798   3.713
  780SOL    HW1 3239   6.548   3.744   3.661
  780SOL    HW2 3240   6.430   3.856   3.650
  781SOL     OW 3241   5.495   1.088   0.216
  781SOL    HW1 3242   5.452   1.062   0.302
  781SOL    HW2 3243   5.584   1.043   0.209
  782SOL     OW 3244   1.413   4.254   6.705
  782SOL    HW1 3245   1.443   4.263   6.800
  782SOL    HW2 3246   1.489   4.275   6.643
  783SOL     OW 3247   4.145   5.391   0.838
  783SOL    HW1 3248   4.211   5.315   0.837
  783SOL    HW2 3249   4.148   5.439   0.751
  784SOL     OW 3250   5.617   6.040   0.585
  784SOL    HW1 3251   5.583   6.007   0.497
  784SOL    HW2 3252   5.542   6.044   0.651
  785SOL     OW 3253   0.664   2.701   3.053
  785SOL    HW1 3254   0.613   2.720   3.137
  785SOL    HW2 3255   0.607   2.649   2.990
  786SOL     OW 3256   1.346   0.636   1.735
  786SOL    HW1 3257   1.386   0.545   1.749
  786SOL    HW2 3258   1.354   0.662   1.639
  787SOL     OW 3259   2.856   0.327   6.857
  787SOL    HW1 3260   2.876   0.235   6.889
  787SOL    HW2 3261   2.877   0.334   6.759
  788SOL     OW 3262   3.919   2.904   5.707
  788SOL    HW1 3263   3.846   2.911   5.775
  788SOL    HW2 3264   3.910   2.818   5.657
  789SOL     OW 3265   5.008   4.036   0.571
  789SOL    HW1 3266   5.018   4.004   0.476
  789SOL    HW2 3267   5.098   4.058   0.609
  790SOL     OW 3268   2.102   1.460   4.175
  790SOL    HW1 3269   2.127   1.557   4.184
  790SOL    HW2 3270   2.086   1.421   4.265
  791SOL     OW 3271   3.181   5.593   3.949
  791SOL    HW1 3272   3.215   5.670   4.003
  791SOL    HW2 3273   3.156   5.518   4.010
  792SOL     OW 3274   0.916   6.665   0.907
  792SOL    HW1 3275   0.857   6.744   0.924
  792SOL    HW2 3276   0.885   6.617   0.825
  793SOL     OW 3277   4.743   4.892   3.711
  793SOL    HW1 3278   4.798   4.809   3.706
  793SOL    HW2 3279   4.720   4.923   3.619
  794SOL     OW 3280   3.418   3.861   5.572
  794SOL    HW1 3281   3.346   3.793   5.555
  794SOL    HW2 3282   3.376   3.950   5.589
  795SOL     OW 3283   3.602   6.763   4.154
  795SOL    HW1 3284   3.531   6.783   4.086
  795SOL    HW2 3285   3.568   6.786   4.245
  796SOL     OW 3286   0.424   2.128   6.715
  796SOL    HW1 3287   0.439   2.032   6.738
  796SOL    HW2 3288   0.436   2.141   6.616
  797SOL     OW 3289   5.797   3.095   0.953
  797SOL    HW1 3290   5.781   3.173   1.013
  797SOL    HW2 3291   5.841   3.021   1.004
  798SOL     OW 3292   4.158   0.479   2.281
  798SOL    HW1 3293   4.134   0.385   2.305
  798SOL    HW2 3294   4.074   0.533   2.267
  799SOL     OW 3295   6.315   0.220   6.019
  799SOL    HW1 3296   6.294   0.197   5.924
  799SOL    HW2 3297   6.412   0.200   6.037
  800SOL     OW 3298   5.345   2.364   2.411
  800SOL    HW1 3299   5.283   2.289   2.433
  800SOL    HW2 3300   5.321   2.401   2.321
  801SOL     OW 3301   1.208   3.532   4.233
  801SOL    HW1 3302   1.160   3.579   4.160
  801SOL    HW2 3303   1.294   3.495   4.198
  802SOL     OW 3304   4.514   1.643   0.824
  802SOL    HW1 3305   4.496   1.738   0.798
  802SOL    HW2 3306   4.467   1.623   0.910
  803SOL     OW 3307   0.384   6.884   5.307
  803SOL    HW1 3308   0.308   6.860   5.245
  803SOL    HW2 3309   0.350   6.944   5.379
  804SOL     OW 3310   5.436   5.557   6.581
  804SOL    HW1 3311   5.358   5.608   6.615
  804SOL    HW2 3312   5.408   5.464   6.559
  805SOL     OW 3313   4.048   7.001   5.510
  805SOL    HW1 3314   4.082   6.917   5.552
  805SOL    HW2 3315   4.084   0.052   5.561
  806SOL     OW 3316   5.377   1.232   4.397
  806SOL    HW1 3317   5.393   1.282   4.482
  806SOL    HW2 3318   5.431   1.148   4.396
  807SOL     OW 3319   1.391   2.243   4.236
  807SOL    HW1 3320   1.399   2.240   4.336
  807SOL    HW2 3321   1.319   2.182   4.205
  808SOL     OW 3322   4.432   3.546   6.500
  808SOL    HW1 3323   4.442   3.630   6.448
  808SOL    HW2 3324   4.344   3.503   6.477
  809SOL     OW 3325   7.022   4.899   1.447
  809SOL    HW1 3326   0.076   4.868   1.493
  809SOL    HW2 3327   6.993   4.988   1.485
  810SOL     OW 3328   3.238   2.634   1.205
  810SOL    HW1 3329   3.197   2.547   1.234
  810SOL    HW2 3330   3.316   2.615   1.145
  811SOL     OW 3331   4.013   5.451   5.038
  811SOL    HW1 3332   4.101   5.498   5.044
  811SOL    HW2 3333   4.006   5.383   5.111
  812SOL     OW 3334   0.180   1.509   1.900
  812SOL    HW1 3335   0.228   1.581   1.950
  812SOL    HW2 3336   0.093   1.545   1.865
  813SOL     OW 3337   3.328   6.103   5.448
  813SOL    HW1 3338   3.264   6.130   5.520
  813SOL    HW2 3339   3.403   6.050   5.488
  814SOL     OW 3340   6.761   6.193   2.449
  814SOL    HW1 3341   6.812   6.108   2.436
  814SOL    HW2 3342   6.690   6.178   2.518
  815SOL     OW 3343   0.642   3.655   2.918
  815SOL    HW1 3344   0.673   3.689   3.007
  815SOL    HW2 3345   0.567   3.590   2.932
  816SOL     OW 3346   6.251   6.478   0.979
  816SOL    HW1 3347   6.182   6.423   0.932
  816SOL    HW2 3348   6.220   6.496   1.073
  817SOL     OW 3349   2.024   4.040   0.392
  817SOL    HW1 3350   1.986   4.007   0.479
  817SOL    HW2 3351   1.950   4.058   0.328
  818SOL     OW 3352   6.292   2.851   2.446
  818SOL    HW1 3353   6.196   2.877   2.441
  818SOL    HW2 3354   6.305   2.782   2.516
  819SOL     OW 3355   5.671   2.752   3.059
  819SOL    HW1 3356   5.645   2.844   3.032
  819SOL    HW2 3357   5.640   2.687   2.990
  820SOL     OW 3358   2.986   2.468   5.381
  820SOL    HW1 3359   3.040   2.453   5.299
  820SOL    HW2 3360   3.041   2.516   5.449
  821SOL     OW 3361   1.374   4.235   1.143
  821SOL    HW1 3362   1.296   4.297   1.138
  821SOL    HW2 3363   1.458   4.288   1.154
  822SOL     OW 3364   1.734   4.260   3.805
  822SOL    HW1 3365   1.801   4.242   3.878
  822SOL    HW2 3366   1.745   4.353   3.772
  823SOL     OW 3367   5.656   3.822   6.654
  823SOL    HW1 3368   5.658   3.921   6.670
  823SOL    HW2 3369   5.689   3.775   6.736
  824SOL     OW 3370   5.512   0.876   5.937
  824SOL    HW1 3371   5.435   0.939   5.924
  824SOL    HW2 3372   5.581   0.892   5.867
  825SOL     OW 3373   0.685   4.056   1.162
  825SOL    HW1 3374   0.719   4.130   1.219
  825SOL    HW2 3375   0.742   3.975   1.175
  826SOL     OW 3376   5.103   3.135   5.448
  826SOL    HW1 3377   5.202   3.142   5.434
  826SOL    HW2 3378   5.085   3.108   5.542
  827SOL     OW 3379   2.955   4.962   5.593
  827SOL    HW1 3380   2.947   5.047   5.541
  827SOL    HW2 3381   3.049   4.928   5.587
  828SOL     OW 3382   5.389   6.864   6.604
  828SOL    HW1 3383   5.375   6.960   6.576
  828SOL    HW2 3384   5.301   6.822   6.624
  829SOL     OW 3385   3.034   3.870   2.853
  829SOL    HW1 3386   2.989   3.939   2.911
  829SOL    HW2 3387   3.019   3.779   2.891
  830SOL     OW 3388   5.224   5.087   6.691
  830SOL    HW1 3389   5.143   5.049   6.645
  830SOL    HW2 3390   5.262   5.019   6.754
  831SOL     OW 3391   6.087   0.629   6.742
  831SOL    HW1 3392   6.113   0.535   6.764
  831SOL    HW2 3393   6.152   0.666   6.675
  832SOL     OW 3394   2.874   0.777   1.878
  832SOL    HW1 3395   2.918   0.829   1.804
  832SOL    HW2 3396   2.943   0.753   1.946
  833SOL     OW 3397   0.542   3.771   5.818
  833SOL    HW1 3398   0.564   3.719   5.901
  833SOL    HW2 3399   0.505   3.709   5.749
  834SOL     OW 3400   4.145   3.491   0.285
  834SOL    HW1 3401   4.244   3.496   0.268
  834SOL    HW2 3402   4.099   3.565   0.236
  835SOL     OW 3403   3.572   0.446   5.156
  835SOL    HW1 3404   3.618   0.535   5.153
  835SOL    HW2 3405   3.505   0.440   5.082
  836SOL     OW 3406   3.742   6.231   6.832
  836SOL    HW1 3407   3.815   6.164   6.817
  836SOL    HW2 3408   3.731   6.286   6.749
  837SOL     OW 3409   5.318   0.129   0.641
  837SOL    HW1 3410   5.292   0.193   0.568
  837SOL    HW2 3411   5.361   0.048   0.600
  838SOL     OW 3412   2.310   0.451   4.670
  838SOL    HW1 3413   2.298   0.370   4.613
  838SOL    HW2 3414   2.234   0.458   4.735
  839SOL     OW 3415   2.028   2.706   1.910
  839SOL    HW1 3416   2.126   2.723   1.909
  839SOL    HW2 3417   2.004   2.651   1.991
  840SOL     OW 3418   6.269   6.237   6.939
  840SOL    HW1 3419   6.171   6.257   6.938
  840SOL    HW2 3420   6.287   6.155   6.885
  841SOL     OW 3421   4.004   4.968   6.600
  841SOL    HW1 3422   4.089   4.936   6.641
  841SOL    HW2 3423   3.926   4.936   6.654
  842SOL     OW 3424   4.181   6.795   4.812
  842SOL    HW1 3425   4.192   6.806   4.714
  842SOL    HW2 3426   4.200   6.883   4.858
  843SOL     OW 3427   1.079   1.791   1.007
  843SOL    HW1 3428   1.015   1.717   1.028
  843SOL    HW2 3429   1.096   1.845   1.090
  844SOL     OW 3430   6.290   0.526   1.001
  844SOL    HW1 3431   6.369   0.528   1.062
  844SOL    HW2 3432   6.222   0.591   1.032
  845SOL     OW 3433   5.344   4.271   5.596
  845SOL    HW1 3434   5.356   4.203   5.669
  845SOL    HW2 3435   5.319   4.225   5.511
  846SOL     OW 3436   1.958   2.002   6.805
  846SOL    HW1 3437   1.959   2.013   6.904
  846SOL    HW2 3438   1.864   2.006   6.771
  847SOL     OW 3439   1.736   3.415   1.420
  847SOL    HW1 3440   1.798   3.375   1.488
  847SOL    HW2 3441   1.665   3.467   1.466
  848SOL     OW 3442   6.047   0.749   6.321
  848SOL    HW1 3443   6.135   0.707   6.302
  848SOL    HW2 3444   6.004   0.779   6.235
  849SOL     OW 3445   0.431   4.345   6.287
  849SOL    HW1 3446   0.404   4.383   6.199
  849SOL    HW2 3447   0.352   4.304   6.332
  850SOL     OW 3448   5.038   0.526   3.724
  850SOL    HW1 3449   5.098   0.446   3.719
  850SOL    HW2 3450   4.949   0.499   3.760
  851SOL     OW 3451   0.292   1.792   2.385
  851SOL    HW1 3452   0.373   1.846   2.410
  851SOL    HW2 3453   0.214   1.854   2.375
  852SOL     OW 3454   1.267   3.017   6.867
  852SOL    HW1 3455   1.302   3.083   6.934
  852SOL    HW2 3456   1.340   2.952   6.844
  853SOL     OW 3457   1.909   4.580   2.687
  853SOL    HW1 3458   1.868   4.647   2.749
  853SOL    HW2 3459   1.841   4.510   2.664
  854SOL     OW 3460   4.609   5.967   1.481
  854SOL    HW1 3461   4.531   5.908   1.504
  854SOL    HW2 3462   4.578   6.061   1.471
  855SOL     OW 3463   0.232   0.584   1.942
  855SOL    HW1 3464   0.247   0.624   1.852
  855SOL    HW2 3465   0.314   0.596   1.998
  856SOL     OW 3466   1.608   2.242   5.383
  856SOL    HW1 3467   1.589   2.158   5.432
  856SOL    HW2 3468   1.590   2.321   5.443
  857SOL     OW 3469   6.062   4.463   1.907
  857SOL    HW1 3470   5.993   4.503   1.967
  857SOL    HW2 3471   6.124   4.534   1.875
  858SOL     OW 3472   3.011   3.437   1.225
  858SOL    HW1 3473   3.051   3.351   1.194
  858SOL    HW2 3474   3.048   3.513   1.171
  859SOL     OW 3475   4.808   5.621   5.722
  859SOL    HW1 3476   4.797   5.698   5.785
  859SOL    HW2 3477   4.862   5.550   5.766
  860SOL     OW 3478   5.090   3.705   0.198
  860SOL    HW1 3479   5.036   3.742   0.123
  860SOL    HW2 3480   5.140   3.624   0.167
  861SOL     OW 3481   2.419   6.229   3.504
  861SOL    HW1 3482   2.475   6.146   3.506
  861SOL    HW2 3483   2.453   6.294   3.571
  862SOL     OW 3484   0.897   4.180   4.985
  862SOL    HW1 3485   0.944   4.098   4.955
  862SOL    HW2 3486   0.916   4.196   5.082
  863SOL     OW 3487   6.535   0.172   0.814
  863SOL    HW1 3488   6.583   0.198   0.898
  863SOL    HW2 3489   6.442   0.143   0.836
  864SOL     OW 3490   4.115   4.852   3.576
  864SOL    HW1 3491   4.030   4.844   3.628
  864SOL    HW2 3492   4.168   4.929   3.610
  865SOL     OW 3493   0.635   5.927   5.883
  865SOL    HW1 3494   0.559   5.871   5.851
  865SOL    HW2 3495   0.690   5.875   5.948
  866SOL     OW 3496   1.814   1.670   1.774
  866SOL    HW1 3497   1.830   1.736   1.700
  866SOL    HW2 3498   1.896   1.662   1.829
  867SOL     OW 3499   4.016   3.821   0.588
  867SOL    HW1 3500   4.091   3.887   0.588
  867SOL    HW2 3501   3.958   3.837   0.508
  868SOL     OW 3502   5.802   0.625   1.487
  868SOL    HW1 3503   5.894   0.589   1.472
  868SOL    HW2 3504   5.745   0.605   1.407
  869SOL     OW 3505   6.750   5.110   3.111
  869SOL    HW1 3506   6.709   5.114   3.202
  869SOL    HW2 3507   6.731   5.195   3.061
  870SOL     OW 3508   4.034   3.047   0.675
  870SOL    HW1 3509   4.108   2.993   0.714
  870SOL    HW2 3510   4.003   3.114   0.743
  871SOL     OW 3511   4.782   2.964   3.139
  871SOL    HW1 3512   4.835   3.045   3.163
  871SOL    HW2 3513   4.730   2.933   3.218
  872SOL     OW 3514   5.305   4.310   4.278
  872SOL    HW1 3515   5.258   4.398   4.275
  872SOL    HW2 3516   5.238   4.236   4.276
  873SOL     OW 3517   6.065   6.843   4.159
  873SOL    HW1 3518   6.136   6.899   4.115
  873SOL    HW2 3519   6.003   6.903   4.210
  874SOL     OW 3520   0.971   4.235   6.057
  874SOL    HW1 3521   0.925   4.288   5.986
  874SOL    HW2 3522   0.909   4.166   6.093
  875SOL     OW 3523   3.293   2.926   0.193
  875SOL    HW1 3524   3.295   2.873   0.108
  875SOL    HW2 3525   3.308   2.865   0.271
  876SOL     OW 3526   0.574   5.054   2.785
  876SOL    HW1 3527   0.525   5.025   2.867
  876SOL    HW2 3528   0.534   5.010   2.705
  877SOL     OW 3529   4.256   4.155   6.749
  877SOL    HW1 3530   4.291   4.070   6.791
  877SOL    HW2 3531   4.166   4.175   6.786
  878SOL     OW 3532   3.868   5.695   5.118
  878SOL    HW1 3533   3.776   5.694   5.080
  878SOL    HW2 3534   3.924   5.626   5.072
  879SOL     OW 3535   2.848   2.080   2.021
  879SOL    HW1 3536   2.824   2.061   1.925
  879SOL    HW2 3537   2.863   2.178   2.032
  880SOL     OW 3538   3.311   4.117   5.590
  880SOL    HW1 3539   3.227   4.091   5.638
  880SOL    HW2 3540   3.369   4.170   5.652
  881SOL     OW 3541   4.550   4.037   5.276
  881SOL    HW1 3542   4.609   3.958   5.260
  881SOL    HW2 3543   4.597   4.120   5.245
  882SOL     OW 3544   1.409   1.687   4.480
  882SOL    HW1 3545   1.342   1.627   4.436
  882SOL    HW2 3546   1.395   1.781   4.449
  883SOL     OW 3547   4.961   5.367   6.094
  883SOL    HW1 3548   5.053   5.385   6.127
  883SOL    HW2 3549   4.896   5.376   6.169
  884SOL     OW 3550   0.102   4.089   0.193
  884SOL    HW1 3551   0.018   4.036   0.204
  884SOL    HW2 3552   0.132   4.086   0.098
  885SOL     OW 3553   4.946   5.275   6.546
  885SOL    HW1 3554   4.900   5.280   6.635
  885SOL    HW2 3555   5.033   5.323   6.550
  886SOL     OW 3556   3.999   0.586   1.018
  886SOL    HW1 3557   4.072   0.518   1.010
  886SOL    HW2 3558   4.002   0.648   0.939
  887SOL     OW 3559   3.839   6.671   4.041
  887SOL    HW1 3560   3.907   6.736   4.005
  887SOL    HW2 3561   3.753   6.719   4.057
  888SOL     OW 3562   5.604   6.028   2.897
  888SOL    HW1 3563   5.674   5.995   2.960
  888SOL    HW2 3564   5.540   6.087   2.946
  889SOL     OW 3565   1.509   6.309   5.689
  889SOL    HW1 3566   1.566   6.389   5.673
  889SOL    HW2 3567   1.566   6.234   5.722
  890SOL     OW 3568   2.084   4.923   2.163
  890SOL    HW1 3569   2.053   4.863   2.238
  890SOL    HW2 3570   2.108   5.013   2.200
  891SOL     OW 3571   5.986   4.306   0.775
  891SOL    HW1 3572   5.925   4.232   0.749
  891SOL    HW2 3573   6.078   4.288   0.739
  892SOL     OW 3574   3.933   4.259   5.655
  892SOL    HW1 3575   3.922   4.349   5.615
  892SOL    HW2 3576   4.024   4.224   5.633
  893SOL     OW 3577   1.748   1.231   1.868
  893SOL    HW1 3578   1.822   1.203   1.807
  893SOL    HW2 3579   1.711   1.151   1.915
  894SOL     OW 3580   1.837   1.898   3.266
  894SOL    HW1 3581   1.753   1.848   3.289
  894SOL    HW2 3582   1.817   1.996   3.259
  895SOL     OW 3583   0.985   5.850   4.739
  895SOL    HW1 3584   0.941   5.861   4.649
  895SOL    HW2 3585   1.027   5.937   4.766
  896SOL     OW 3586   6.367   6.193   2.334
  896SOL    HW1 3587   6.304   6.176   2.410
  896SOL    HW2 3588   6.431   6.117   2.327
  897SOL     OW 3589   4.727   0.996   0.400
  897SOL    HW1 3590   4.733   1.087   0.441
  897SOL    HW2 3591   4.631   0.971   0.390
  898SOL     OW 3592   4.304   6.124   3.048
  898SOL    HW1 3593   4.310   6.152   3.144
  898SOL    HW2 3594   4.209   6.128   3.018
  899SOL     OW 3595   0.310   5.266   0.591
  899SOL    HW1 3596   0.314   5.343   0.655
  899SOL    HW2 3597   0.218   5.258   0.553
  900SOL     OW 3598   4.202   6.248   0.669
  900SOL    HW1 3599   4.230   6.297   0.587
  900SOL    HW2 3600   4.283   6.228   0.726
  901SOL     OW 3601   0.908   1.124   5.487
  901SOL    HW1 3602   0.869   1.046   5.537
  901SOL    HW2 3603   1.000   1.142   5.521
  902SOL     OW 3604   0.700   2.371   0.234
  902SOL    HW1 3605   0.629   2.326   0.288
  902SOL    HW2 3606   0.776   2.396   0.293
  903SOL     OW 3607   6.796   4.314   6.467
  903SOL    HW1 3608   6.739   4.392   6.492
  903SOL    HW2 3609   6.759   4.270   6.385
  904SOL     OW 3610   1.967   2.713   3.290
  904SOL    HW1 3611   2.029   2.779   3.249
  904SOL    HW2 3612   1.953   2.735   3.386
  905SOL     OW 3613   4.736   3.841   6.241
  905SOL    HW1 3614   4.715   3.790   6.157
  905SOL    HW2 3615   4.654   3.887   6.273
  906SOL     OW 3616   0.766   2.985   5.721
  906SOL    HW1 3617   0.761   3.075   5.679
  906SOL    HW2 3618   0.675   2.958   5.753
  907SOL     OW 3619   6.251   2.979   2.762
  907SOL    HW1 3620   6.269   3.072   2.732
  907SOL    HW2 3621   6.156   2.954   2.741
  908SOL     OW 3622   1.817   5.954   3.429
  908SOL    HW1 3623   1.811   5.861   3.392
  908SOL    HW2 3624   1.743   5.969   3.494
  909SOL     OW 3625   2.846   6.107   2.144
  909SOL    HW1 3626   2.802   6.196   2.135
  909SOL    HW2 3627   2.919   6.099   2.076
  910SOL     OW 3628   2.838   0.542   1.300
  910SOL    HW1 3629   2.748   0.528   1.341
  910SOL    HW2 3630   2.908   0.535   1.371
  911SOL     OW 3631   6.898   5.121   1.046
  911SOL    HW1 3632   6.939   5.160   0.963
  911SOL    HW2 3633   6.966   5.119   1.119
  912SOL     OW 3634   6.270   0.709   4.188
  912SOL    HW1 3635   6.231   0.619   4.207
  912SOL    HW2 3636   6.370   0.701   4.181
  913SOL     OW 3637   1.650   0.893   3.012
  913SOL    HW1 3638   1.727   0.831   3.000
  913SOL    HW2 3639   1.668   0.978   2.964
  914SOL     OW 3640   2.433   6.192   5.049
  914SOL    HW1 3641   2.434   6.215   4.952
  914SOL    HW2 3642   2.404   6.097   5.061
  915SOL     OW 3643   1.462   3.687   6.942
  915SOL    HW1 3644   1.476   3.617   7.012
  915SOL    HW2 3645   1.367   3.687   6.913
  916SOL     OW 3646   1.510   2.777   1.818
  916SOL    HW1 3647   1.562   2.812   1.897
  916SOL    HW2 3648   1.456   2.698   1.846
  917SOL     OW 3649   5.617   0.521   2.365
  917SOL    HW1 3650   5.530   0.533   2.413
  917SOL    HW2 3651   5.600   0.516   2.266
  918SOL     OW 3652   2.647   6.670   6.977
  918SOL    HW1 3653   2.629   6.635   6.885
  918SOL    HW2 3654   2.688   6.598   0.004
  919SOL     OW 3655   6.648   5.414   2.432
  919SOL    HW1 3656   6.693   5.358   2.501
  919SOL    HW2 3657   6.634   5.361   2.349
  920SOL     OW 3658   2.413   5.702   3.083
  920SOL    HW1 3659   2.326   5.683   3.128
  920SOL    HW2 3660   2.410   5.794   3.043
  921SOL     OW 3661   4.882   4.153   3.984
  921SOL    HW1 3662   4.847   4.063   3.955
  921SOL    HW2 3663   4.880   4.159   4.084
  922SOL     OW 3664   3.626   2.871   5.573
  922SOL    HW1 3665   3.682   2.814   5.514
  922SOL    HW2 3666   3.600   2.955   5.524
  923SOL     OW 3667   3.060   4.440   5.892
  923SOL    HW1 3668   2.969   4.407   5.917
  923SOL    HW2 3669   3.088   4.512   5.955
  924SOL     OW 3670   6.556   2.424   2.579
  924SOL    HW1 3671   6.488   2.432   2.506
  924SOL    HW2 3672   6.603   2.512   2.590
  925SOL     OW 3673   6.846   2.109   6.204
  925SOL    HW1 3674   6.775   2.046   6.173
  925SOL    HW2 3675   6.935   2.064   6.201
  926SOL     OW 3676   6.176   1.191   0.553
  926SOL    HW1 3677   6.084   1.179   0.514
  926SOL    HW2 3678   6.238   1.125   0.513
  927SOL     OW 3679   5.717   3.788   3.620
  927SOL    HW1 3680   5.756   3.783   3.528
  927SOL    HW2 3681   5.755   3.714   3.676
  928SOL     OW 3682   1.243   6.367   0.412
  928SOL    HW1 3683   1.321   6.395   0.468
  928SOL    HW2 3684   1.167   6.340   0.472
  929SOL     OW 3685   0.775   0.612   1.170
  929SOL    HW1 3686   0.808   0.705   1.187
  929SOL    HW2 3687   0.760   0.599   1.072
  930SOL     OW 3688   5.444   6.048   4.887
  930SOL    HW1 3689   5.511   5.989   4.842
  930SOL    HW2 3690   5.353   6.029   4.850
  931SOL     OW 3691   5.871   3.281   3.107
  931SOL    HW1 3692   5.808   3.203   3.115
  931SOL    HW2 3693   5.961   3.248   3.079
  932SOL     OW 3694   3.115   6.631   2.909
  932SOL    HW1 3695   3.043   6.603   2.973
  932SOL    HW2 3696   3.079   6.630   2.815
  933SOL     OW 3697   0.693   5.688   3.476
  933SOL    HW1 3698   0.625   5.752   3.442
  933SOL    HW2 3699   0.670   5.595   3.445
  934SOL     OW 3700   1.463   0.666   4.605
  934SOL    HW1 3701   1.547   0.674   4.658
  934SOL    HW2 3702   1.431   0.758   4.579
  935SOL     OW 3703   5.036   4.052   5.397
  935SOL    HW1 3704   5.096   4.123   5.361
  935SOL    HW2 3705   4.985   4.011   5.321
  936SOL     OW 3706   1.738   1.054   6.421
  936SOL    HW1 3707   1.680   1.067   6.501
  936SOL    HW2 3708   1.705   1.112   6.347
  937SOL     OW 3709   4.989   1.527   4.665
  937SOL    HW1 3710   5.084   1.557   4.654
  937SOL    HW2 3711   4.940   1.592   4.722
  938SOL     OW 3712   0.353   5.542   6.116
  938SOL    HW1 3713   0.348   5.508   6.022
  938SOL    HW2 3714   0.327   5.468   6.179
  939SOL     OW 3715   5.416   0.672   5.407
  939SOL    HW1 3716   5.412   0.646   5.503
  939SOL    HW2 3717   5.453   0.596   5.354
  940SOL     OW 3718   0.702   2.944   2.498
  940SOL    HW1 3719   0.742   2.898   2.577
  940SOL    HW2 3720   0.772   2.998   2.452
  941SOL     OW 3721   6.552   0.888   5.009
  941SOL    HW1 3722   6.482   0.958   4.996
  941SOL    HW2 3723   6.629   0.906   4.947
  942SOL     OW 3724   4.906   0.231   3.596
  942SOL    HW1 3725   4.971   0.202   3.525
  942SOL    HW2 3726   4.836   0.290   3.555
  943SOL     OW 3727   1.798   3.508   3.434
  943SOL    HW1 3728   1.882   3.555   3.406
  943SOL    HW2 3729   1.801   3.490   3.532
  944SOL     OW 3730   6.669   4.224   5.511
  944SOL    HW1 3731   6.767   4.240   5.503
  944SOL    HW2 3732   6.629   4.293   5.571
  945SOL     OW 3733   6.541   4.598   5.585
  945SOL    HW1 3734   6.569   4.515   5.635
  945SOL    HW2 3735   6.458   4.578   5.533
  946SOL     OW 3736   4.551   2.982   5.678
  946SOL    HW1 3737   4.525   2.912   5.612
  946SOL    HW2 3738   4.565   3.069   5.630
  947SOL     OW 3739   3.431   2.946   4.068
  947SOL    HW1 3740   3.342   2.992   4.056
  947SOL    HW2 3741   3.501   2.996   4.016
  948SOL     OW 3742   4.088   0.319   0.851
  948SOL    HW1 3743   4.057   0.228   0.877
  948SOL    HW2 3744   4.097   0.324   0.751
  949SOL     OW 3745   0.921   6.653   6.356
  949SOL    HW1 3746   0.978   6.645   6.438
  949SOL    HW2 3747   0.892   6.748   6.344
  950SOL     OW 3748   4.311   4.974   1.732
  950SOL    HW1 3749   4.374   4.998   1.658
  950SOL    HW2 3750   4.321   5.041   1.807
  951SOL     OW 3751   2.190   0.439   2.953
  951SOL    HW1 3752   2.223   0.409   2.864
  951SOL    HW2 3753   2.215   0.372   3.023
  952SOL     OW 3754   5.331   1.906   2.833
  952SOL    HW1 3755   5.320   2.004   2.849
  952SOL    HW2 3756   5.242   1.861   2.843
  953SOL     OW 3757   4.947   5.715   4.802
  953SOL    HW1 3758   4.898   5.640   4.845
  953SOL    HW2 3759   5.027   5.738   4.857
  954SOL     OW 3760   4.822   5.761   0.470
  954SOL    HW1 3761   4.748   5.737   0.407
  954SOL    HW2 3762   4.788   5.760   0.564
  955SOL     OW 3763   0.117   4.554   2.925
  955SOL    HW1 3764   0.179   4.588   2.854
  955SOL    HW2 3765   0.148   4.463   2.954
  956SOL     OW 3766   0.269   2.150   2.629
  956SOL    HW1 3767   0.206   2.100   2.689
  956SOL    HW2 3768   0.225   2.165   2.540
  957SOL     OW 3769   0.332   5.333   4.425
  957SOL    HW1 3770   0.324   5.285   4.338
  957SOL    HW2 3771   0.274   5.287   4.493
  958SOL     OW 3772   4.542   2.005   2.888
  958SOL    HW1 3773   4.552   1.910   2.918
  958SOL    HW2 3774   4.456   2.015   2.837
  959SOL     OW 3775   3.458   5.336   3.365
  959SOL    HW1 3776   3.531   5.380   3.313
  959SOL    HW2 3777   3.372   5.385   3.350
  960SOL     OW 3778   0.444   5.565   3.378
  960SOL    HW1 3779   0.452   5.641   3.314
  960SOL    HW2 3780   0.517   5.499   3.360
  961SOL     OW 3781   4.421   0.144   3.430
  961SOL    HW1 3782   4.383   0.052   3.419
  961SOL    HW2 3783   4.356   0.212   3.395
  962SOL     OW 3784   1.240   1.157   4.050
  962SOL    HW1 3785   1.284   1.098   3.983
  962SOL    HW2 3786   1.141   1.147   4.044
  963SOL     OW 3787   6.721   2.666   6.451
  963SOL    HW1 3788   6.799   2.712   6.493
  963SOL    HW2 3789   6.686   2.723   6.376
  964SOL     OW 3790   6.163   4.366   6.830
  964SOL    HW1 3791   6.147   4.453   6.877
  964SOL    HW2 3792   6.083   4.307   6.840
  965SOL     OW 3793   5.728   1.501   0.804
  965SOL    HW1 3794   5.723   1.597   0.833
  965SOL    HW2 3795   5.754   1.496   0.708
  966SOL     OW 3796   5.281   2.487   1.606
  966SOL    HW1 3797   5.194   2.513   1.647
  966SOL    HW2 3798   5.324   2.568   1.565
  967SOL     OW 3799   2.155   4.487   1.712
  967SOL    HW1 3800   2.119   4.575   1.681
  967SOL    HW2 3801   2.168   4.426   1.634
  968SOL     OW 3802   3.601   1.767   2.156
  968SOL    HW1 3803   3.566   1.763   2.250
  968SOL    HW2 3804   3.562   1.847   2.110
  969SOL     OW 3805   3.403   5.860   6.663
  969SOL    HW1 3806   3.465   5.858   6.585
  969SOL    HW2 3807   3.321   5.913   6.640
  970SOL     OW 3808   4.576   1.193   5.912
  970SOL    HW1 3809   4.554   1.096   5.914
  970SOL    HW2 3810   4.586   1.222   5.816
  971SOL     OW 3811   6.743   2.264   2.983
  971SOL    HW1 3812   6.764   2.361   2.974
  971SOL    HW2 3813   6.756   2.219   2.894
  972SOL     OW 3814   5.648   3.930   1.642
  972SOL    HW1 3815   5.550   3.936   1.623
  972SOL    HW2 3816   5.668   3.845   1.691
  973SOL     OW 3817   6.947   4.562   6.983
  973SOL    HW1 3818   6.918   4.485   6.926
  973SOL    HW2 3819   0.004   4.600   6.947
  974SOL     OW 3820   5.865   0.046   2.594
  974SOL    HW1 3821   5.942   0.069   2.654
  974SOL    HW2 3822   5.828   0.130   2.554
  975SOL     OW 3823   1.745   5.377   6.303
  975SOL    HW1 3824   1.784   5.354   6.393
  975SOL    HW2 3825   1.799   5.449   6.261
  976SOL     OW 3826   6.460   3.290   3.076
  976SOL    HW1 3827   6.492   3.291   2.981
  976SOL    HW2 3828   6.449   3.384   3.109
  977SOL     OW 3829   1.157   0.910   2.790
  977SOL    HW1 3830   1.095   0.975   2.833
  977SOL    HW2 3831   1.216   0.958   2.725
  978SOL     OW 3832   4.920   3.732   5.703
  978SOL    HW1 3833   4.914   3.656   5.638
  978SOL    HW2 3834   4.863   3.807   5.670
  979SOL     OW 3835   0.043   2.216   0.985
  979SOL    HW1 3836   0.074   2.219   1.080
  979SOL    HW2 3837   0.036   2.308   0.948
  980SOL     OW 3838   4.375   2.184   3.926
  980SOL    HW1 3839   4.332   2.222   4.008
  980SOL    HW2 3840   4.472   2.170   3.942
  981SOL     OW 3841   1.286   2.237   5.365
  981SOL    HW1 3842   1.373   2.275   5.337
  981SOL    HW2 3843   1.258   2.165   5.301
  982SOL     OW 3844   2.265   2.475   3.869
  982SOL    HW1 3845   2.193   2.418   3.908
  982SOL    HW2 3846   2.224   2.557   3.828
  983SOL     OW 3847   5.847   2.114   4.856
  983SOL    HW1 3848   5.844   2.101   4.757
  983SOL    HW2 3849   5.776   2.059   4.899
  984SOL     OW 3850   2.858   1.885   4.493
  984SOL    HW1 3851   2.875   1.916   4.400
  984SOL    HW2 3852   2.877   1.959   4.558
  985SOL     OW 3853   4.814   4.639   6.484
  985SOL    HW1 3854   4.890   4.644   6.419
  985SOL    HW2 3855   4.763   4.725   6.483
  986SOL     OW 3856   5.421   4.437   0.789
  986SOL    HW1 3857   5.443   4.417   0.884
  986SOL    HW2 3858   5.429   4.353   0.734
  987SOL     OW 3859   4.340   7.016   1.729
  987SOL    HW1 3860   4.336   0.049   1.650
  987SOL    HW2 3861   4.335   0.043   1.813
  988SOL     OW 3862   3.350   3.212   2.947
  988SOL    HW1 3863   3.445   3.195   2.923
  988SOL    HW2 3864   3.323   3.154   3.024
  989SOL     OW 3865   6.688   0.849   5.247
  989SOL    HW1 3866   6.641   0.870   5.161
  989SOL    HW2 3867   6.622   0.809   5.311
  990SOL     OW 3868   4.329   0.335   1.821
  990SOL    HW1 3869   4.289   0.391   1.894
  990SOL    HW2 3870   4.284   0.358   1.734
  991SOL     OW 3871   1.514   2.970   5.164
  991SOL    HW1 3872   1.468   3.015   5.241
  991SOL    HW2 3873   1.589   3.028   5.132
  992SOL     OW 3874   7.003   2.814   2.188
  992SOL    HW1 3875   0.059   2.791   2.238
  992SOL    HW2 3876   6.925   2.809   2.251
  993SOL     OW 3877   1.781   4.271   1.874
  993SOL    HW1 3878   1.694   4.252   1.828
  993SOL    HW2 3879   1.778   4.231   1.966
  994SOL     OW 3880   3.469   3.736   2.509
  994SOL    HW1 3881   3.407   3.697   2.441
  994SOL    HW2 3882   3.479   3.834   2.493
  995SOL     OW 3883   3.579   3.004   5.300
  995SOL    HW1 3884   3.487   3.043   5.303
  995SOL    HW2 3885   3.641   3.061   5.354
  996SOL     OW 3886   2.279   4.685   4.223
  996SOL    HW1 3887   2.347   4.619   4.192
  996SOL    HW2 3888   2.196   4.636   4.251
  997SOL     OW 3889   1.322   0.688   2.820
  997SOL    HW1 3890   1.259   0.766   2.814
  997SOL    HW2 3891   1.349   0.675   2.915
  998SOL     OW 3892   4.046   6.695   4.395
  998SOL    HW1 3893   4.014   6.627   4.328
  998SOL    HW2 3894   3.976   6.709   4.464
  999SOL     OW 3895   5.286   4.244   2.225
  999SOL    HW1 3896   5.255   4.152   2.248
  999SOL    HW2 3897   5.324   4.244   2.133
 1000SOL     OW 3898   1.915   0.685   2.183
 1000SOL    HW1 3899   1.816   0.695   2.179
 1000SOL    HW2 3900   1.957   0.759   2.130
 1001SOL     OW 3901   5.656   6.326   0.516
 1001SOL    HW1 3902   5.652   6.229   0.537
 1001SOL    HW2 3903   5.586   6.349   0.449
 1002SOL     OW 3904   6.007   1.701   0.493
 1002SOL    HW1 3905   6.063   1.740   0.419
 1002SOL    HW2 3906   6.066   1.671   0.568
 1003SOL     OW 3907   2.503   6.102   1.530
 1003SOL    HW1 3908   2.457   6.060   1.452
 1003SOL    HW2 3909   2.507   6.037   1.606
 1004SOL     OW 3910   0.419   0.644   1.698
 1004SOL    HW1 3911   0.450   0.737   1.677
 1004SOL    HW2 3912   0.381   0.602   1.616
 1005SOL     OW 3913   1.268   2.420   3.595
 1005SOL    HW1 3914   1.298   2.474   3.516
 1005SOL    HW2 3915   1.175   2.446   3.620
 1006SOL     OW 3916   1.320   5.278   0.902
 1006SOL    HW1 3917   1.367   5.303   0.987
 1006SOL    HW2 3918   1.356   5.191   0.869
 1007SOL     OW 3919   5.008   0.261   4.960
 1007SOL    HW1 3920   4.999   0.360   4.953
 1007SOL    HW2 3921   5.102   0.234   4.937
 1008SOL     OW 3922   2.032   3.242   4.796
 1008SOL    HW1 3923   2.112   3.262   4.853
 1008SOL    HW2 3924   1.972   3.322   4.794
 1009SOL     OW 3925   6.958   5.461   5.075
 1009SOL    HW1 3926   7.007   5.537   5.117
 1009SOL    HW2 3927   7.008   5.376   5.092
 1010SOL     OW 3928   3.592   2.677   5.982
 1010SOL    HW1 3929   3.625   2.752   5.925
 1010SOL    HW2 3930   3.507   2.641   5.944
 1011SOL     OW 3931   2.361   4.882   2.226
 1011SOL    HW1 3932   2.367   4.894   2.325
 1011SOL    HW2 3933   2.286   4.820   2.204
 1012SOL     OW 3934   6.505   0.569   1.441
 1012SOL    HW1 3935   6.496   0.501   1.514
 1012SOL    HW2 3936   6.429   0.634   1.445
 1013SOL     OW 3937   1.007   1.317   5.873
 1013SOL    HW1 3938   0.952   1.244   5.915
 1013SOL    HW2 3939   1.070   1.354   5.941
 1014SOL     OW 3940   5.243   5.736   6.679
 1014SOL    HW1 3941   5.292   5.809   6.631
 1014SOL    HW2 3942   5.212   5.770   6.768
 1015SOL     OW 3943   2.698   7.023   5.556
 1015SOL    HW1 3944   2.641   6.970   5.620
 1015SOL    HW2 3945   2.653   7.027   5.467
 1016SOL     OW 3946   3.692   3.620   6.980
 1016SOL    HW1 3947   3.753   3.630   6.901
 1016SOL    HW2 3948   3.708   3.531   7.024
 1017SOL     OW 3949   3.965   2.808   1.237
 1017SOL    HW1 3950   4.010   2.719   1.235
 1017SOL    HW2 3951   3.945   2.838   1.144
 1018SOL     OW 3952   0.907   3.351   4.316
 1018SOL    HW1 3953   0.853   3.362   4.400
 1018SOL    HW2 3954   1.002   3.377   4.334
 1019SOL     OW 3955   6.745   0.228   1.305
 1019SOL    HW1 3956   6.825   0.284   1.284
 1019SOL    HW2 3957   6.685   0.279   1.368
 1020SOL     OW 3958   0.936   6.432   1.212
 1020SOL    HW1 3959   0.886   6.438   1.125
 1020SOL    HW2 3960   1.030   6.462   1.198
 1021SOL     OW 3961   5.007   0.287   1.340
 1021SOL    HW1 3962   4.932   0.236   1.298
 1021SOL    HW2 3963   4.980   0.382   1.352
 1022SOL     OW 3964   3.544   4.893   6.351
 1022SOL    HW1 3965   3.533   4.870   6.448
 1022SOL    HW2 3966   3.471   4.955   6.323
 1023SOL     OW 3967   0.957   6.987   2.722
 1023SOL    HW1 3968   0.889   6.934   2.772
 1023SOL    HW2 3969   0.933   0.056   2.726
 1024SOL     OW 3970   6.799   2.984   4.148
 1024SOL    HW1 3971   6.892   3.021   4.158
 1024SOL    HW2 3972   6.733   3.058   4.158
 1025SOL     OW 3973   2.513   3.080   0.738
 1025SOL    HW1 3974   2.519   3.178   0.719
 1025SOL    HW2 3975   2.512   3.065   0.837
 1026SOL     OW 3976   2.411   2.652   1.345
 1026SOL    HW1 3977   2.444   2.573   1.293
 1026SOL    HW2 3978   2.486   2.716   1.361
 1027SOL     OW 3979   2.862   6.697   1.062
 1027SOL    HW1 3980   2.805   6.778   1.050
 1027SOL    HW2 3981   2.918   6.683   0.981
 1028SOL     OW 3982   2.612   6.267   0.113
 1028SOL    HW1 3983   2.556   6.296   0.191
 1028SOL    HW2 3984   2.674   6.342   0.088
 1029SOL     OW 3985   2.011   0.421   0.288
 1029SOL    HW1 3986   1.931   0.395   0.342
 1029SOL    HW2 3987   2.085   0.447   0.349
 1030SOL     OW 3988   3.343   3.783   2.019
 1030SOL    HW1 3989   3.291   3.709   1.975
 1030SOL    HW2 3990   3.284   3.828   2.087
 1031SOL     OW 3991   4.789   5.331   0.942
 1031SOL    HW1 3992   4.843   5.363   0.864
 1031SOL    HW2 3993   4.710   5.390   0.954
 1032SOL     OW 3994   2.170   1.784   4.735
 1032SOL    HW1 3995   2.247   1.844   4.759
 1032SOL    HW2 3996   2.120   1.760   4.818
 1033SOL     OW 3997   1.650   6.255   0.721
 1033SOL    HW1 3998   1.617   6.211   0.805
 1033SOL    HW2 3999   1.733   6.209   0.690
 1034SOL     OW 4000   0.400   5.681   5.303
 1034SOL    HW1 4001   0.329   5.612   5.291
 1034SOL    HW2 4002   0.360   5.762   5.347
 1035SOL     OW 4003   1.195   1.228   4.591
 1035SOL    HW1 4004   1.160   1.254   4.681
 1035SOL    HW2 4005   1.276   1.283   4.570
 1036SOL     OW 4006   3.010   1.069   1.948
 1036SOL    HW1 4007   2.990   1.140   2.016
 1036SOL    HW2 4008   2.935   1.066   1.881
 1037SOL     OW 4009   1.455   0.385   1.776
 1037SOL    HW1 4010   1.367   0.349   1.809
 1037SOL    HW2 4011   1.529   0.330   1.814
 1038SOL     OW 4012   1.633   0.117   5.738
 1038SOL    HW1 4013   1.627   0.020   5.714
 1038SOL    HW2 4014   1.729   0.142   5.752
 1039SOL     OW 4015   3.498   3.151   5.776
 1039SOL    HW1 4016   3.478   3.248   5.788
 1039SOL    HW2 4017   3.417   3.104   5.741
 1040SOL     OW 4018   4.725   2.728   2.562
 1040SOL    HW1 4019   4.736   2.716   2.661
 1040SOL    HW2 4020   4.736   2.824   2.538
 1041SOL     OW 4021   6.486   6.911   4.630
 1041SOL    HW1 4022   6.472   6.924   4.532
 1041SOL    HW2 4023   6.410   6.952   4.680
 1042SOL     OW 4024   4.206   5.083   2.375
 1042SOL    HW1 4025   4.134   5.014   2.363
 1042SOL    HW2 4026   4.166   5.174   2.363
 1043SOL     OW 4027   3.686   1.657   4.596
 1043SOL    HW1 4028   3.734   1.713   4.529
 1043SOL    HW2 4029   3.605   1.705   4.628
 1044SOL     OW 4030   4.991   4.303   2.241
 1044SOL    HW1 4031   5.088   4.326   2.237
 1044SOL    HW2 4032   4.977   4.211   2.203
 1045SOL     OW 4033   4.147   6.295   2.386
 1045SOL    HW1 4034   4.165   6.346   2.302
 1045SOL    HW2 4035   4.218   6.315   2.453
 1046SOL     OW 4036   1.081   0.348   0.453
 1046SOL    HW1 4037   1.067   0.415   0.526
 1046SOL    HW2 4038   0.999   0.343   0.396
 1047SOL     OW 4039   1.813   0.573   3.285
 1047SOL    HW1 4040   1.873   0.493   3.285
 1047SOL    HW2 4041   1.813   0.615   3.194
 1048SOL     OW 4042   5.584   6.281   4.934
 1048SOL    HW1 4043   5.540   6.194   4.915
 1048SOL    HW2 4044   5.569   6.306   5.029
 1049SOL     OW 4045   6.185   5.587   4.004
 1049SOL    HW1 4046   6.144   5.502   3.971
 1049SOL    HW2 4047   6.113   5.653   4.026
 1050SOL     OW 4048   4.279   5.375   1.159
 1050SOL    HW1 4049   4.327   5.454   1.197
 1050SOL    HW2 4050   4.305   5.362   1.063
 1051SOL     OW 4051   2.313   6.280   1.109
 1051SOL    HW1 4052   2.277   6.203   1.056
 1051SOL    HW2 4053   2.410   6.293   1.088
 1052SOL     OW 4054   3.803   0.484   4.769
 1052SOL    HW1 4055   3.826   0.575   4.734
 1052SOL    HW2 4056   3.875   0.419   4.745
 1053SOL     OW 4057   5.843   4.845   3.067
 1053SOL    HW1 4058   5.883   4.818   3.155
 1053SOL    HW2 4059   5.771   4.780   3.043
 1054SOL     OW 4060   2.198   3.960   5.624
 1054SOL    HW1 4061   2.127   3.890   5.634
 1054SOL    HW2 4062   2.156   4.050   5.632
 1055SOL     OW 4063   5.348   6.698   3.959
 1055SOL    HW1 4064   5.399   6.777   3.924
 1055SOL    HW2 4065   5.284   6.666   3.889
 1056SOL     OW 4066   1.606   4.899   5.734
 1056SOL    HW1 4067   1.589   4.815   5.683
 1056SOL    HW2 4068   1.677   4.952   5.688
 1057SOL     OW 4069   3.183   3.343   2.471
 1057SOL    HW1 4070   3.155   3.247   2.478
 1057SOL    HW2 4071   3.102   3.400   2.455
 1058SOL     OW 4072   4.930   1.286   3.269
 1058SOL    HW1 4073   4.978   1.358   3.319
 1058SOL    HW2 4074   4.928   1.309   3.172
 1059SOL     OW 4075   2.186   0.159   1.522
 1059SOL    HW1 4076   2.222   0.198   1.607
 1059SOL    HW2 4077   2.240   0.193   1.445
 1060SOL     OW 4078   7.001   4.570   4.506
 1060SOL    HW1 4079   0.034   4.584   4.584
 1060SOL    HW2 4080   7.007   4.475   4.475
 1061SOL     OW 4081   5.592   3.755   1.383
 1061SOL    HW1 4082   5.538   3.796   1.309
 1061SOL    HW2 4083   5.626   3.827   1.443
 1062SOL     OW 4084   5.596   3.836   6.103
 1062SOL    HW1 4085   5.524   3.782   6.060
 1062SOL    HW2 4086   5.579   3.933   6.087
 1063SOL     OW 4087   1.900   4.898   1.532
 1063SOL    HW1 4088   1.801   4.885   1.532
 1063SOL    HW2 4089   1.921   4.989   1.495
 1064SOL     OW 4090   2.156   3.968   1.959
 1064SOL    HW1 4091   2.221   4.043   1.970
 1064SOL    HW2 4092   2.141   3.951   1.862
 1065SOL     OW 4093   4.368   0.164   4.103
 1065SOL    HW1 4094   4.466   0.147   4.115
 1065SOL    HW2 4095   4.332   0.208   4.185
 1066SOL     OW 4096   4.856   0.690   4.005
 1066SOL    HW1 4097   4.845   0.598   3.969
 1066SOL    HW2 4098   4.829   0.692   4.102
 1067SOL     OW 4099   0.724   3.137   0.553
 1067SOL    HW1 4100   0.709   3.041   0.530
 1067SOL    HW2 4101   0.782   3.178   0.483
 1068SOL     OW 4102   5.076   4.870   2.624
 1068SOL    HW1 4103   5.156   4.827   2.665
 1068SOL    HW2 4104   5.010   4.799   2.597
 1069SOL     OW 4105   4.693   4.586   0.861
 1069SOL    HW1 4106   4.752   4.569   0.939
 1069SOL    HW2 4107   4.712   4.676   0.823
 1070SOL     OW 4108   0.207   0.166   2.080
 1070SOL    HW1 4109   0.165   0.185   2.169
 1070SOL    HW2 4110   0.300   0.203   2.078
 1071SOL     OW 4111   1.913   0.246   3.114
 1071SOL    HW1 4112   1.858   0.193   3.179
 1071SOL    HW2 4113   1.941   0.188   3.038
 1072SOL     OW 4114   1.802   0.245   1.262
 1072SOL    HW1 4115   1.818   0.152   1.228
 1072SOL    HW2 4116   1.812   0.246   1.362
 1073SOL     OW 4117   4.453   6.760   1.871
 1073SOL    HW1 4118   4.389   6.686   1.848
 1073SOL    HW2 4119   4.437   6.838   1.809
 1074SOL     OW 4120   2.681   5.258   0.922
 1074SOL    HW1 4121   2.660   5.239   1.018
 1074SOL    HW2 4122   2.596   5.272   0.871
 1075SOL     OW 4123   4.345   6.885   4.126
 1075SOL    HW1 4124   4.291   6.843   4.053
 1075SOL    HW2 4125   4.352   6.983   4.109
 1076SOL     OW 4126   6.542   3.953   5.528
 1076SOL    HW1 4127   6.620   3.911   5.576
 1076SOL    HW2 4128   6.569   3.976   5.435
 1077SOL     OW 4129   5.633   0.442   1.057
 1077SOL    HW1 4130   5.561   0.374   1.066
 1077SOL    HW2 4131   5.682   0.429   0.971
 1078SOL     OW 4132   0.733   1.625   2.254
 1078SOL    HW1 4133   0.766   1.533   2.232
 1078SOL    HW2 4134   0.684   1.623   2.341
 1079SOL     OW 4135   2.203   6.115   1.970
 1079SOL    HW1 4136   2.126   6.117   2.034
 1079SOL    HW2 4137   2.289   6.119   2.022
 1080SOL     OW 4138   1.425   4.454   3.576
 1080SOL    HW1 4139   1.368   4.510   3.636
 1080SOL    HW2 4140   1.510   4.431   3.623
 1081SOL     OW 4141   0.281   6.292   6.356
 1081SOL    HW1 4142   0.285   6.297   6.257
 1081SOL    HW2 4143   0.360   6.340   6.395
 1082SOL     OW 4144   3.789   1.900   5.862
 1082SOL    HW1 4145   3.732   1.835   5.913
 1082SOL    HW2 4146   3.787   1.989   5.908
 1083SOL     OW 4147   3.899   3.882   0.821
 1083SOL    HW1 4148   3.885   3.796   0.870
 1083SOL    HW2 4149   3.928   3.863   0.728
 1084SOL     OW 4150   6.217   5.712   0.322
 1084SOL    HW1 4151   6.311   5.734   0.351
 1084SOL    HW2 4152   6.220   5.672   0.230
 1085SOL     OW 4153   1.354   3.624   3.990
 1085SOL    HW1 4154   1.421   3.550   3.982
 1085SOL    HW2 4155   1.308   3.637   3.902
 1086SOL     OW 4156   6.649   6.314   1.669
 1086SOL    HW1 4157   6.744   6.287   1.682
 1086SOL    HW2 4158   6.644   6.413   1.656
 1087SOL     OW 4159   6.076   2.682   5.726
 1087SOL    HW1 4160   6.060   2.780   5.740
 1087SOL    HW2 4161   6.041   2.630   5.804
 1088SOL     OW 4162   6.365   4.724   3.249
 1088SOL    HW1 4163   6.336   4.654   3.184
 1088SOL    HW2 4164   6.415   4.681   3.324
 1089SOL     OW 4165   1.400   6.472   4.747
 1089SOL    HW1 4166   1.438   6.388   4.708
 1089SOL    HW2 4167   1.471   6.522   4.797
 1090SOL     OW 4168   2.465   1.579   3.503
 1090SOL    HW1 4169   2.558   1.548   3.521
 1090SOL    HW2 4170   2.403   1.501   3.505
 1091SOL     OW 4171   2.601   2.715   5.564
 1091SOL    HW1 4172   2.522   2.680   5.614
 1091SOL    HW2 4173   2.587   2.701   5.466
 1092SOL     OW 4174   1.647   4.045   0.472
 1092SOL    HW1 4175   1.710   4.017   0.545
 1092SOL    HW2 4176   1.699   4.063   0.388
 1093SOL     OW 4177   1.264   1.800   2.186
 1093SOL    HW1 4178   1.351   1.751   2.195
 1093SOL    HW2 4179   1.188   1.734   2.196
 1094SOL     OW 4180   0.809   6.125   3.940
 1094SOL    HW1 4181   0.794   6.065   3.862
 1094SOL    HW2 4182   0.785   6.218   3.915
 1095SOL     OW 4183   0.767   2.682   6.188
 1095SOL    HW1 4184   0.843   2.693   6.124
 1095SOL    HW2 4185   0.757   2.765   6.243
 1096SOL     OW 4186   3.432   4.419   1.684
 1096SOL    HW1 4187   3.450   4.323   1.707
 1096SOL    HW2 4188   3.483   4.478   1.745
 1097SOL     OW 4189   1.911   4.095   3.985
 1097SOL    HW1 4190   1.991   4.141   4.023
 1097SOL    HW2 4191   1.837   4.095   4.052
 1098SOL     OW 4192   4.555   3.297   0.978
 1098SOL    HW1 4193   4.528   3.369   0.914
 1098SOL    HW2 4194   4.654   3.303   0.994
 1099SOL     OW 4195   4.229   1.701   5.406
 1099SOL    HW1 4196   4.267   1.711   5.314
 1099SOL    HW2 4197   4.297   1.730   5.473
 1100SOL     OW 4198   3.334   2.109   5.944
 1100SOL    HW1 4199   3.383   2.195   5.928
 1100SOL    HW2 4200   3.352   2.047   5.867
 1101SOL     OW 4201   6.030   2.016   0.369
 1101SOL    HW1 4202   6.025   2.036   0.467
 1101SOL    HW2 4203   5.938   2.000   0.333
 1102SOL     OW 4204   0.874   5.807   4.495
 1102SOL    HW1 4205   0.789   5.767   4.461
 1102SOL    HW2 4206   0.897   5.889   4.442
 1103SOL     OW 4207   3.588   1.901   1.162
 1103SOL    HW1 4208   3.510   1.963   1.158
 1103SOL    HW2 4209   3.556   1.807   1.149
 1104SOL     OW 4210   2.289   3.341   5.275
 1104SOL    HW1 4211   2.358   3.407   5.306
 1104SOL    HW2 4212   2.293   3.259   5.333
 1105SOL     OW 4213   6.169   3.933   5.048
 1105SOL    HW1 4214   6.083   3.922   4.999
 1105SOL    HW2 4215   6.167   4.017   5.102
 1106SOL     OW 4216   0.924   2.063   1.137
 1106SOL    HW1 4217   0.893   2.007   1.060
 1106SOL    HW2 4218   1.009   2.024   1.174
 1107SOL     OW 4219   2.212   0.327   6.615
 1107SOL    HW1 4220   2.182   0.297   6.524
 1107SOL    HW2 4221   2.234   0.424   6.612
 1108SOL     OW 4222   3.308   0.971   5.732
 1108SOL    HW1 4223   3.375   1.010   5.669
 1108SOL    HW2 4224   3.224   1.025   5.728
 1109SOL     OW 4225   4.749   0.004   4.539
 1109SOL    HW1 4226   4.790   0.084   4.582
 1109SOL    HW2 4227   4.662   7.011   4.585
 1110SOL     OW 4228   2.295   2.286   3.245
 1110SOL    HW1 4229   2.306   2.220   3.319
 1110SOL    HW2 4230   2.209   2.335   3.255
 1111SOL     OW 4231   5.110   4.726   6.663
 1111SOL    HW1 4232   5.136   4.751   6.570
 1111SOL    HW2 4233   5.138   4.632   6.682
 1112SOL     OW 4234   5.039   1.391   2.189
 1112SOL    HW1 4235   5.116   1.456   2.188
 1112SOL    HW2 4236   4.975   1.417   2.261
 1113SOL     OW 4237   0.199   3.328   3.021
 1113SOL    HW1 4238   0.112   3.279   3.014
 1113SOL    HW2 4239   0.203   3.376   3.108
 1114SOL     OW 4240   4.192   1.758   6.693
 1114SOL    HW1 4241   4.183   1.740   6.596
 1114SOL    HW2 4242   4.105   1.792   6.729
 1115SOL     OW 4243   4.316   3.158   0.338
 1115SOL    HW1 4244   4.225   3.192   0.362
 1115SOL    HW2 4245   4.354   3.106   0.414
 1116SOL     OW 4246   5.342   6.034   5.363
 1116SOL    HW1 4247   5.418   6.032   5.297
 1116SOL    HW2 4248   5.259   6.001   5.318
 1117SOL     OW 4249   1.488   2.293   1.235
 1117SOL    HW1 4250   1.555   2.305   1.161
 1117SOL    HW2 4251   1.396   2.314   1.201
 1118SOL     OW 4252   2.695   4.269   1.345
 1118SOL    HW1 4253   2.596   4.281   1.354
 1118SOL    HW2 4254   2.742   4.334   1.405
 1119SOL     OW 4255   4.461   3.786   0.278
 1119SOL    HW1 4256   4.441   3.690   0.259
 1119SOL    HW2 4257   4.533   3.817   0.215
 1120SOL     OW 4258   6.071   6.947   4.973
 1120SOL    HW1 4259   6.073   7.005   4.892
 1120SOL    HW2 4260   6.003   6.982   5.038
 1121SOL     OW 4261   5.112   5.126   2.655
 1121SOL    HW1 4262   5.065   5.162   2.575
 1121SOL    HW2 4263   5.101   5.026   2.658
 1122SOL     OW 4264   5.163   3.218   6.882
 1122SOL    HW1 4265   5.172   3.289   6.812
 1122SOL    HW2 4266   5.087   3.157   6.858
 1123SOL     OW 4267   5.300   1.333   3.734
 1123SOL    HW1 4268   5.270   1.266   3.666
 1123SOL    HW2 4269   5.307   1.288   3.823
 1124SOL     OW 4270   6.356   4.334   4.886
 1124SOL    HW1 4271   6.312   4.402   4.828
 1124SOL    HW2 4272   6.409   4.271   4.829
 1125SOL     OW 4273   3.266   1.467   4.733
 1125SOL    HW1 4274   3.287   1.382   4.684
 1125SOL    HW2 4275   3.167   1.480   4.736
 1126SOL     OW 4276   5.379   5.291   6.588
 1126SOL    HW1 4277   5.318   5.225   6.631
 1126SOL    HW2 4278   5.473   5.257   6.590
 1127SOL     OW 4279   4.722   5.121   4.548
 1127SOL    HW1 4280   4.717   5.165   4.637
 1127SOL    HW2 4281   4.631   5.119   4.506
 1128SOL     OW 4282   5.366   1.954   5.450
 1128SOL    HW1 4283   5.395   1.896   5.526
 1128SOL    HW2 4284   5.266   1.955   5.445
 1129SOL     OW 4285   3.290   0.697   6.842
 1129SOL    HW1 4286   3.378   0.684   6.887
 1129SOL    HW2 4287   3.272   0.621   6.781
 1130SOL     OW 4288   1.662   4.703   0.755
 1130SOL    HW1 4289   1.715   4.619   0.752
 1130SOL    HW2 4290   1.662   4.739   0.849
 1131SOL     OW 4291   6.953   6.264   6.243
 1131SOL    HW1 4292   6.979   6.213   6.325
 1131SOL    HW2 4293   6.867   6.228   6.207
 1132SOL     OW 4294   4.813   0.027   1.262
 1132SOL    HW1 4295   4.795   0.002   1.167
 1132SOL    HW2 4296   4.888   6.999   1.298
 1133SOL     OW 4297   0.887   0.328   1.296
 1133SOL    HW1 4298   0.855   0.234   1.290
 1133SOL    HW2 4299   0.842   0.383   1.226
 1134SOL     OW 4300   4.615   1.545   1.245
 1134SOL    HW1 4301   4.665   1.498   1.172
 1134SOL    HW2 4302   4.517   1.546   1.223
 1135SOL     OW 4303   1.922   1.305   2.348
 1135SOL    HW1 4304   1.869   1.368   2.406
 1135SOL    HW2 4305   1.860   1.237   2.308
 1136SOL     OW 4306   2.995   4.950   4.818
 1136SOL    HW1 4307   2.958   4.961   4.911
 1136SOL    HW2 4308   3.094   4.958   4.820
 1137SOL     OW 4309   1.638   1.628   6.079
 1137SOL    HW1 4310   1.624   1.695   6.007
 1137SOL    HW2 4311   1.575   1.646   6.155
 1138SOL     OW 4312   0.690   1.348   6.636
 1138SOL    HW1 4313   0.789   1.361   6.633
 1138SOL    HW2 4314   0.670   1.253   6.658
 1139SOL     OW 4315   3.171   5.449   1.524
 1139SOL    HW1 4316   3.250   5.388   1.524
 1139SOL    HW2 4317   3.132   5.453   1.616
 1140SOL     OW 4318   3.665   1.143   1.937
 1140SOL    HW1 4319   3.623   1.065   1.890
 1140SOL    HW2 4320   3.599   1.218   1.943
 1141SOL     OW 4321   0.189   6.963   6.369
 1141SOL    HW1 4322   0.164   7.020   6.290
 1141SOL    HW2 4323   0.154   6.870   6.356
 1142SOL     OW 4324   2.814   0.476   4.034
 1142SOL    HW1 4325   2.756   0.493   3.955
 1142SOL    HW2 4326   2.899   0.528   4.025
 1143SOL     OW 4327   1.639   3.562   2.114
 1143SOL    HW1 4328   1.599   3.561   2.206
 1143SOL    HW2 4329   1.569   3.533   2.048
 1144SOL     OW 4330   6.432   4.919   5.444
 1144SOL    HW1 4331   6.516   4.870   5.468
 1144SOL    HW2 4332   6.371   4.921   5.523
 1145SOL     OW 4333   0.291   3.868   2.063
 1145SOL    HW1 4334   0.258   3.853   2.157
 1145SOL    HW2 4335   0.214   3.890   2.004
 1146SOL     OW 4336   6.349   0.672   1.893
 1146SOL    HW1 4337   6.419   0.738   1.870
 1146SOL    HW2 4338   6.286   0.712   1.960
 1147SOL     OW 4339   1.626   5.067   0.872
 1147SOL    HW1 4340   1.537   5.043   0.833
 1147SOL    HW2 4341   1.614   5.138   0.940
 1148SOL     OW 4342   4.942   0.000   0.052
 1148SOL    HW1 4343   4.903   6.941   0.080
 1148SOL    HW2 4344   4.898   0.031   6.996
 1149SOL     OW 4345   6.257   4.175   2.500
 1149SOL    HW1 4346   6.204   4.110   2.444
 1149SOL    HW2 4347   6.200   4.253   2.523
 1150SOL     OW 4348   2.601   4.056   0.778
 1150SOL    HW1 4349   2.585   4.028   0.684
 1150SOL    HW2 4350   2.616   3.974   0.835
 1151SOL     OW 4351   4.365   5.197   6.569
 1151SOL    HW1 4352   4.442   5.258   6.549
 1151SOL    HW2 4353   4.394   5.102   6.558
 1152SOL     OW 4354   6.609   5.659   6.064
 1152SOL    HW1 4355   6.536   5.686   6.126
 1152SOL    HW2 4356   6.630   5.562   6.077
 1153SOL     OW 4357   2.221   0.048   2.338
 1153SOL    HW1 4358   2.303   0.036   2.282
 1153SOL    HW2 4359   2.239   0.015   2.431
 1154SOL     OW 4360   1.091   3.927   1.640
 1154SOL    HW1 4361   1.068   3.837   1.678
 1154SOL    HW2 4362   1.044   3.940   1.553
 1155SOL     OW 4363   2.380   5.502   6.838
 1155SOL    HW1 4364   2.294   5.453   6.852
 1155SOL    HW2 4365   2.424   5.518   6.927
 1156SOL     OW 4366   2.747   1.089   4.968
 1156SOL    HW1 4367   2.709   1.000   4.994
 1156SOL    HW2 4368   2.747   1.098   4.869
 1157SOL     OW 4369   6.003   0.567   4.989
 1157SOL    HW1 4370   6.027   0.652   5.035
 1157SOL    HW2 4371   6.021   0.490   5.049
 1158SOL     OW 4372   6.994   6.084   5.530
 1158SOL    HW1 4373   6.991   5.996   5.484
 1158SOL    HW2 4374   0.051   6.093   5.581
 1159SOL     OW 4375   6.120   6.499   4.046
 1159SOL    HW1 4376   6.028   6.470   4.018
 1159SOL    HW2 4377   6.116   6.592   4.080
 1160SOL     OW 4378   3.601   3.299   0.499
 1160SOL    HW1 4379   3.507   3.333   0.512
 1160SOL    HW2 4380   3.610   3.210   0.545
 1161SOL     OW 4381   5.712   0.595   6.580
 1161SOL    HW1 4382   5.698   0.497   6.595
 1161SOL    HW2 4383   5.734   0.640   6.666
 1162SOL     OW 4384   2.906   2.010   6.642
 1162SOL    HW1 4385   2.938   1.924   6.601
 1162SOL    HW2 4386   2.982   2.073   6.651
 1163SOL     OW 4387   6.619   3.530   1.480
 1163SOL    HW1 4388   6.542   3.522   1.544
 1163SOL    HW2 4389   6.627   3.445   1.427
 1164SOL     OW 4390   5.455   2.534   4.887
 1164SOL    HW1 4391   5.502   2.454   4.851
 1164SOL    HW2 4392   5.515   2.582   4.951
 1165SOL     OW 4393   2.635   4.660   4.021
 1165SOL    HW1 4394   2.573   4.581   4.024
 1165SOL    HW2 4395   2.598   4.734   4.077
 1166SOL     OW 4396   3.822   6.595   0.451
 1166SOL    HW1 4397   3.728   6.627   0.458
 1166SOL    HW2 4398   3.873   6.656   0.389
 1167SOL     OW 4399   4.290   6.619   6.469
 1167SOL    HW1 4400   4.317   6.693   6.407
 1167SOL    HW2 4401   4.234   6.553   6.419
 1168SOL     OW 4402   5.356   1.937   3.952
 1168SOL    HW1 4403   5.397   1.877   4.021
 1168SOL    HW2 4404   5.302   1.881   3.889
 1169SOL     OW 4405   5.549   2.591   6.213
 1169SOL    HW1 4406   5.512   2.555   6.128
 1169SOL    HW2 4407   5.611   2.667   6.193
 1170SOL     OW 4408   4.989   1.076   2.909
 1170SOL    HW1 4409   5.069   1.083   2.970
 1170SOL    HW2 4410   5.016   1.030   2.825
 1171SOL     OW 4411   3.044   6.735   0.493
 1171SOL    HW1 4412   3.120   6.746   0.429
 1171SOL    HW2 4413   3.062   6.657   0.553
 1172SOL     OW 4414   3.306   4.096   2.138
 1172SOL    HW1 4415   3.351   4.173   2.182
 1172SOL    HW2 4416   3.364   4.062   2.064
 1173SOL     OW 4417   3.408   0.248   6.070
 1173SOL    HW1 4418   3.404   0.285   5.977
 1173SOL    HW2 4419   3.397   0.323   6.136
 1174SOL     OW 4420   3.103   4.261   6.793
 1174SOL    HW1 4421   3.138   4.300   6.707
 1174SOL    HW2 4422   3.168   4.192   6.827
 1175SOL     OW 4423   3.928   3.200   6.602
 1175SOL    HW1 4424   3.982   3.160   6.676
 1175SOL    HW2 4425   3.961   3.292   6.582
 1176SOL     OW 4426   6.069   4.313   0.410
 1176SOL    HW1 4427   6.070   4.235   0.472
 1176SOL    HW2 4428   5.989   4.369   0.428
 1177SOL     OW 4429   6.976   1.627   6.242
 1177SOL    HW1 4430   6.929   1.694   6.300
 1177SOL    HW2 4431   6.938   1.536   6.257
 1178SOL     OW 4432   3.495   3.504   1.242
 1178SOL    HW1 4433   3.492   3.421   1.297
 1178SOL    HW2 4434   3.588   3.518   1.208
 1179SOL     OW 4435   3.092   6.175   0.571
 1179SOL    HW1 4436   3.006   6.187   0.520
 1179SOL    HW2 4437   3.131   6.086   0.549
 1180SOL     OW 4438   2.385   6.050   3.936
 1180SOL    HW1 4439   2.338   6.135   3.957
 1180SOL    HW2 4440   2.322   5.987   3.892
 1181SOL     OW 4441   0.016   2.410   4.927
 1181SOL    HW1 4442   0.029   2.500   4.969
 1181SOL    HW2 4443   0.073   2.343   4.973
 1182SOL     OW 4444   2.809   5.366   3.883
 1182SOL    HW1 4445   2.778   5.397   3.973
 1182SOL    HW2 4446   2.815   5.444   3.821
 1183SOL     OW 4447   3.468   6.063   1.835
 1183SOL    HW1 4448   3.453   6.133   1.905
 1183SOL    HW2 4449   3.553   6.014   1.856
 1184SOL     OW 4450   4.865   6.922   6.350
 1184SOL    HW1 4451   4.810   6.867   6.288
 1184SOL    HW2 4452   4.808   6.956   6.425
 1185SOL     OW 4453   1.411   0.633   0.733
 1185SOL    HW1 4454   1.431   0.714   0.788
 1185SOL    HW2 4455   1.441   0.551   0.783
 1186SOL     OW 4456   6.203   5.952   6.390
 1186SOL    HW1 4457   6.167   6.042   6.369
 1186SOL    HW2 4458   6.299   5.947   6.361
 1187SOL     OW 4459   5.852   0.169   5.446
 1187SOL    HW1 4460   5.778   0.225   5.408
 1187SOL    HW2 4461   5.815   0.080   5.472
 1188SOL     OW 4462   3.757   6.164   6.383
 1188SOL    HW1 4463   3.799   6.083   6.342
 1188SOL    HW2 4464   3.684   6.197   6.323
 1189SOL     OW 4465   6.369   0.737   2.188
 1189SOL    HW1 4466   6.394   0.834   2.196
 1189SOL    HW2 4467   6.449   0.685   2.158
 1190SOL     OW 4468   3.377   5.238   3.825
 1190SOL    HW1 4469   3.283   5.232   3.856
 1190SOL    HW2 4470   3.435   5.272   3.899
 1191SOL     OW 4471   2.722   6.622   4.667
 1191SOL    HW1 4472   2.803   6.661   4.711
 1191SOL    HW2 4473   2.751   6.566   4.589
 1192SOL     OW 4474   5.433   6.173   3.053
 1192SOL    HW1 4475   5.418   6.259   3.004
 1192SOL    HW2 4476   5.347   6.142   3.093
 1193SOL     OW 4477   0.593   0.694   5.461
 1193SOL    HW1 4478   0.606   0.782   5.416
 1193SOL    HW2 4479   0.677   0.640   5.454
 1194SOL     OW 4480   0.229   1.738   1.176
 1194SOL    HW1 4481   0.136   1.774   1.166
 1194SOL    HW2 4482   0.231   1.670   1.248
 1195SOL     OW 4483   6.775   3.500   1.105
 1195SOL    HW1 4484   6.771   3.591   1.146
 1195SOL    HW2 4485   6.689   3.480   1.058
 1196SOL     OW 4486   5.945   4.593   2.687
 1196SOL    HW1 4487   6.008   4.626   2.757
 1196SOL    HW2 4488   5.853   4.586   2.725
 1197SOL     OW 4489   4.754   6.604   4.142
 1197SOL    HW1 4490   4.760   6.519   4.194
 1197SOL    HW2 4491   4.844   6.629   4.108
 1198SOL     OW 4492   1.228   3.883   2.412
 1198SOL    HW1 4493   1.283   3.938   2.475
 1198SOL    HW2 4494   1.271   3.884   2.321
 1199SOL     OW 4495   3.812   3.269   2.797
 1199SOL    HW1 4496   3.850   3.339   2.858
 1199SOL    HW2 4497   3.817   3.301   2.703
 1200SOL     OW 4498   3.952   3.970   4.170
 1200SOL    HW1 4499   3.999   3.882   4.182
 1200SOL    HW2 4500   3.976   4.008   4.080
 1201SOL     OW 4501   0.171   1.191   4.237
 1201SOL    HW1 4502   0.129   1.111   4.196
 1201SOL    HW2 4503   0.123   1.273   4.207
 1202SOL     OW 4504   6.280   0.791   5.804
 1202SOL    HW1 4505   6.289   0.805   5.902
 1202SOL    HW2 4506   6.228   0.707   5.787
 1203SOL     OW 4507   0.441   6.862   1.015
 1203SOL    HW1 4508   0.464   6.912   1.099
 1203SOL    HW2 4509   0.497   6.779   1.010
 1204SOL     OW 4510   4.544   1.887   2.040
 1204SOL    HW1 4511   4.469   1.889   2.107
 1204SOL    HW2 4512   4.586   1.797   2.041
 1205SOL     OW 4513   3.640   3.424   0.255
 1205SOL    HW1 4514   3.628   3.371   0.339
 1205SOL    HW2 4515   3.582   3.505   0.259
 1206SOL     OW 4516   1.494   2.560   4.481
 1206SOL    HW1 4517   1.493   2.574   4.580
 1206SOL    HW2 4518   1.567   2.496   4.457
 1207SOL     OW 4519   0.321   0.579   0.097
 1207SOL    HW1 4520   0.352   0.556   0.005
 1207SOL    HW2 4521   0.401   0.587   0.158
 1208SOL     OW 4522   3.256   3.562   1.533
 1208SOL    HW1 4523   3.293   3.503   1.605
 1208SOL    HW2 4524   3.251   3.510   1.447
 1209SOL     OW 4525   5.430   0.336   4.226
 1209SOL    HW1 4526   5.485   0.412   4.191
 1209SOL    HW2 4527   5.338   0.370   4.246
 1210SOL     OW 4528   4.875   6.925   3.518
 1210SOL    HW1 4529   4.779   6.898   3.517
 1210SOL    HW2 4530   4.906   6.937   3.612
 1211SOL     OW 4531   1.116   3.840   3.047
 1211SOL    HW1 4532   1.163   3.902   2.984
 1211SOL    HW2 4533   1.076   3.764   2.996
 1212SOL     OW 4534   6.464   0.788   6.224
 1212SOL    HW1 4535   6.492   0.830   6.138
 1212SOL    HW2 4536   6.530   0.813   6.296
 1213SOL     OW 4537   5.532   2.171   2.621
 1213SOL    HW1 4538   5.523   2.232   2.543
 1213SOL    HW2 4539   5.576   2.086   2.593
 1214SOL     OW 4540   0.626   2.401   6.413
 1214SOL    HW1 4541   0.562   2.324   6.404
 1214SOL    HW2 4542   0.700   2.374   6.474
 1215SOL     OW 4543   2.240   4.946   2.909
 1215SOL    HW1 4544   2.232   5.037   2.869
 1215SOL    HW2 4545   2.325   4.903   2.878
 1216SOL     OW 4546   6.949   1.169   0.514
 1216SOL    HW1 4547   6.869   1.118   0.547
 1216SOL    HW2 4548   6.995   1.211   0.592
 1217SOL     OW 4549   2.820   4.930   0.640
 1217SOL    HW1 4550   2.855   4.839   0.617
 1217SOL    HW2 4551   2.854   4.957   0.730
 1218SOL     OW 4552   1.518   3.902   5.792
 1218SOL    HW1 4553   1.500   3.901   5.890
 1218SOL    HW2 4554   1.561   3.816   5.765
 1219SOL     OW 4555   5.188   5.665   1.479
 1219SOL    HW1 4556   5.150   5.751   1.445
 1219SOL    HW2 4557   5.249   5.626   1.410
 1220SOL     OW 4558   7.015   3.807   2.530
 1220SOL    HW1 4559   6.929   3.798   2.578
 1220SOL    HW2 4560   0.059   3.758   2.579
 1221SOL     OW 4561   5.508   3.233   6.057
 1221SOL    HW1 4562   5.509   3.298   6.133
 1221SOL    HW2 4563   5.486   3.282   5.972
 1222SOL     OW 4564   0.554   0.643   0.216
 1222SOL    HW1 4565   0.594   0.633   0.125
 1222SOL    HW2 4566   0.624   0.677   0.280
 1223SOL     OW 4567   3.416   1.597   0.473
 1223SOL    HW1 4568   3.324   1.612   0.509
 1223SOL    HW2 4569   3.473   1.553   0.543
 1224SOL     OW 4570   3.105   5.755   6.782
 1224SOL    HW1 4571   3.164   5.808   6.844
 1224SOL    HW2 4572   3.126   5.657   6.792
 1225SOL     OW 4573   4.061   2.588   0.222
 1225SOL    HW1 4574   4.005   2.573   0.141
 1225SOL    HW2 4575   4.048   2.512   0.286
 1226SOL     OW 4576   4.264   6.070   0.400
 1226SOL    HW1 4577   4.311   6.003   0.459
 1226SOL    HW2 4578   4.174   6.089   0.438
 1227SOL     OW 4579   5.069   5.094   6.294
 1227SOL    HW1 4580   5.120   5.069   6.212
 1227SOL    HW2 4581   5.103   5.182   6.328
 1228SOL     OW 4582   3.467   2.501   6.961
 1228SOL    HW1 4583   3.443   2.438   6.887
 1228SOL    HW2 4584   3.384   2.528   7.009
 1229SOL     OW 4585   1.473   5.442   0.157
 1229SOL    HW1 4586   1.499   5.415   0.064
 1229SOL    HW2 4587   1.555   5.447   0.214
 1230SOL     OW 4588   5.650   5.581   2.335
 1230SOL    HW1 4589   5.646   5.652   2.406
 1230SOL    HW2 4590   5.706   5.505   2.369
 1231SOL     OW 4591   1.818   1.967   5.548
 1231SOL    HW1 4592   1.863   1.905   5.613
 1231SOL    HW2 4593   1.793   2.052   5.595
 1232SOL     OW 4594   6.453   1.580   4.852
 1232SOL    HW1 4595   6.551   1.575   4.873
 1232SOL    HW2 4596   6.414   1.488   4.855
 1233SOL     OW 4597   0.261   6.017   4.776
 1233SOL    HW1 4598   0.214   5.971   4.852
 1233SOL    HW2 4599   0.358   5.993   4.777
 1234SOL     OW 4600   6.136   2.145   5.748
 1234SOL    HW1 4601   6.207   2.215   5.749
 1234SOL    HW2 4602   6.159   2.076   5.679
 1235SOL     OW 4603   6.334   4.956   1.481
 1235SOL    HW1 4604   6.295   4.897   1.552
 1235SOL    HW2 4605   6.384   4.900   1.415
 1236SOL     OW 4606   3.792   1.372   2.070
 1236SOL    HW1 4607   3.756   1.448   2.017
 1236SOL    HW2 4608   3.775   1.286   2.022
 1237SOL     OW 4609   0.895   4.898   5.363
 1237SOL    HW1 4610   0.907   4.996   5.346
 1237SOL    HW2 4611   0.964   4.867   5.428
 1238SOL     OW 4612   1.386   0.640   5.517
 1238SOL    HW1 4613   1.443   0.583   5.457
 1238SOL    HW2 4614   1.291   0.611   5.510
 1239SOL     OW 4615   0.257   0.268   6.011
 1239SOL    HW1 4616   0.271   0.184   5.960
 1239SOL    HW2 4617   0.219   0.338   5.951
 1240SOL     OW 4618   5.999   5.897   1.183
 1240SOL    HW1 4619   6.053   5.882   1.266
 1240SOL    HW2 4620   5.982   5.995   1.172
 1241SOL     OW 4621   5.904   4.577   5.667
 1241SOL    HW1 4622   5.837   4.651   5.673
 1241SOL    HW2 4623   5.889   4.526   5.582
 1242SOL     OW 4624   2.065   4.509   0.749
 1242SOL    HW1 4625   2.141   4.510   0.814
 1242SOL    HW2 4626   2.083   4.443   0.677
 1243SOL     OW 4627   0.915   1.455   4.699
 1243SOL    HW1 4628   0.997   1.491   4.654
 1243SOL    HW2 4629   0.936   1.432   4.794
 1244SOL     OW 4630   5.191   5.783   4.988
 1244SOL    HW1 4631   5.276   5.797   5.038
 1244SOL    HW2 4632   5.128   5.729   5.044
 1245SOL     OW 4633   5.622   4.109   6.696
 1245SOL    HW1 4634   5.692   4.159   6.645
 1245SOL    HW2 4635   5.643   4.113   6.793
 1246SOL     OW 4636   3.278   1.857   2.703
 1246SOL    HW1 4637   3.299   1.954   2.694
 1246SOL    HW2 4638   3.352   1.811   2.752
 1247SOL     OW 4639   6.538   6.927   6.082
 1247SOL    HW1 4640   6.602   7.002   6.065
 1247SOL    HW2 4641   6.453   6.964   6.120
 1248SOL     OW 4642   1.679   6.018   3.645
 1248SOL    HW1 4643   1.733   6.086   3.694
 1248SOL    HW2 4644   1.602   5.988   3.702
 1249SOL     OW 4645   0.389   2.663   1.996
 1249SOL    HW1 4646   0.399   2.573   1.954
 1249SOL    HW2 4647   0.442   2.730   1.944
 1250SOL     OW 4648   5.693   5.151   3.503
 1250SOL    HW1 4649   5.720   5.123   3.410
 1250SOL    HW2 4650   5.593   5.160   3.507
 1251SOL     OW 4651   1.868   0.716   3.020
 1251SOL    HW1 4652   1.899   0.694   2.928
 1251SOL    HW2 4653   1.933   0.780   3.062
 1252SOL     OW 4654   3.769   4.730   6.291
 1252SOL    HW1 4655   3.843   4.793   6.310
 1252SOL    HW2 4656   3.682   4.779   6.289
 1253SOL     OW 4657   3.346   6.484   2.850
 1253SOL    HW1 4658   3.354   6.506   2.752
 1253SOL    HW2 4659   3.261   6.520   2.886
 1254SOL     OW 4660   0.161   1.895   3.818
 1254SOL    HW1 4661   0.230   1.952   3.862
 1254SOL    HW2 4662   0.094   1.953   3.772
 1255SOL     OW 4663   5.576   1.572   6.205
 1255SOL    HW1 4664   5.504   1.629   6.246
 1255SOL    HW2 4665   5.584   1.487   6.256
 1256SOL     OW 4666   0.680   6.400   3.911
 1256SOL    HW1 4667   0.659   6.494   3.941
 1256SOL    HW2 4668   0.601   6.341   3.928
 1257SOL     OW 4669   7.008   5.213   4.499
 1257SOL    HW1 4670   6.929   5.229   4.559
 1257SOL    HW2 4671   0.062   5.201   4.555
 1258SOL     OW 4672   1.664   5.068   2.778
 1258SOL    HW1 4673   1.756   5.091   2.746
 1258SOL    HW2 4674   1.599   5.081   2.703
 1259SOL     OW 4675   3.718   6.873   4.955
 1259SOL    HW1 4676   3.781   6.810   4.911
 1259SOL    HW2 4677   3.756   6.965   4.954
 1260SOL     OW 4678   3.286   1.874   0.721
 1260SOL    HW1 4679   3.383   1.863   0.746
 1260SOL    HW2 4680   3.250   1.957   0.765
 1261SOL     OW 4681   6.866   5.302   6.614
 1261SOL    HW1 4682   6.867   5.401   6.631
 1261SOL    HW2 4683   6.874   5.253   6.701
 1262SOL     OW 4684   5.230   4.888   1.269
 1262SOL    HW1 4685   5.216   4.791   1.289
 1262SOL    HW2 4686   5.201   4.943   1.347
 1263SOL     OW 4687   6.686   1.647   1.351
 1263SOL    HW1 4688   6.717   1.603   1.267
 1263SOL    HW2 4689   6.599   1.693   1.334
 1264SOL     OW 4690   0.137   3.765   1.398
 1264SOL    HW1 4691   0.191   3.840   1.437
 1264SOL    HW2 4692   0.157   3.680   1.447
 1265SOL     OW 4693   5.383   5.779   3.647
 1265SOL    HW1 4694   5.296   5.827   3.653
 1265SOL    HW2 4695   5.433   5.809   3.566
 1266SOL     OW 4696   0.725   1.369   3.933
 1266SOL    HW1 4697   0.762   1.437   3.996
 1266SOL    HW2 4698   0.625   1.367   3.942
 1267SOL     OW 4699   5.417   6.410   1.191
 1267SOL    HW1 4700   5.423   6.484   1.123
 1267SOL    HW2 4701   5.423   6.322   1.145
 1268SOL     OW 4702   4.242   2.863   0.155
 1268SOL    HW1 4703   4.329   2.881   0.200
 1268SOL    HW2 4704   4.201   2.779   0.191
 1269SOL     OW 4705   5.610   6.248   5.694
 1269SOL    HW1 4706   5.696   6.238   5.742
 1269SOL    HW2 4707   5.581   6.160   5.657
 1270SOL     OW 4708   2.285   4.128   3.809
 1270SOL    HW1 4709   2.257   4.032   3.798
 1270SOL    HW2 4710   2.296   4.148   3.906
 1271SOL     OW 4711   2.989   2.239   3.678
 1271SOL    HW1 4712   2.966   2.331   3.710
 1271SOL    HW2 4713   3.008   2.241   3.580
 1272SOL     OW 4714   5.470   5.427   0.083
 1272SOL    HW1 4715   5.431   5.349   0.132
 1272SOL    HW2 4716   5.569   5.416   0.074
 1273SOL     OW 4717   0.620   4.824   6.564
 1273SOL    HW1 4718   0.574   4.747   6.520
 1273SOL    HW2 4719   0.706   4.792   6.605
 1274SOL     OW 4720   6.469   3.583   1.939
 1274SOL    HW1 4721   6.478   3.681   1.925
 1274SOL    HW2 4722   6.455   3.564   2.036
 1275SOL     OW 4723   3.256   1.336   4.365
 1275SOL    HW1 4724   3.301   1.300   4.446
 1275SOL    HW2 4725   3.182   1.398   4.392
 1276SOL     OW 4726   6.976   0.577   4.749
 1276SOL    HW1 4727   7.012   0.556   4.840
 1276SOL    HW2 4728   0.007   0.536   4.679
 1277SOL     OW 4729   0.949   6.594   6.087
 1277SOL    HW1 4730   0.913   6.603   6.180
 1277SOL    HW2 4731   0.909   6.665   6.029
 1278SOL     OW 4732   1.136   0.209   5.263
 1278SOL    HW1 4733   1.066   0.216   5.192
 1278SOL    HW2 4734   1.214   0.266   5.238
 1279SOL     OW 4735   3.607   6.197   0.920
 1279SOL    HW1 4736   3.623   6.117   0.977
 1279SOL    HW2 4737   3.574   6.168   0.830
 1280SOL     OW 4738   3.054   6.641   4.457
 1280SOL    HW1 4739   3.111   6.700   4.514
 1280SOL    HW2 4740   3.102   6.616   4.374
 1281SOL     OW 4741   1.462   6.396   3.145
 1281SOL    HW1 4742   1.404   6.453   3.087
 1281SOL    HW2 4743   1.408   6.321   3.184
 1282SOL     OW 4744   0.661   1.822   6.396
 1282SOL    HW1 4745   0.711   1.750   6.347
 1282SOL    HW2 4746   0.724   1.897   6.417
 1283SOL     OW 4747   6.566   3.021   5.104
 1283SOL    HW1 4748   6.547   3.118   5.122
 1283SOL    HW2 4749   6.664   3.008   5.090
 1284SOL     OW 4750   4.803   1.494   2.319
 1284SOL    HW1 4751   4.761   1.404   2.313
 1284SOL    HW2 4752   4.737   1.560   2.355
 1285SOL     OW 4753   4.792   2.326   6.688
 1285SOL    HW1 4754   4.762   2.398   6.626
 1285SOL    HW2 4755   4.744   2.336   6.776
 1286SOL     OW 4756   4.933   3.628   2.220
 1286SOL    HW1 4757   4.875   3.549   2.202
 1286SOL    HW2 4758   4.932   3.689   2.141
 1287SOL     OW 4759   5.310   5.120   5.366
 1287SOL    HW1 4760   5.280   5.098   5.273
 1287SOL    HW2 4761   5.358   5.042   5.405
 1288SOL     OW 4762   4.777   3.331   6.816
 1288SOL    HW1 4763   4.798   3.235   6.802
 1288SOL    HW2 4764   4.679   3.347   6.803
 1289SOL     OW 4765   0.892   6.219   1.931
 1289SOL    HW1 4766   0.934   6.299   1.974
 1289SOL    HW2 4767   0.957   6.178   1.867
 1290SOL     OW 4768   1.218   6.980   6.869
 1290SOL    HW1 4769   1.193   0.034   6.818
 1290SOL    HW2 4770   1.301   6.940   6.829
 1291SOL     OW 4771   0.249   3.958   5.268
 1291SOL    HW1 4772   0.164   4.006   5.248
 1291SOL    HW2 4773   0.238   3.902   5.350
 1292SOL     OW 4774   0.237   6.093   2.514
 1292SOL    HW1 4775   0.157   6.076   2.457
 1292SOL    HW2 4776   0.298   6.014   2.510
 1293SOL     OW 4777   1.255   1.942   0.376
 1293SOL    HW1 4778   1.241   1.879   0.299
 1293SOL    HW2 4779   1.237   2.035   0.345
 1294SOL     OW 4780   1.174   3.705   6.912
 1294SOL    HW1 4781   1.113   3.697   6.833
 1294SOL    HW2 4782   1.154   3.632   6.977
 1295SOL     OW 4783   0.267   3.624   2.739
 1295SOL    HW1 4784   0.339   3.690   2.719
 1295SOL    HW2 4785   0.256   3.561   2.662
 1296SOL     OW 4786   3.636   0.392   5.474
 1296SOL    HW1 4787   3.688   0.346   5.546
 1296SOL    HW2 4788   3.635   0.490   5.490
 1297SOL     OW 4789   6.032   0.973   1.035
 1297SOL    HW1 4790   6.071   1.044   1.093
 1297SOL    HW2 4791   6.083   0.968   0.949
 1298SOL     OW 4792   6.070   4.808   2.913
 1298SOL    HW1 4793   6.074   4.899   2.871
 1298SOL    HW2 4794   5.983   4.798   2.961
 1299SOL     OW 4795   1.132   3.655   3.440
 1299SOL    HW1 4796   1.166   3.580   3.384
 1299SOL    HW2 4797   1.065   3.621   3.506
 1300SOL     OW 4798   3.353   2.941   1.468
 1300SOL    HW1 4799   3.392   2.850   1.479
 1300SOL    HW2 4800   3.317   2.973   1.556
 1301SOL     OW 4801   0.730   5.865   1.400
 1301SOL    HW1 4802   0.662   5.849   1.472
 1301SOL    HW2 4803   0.687   5.853   1.311
 1302SOL     OW 4804   4.837   0.575   5.326
 1302SOL    HW1 4805   4.883   0.586   5.238
 1302SOL    HW2 4806   4.782   0.491   5.324
 1303SOL     OW 4807   4.551   1.590   2.308
 1303SOL    HW1 4808   4.549   1.524   2.232
 1303SOL    HW2 4809   4.458   1.623   2.326
 1304SOL     OW 4810   1.872   0.729   6.775
 1304SOL    HW1 4811   1.947   0.751   6.713
 1304SOL    HW2 4812   1.800   0.682   6.724
 1305SOL     OW 4813   5.150   3.046   0.142
 1305SOL    HW1 4814   5.124   3.134   0.180
 1305SOL    HW2 4815   5.136   3.046   0.043
 1306SOL     OW 4816   0.462   4.317   4.796
 1306SOL    HW1 4817   0.376   4.362   4.823
 1306SOL    HW2 4818   0.442   4.225   4.764
 1307SOL     OW 4819   0.795   3.327   4.571
 1307SOL    HW1 4820   0.850   3.253   4.610
 1307SOL    HW2 4821   0.777   3.395   4.642
 1308SOL     OW 4822   5.689   6.133   4.646
 1308SOL    HW1 4823   5.669   6.230   4.632
 1308SOL    HW2 4824   5.742   6.098   4.568
 1309SOL     OW 4825   5.014   3.378   5.338
 1309SOL    HW1 4826   4.915   3.383   5.352
 1309SOL    HW2 4827   5.050   3.298   5.385
 1310SOL     OW 4828   0.398   3.753   4.523
 1310SOL    HW1 4829   0.426   3.666   4.561
 1310SOL    HW2 4830   0.353   3.808   4.593
 1311SOL     OW 4831   0.704   6.862   4.686
 1311SOL    HW1 4832   0.607   6.873   4.666
 1311SOL    HW2 4833   0.757   6.870   4.602
 1312SOL     OW 4834   1.763   0.446   6.120
 1312SOL    HW1 4835   1.806   0.448   6.211
 1312SOL    HW2 4836   1.784   0.531   6.072
 1313SOL     OW 4837   0.733   4.112   3.764
 1313SOL    HW1 4838   0.765   4.132   3.856
 1313SOL    HW2 4839   0.639   4.078   3.767
 1314SOL     OW 4840   4.179   0.884   5.599
 1314SOL    HW1 4841   4.081   0.872   5.581
 1314SOL    HW2 4842   4.209   0.972   5.563
 1315SOL     OW 4843   0.153   0.821   0.957
 1315SOL    HW1 4844   0.188   0.849   1.046
 1315SOL    HW2 4845   0.099   0.896   0.917
 1316SOL     OW 4846   1.973   6.672   4.851
 1316SOL    HW1 4847   1.962   6.748   4.787
 1316SOL    HW2 4848   1.901   6.604   4.834
 1317SOL     OW 4849   2.238   4.310   5.670
 1317SOL    HW1 4850   2.286   4.241   5.725
 1317SOL    HW2 4851   2.209   4.385   5.730
 1318SOL     OW 4852   1.106   0.945   1.001
 1318SOL    HW1 4853   1.199   0.910   0.997
 1318SOL    HW2 4854   1.103   1.025   1.062
 1319SOL     OW 4855   0.184   1.213   6.760
 1319SOL    HW1 4856   0.110   1.240   6.821
 1319SOL    HW2 4857   0.232   1.294   6.727
 1320SOL     OW 4858   5.328   3.541   0.407
 1320SOL    HW1 4859   5.283   3.466   0.360
 1320SOL    HW2 4860   5.315   3.532   0.505
 1321SOL     OW 4861   5.204   1.933   6.161
 1321SOL    HW1 4862   5.210   1.980   6.248
 1321SOL    HW2 4863   5.260   1.981   6.093
 1322SOL     OW 4864   3.897   0.674   3.721
 1322SOL    HW1 4865   3.843   0.591   3.705
 1322SOL    HW2 4866   3.994   0.651   3.724
 1323SOL     OW 4867   4.676   1.703   5.809
 1323SOL    HW1 4868   4.731   1.634   5.763
 1323SOL    HW2 4869   4.675   1.684   5.908
 1324SOL     OW 4870   1.417   3.181   0.256
 1324SOL    HW1 4871   1.325   3.221   0.250
 1324SOL    HW2 4872   1.481   3.250   0.292
 1325SOL     OW 4873   2.084   6.743   2.326
 1325SOL    HW1 4874   2.160   6.757   2.389
 1325SOL    HW2 4875   2.039   6.656   2.347
 1326SOL     OW 4876   4.980   3.146   5.157
 1326SOL    HW1 4877   4.987   3.233   5.207
 1326SOL    HW2 4878   4.899   3.096   5.188
 1327SOL     OW 4879   1.454   5.066   1.582
 1327SOL    HW1 4880   1.466   4.988   1.520
 1327SOL    HW2 4881   1.543   5.104   1.606
 1328SOL     OW 4882   1.436   3.239   1.032
 1328SOL    HW1 4883   1.513   3.258   1.093
 1328SOL    HW2 4884   1.470   3.223   0.940
 1329SOL     OW 4885   0.614   2.410   1.428
 1329SOL    HW1 4886   0.529   2.388   1.380
 1329SOL    HW2 4887   0.692   2.384   1.370
 1330SOL     OW 4888   0.036   1.269   1.832
 1330SOL    HW1 4889   0.104   1.332   1.870
 1330SOL    HW2 4890   6.973   1.298   1.861
 1331SOL     OW 4891   5.003   2.666   3.331
 1331SOL    HW1 4892   4.927   2.710   3.379
 1331SOL    HW2 4893   4.969   2.587   3.280
 1332SOL     OW 4894   3.113   0.077   0.479
 1332SOL    HW1 4895   3.204   0.043   0.454
 1332SOL    HW2 4896   3.071   0.014   0.544
 1333SOL     OW 4897   3.489   3.574   5.396
 1333SOL    HW1 4898   3.578   3.614   5.416
 1333SOL    HW2 4899   3.447   3.540   5.480
 1334SOL     OW 4900   6.253   2.130   4.600
 1334SOL    HW1 4901   6.216   2.070   4.671
 1334SOL    HW2 4902   6.255   2.224   4.634
 1335SOL     OW 4903   2.608   1.408   3.294
 1335SOL    HW1 4904   2.645   1.446   3.209
 1335SOL    HW2 4905   2.590   1.310   3.282
 1336SOL     OW 4906   1.760   2.188   5.689
 1336SOL    HW1 4907   1.755   2.173   5.788
 1336SOL    HW2 4908   1.704   2.267   5.664
 1337SOL     OW 4909   1.809   1.915   5.264
 1337SOL    HW1 4910   1.863   1.980   5.211
 1337SOL    HW2 4911   1.815   1.938   5.361
 1338SOL     OW 4912   5.915   2.298   5.854
 1338SOL    HW1 4913   5.983   2.228   5.832
 1338SOL    HW2 4914   5.867   2.272   5.938
 1339SOL     OW 4915   0.831   1.745   6.187
 1339SOL    HW1 4916   0.799   1.810   6.119
 1339SOL    HW2 4917   0.844   1.656   6.144
 1340SOL     OW 4918   0.506   1.931   2.500
 1340SOL    HW1 4919   0.558   1.983   2.433
 1340SOL    HW2 4920   0.445   1.993   2.549
 1341SOL     OW 4921   4.977   0.159   5.819
 1341SOL    HW1 4922   4.930   0.157   5.731
 1341SOL    HW2 4923   5.075   0.172   5.805
 1342SOL     OW 4924   2.065   5.272   6.112
 1342SOL    HW1 4925   1.972   5.237   6.107
 1342SOL    HW2 4926   2.106   5.273   6.021
 1343SOL     OW 4927   4.689   6.067   2.917
 1343SOL    HW1 4928   4.747   5.987   2.932
 1343SOL    HW2 4929   4.705   6.134   2.989
 1344SOL     OW 4930   6.768   4.650   4.098
 1344SOL    HW1 4931   6.833   4.582   4.132
 1344SOL    HW2 4932   6.818   4.726   4.056
 1345SOL     OW 4933   1.909   0.797   2.685
 1345SOL    HW1 4934   1.913   0.708   2.730
 1345SOL    HW2 4935   1.982   0.803   2.616
 1346SOL     OW 4936   0.548   6.125   4.280
 1346SOL    HW1 4937   0.605   6.208   4.278
 1346SOL    HW2 4938   0.461   6.146   4.325
 1347SOL     OW 4939   6.240   5.550   4.488
 1347SOL    HW1 4940   6.240   5.460   4.444
 1347SOL    HW2 4941   6.165   5.554   4.554
 1348SOL     OW 4942   5.130   4.880   2.341
 1348SOL    HW1 4943   5.212   4.913   2.295
 1348SOL    HW2 4944   5.127   4.916   2.434
 1349SOL     OW 4945   4.744   2.237   6.066
 1349SOL    HW1 4946   4.652   2.273   6.054
 1349SOL    HW2 4947   4.790   2.232   5.977
 1350SOL     OW 4948   4.938   4.109   6.862
 1350SOL    HW1 4949   4.967   4.014   6.875
 1350SOL    HW2 4950   5.008   4.171   6.896
 1351SOL     OW 4951   6.721   1.405   3.478
 1351SOL    HW1 4952   6.708   1.308   3.499
 1351SOL    HW2 4953   6.634   1.453   3.487
 1352SOL     OW 4954   6.557   6.843   3.173
 1352SOL    HW1 4955   6.463   6.830   3.207
 1352SOL    HW2 4956   6.561   6.817   3.076
 1353SOL     OW 4957   6.697   3.802   6.200
 1353SOL    HW1 4958   6.669   3.844   6.286
 1353SOL    HW2 4959   6.736   3.872   6.140
 1354SOL     OW 4960   0.947   2.862   0.646
 1354SOL    HW1 4961   0.933   2.823   0.555
 1354SOL    HW2 4962   0.864   2.848   0.701
 1355SOL     OW 4963   0.136   2.585   5.300
 1355SOL    HW1 4964   0.041   2.579   5.270
 1355SOL    HW2 4965   0.145   2.657   5.368
 1356SOL     OW 4966   2.944   3.635   2.926
 1356SOL    HW1 4967   2.955   3.559   2.989
 1356SOL    HW2 4968   2.913   3.601   2.838
 1357SOL     OW 4969   1.212   3.726   5.155
 1357SOL    HW1 4970   1.234   3.766   5.245
 1357SOL    HW2 4971   1.280   3.756   5.088
 1358SOL     OW 4972   3.736   1.166   6.208
 1358SOL    HW1 4973   3.742   1.249   6.153
 1358SOL    HW2 4974   3.827   1.125   6.216
 1359SOL     OW 4975   5.658   4.841   1.940
 1359SOL    HW1 4976   5.561   4.866   1.931
 1359SOL    HW2 4977   5.673   4.796   2.028
 1360SOL     OW 4978   3.920   2.758   0.738
 1360SOL    HW1 4979   3.954   2.820   0.668
 1360SOL    HW2 4980   3.997   2.718   0.788
 1361SOL     OW 4981   0.262   5.577   5.625
 1361SOL    HW1 4982   0.208   5.535   5.697
 1361SOL    HW2 4983   0.218   5.561   5.536
 1362SOL     OW 4984   3.201   4.021   4.306
 1362SOL    HW1 4985   3.152   3.978   4.382
 1362SOL    HW2 4986   3.267   4.087   4.342
 1363SOL     OW 4987   6.949   6.096   3.629
 1363SOL    HW1 4988   6.934   6.031   3.554
 1363SOL    HW2 4989   6.866   6.101   3.685
 1364SOL     OW 4990   6.507   2.284   1.524
 1364SOL    HW1 4991   6.527   2.349   1.598
 1364SOL    HW2 4992   6.570   2.206   1.531
 1365SOL     OW 4993   1.251   2.661   5.848
 1365SOL    HW1 4994   1.299   2.690   5.930
 1365SOL    HW2 4995   1.152   2.667   5.864
 1366SOL     OW 4996   0.255   4.660   0.458
 1366SOL    HW1 4997   0.310   4.714   0.521
 1366SOL    HW2 4998   0.178   4.715   0.426
 1367SOL     OW 4999   1.674   6.133   2.344
 1367SOL    HW1 5000   1.750   6.070   2.329
 1367SOL    HW2 5001   1.678   6.169   2.437
 1368SOL     OW 5002   0.097   0.347   4.055
 1368SOL    HW1 5003   0.135   0.339   3.963
 1368SOL    HW2 5004   0.080   0.443   4.076
 1369SOL     OW 5005   2.575   0.442   2.700
 1369SOL    HW1 5006   2.565   0.434   2.799
 1369SOL    HW2 5007   2.541   0.531   2.669
 1370SOL     OW 5008   4.176   1.456   2.542
 1370SOL    HW1 5009   4.096   1.427   2.489
 1370SOL    HW2 5010   4.152   1.459   2.639
 1371SOL     OW 5011   6.281   1.698   4.630
 1371SOL    HW1 5012   6.287   1.773   4.564
 1371SOL    HW2 5013   6.334   1.722   4.712
 1372SOL     OW 5014   1.188   2.929   0.715
 1372SOL    HW1 5015   1.098   2.905   0.679
 1372SOL    HW2 5016   1.198   2.892   0.807
 1373SOL     OW 5017   4.189   2.572   6.968
 1373SOL    HW1 5018   4.166   2.519   6.887
 1373SOL    HW2 5019   4.277   2.618   6.954
 1374SOL     OW 5020   4.331   2.371   0.813
 1374SOL    HW1 5021   4.306   2.275   0.819
 1374SOL    HW2 5022   4.269   2.417   0.748
 1375SOL     OW 5023   0.122   5.500   6.470
 1375SOL    HW1 5024   0.131   5.438   6.392
 1375SOL    HW2 5025   0.132   5.448   6.555
 1376SOL     OW 5026   4.624   4.685   5.174
 1376SOL    HW1 5027   4.635   4.763   5.112
 1376SOL    HW2 5028   4.693   4.689   5.246
 1377SOL     OW 5029   0.454   3.070   5.482
 1377SOL    HW1 5030   0.503   3.156   5.465
 1377SOL    HW2 5031   0.387   3.055   5.409
 1378SOL     OW 5032   6.079   1.516   4.558
 1378SOL    HW1 5033   5.997   1.558   4.519
 1378SOL    HW2 5034   6.147   1.588   4.577
 1379SOL     OW 5035   3.981   6.561   3.157
 1379SOL    HW1 5036   4.012   6.649   3.121
 1379SOL    HW2 5037   4.043   6.532   3.231
 1380SOL     OW 5038   0.590   0.019   3.798
 1380SOL    HW1 5039   0.625   0.067   3.879
 1380SOL    HW2 5040   0.492   0.034   3.791
 1381SOL     OW 5041   5.977   1.492   6.847
 1381SOL    HW1 5042   6.020   1.576   6.811
 1381SOL    HW2 5043   5.960   1.503   6.945
 1382SOL     OW 5044   5.274   3.482   0.644
 1382SOL    HW1 5045   5.195   3.422   0.657
 1382SOL    HW2 5046   5.244   3.578   0.648
 1383SOL     OW 5047   0.697   0.426   2.185
 1383SOL    HW1 5048   0.729   0.493   2.117
 1383SOL    HW2 5049   0.731   0.453   2.275
 1384SOL     OW 5050   4.715   0.704   2.066
 1384SOL    HW1 5051   4.775   0.781   2.046
 1384SOL    HW2 5052   4.769   0.620   2.074
 1385SOL     OW 5053   2.465   4.485   3.331
 1385SOL    HW1 5054   2.489   4.575   3.367
 1385SOL    HW2 5055   2.400   4.440   3.392
 1386SOL     OW 5056   2.818   0.802   4.116
 1386SOL    HW1 5057   2.793   0.724   4.173
 1386SOL    HW2 5058   2.911   0.832   4.138
 1387SOL     OW 5059   3.099   5.909   2.887
 1387SOL    HW1 5060   3.105   6.008   2.895
 1387SOL    HW2 5061   3.176   5.875   2.834
 1388SOL     OW 5062   0.358   0.665   3.053
 1388SOL    HW1 5063   0.388   0.760   3.040
 1388SOL    HW2 5064   0.426   0.603   3.016
 1389SOL     OW 5065   6.747   1.750   4.061
 1389SOL    HW1 5066   6.732   1.849   4.066
 1389SOL    HW2 5067   6.844   1.730   4.073
 1390SOL     OW 5068   6.554   3.102   6.038
 1390SOL    HW1 5069   6.534   3.079   5.943
 1390SOL    HW2 5070   6.653   3.109   6.050
 1391SOL     OW 5071   6.010   0.191   5.677
 1391SOL    HW1 5072   5.947   0.169   5.602
 1391SOL    HW2 5073   5.958   0.200   5.761
 1392SOL     OW 5074   6.159   6.539   5.561
 1392SOL    HW1 5075   6.145   6.565   5.466
 1392SOL    HW2 5076   6.083   6.481   5.592
 1393SOL     OW 5077   6.773   4.202   6.167
 1393SOL    HW1 5078   6.729   4.153   6.092
 1393SOL    HW2 5079   6.839   4.267   6.131
 1394SOL     OW 5080   3.498   5.876   5.519
 1394SOL    HW1 5081   3.476   5.798   5.461
 1394SOL    HW2 5082   3.506   5.846   5.614
 1395SOL     OW 5083   1.737   4.377   5.069
 1395SOL    HW1 5084   1.756   4.464   5.025
 1395SOL    HW2 5085   1.764   4.302   5.008
 1396SOL     OW 5086   0.264   1.245   5.182
 1396SOL    HW1 5087   0.282   1.318   5.116
 1396SOL    HW2 5088   0.192   1.185   5.146
 1397SOL     OW 5089   0.285   6.436   4.618
 1397SOL    HW1 5090   0.332   6.352   4.588
 1397SOL    HW2 5091   0.228   6.416   4.697
 1398SOL     OW 5092   2.879   0.734   6.364
 1398SOL    HW1 5093   2.940   0.702   6.436
 1398SOL    HW2 5094   2.875   0.834   6.365
 1399SOL     OW 5095   4.153   5.669   0.394
 1399SOL    HW1 5096   4.120   5.744   0.338
 1399SOL    HW2 5097   4.205   5.605   0.337
 1400SOL     OW 5098   0.448   1.836   4.030
 1400SOL    HW1 5099   0.402   1.755   4.068
 1400SOL    HW2 5100   0.501   1.809   3.949
 1401SOL     OW 5101   5.793   0.245   4.055
 1401SOL    HW1 5102   5.888   0.220   4.033
 1401SOL    HW2 5103   5.794   0.327   4.112
 1402SOL     OW 5104   5.222   3.977   6.492
 1402SOL    HW1 5105   5.291   3.981   6.420
 1402SOL    HW2 5106   5.149   3.914   6.464
 1403SOL     OW 5107   2.743   2.051   0.776
 1403SOL    HW1 5108   2.653   2.073   0.813
 1403SOL    HW2 5109   2.799   2.010   0.848
 1404SOL     OW 5110   6.600   0.432   6.884
 1404SOL    HW1 5111   6.565   0.385   6.964
 1404SOL    HW2 5112   6.526   0.447   6.819
 1405SOL     OW 5113   2.601   3.373   0.667
 1405SOL    HW1 5114   2.687   3.326   0.650
 1405SOL    HW2 5115   2.582   3.436   0.592
 1406SOL     OW 5116   1.517   5.816   0.723
 1406SOL    HW1 5117   1.445   5.884   0.723
 1406SOL    HW2 5118   1.518   5.768   0.811
 1407SOL     OW 5119   0.639   3.646   3.819
 1407SOL    HW1 5120   0.595   3.580   3.759
 1407SOL    HW2 5121   0.600   3.737   3.804
 1408SOL     OW 5122   4.816   0.975   6.469
 1408SOL    HW1 5123   4.876   1.053   6.487
 1408SOL    HW2 5124   4.791   0.932   6.556
 1409SOL     OW 5125   0.318   0.745   5.168
 1409SOL    HW1 5126   0.304   0.838   5.201
 1409SOL    HW2 5127   0.413   0.717   5.184
 1410SOL     OW 5128   1.516   4.232   6.125
 1410SOL    HW1 5129   1.429   4.270   6.156
 1410SOL    HW2 5130   1.557   4.293   6.056
 1411SOL     OW 5131   3.110   6.349   0.200
 1411SOL    HW1 5132   3.069   6.432   0.161
 1411SOL    HW2 5133   3.083   6.270   0.146
 1412SOL     OW 5134   0.829   3.709   1.206
 1412SOL    HW1 5135   0.750   3.668   1.252
 1412SOL    HW2 5136   0.913   3.671   1.245
 1413SOL     OW 5137   2.320   1.040   4.379
 1413SOL    HW1 5138   2.387   1.095   4.329
 1413SOL    HW2 5139   2.277   0.975   4.317
 1414SOL     OW 5140   2.196   1.618   1.677
 1414SOL    HW1 5141   2.187   1.520   1.665
 1414SOL    HW2 5142   2.161   1.645   1.767
 1415SOL     OW 5143   2.533   1.557   3.821
 1415SOL    HW1 5144   2.436   1.554   3.796
 1415SOL    HW2 5145   2.560   1.471   3.864
 1416SOL     OW 5146   4.408   6.170   4.860
 1416SOL    HW1 5147   4.499   6.185   4.821
 1416SOL    HW2 5148   4.415   6.115   4.943
 1417SOL     OW 5149   3.017   2.710   0.135
 1417SOL    HW1 5150   2.986   2.763   0.213
 1417SOL    HW2 5151   3.010   2.766   0.052
 1418SOL     OW 5152   3.233   3.501   1.953
 1418SOL    HW1 5153   3.228   3.443   2.035
 1418SOL    HW2 5154   3.147   3.494   1.902
 1419SOL     OW 5155   3.309   5.997   4.298
 1419SOL    HW1 5156   3.269   5.936   4.366
 1419SOL    HW2 5157   3.303   6.092   4.331
 1420SOL     OW 5158   3.387   5.916   3.219
 1420SOL    HW1 5159   3.384   6.010   3.185
 1420SOL    HW2 5160   3.321   5.860   3.169
 1421SOL     OW 5161   1.581   4.464   4.219
 1421SOL    HW1 5162   1.500   4.419   4.181
 1421SOL    HW2 5163   1.567   4.482   4.316
 1422SOL     OW 5164   2.006   4.450   6.193
 1422SOL    HW1 5165   2.043   4.542   6.196
 1422SOL    HW2 5166   1.979   4.427   6.100
 1423SOL     OW 5167   4.424   6.750   4.352
 1423SOL    HW1 5168   4.359   6.804   4.298
 1423SOL    HW2 5169   4.516   6.788   4.340
 1424SOL     OW 5170   6.633   3.499   6.591
 1424SOL    HW1 5171   6.709   3.440   6.619
 1424SOL    HW2 5172   6.654   3.594   6.613
 1425SOL     OW 5173   1.816   5.641   5.882
 1425SOL    HW1 5174   1.729   5.658   5.927
 1425SOL    HW2 5175   1.822   5.544   5.857
 1426SOL     OW 5176   2.926   2.395   6.923
 1426SOL    HW1 5177   2.973   2.329   6.864
 1426SOL    HW2 5178   2.850   2.436   6.873
 1427SOL     OW 5179   6.756   6.888   4.739
 1427SOL    HW1 5180   6.661   6.907   4.714
 1427SOL    HW2 5181   6.817   6.923   4.668
 1428SOL     OW 5182   0.480   2.322   0.612
 1428SOL    HW1 5183   0.397   2.337   0.666
 1428SOL    HW2 5184   0.555   2.295   0.673
 1429SOL     OW 5185   4.862   1.608   0.715
 1429SOL    HW1 5186   4.807   1.526   0.701
 1429SOL    HW2 5187   4.922   1.622   0.636
 1430SOL     OW 5188   1.715   5.043   3.998
 1430SOL    HW1 5189   1.711   4.947   4.026
 1430SOL    HW2 5190   1.665   5.054   3.912
 1431SOL     OW 5191   2.631   2.259   0.006
 1431SOL    HW1 5192   2.662   2.196   6.962
 1431SOL    HW2 5193   2.611   2.348   6.993
 1432SOL     OW 5194   3.085   1.506   1.490
 1432SOL    HW1 5195   3.094   1.418   1.443
 1432SOL    HW2 5196   3.059   1.576   1.424
 1433SOL     OW 5197   5.104   0.667   5.639
 1433SOL    HW1 5198   5.181   0.605   5.656
 1433SOL    HW2 5199   5.138   0.758   5.618
 1434SOL     OW 5200   0.932   0.705   6.239
 1434SOL    HW1 5201   0.932   0.805   6.243
 1434SOL    HW2 5202   0.935   0.667   6.331
 1435SOL     OW 5203   6.834   6.861   3.041
 1435SOL    HW1 5204   6.770   6.935   3.019
 1435SOL    HW2 5205   6.849   6.859   3.140
 1436SOL     OW 5206   5.182   4.235   6.909
 1436SOL    HW1 5207   5.233   4.247   6.994
 1436SOL    HW2 5208   5.241   4.191   6.841
 1437SOL     OW 5209   3.121   1.999   5.346
 1437SOL    HW1 5210   3.174   2.083   5.336
 1437SOL    HW2 5211   3.055   2.009   5.421
 1438SOL     OW 5212   2.978   0.114   2.203
 1438SOL    HW1 5213   2.914   0.150   2.272
 1438SOL    HW2 5214   2.975   0.171   2.121
 1439SOL     OW 5215   6.660   4.746   0.875
 1439SOL    HW1 5216   6.712   4.688   0.813
 1439SOL    HW2 5217   6.568   4.762   0.837
 1440SOL     OW 5218   3.683   2.911   5.857
 1440SOL    HW1 5219   3.654   2.928   5.762
 1440SOL    HW2 5220   3.640   2.979   5.917
 1441SOL     OW 5221   6.212   1.911   4.010
 1441SOL    HW1 5222   6.122   1.896   4.050
 1441SOL    HW2 5223   6.234   1.835   3.949
 1442SOL     OW 5224   5.830   5.131   6.755
 1442SOL    HW1 5225   5.787   5.062   6.813
 1442SOL    HW2 5226   5.895   5.086   6.693
 1443SOL     OW 5227   0.914   3.079   4.233
 1443SOL    HW1 5228   0.908   3.058   4.135
 1443SOL    HW2 5229   0.937   3.175   4.245
 1444SOL     OW 5230   4.114   6.040   1.142
 1444SOL    HW1 5231   4.113   6.122   1.199
 1444SOL    HW2 5232   4.115   6.066   1.046
 1445SOL     OW 5233   0.669   2.671   2.337
 1445SOL    HW1 5234   0.691   2.691   2.242
 1445SOL    HW2 5235   0.678   2.755   2.392
 1446SOL     OW 5236   4.582   2.351   0.310
 1446SOL    HW1 5237   4.660   2.309   0.264
 1446SOL    HW2 5238   4.555   2.294   0.387
 1447SOL     OW 5239   6.221   6.916   5.966
 1447SOL    HW1 5240   6.227   6.946   6.061
 1447SOL    HW2 5241   6.245   6.992   5.906
 1448SOL     OW 5242   6.711   2.690   0.082
 1448SOL    HW1 5243   6.653   2.729   0.011
 1448SOL    HW2 5244   6.787   2.753   0.101
 1449SOL     OW 5245   0.640   0.987   0.532
 1449SOL    HW1 5246   0.658   0.963   0.628
 1449SOL    HW2 5247   0.719   1.034   0.494
 1450SOL     OW 5248   0.689   1.956   1.323
 1450SOL    HW1 5249   0.763   1.922   1.382
 1450SOL    HW2 5250   0.712   2.047   1.289
 1451SOL     OW 5251   2.653   0.707   2.536
 1451SOL    HW1 5252   2.572   0.766   2.537
 1451SOL    HW2 5253   2.721   0.743   2.601
 1452SOL     OW 5254   4.435   0.623   4.857
 1452SOL    HW1 5255   4.438   0.605   4.955
 1452SOL    HW2 5256   4.448   0.721   4.840
 1453SOL     OW 5257   0.275   3.791   5.039
 1453SOL    HW1 5258   0.262   3.721   5.110
 1453SOL    HW2 5259   0.258   3.881   5.079
 1454SOL     OW 5260   6.959   3.001   2.440
 1454SOL    HW1 5261   6.970   3.047   2.352
 1454SOL    HW2 5262   0.021   2.986   2.481
 1455SOL     OW 5263   1.073   0.278   1.693
 1455SOL    HW1 5264   1.131   0.274   1.774
 1455SOL    HW2 5265   1.019   0.194   1.686
 1456SOL     OW 5266   6.579   6.491   5.470
 1456SOL    HW1 5267   6.536   6.551   5.403
 1456SOL    HW2 5268   6.613   6.409   5.425
 1457SOL     OW 5269   1.321   6.615   1.588
 1457SOL    HW1 5270   1.296   6.521   1.564
 1457SOL    HW2 5271   1.417   6.631   1.566
 1458SOL     OW 5272   5.623   5.859   3.266
 1458SOL    HW1 5273   5.691   5.825   3.201
 1458SOL    HW2 5274   5.535   5.815   3.249
 1459SOL     OW 5275   2.771   5.627   5.678
 1459SOL    HW1 5276   2.702   5.698   5.671
 1459SOL    HW2 5277   2.762   5.563   5.602
 1460SOL     OW 5278   0.617   5.547   5.174
 1460SOL    HW1 5279   0.562   5.620   5.214
 1460SOL    HW2 5280   0.714   5.566   5.189
 1461SOL     OW 5281   6.909   5.244   3.775
 1461SOL    HW1 5282   6.941   5.150   3.766
 1461SOL    HW2 5283   6.869   5.257   3.866
 1462SOL     OW 5284   1.026   0.620   6.499
 1462SOL    HW1 5285   0.974   0.604   6.583
 1462SOL    HW2 5286   1.090   0.545   6.485
 1463SOL     OW 5287   0.257   5.858   6.687
 1463SOL    HW1 5288   0.251   5.831   6.590
 1463SOL    HW2 5289   0.224   5.782   6.744
 1464SOL     OW 5290   5.933   7.022   1.030
 1464SOL    HW1 5291   6.005   6.978   1.083
 1464SOL    HW2 5292   5.881   6.952   0.979
 1465SOL     OW 5293   1.817   1.007   3.402
 1465SOL    HW1 5294   1.747   1.010   3.474
 1465SOL    HW2 5295   1.779   1.043   3.317
 1466SOL     OW 5296   1.037   1.655   2.194
 1466SOL    HW1 5297   1.073   1.611   2.112
 1466SOL    HW2 5298   0.941   1.680   2.179
 1467SOL     OW 5299   1.645   2.174   2.922
 1467SOL    HW1 5300   1.550   2.193   2.895
 1467SOL    HW2 5301   1.683   2.105   2.861
 1468SOL     OW 5302   5.447   5.566   2.876
 1468SOL    HW1 5303   5.453   5.563   2.976
 1468SOL    HW2 5304   5.410   5.654   2.847
 1469SOL     OW 5305   0.671   0.705   2.063
 1469SOL    HW1 5306   0.711   0.737   2.149
 1469SOL    HW2 5307   0.745   0.674   2.002
 1470SOL     OW 5308   1.494   1.929   2.487
 1470SOL    HW1 5309   1.501   2.010   2.428
 1470SOL    HW2 5310   1.398   1.909   2.505
 1471SOL     OW 5311   0.822   0.166   0.603
 1471SOL    HW1 5312   0.753   0.096   0.582
 1471SOL    HW2 5313   0.825   0.233   0.529
 1472SOL     OW 5314   4.117   6.395   5.397
 1472SOL    HW1 5315   4.120   6.480   5.344
 1472SOL    HW2 5316   4.026   6.354   5.389
 1473SOL     OW 5317   5.184   6.200   4.612
 1473SOL    HW1 5318   5.144   6.269   4.671
 1473SOL    HW2 5319   5.227   6.129   4.668
 1474SOL     OW 5320   5.356   5.612   2.437
 1474SOL    HW1 5321   5.450   5.576   2.434
 1474SOL    HW2 5322   5.359   5.709   2.460
 1475SOL     OW 5323   6.395   6.831   2.121
 1475SOL    HW1 5324   6.413   6.776   2.202
 1475SOL    HW2 5325   6.297   6.849   2.113
 1476SOL     OW 5326   2.370   1.218   1.382
 1476SOL    HW1 5327   2.424   1.269   1.449
 1476SOL    HW2 5328   2.359   1.124   1.413
 1477SOL     OW 5329   3.271   0.499   6.633
 1477SOL    HW1 5330   3.265   0.399   6.627
 1477SOL    HW2 5331   3.321   0.534   6.555
 1478SOL     OW 5332   6.052   5.332   0.292
 1478SOL    HW1 5333   6.079   5.236   0.290
 1478SOL    HW2 5334   6.069   5.374   0.203
 1479SOL     OW 5335   1.879   3.080   0.002
 1479SOL    HW1 5336   1.832   3.168   0.005
 1479SOL    HW2 5337   1.812   3.006   7.020
 1480SOL     OW 5338   3.493   0.775   5.879
 1480SOL    HW1 5339   3.579   0.793   5.831
 1480SOL    HW2 5340   3.426   0.844   5.854
 1481SOL     OW 5341   6.304   2.376   5.602
 1481SOL    HW1 5342   6.388   2.337   5.565
 1481SOL    HW2 5343   6.325   2.462   5.649
 1482SOL     OW 5344   4.893   2.360   1.284
 1482SOL    HW1 5345   4.839   2.380   1.366
 1482SOL    HW2 5346   4.946   2.277   1.299
 1483SOL     OW 5347   4.908   1.879   6.493
 1483SOL    HW1 5348   4.993   1.933   6.493
 1483SOL    HW2 5349   4.893   1.842   6.401
 1484SOL     OW 5350   5.953   4.782   4.110
 1484SOL    HW1 5351   5.913   4.873   4.094
 1484SOL    HW2 5352   5.960   4.765   4.208
 1485SOL     OW 5353   3.668   1.438   3.298
 1485SOL    HW1 5354   3.651   1.404   3.391
 1485SOL    HW2 5355   3.727   1.519   3.303
 1486SOL     OW 5356   5.060   1.737   3.285
 1486SOL    HW1 5357   4.996   1.801   3.243
 1486SOL    HW2 5358   5.114   1.692   3.214
 1487SOL     OW 5359   6.502   2.783   6.629
 1487SOL    HW1 5360   6.525   2.881   6.629
 1487SOL    HW2 5361   6.558   2.736   6.561
 1488SOL     OW 5362   5.198   1.708   3.858
 1488SOL    HW1 5363   5.225   1.676   3.948
 1488SOL    HW2 5364   5.113   1.663   3.831
 1489SOL     OW 5365   3.809   5.207   4.667
 1489SOL    HW1 5366   3.812   5.297   4.624
 1489SOL    HW2 5367   3.879   5.203   4.738
 1490SOL     OW 5368   1.106   2.648   1.784
 1490SOL    HW1 5369   1.141   2.662   1.692
 1490SOL    HW2 5370   1.030   2.583   1.782
 1491SOL     OW 5371   6.405   4.247   3.687
 1491SOL    HW1 5372   6.411   4.189   3.768
 1491SOL    HW2 5373   6.319   4.230   3.639
 1492SOL     OW 5374   5.368   0.614   2.387
 1492SOL    HW1 5375   5.291   0.565   2.347
 1492SOL    HW2 5376   5.388   0.695   2.332
 1493SOL     OW 5377   4.195   6.475   4.447
 1493SOL    HW1 5378   4.153   6.560   4.419
 1493SOL    HW2 5379   4.137   6.398   4.419
 1494SOL     OW 5380   5.561   2.041   6.181
 1494SOL    HW1 5381   5.615   1.959   6.200
 1494SOL    HW2 5382   5.488   2.018   6.117
 1495SOL     OW 5383   6.683   2.525   4.230
 1495SOL    HW1 5384   6.678   2.485   4.322
 1495SOL    HW2 5385   6.718   2.618   4.236
 1496SOL     OW 5386   0.558   1.280   1.482
 1496SOL    HW1 5387   0.546   1.368   1.435
 1496SOL    HW2 5388   0.470   1.245   1.513
 1497SOL     OW 5389   6.402   2.823   3.074
 1497SOL    HW1 5390   6.401   2.729   3.110
 1497SOL    HW2 5391   6.476   2.833   3.008
 1498SOL     OW 5392   1.790   4.991   6.386
 1498SOL    HW1 5393   1.878   4.966   6.427
 1498SOL    HW2 5394   1.795   4.981   6.287
 1499SOL     OW 5395   1.395   3.271   6.511
 1499SOL    HW1 5396   1.392   3.279   6.411
 1499SOL    HW2 5397   1.350   3.350   6.552
 1500SOL     OW 5398   6.725   6.526   0.351
 1500SOL    HW1 5399   6.655   6.579   0.304
 1500SOL    HW2 5400   6.789   6.489   0.284
 1501SOL     OW 5401   5.402   2.123   6.396
 1501SOL    HW1 5402   5.438   2.204   6.442
 1501SOL    HW2 5403   5.450   2.109   6.310
 1502SOL     OW 5404   5.128   0.496   0.816
 1502SOL    HW1 5405   5.031   0.519   0.807
 1502SOL    HW2 5406   5.171   0.493   0.726
 1503SOL     OW 5407   1.300   3.039   1.594
 1503SOL    HW1 5408   1.320   3.136   1.582
 1503SOL    HW2 5409   1.281   3.020   1.691
 1504SOL     OW 5410   0.803   0.452   5.360
 1504SOL    HW1 5411   0.852   0.537   5.339
 1504SOL    HW2 5412   0.867   0.376   5.363
 1505SOL     OW 5413   5.925   1.015   5.531
 1505SOL    HW1 5414   5.995   1.000   5.601
 1505SOL    HW2 5415   5.948   0.961   5.450
 1506SOL     OW 5416   1.261   5.726   0.871
 1506SOL    HW1 5417   1.233   5.789   0.799
 1506SOL    HW2 5418   1.227   5.634   0.851
 1507SOL     OW 5419   0.954   1.899   5.590
 1507SOL    HW1 5420   0.985   1.994   5.594
 1507SOL    HW2 5421   0.960   1.859   5.681
 1508SOL     OW 5422   0.004   1.124   2.110
 1508SOL    HW1 5423   0.002   1.026   2.092
 1508SOL    HW2 5424   0.064   1.142   2.189
 1509SOL     OW 5425   4.241   2.271   6.054
 1509SOL    HW1 5426   4.298   2.287   6.134
 1509SOL    HW2 5427   4.155   2.321   6.063
 1510SOL     OW 5428   4.696   2.163   4.948
 1510SOL    HW1 5429   4.747   2.113   4.879
 1510SOL    HW2 5430   4.735   2.255   4.958
 1511SOL     OW 5431   3.259   3.213   1.661
 1511SOL    HW1 5432   3.311   3.286   1.703
 1511SOL    HW2 5433   3.221   3.154   1.732
 1512SOL     OW 5434   0.784   5.558   1.145
 1512SOL    HW1 5435   0.842   5.625   1.098
 1512SOL    HW2 5436   0.835   5.474   1.159
 1513SOL     OW 5437   3.487   0.337   4.029
 1513SOL    HW1 5438   3.507   0.299   4.120
 1513SOL    HW2 5439   3.444   0.267   3.973
 1514SOL     OW 5440   4.315   1.967   6.025
 1514SOL    HW1 5441   4.291   2.063   6.038
 1514SOL    HW2 5442   4.233   1.912   6.021
 1515SOL     OW 5443   5.733   2.162   4.013
 1515SOL    HW1 5444   5.703   2.147   4.108
 1515SOL    HW2 5445   5.653   2.177   3.955
 1516SOL     OW 5446   6.447   0.177   0.380
 1516SOL    HW1 5447   6.512   0.219   0.443
 1516SOL    HW2 5448   6.478   0.084   0.357
 1517SOL     OW 5449   4.723   6.206   3.985
 1517SOL    HW1 5450   4.681   6.174   4.070
 1517SOL    HW2 5451   4.802   6.149   3.963
 1518SOL     OW 5452   0.806   3.514   0.010
 1518SOL    HW1 5453   0.884   3.577   0.013
 1518SOL    HW2 5454   0.803   3.460   0.094
 1519SOL     OW 5455   6.165   4.797   1.657
 1519SOL    HW1 5456   6.223   4.764   1.731
 1519SOL    HW2 5457   6.071   4.805   1.689
 1520SOL     OW 5458   0.592   3.643   2.126
 1520SOL    HW1 5459   0.562   3.703   2.200
 1520SOL    HW2 5460   0.556   3.676   2.039
 1521SOL     OW 5461   1.647   4.314   6.561
 1521SOL    HW1 5462   1.647   4.244   6.490
 1521SOL    HW2 5463   1.724   4.299   6.623
 1522SOL     OW 5464   6.168   6.928   5.560
 1522SOL    HW1 5465   6.139   7.018   5.591
 1522SOL    HW2 5466   6.259   6.907   5.597
 1523SOL     OW 5467   5.276   5.193   1.079
 1523SOL    HW1 5468   5.222   5.117   1.044
 1523SOL    HW2 5469   5.354   5.159   1.131
 1524SOL     OW 5470   1.707   2.018   1.919
 1524SOL    HW1 5471   1.675   2.010   2.014
 1524SOL    HW2 5472   1.793   2.068   1.917
 1525SOL     OW 5473   6.811   2.307   0.242
 1525SOL    HW1 5474   6.720   2.328   0.206
 1525SOL    HW2 5475   6.856   2.392   0.269
 1526SOL     OW 5476   7.019   6.882   0.016
 1526SOL    HW1 5477   6.982   6.793   7.018
 1526SOL    HW2 5478   7.012   6.945   6.966
 1527SOL     OW 5479   3.517   1.571   5.117
 1527SOL    HW1 5480   3.429   1.527   5.097
 1527SOL    HW2 5481   3.524   1.588   5.216
 1528SOL     OW 5482   5.010   6.285   2.522
 1528SOL    HW1 5483   4.926   6.242   2.490
 1528SOL    HW2 5484   4.995   6.384   2.530
 1529SOL     OW 5485   3.768   0.330   0.122
 1529SOL    HW1 5486   3.708   0.408   0.108
 1529SOL    HW2 5487   3.839   0.329   0.051
 1530SOL     OW 5488   3.435   1.545   2.118
 1530SOL    HW1 5489   3.494   1.624   2.134
 1530SOL    HW2 5490   3.387   1.522   2.203
 1531SOL     OW 5491   4.435   0.906   4.541
 1531SOL    HW1 5492   4.400   0.948   4.457
 1531SOL    HW2 5493   4.464   0.978   4.604
 1532SOL     OW 5494   2.610   3.752   6.336
 1532SOL    HW1 5495   2.658   3.675   6.379
 1532SOL    HW2 5496   2.667   3.789   6.262
 1533SOL     OW 5497   6.970   3.142   0.380
 1533SOL    HW1 5498   6.966   3.136   0.280
 1533SOL    HW2 5499   6.902   3.081   0.420
 1534SOL     OW 5500   1.774   4.920   6.126
 1534SOL    HW1 5501   1.684   4.888   6.097
 1534SOL    HW2 5502   1.844   4.852   6.103
 1535SOL     OW 5503   5.008   6.396   3.909
 1535SOL    HW1 5504   4.931   6.456   3.888
 1535SOL    HW2 5505   4.994   6.352   3.997
 1536SOL     OW 5506   4.185   4.200   5.310
 1536SOL    HW1 5507   4.235   4.144   5.376
 1536SOL    HW2 5508   4.244   4.275   5.278
 1537SOL     OW 5509   4.345   6.361   3.466
 1537SOL    HW1 5510   4.330   6.285   3.404
 1537SOL    HW2 5511   4.348   6.328   3.560
 1538SOL     OW 5512   4.467   6.252   5.860
 1538SOL    HW1 5513   4.422   6.178   5.910
 1538SOL    HW2 5514   4.433   6.340   5.893
 1539SOL     OW 5515   4.114   3.920   1.817
 1539SOL    HW1 5516   4.172   3.980   1.872
 1539SOL    HW2 5517   4.018   3.940   1.836
 1540SOL     OW 5518   2.044   6.306   5.832
 1540SOL    HW1 5519   2.038   6.277   5.928
 1540SOL    HW2 5520   2.022   6.229   5.773
 1541SOL     OW 5521   3.500   2.964   2.261
 1541SOL    HW1 5522   3.518   2.931   2.353
 1541SOL    HW2 5523   3.500   3.064   2.259
 1542SOL     OW 5524   6.151   5.747   1.969
 1542SOL    HW1 5525   6.246   5.773   1.956
 1542SOL    HW2 5526   6.125   5.678   1.902
 1543SOL     OW 5527   3.578   4.301   5.264
 1543SOL    HW1 5528   3.487   4.273   5.292
 1543SOL    HW2 5529   3.643   4.227   5.281
 1544SOL     OW 5530   3.296   3.546   3.038
 1544SOL    HW1 5531   3.223   3.556   3.106
 1544SOL    HW2 5532   3.383   3.530   3.084
 1545SOL     OW 5533   5.096   0.972   4.135
 1545SOL    HW1 5534   5.088   0.887   4.188
 1545SOL    HW2 5535   5.006   1.015   4.127
 1546SOL     OW 5536   4.079   6.664   5.922
 1546SOL    HW1 5537   4.045   6.756   5.903
 1546SOL    HW2 5538   4.089   6.652   6.021
 1547SOL     OW 5539   1.596   3.612   2.812
 1547SOL    HW1 5540   1.656   3.680   2.855
 1547SOL    HW2 5541   1.562   3.548   2.881
 1548SOL     OW 5542   4.916   4.201   5.850
 1548SOL    HW1 5543   4.986   4.130   5.849
 1548SOL    HW2 5544   4.931   4.263   5.927
 1549SOL     OW 5545   4.345   1.033   3.316
 1549SOL    HW1 5546   4.273   1.100   3.299
 1549SOL    HW2 5547   4.428   1.060   3.268
 1550SOL     OW 5548   2.617   4.913   6.482
 1550SOL    HW1 5549   2.702   4.895   6.532
 1550SOL    HW2 5550   2.570   4.992   6.523
 1551SOL     OW 5551   1.906   4.255   6.353
 1551SOL    HW1 5552   1.961   4.174   6.337
 1551SOL    HW2 5553   1.935   4.328   6.292
 1552SOL     OW 5554   6.993   6.833   0.504
 1552SOL    HW1 5555   7.017   6.929   0.492
 1552SOL    HW2 5556   7.019   6.782   0.422
 1553SOL     OW 5557   0.479   1.260   5.691
 1553SOL    HW1 5558   0.494   1.213   5.603
 1553SOL    HW2 5559   0.399   1.219   5.736
 1554SOL     OW 5560   4.413   1.487   3.472
 1554SOL    HW1 5561   4.326   1.468   3.519
 1554SOL    HW2 5562   4.467   1.403   3.466
 1555SOL     OW 5563   4.801   2.188   0.649
 1555SOL    HW1 5564   4.808   2.191   0.748
 1555SOL    HW2 5565   4.852   2.109   0.614
 1556SOL     OW 5566   2.723   1.026   0.897
 1556SOL    HW1 5567   2.787   0.949   0.907
 1556SOL    HW2 5568   2.734   1.088   0.974
 1557SOL     OW 5569   2.005   1.052   6.674
 1557SOL    HW1 5570   1.997   1.150   6.657
 1557SOL    HW2 5571   1.983   1.032   6.769
 1558SOL     OW 5572   5.765   1.005   4.565
 1558SOL    HW1 5573   5.820   0.949   4.627
 1558SOL    HW2 5574   5.790   1.101   4.575
 1559SOL     OW 5575   0.351   2.699   0.138
 1559SOL    HW1 5576   0.424   2.654   0.087
 1559SOL    HW2 5577   0.288   2.630   0.173
 1560SOL     OW 5578   2.721   2.294   6.320
 1560SOL    HW1 5579   2.651   2.325   6.385
 1560SOL    HW2 5580   2.677   2.260   6.237
 1561SOL     OW 5581   6.930   6.015   2.983
 1561SOL    HW1 5582   7.007   6.021   2.918
 1561SOL    HW2 5583   6.851   6.061   2.944
 1562SOL     OW 5584   3.920   5.890   1.980
 1562SOL    HW1 5585   4.016   5.913   1.992
 1562SOL    HW2 5586   3.887   5.839   2.060
 1563SOL     OW 5587   2.326   0.718   5.906
 1563SOL    HW1 5588   2.357   0.623   5.917
 1563SOL    HW2 5589   2.391   0.768   5.849
 1564SOL     OW 5590   1.029   3.036   2.923
 1564SOL    HW1 5591   1.062   2.960   2.866
 1564SOL    HW2 5592   0.949   3.077   2.880
 1565SOL     OW 5593   4.286   5.323   4.526
 1565SOL    HW1 5594   4.234   5.386   4.468
 1565SOL    HW2 5595   4.351   5.375   4.581
 1566SOL     OW 5596   5.596   4.885   4.222
 1566SOL    HW1 5597   5.563   4.791   4.213
 1566SOL    HW2 5598   5.627   4.919   4.133
 1567SOL     OW 5599   6.405   6.294   0.186
 1567SOL    HW1 5600   6.450   6.271   0.272
 1567SOL    HW2 5601   6.383   6.210   0.136
 1568SOL     OW 5602   2.179   5.606   1.304
 1568SOL    HW1 5603   2.082   5.624   1.319
 1568SOL    HW2 5604   2.212   5.542   1.374
 1569SOL     OW 5605   2.841   6.869   3.378
 1569SOL    HW1 5606   2.841   6.969   3.367
 1569SOL    HW2 5607   2.917   6.830   3.326
 1570SOL     OW 5608   2.021   6.841   0.535
 1570SOL    HW1 5609   2.052   6.824   0.629
 1570SOL    HW2 5610   2.100   6.843   0.474
 1571SOL     OW 5611   6.199   1.603   2.445
 1571SOL    HW1 5612   6.158   1.550   2.519
 1571SOL    HW2 5613   6.260   1.544   2.392
 1572SOL     OW 5614   0.991   6.107   0.350
 1572SOL    HW1 5615   1.086   6.125   0.323
 1572SOL    HW2 5616   0.955   6.030   0.298
 1573SOL     OW 5617   5.970   3.148   1.975
 1573SOL    HW1 5618   6.028   3.098   1.910
 1573SOL    HW2 5619   6.009   3.238   1.991
 1574SOL     OW 5620   6.804   1.109   2.987
 1574SOL    HW1 5621   6.770   1.024   3.026
 1574SOL    HW2 5622   6.887   1.090   2.933
 1575SOL     OW 5623   2.909   2.228   1.479
 1575SOL    HW1 5624   2.879   2.147   1.428
 1575SOL    HW2 5625   2.994   2.208   1.526
 1576SOL     OW 5626   0.894   1.018   2.893
 1576SOL    HW1 5627   0.873   1.115   2.901
 1576SOL    HW2 5628   0.812   0.967   2.866
 1577SOL     OW 5629   2.980   0.373   5.246
 1577SOL    HW1 5630   3.011   0.365   5.151
 1577SOL    HW2 5631   3.056   0.408   5.301
 1578SOL     OW 5632   5.733   2.858   6.217
 1578SOL    HW1 5633   5.688   2.929   6.162
 1578SOL    HW2 5634   5.684   2.846   6.303
 1579SOL     OW 5635   0.659   2.076   2.299
 1579SOL    HW1 5636   0.756   2.099   2.286
 1579SOL    HW2 5637   0.603   2.138   2.244
 1580SOL     OW 5638   3.338   4.095   3.792
 1580SOL    HW1 5639   3.381   4.107   3.881
 1580SOL    HW2 5640   3.243   4.067   3.803
 1581SOL     OW 5641   6.643   4.426   5.060
 1581SOL    HW1 5642   6.581   4.482   5.004
 1581SOL    HW2 5643   6.738   4.452   5.042
 1582SOL     OW 5644   2.604   6.831   3.992
 1582SOL    HW1 5645   2.681   6.853   4.051
 1582SOL    HW2 5646   2.552   6.755   4.031
 1583SOL     OW 5647   0.961   5.438   2.998
 1583SOL    HW1 5648   1.050   5.393   2.998
 1583SOL    HW2 5649   0.920   5.432   3.089
 1584SOL     OW 5650   0.694   6.279   6.496
 1584SOL    HW1 5651   0.794   6.278   6.495
 1584SOL    HW2 5652   0.661   6.236   6.580
 1585SOL     OW 5653   4.711   1.567   3.563
 1585SOL    HW1 5654   4.612   1.552   3.555
 1585SOL    HW2 5655   4.759   1.505   3.501
 1586SOL     OW 5656   3.085   4.835   1.726
 1586SOL    HW1 5657   3.182   4.826   1.708
 1586SOL    HW2 5658   3.051   4.921   1.686
 1587SOL     OW 5659   3.078   6.012   6.145
 1587SOL    HW1 5660   3.135   5.974   6.218
 1587SOL    HW2 5661   2.985   5.977   6.154
 1588SOL     OW 5662   3.896   0.795   2.591
 1588SOL    HW1 5663   3.859   0.868   2.648
 1588SOL    HW2 5664   3.827   0.763   2.527
 1589SOL     OW 5665   6.604   3.165   2.012
 1589SOL    HW1 5666   6.610   3.104   2.091
 1589SOL    HW2 5667   6.626   3.113   1.929
 1590SOL     OW 5668   4.207   6.969   5.210
 1590SOL    HW1 5669   4.241   6.999   5.299
 1590SOL    HW2 5670   4.276   6.987   5.140
 1591SOL     OW 5671   6.893   5.223   1.910
 1591SOL    HW1 5672   6.809   5.175   1.935
 1591SOL    HW2 5673   6.886   5.319   1.937
 1592SOL     OW 5674   1.911   3.702   6.922
 1592SOL    HW1 5675   1.927   3.713   7.020
 1592SOL    HW2 5676   1.881   3.789   6.883
 1593SOL     OW 5677   0.950   6.567   5.303
 1593SOL    HW1 5678   1.030   6.584   5.246
 1593SOL    HW2 5679   0.969   6.491   5.365
 1594SOL     OW 5680   0.406   6.234   1.740
 1594SOL    HW1 5681   0.394   6.293   1.660
 1594SOL    HW2 5682   0.456   6.284   1.810
 1595SOL     OW 5683   1.797   5.017   0.228
 1595SOL    HW1 5684   1.702   5.014   0.199
 1595SOL    HW2 5685   1.803   5.026   0.327
 1596SOL     OW 5686   0.189   2.252   3.653
 1596SOL    HW1 5687   0.115   2.184   3.651
 1596SOL    HW2 5688   0.166   2.327   3.591
 1597SOL     OW 5689   1.453   6.352   0.120
 1597SOL    HW1 5690   1.468   6.424   0.052
 1597SOL    HW2 5691   1.357   6.322   0.117
 1598SOL     OW 5692   0.060   4.451   5.709
 1598SOL    HW1 5693   0.146   4.463   5.759
 1598SOL    HW2 5694   0.079   4.444   5.612
 1599SOL     OW 5695   5.018   5.031   5.030
 1599SOL    HW1 5696   4.949   5.074   5.089
 1599SOL    HW2 5697   5.022   5.081   4.943
 1600SOL     OW 5698   4.182   1.228   3.261
 1600SOL    HW1 5699   4.239   1.288   3.203
 1600SOL    HW2 5700   4.106   1.281   3.298
 1601SOL     OW 5701   6.763   5.775   4.667
 1601SOL    HW1 5702   6.689   5.780   4.734
 1601SOL    HW2 5703   6.723   5.768   4.575
 1602SOL     OW 5704   4.098   5.999   3.351
 1602SOL    HW1 5705   4.014   6.052   3.338
 1602SOL    HW2 5706   4.104   5.928   3.281
 1603SOL     OW 5707   1.334   6.132   3.244
 1603SOL    HW1 5708   1.401   6.145   3.317
 1603SOL    HW2 5709   1.267   6.063   3.272
 1604SOL     OW 5710   6.141   4.198   1.508
 1604SOL    HW1 5711   6.084   4.145   1.571
 1604SOL    HW2 5712   6.160   4.288   1.548
 1605SOL     OW 5713   6.276   5.207   1.397
 1605SOL    HW1 5714   6.204   5.181   1.333
 1605SOL    HW2 5715   6.326   5.126   1.426
 1606SOL     OW 5716   3.734   0.844   5.683
 1606SOL    HW1 5717   3.727   0.928   5.736
 1606SOL    HW2 5718   3.816   0.847   5.626
 1607SOL     OW 5719   4.125   1.411   1.040
 1607SOL    HW1 5720   4.126   1.339   1.110
 1607SOL    HW2 5721   4.033   1.451   1.036
 1608SOL     OW 5722   1.305   1.042   3.559
 1608SOL    HW1 5723   1.206   1.051   3.568
 1608SOL    HW2 5724   1.334   1.079   3.470
 1609SOL     OW 5725   4.347   0.124   0.444
 1609SOL    HW1 5726   4.426   0.064   0.436
 1609SOL    HW2 5727   4.340   0.181   0.362
 1610SOL     OW 5728   6.116   4.641   6.443
 1610SOL    HW1 5729   6.041   4.649   6.509
 1610SOL    HW2 5730   6.087   4.580   6.368
 1611SOL     OW 5731   2.458   3.779   1.160
 1611SOL    HW1 5732   2.543   3.742   1.198
 1611SOL    HW2 5733   2.475   3.870   1.123
 1612SOL     OW 5734   2.958   6.955   6.738
 1612SOL    HW1 5735   2.967   6.873   6.683
 1612SOL    HW2 5736   2.930   6.930   6.831
 1613SOL     OW 5737   1.111   5.674   1.952
 1613SOL    HW1 5738   1.210   5.661   1.960
 1613SOL    HW2 5739   1.092   5.762   1.910
 1614SOL     OW 5740   5.496   2.937   7.028
 1614SOL    HW1 5741   5.548   2.858   6.996
 1614SOL    HW2 5742   5.425   2.960   6.962
 1615SOL     OW 5743   5.534   5.348   0.610
 1615SOL    HW1 5744   5.596   5.402   0.666
 1615SOL    HW2 5745   5.586   5.281   0.557
 1616SOL     OW 5746   3.299   1.448   5.019
 1616SOL    HW1 5747   3.312   1.444   4.920
 1616SOL    HW2 5748   3.203   1.469   5.040
 1617SOL     OW 5749   5.966   6.878   2.904
 1617SOL    HW1 5750   6.013   6.909   2.987
 1617SOL    HW2 5751   6.013   6.914   2.824
 1618SOL     OW 5752   1.753   4.989   1.792
 1618SOL    HW1 5753   1.744   5.088   1.807
 1618SOL    HW2 5754   1.848   4.962   1.809
 1619SOL     OW 5755   1.117   4.180   2.184
 1619SOL    HW1 5756   1.028   4.150   2.219
 1619SOL    HW2 5757   1.182   4.104   2.190
 1620SOL     OW 5758   2.809   4.755   1.738
 1620SOL    HW1 5759   2.899   4.799   1.736
 1620SOL    HW2 5760   2.804   4.695   1.818
 1621SOL     OW 5761   0.154   0.995   0.597
 1621SOL    HW1 5762   0.067   1.046   0.598
 1621SOL    HW2 5763   0.199   1.005   0.685
 1622SOL     OW 5764   0.507   2.973   5.094
 1622SOL    HW1 5765   0.544   2.965   5.002
 1622SOL    HW2 5766   0.576   2.946   5.161
 1623SOL     OW 5767   2.171   3.232   5.044
 1623SOL    HW1 5768   2.196   3.319   5.087
 1623SOL    HW2 5769   2.242   3.165   5.061
 1624SOL     OW 5770   3.270   1.029   5.198
 1624SOL    HW1 5771   3.288   1.082   5.280
 1624SOL    HW2 5772   3.183   1.057   5.157
 1625SOL     OW 5773   1.042   5.298   6.985
 1625SOL    HW1 5774   1.065   5.292   0.054
 1625SOL    HW2 5775   1.047   5.394   6.956
 1626SOL     OW 5776   4.127   1.835   0.199
 1626SOL    HW1 5777   4.146   1.791   0.111
 1626SOL    HW2 5778   4.052   1.787   0.245
 1627SOL     OW 5779   6.219   3.650   3.161
 1627SOL    HW1 5780   6.312   3.653   3.197
 1627SOL    HW2 5781   6.207   3.569   3.103
 1628SOL     OW 5782   5.002   4.328   0.156
 1628SOL    HW1 5783   4.966   4.360   0.243
 1628SOL    HW2 5784   5.005   4.403   0.091
 1629SOL     OW 5785   3.067   0.865   4.193
 1629SOL    HW1 5786   3.087   0.961   4.173
 1629SOL    HW2 5787   3.106   0.840   4.282
 1630SOL     OW 5788   1.111   4.786   5.480
 1630SOL    HW1 5789   1.124   4.701   5.532
 1630SOL    HW2 5790   1.132   4.864   5.539
 1631SOL     OW 5791   1.452   3.150   7.022
 1631SOL    HW1 5792   1.519   3.214   6.985
 1631SOL    HW2 5793   1.437   3.168   0.091
 1632SOL     OW 5794   6.441   2.393   0.616
 1632SOL    HW1 5795   6.377   2.440   0.555
 1632SOL    HW2 5796   6.533   2.395   0.576
 1633SOL     OW 5797   5.327   3.460   4.553
 1633SOL    HW1 5798   5.366   3.524   4.618
 1633SOL    HW2 5799   5.395   3.392   4.527
 1634SOL     OW 5800   4.235   5.596   5.025
 1634SOL    HW1 5801   4.256   5.636   5.114
 1634SOL    HW2 5802   4.267   5.658   4.952
 1635SOL     OW 5803   6.977   4.940   6.286
 1635SOL    HW1 5804   6.916   4.971   6.213
 1635SOL    HW2 5805   6.936   4.962   6.375
 1636SOL     OW 5806   2.852   4.459   1.536
 1636SOL    HW1 5807   2.793   4.538   1.555
 1636SOL    HW2 5808   2.890   4.425   1.621
 1637SOL     OW 5809   1.045   0.317   2.617
 1637SOL    HW1 5810   0.963   0.292   2.669
 1637SOL    HW2 5811   1.114   0.354   2.680
 1638SOL     OW 5812   0.036   4.142   3.296
 1638SOL    HW1 5813   0.019   4.096   3.383
 1638SOL    HW2 5814   0.054   4.239   3.313
 1639SOL     OW 5815   4.842   6.964   2.169
 1639SOL    HW1 5816   4.932   6.950   2.127
 1639SOL    HW2 5817   4.773   6.912   2.119
 1640SOL     OW 5818   6.143   0.701   0.029
 1640SOL    HW1 5819   6.178   0.617   7.018
 1640SOL    HW2 5820   6.093   0.752   6.987
 1641SOL     OW 5821   4.736   2.500   3.411
 1641SOL    HW1 5822   4.653   2.463   3.452
 1641SOL    HW2 5823   4.799   2.528   3.483
 1642SOL     OW 5824   6.416   3.337   6.357
 1642SOL    HW1 5825   6.420   3.240   6.335
 1642SOL    HW2 5826   6.373   3.386   6.281
 1643SOL     OW 5827   2.879   4.906   5.061
 1643SOL    HW1 5828   2.927   4.854   5.132
 1643SOL    HW2 5829   2.827   4.843   5.003
 1644SOL     OW 5830   6.256   3.558   0.543
 1644SOL    HW1 5831   6.306   3.633   0.587
 1644SOL    HW2 5832   6.197   3.595   0.472
 1645SOL     OW 5833   3.336   5.322   5.497
 1645SOL    HW1 5834   3.433   5.322   5.521
 1645SOL    HW2 5835   3.286   5.380   5.562
 1646SOL     OW 5836   2.878   6.310   0.458
 1646SOL    HW1 5837   2.940   6.327   0.381
 1646SOL    HW2 5838   2.817   6.388   0.470
 1647SOL     OW 5839   5.784   2.869   4.609
 1647SOL    HW1 5840   5.711   2.934   4.631
 1647SOL    HW2 5841   5.746   2.792   4.557
 1648SOL     OW 5842   5.212   5.192   0.793
 1648SOL    HW1 5843   5.241   5.210   0.886
 1648SOL    HW2 5844   5.231   5.272   0.736
 1649SOL     OW 5845   3.127   0.766   4.460
 1649SOL    HW1 5846   3.196   0.695   4.469
 1649SOL    HW2 5847   3.146   0.839   4.525
 1650SOL     OW 5848   1.719   6.180   5.829
 1650SOL    HW1 5849   1.804   6.175   5.778
 1650SOL    HW2 5850   1.678   6.089   5.836
 1651SOL     OW 5851   0.590   2.014   1.580
 1651SOL    HW1 5852   0.658   2.006   1.653
 1651SOL    HW2 5853   0.620   1.961   1.500
 1652SOL     OW 5854   1.041   3.869   2.603
 1652SOL    HW1 5855   1.113   3.891   2.537
 1652SOL    HW2 5856   1.026   3.771   2.605
 1653SOL     OW 5857   1.052   6.868   1.142
 1653SOL    HW1 5858   1.117   6.835   1.211
 1653SOL    HW2 5859   1.021   6.792   1.086
 1654SOL     OW 5860   0.713   3.879   1.455
 1654SOL    HW1 5861   0.793   3.819   1.444
 1654SOL    HW2 5862   0.742   3.974   1.445
 1655SOL     OW 5863   0.368   2.361   5.229
 1655SOL    HW1 5864   0.396   2.341   5.323
 1655SOL    HW2 5865   0.282   2.315   5.209
 1656SOL     OW 5866   2.611   4.636   2.197
 1656SOL    HW1 5867   2.599   4.668   2.103
 1656SOL    HW2 5868   2.693   4.578   2.202
 1657SOL     OW 5869   0.102   1.057   3.137
 1657SOL    HW1 5870   0.091   1.074   3.039
 1657SOL    HW2 5871   0.048   1.123   3.189
 1658SOL     OW 5872   0.053   5.972   1.005
 1658SOL    HW1 5873   7.021   5.968   1.084
 1658SOL    HW2 5874   0.131   5.911   1.019
 1659SOL     OW 5875   3.986   0.209   6.102
 1659SOL    HW1 5876   3.890   0.181   6.103
 1659SOL    HW2 5877   4.044   0.131   6.127
 1660SOL     OW 5878   0.617   5.028   3.603
 1660SOL    HW1 5879   0.713   5.006   3.582
 1660SOL    HW2 5880   0.581   4.960   3.668
 1661SOL     OW 5881   2.516   0.537   2.008
 1661SOL    HW1 5882   2.608   0.499   2.014
 1661SOL    HW2 5883   2.512   0.624   2.056
 1662SOL     OW 5884   6.742   0.969   4.524
 1662SOL    HW1 5885   6.792   1.032   4.583
 1662SOL    HW2 5886   6.647   0.963   4.554
 1663SOL     OW 5887   4.507   5.982   2.728
 1663SOL    HW1 5888   4.478   5.887   2.734
 1663SOL    HW2 5889   4.569   6.003   2.804
 1664SOL     OW 5890   1.889   0.359   4.686
 1664SOL    HW1 5891   1.811   0.375   4.625
 1664SOL    HW2 5892   1.857   0.315   4.770
 1665SOL     OW 5893   0.295   1.571   2.903
 1665SOL    HW1 5894   0.293   1.471   2.893
 1665SOL    HW2 5895   0.304   1.594   3.000
 1666SOL     OW 5896   5.451   2.228   6.741
 1666SOL    HW1 5897   5.516   2.299   6.771
 1666SOL    HW2 5898   5.401   2.193   6.820
 1667SOL     OW 5899   6.911   5.782   1.475
 1667SOL    HW1 5900   6.983   5.850   1.484
 1667SOL    HW2 5901   6.929   5.723   1.396
 1668SOL     OW 5902   5.304   6.449   5.080
 1668SOL    HW1 5903   5.253   6.370   5.045
 1668SOL    HW2 5904   5.309   6.520   5.009
 1669SOL     OW 5905   6.653   5.555   6.502
 1669SOL    HW1 5906   6.556   5.576   6.517
 1669SOL    HW2 5907   6.709   5.605   6.568
 1670SOL     OW 5908   0.202   3.785   5.471
 1670SOL    HW1 5909   0.267   3.750   5.539
 1670SOL    HW2 5910   0.109   3.781   5.509
 1671SOL     OW 5911   5.101   1.339   1.623
 1671SOL    HW1 5912   5.156   1.369   1.701
 1671SOL    HW2 5913   5.156   1.349   1.539
 1672SOL     OW 5914   1.975   3.066   0.960
 1672SOL    HW1 5915   1.977   3.119   1.045
 1672SOL    HW2 5916   2.033   2.986   0.969
 1673SOL     OW 5917   1.085   1.804   4.325
 1673SOL    HW1 5918   1.127   1.894   4.310
 1673SOL    HW2 5919   0.987   1.810   4.308
 1674SOL     OW 5920   0.816   3.572   2.317
 1674SOL    HW1 5921   0.749   3.644   2.332
 1674SOL    HW2 5922   0.775   3.483   2.340
 1675SOL     OW 5923   4.821   0.076   6.835
 1675SOL    HW1 5924   4.729   0.036   6.824
 1675SOL    HW2 5925   4.814   0.175   6.838
 1676SOL     OW 5926   1.958   2.465   1.667
 1676SOL    HW1 5927   2.051   2.436   1.685
 1676SOL    HW2 5928   1.955   2.565   1.657
 1677SOL     OW 5929   2.951   3.841   4.699
 1677SOL    HW1 5930   2.857   3.871   4.714
 1677SOL    HW2 5931   2.950   3.750   4.656
 1678SOL     OW 5932   5.159   4.091   4.195
 1678SOL    HW1 5933   5.194   4.073   4.103
 1678SOL    HW2 5934   5.072   4.139   4.189
 1679SOL     OW 5935   2.249   2.563   4.265
 1679SOL    HW1 5936   2.291   2.481   4.303
 1679SOL    HW2 5937   2.293   2.644   4.304
 1680SOL     OW 5938   0.038   2.604   4.573
 1680SOL    HW1 5939   0.056   2.628   4.478
 1680SOL    HW2 5940   0.108   2.541   4.606
 1681SOL     OW 5941   6.498   5.631   0.183
 1681SOL    HW1 5942   6.418   5.607   0.128
 1681SOL    HW2 5943   6.562   5.683   0.127
 1682SOL     OW 5944   1.380   1.099   4.317
 1682SOL    HW1 5945   1.325   1.160   4.374
 1682SOL    HW2 5946   1.365   1.122   4.220
 1683SOL     OW 5947   4.928   5.098   1.352
 1683SOL    HW1 5948   5.027   5.087   1.359
 1683SOL    HW2 5949   4.884   5.008   1.360
 1684SOL     OW 5950   1.686   5.807   2.118
 1684SOL    HW1 5951   1.611   5.869   2.144
 1684SOL    HW2 5952   1.749   5.855   2.057
 1685SOL     OW 5953   2.817   0.873   4.791
 1685SOL    HW1 5954   2.784   0.883   4.697
 1685SOL    HW2 5955   2.746   0.827   4.846
 1686SOL     OW 5956   3.041   5.973   4.876
 1686SOL    HW1 5957   3.058   6.022   4.961
 1686SOL    HW2 5958   2.945   5.984   4.850
 1687SOL     OW 5959   2.169   3.728   1.542
 1687SOL    HW1 5960   2.244   3.765   1.487
 1687SOL    HW2 5961   2.187   3.632   1.562
 1688SOL     OW 5962   2.173   2.990   4.383
 1688SOL    HW1 5963   2.158   2.936   4.300
 1688SOL    HW2 5964   2.089   3.039   4.406
 1689SOL     OW 5965   5.655   1.296   2.991
 1689SOL    HW1 5966   5.571   1.328   2.946
 1689SOL    HW2 5967   5.699   1.373   3.038
 1690SOL     OW 5968   1.558   2.733   3.665
 1690SOL    HW1 5969   1.541   2.803   3.735
 1690SOL    HW2 5970   1.623   2.666   3.701
 1691SOL     OW 5971   5.891   3.536   3.601
 1691SOL    HW1 5972   5.914   3.539   3.504
 1691SOL    HW2 5973   5.969   3.566   3.655
 1692SOL     OW 5974   5.725   6.528   1.311
 1692SOL    HW1 5975   5.642   6.522   1.367
 1692SOL    HW2 5976   5.805   6.521   1.371
 1693SOL     OW 5977   0.184   2.231   1.885
 1693SOL    HW1 5978   0.090   2.206   1.908
 1693SOL    HW2 5979   0.243   2.215   1.964
 1694SOL     OW 5980   5.294   0.440   2.679
 1694SOL    HW1 5981   5.281   0.350   2.718
 1694SOL    HW2 5982   5.386   0.446   2.639
 1695SOL     OW 5983   3.596   1.109   5.266
 1695SOL    HW1 5984   3.529   1.160   5.213
 1695SOL    HW2 5985   3.685   1.155   5.261
 1696SOL     OW 5986   4.505   4.212   0.567
 1696SOL    HW1 5987   4.476   4.130   0.615
 1696SOL    HW2 5988   4.479   4.293   0.621
 1697SOL     OW 5989   5.699   0.313   0.817
 1697SOL    HW1 5990   5.724   0.314   0.720
 1697SOL    HW2 5991   5.694   0.219   0.850
 1698SOL     OW 5992   4.133   0.574   0.483
 1698SOL    HW1 5993   4.193   0.626   0.422
 1698SOL    HW2 5994   4.136   0.477   0.457
 1699SOL     OW 5995   1.624   0.422   0.795
 1699SOL    HW1 5996   1.659   0.483   0.866
 1699SOL    HW2 5997   1.642   0.327   0.821
 1700SOL     OW 5998   5.424   2.651   3.629
 1700SOL    HW1 5999   5.442   2.554   3.646
 1700SOL    HW2 6000   5.339   2.661   3.578
 1701SOL     OW 6001   4.618   4.317   6.516
 1701SOL    HW1 6002   4.555   4.391   6.491
 1701SOL    HW2 6003   4.571   4.229   6.509
 1702SOL     OW 6004   6.685   2.399   0.497
 1702SOL    HW1 6005   6.755   2.470   0.487
 1702SOL    HW2 6006   6.690   2.336   0.420
 1703SOL     OW 6007   2.934   2.608   1.681
 1703SOL    HW1 6008   2.919   2.537   1.750
 1703SOL    HW2 6009   2.875   2.591   1.602
 1704SOL     OW 6010   1.178   2.625   0.865
 1704SOL    HW1 6011   1.113   2.627   0.790
 1704SOL    HW2 6012   1.132   2.652   0.950
 1705SOL     OW 6013   3.448   1.782   1.585
 1705SOL    HW1 6014   3.527   1.721   1.591
 1705SOL    HW2 6015   3.402   1.785   1.674
 1706SOL     OW 6016   4.664   1.049   2.018
 1706SOL    HW1 6017   4.608   0.977   1.977
 1706SOL    HW2 6018   4.674   1.124   1.953
 1707SOL     OW 6019   5.208   2.026   2.239
 1707SOL    HW1 6020   5.291   2.008   2.291
 1707SOL    HW2 6021   5.160   2.104   2.279
 1708SOL     OW 6022   4.886   5.385   1.549
 1708SOL    HW1 6023   4.917   5.313   1.487
 1708SOL    HW2 6024   4.886   5.472   1.500
 1709SOL     OW 6025   3.401   5.815   2.197
 1709SOL    HW1 6026   3.441   5.750   2.133
 1709SOL    HW2 6027   3.307   5.835   2.169
 1710SOL     OW 6028   5.382   5.547   4.048
 1710SOL    HW1 6029   5.346   5.620   3.989
 1710SOL    HW2 6030   5.478   5.565   4.067
 1711SOL     OW 6031   1.154   4.523   4.091
 1711SOL    HW1 6032   1.101   4.440   4.076
 1711SOL    HW2 6033   1.092   4.601   4.102
 1712SOL     OW 6034   6.854   2.432   5.366
 1712SOL    HW1 6035   6.822   2.351   5.415
 1712SOL    HW2 6036   6.786   2.505   5.376
 1713SOL     OW 6037   4.633   2.698   1.484
 1713SOL    HW1 6038   4.629   2.661   1.577
 1713SOL    HW2 6039   4.629   2.798   1.488
 1714SOL     OW 6040   3.190   1.763   5.462
 1714SOL    HW1 6041   3.158   1.849   5.423
 1714SOL    HW2 6042   3.160   1.756   5.557
 1715SOL     OW 6043   0.014   5.852   3.233
 1715SOL    HW1 6044   7.003   5.880   3.145
 1715SOL    HW2 6045   0.093   5.910   3.254
 1716SOL     OW 6046   4.972   6.761   2.891
 1716SOL    HW1 6047   4.933   6.669   2.887
 1716SOL    HW2 6048   5.028   6.777   2.809
 1717SOL     OW 6049   2.258   6.753   5.924
 1717SOL    HW1 6050   2.202   6.770   6.005
 1717SOL    HW2 6051   2.345   6.713   5.953
 1718SOL     OW 6052   2.173   2.120   1.198
 1718SOL    HW1 6053   2.224   2.193   1.242
 1718SOL    HW2 6054   2.075   2.140   1.204
 1719SOL     OW 6055   1.674   3.307   0.863
 1719SOL    HW1 6056   1.652   3.404   0.864
 1719SOL    HW2 6057   1.773   3.295   0.857
 1720SOL     OW 6058   0.444   3.102   6.899
 1720SOL    HW1 6059   0.494   3.020   6.926
 1720SOL    HW2 6060   0.486   3.182   6.942
 1721SOL     OW 6061   1.522   6.283   1.343
 1721SOL    HW1 6062   1.559   6.328   1.262
 1721SOL    HW2 6063   1.583   6.299   1.421
 1722SOL     OW 6064   3.741   1.474   3.808
 1722SOL    HW1 6065   3.682   1.535   3.862
 1722SOL    HW2 6066   3.823   1.453   3.860
 1723SOL     OW 6067   6.395   2.376   2.812
 1723SOL    HW1 6068   6.345   2.293   2.837
 1723SOL    HW2 6069   6.452   2.357   2.731
 1724SOL     OW 6070   6.835   2.907   1.598
 1724SOL    HW1 6071   6.781   2.949   1.671
 1724SOL    HW2 6072   6.905   2.972   1.567
 1725SOL     OW 6073   1.434   4.673   6.336
 1725SOL    HW1 6074   1.502   4.637   6.400
 1725SOL    HW2 6075   1.345   4.677   6.382
 1726SOL     OW 6076   5.528   4.771   5.033
 1726SOL    HW1 6077   5.523   4.869   5.049
 1726SOL    HW2 6078   5.606   4.733   5.083
 1727SOL     OW 6079   3.364   2.883   3.777
 1727SOL    HW1 6080   3.307   2.963   3.758
 1727SOL    HW2 6081   3.331   2.838   3.860
 1728SOL     OW 6082   5.187   4.617   5.487
 1728SOL    HW1 6083   5.201   4.556   5.565
 1728SOL    HW2 6084   5.160   4.563   5.407
 1729SOL     OW 6085   2.495   4.458   3.080
 1729SOL    HW1 6086   2.487   4.485   3.175
 1729SOL    HW2 6087   2.592   4.451   3.055
 1730SOL     OW 6088   0.862   6.784   5.911
 1730SOL    HW1 6089   0.799   6.797   5.835
 1730SOL    HW2 6090   0.942   6.843   5.899
 1731SOL     OW 6091   6.821   3.751   2.745
 1731SOL    HW1 6092   6.766   3.668   2.732
 1731SOL    HW2 6093   6.884   3.738   2.822
 1732SOL     OW 6094   2.483   5.584   5.583
 1732SOL    HW1 6095   2.508   5.494   5.618
 1732SOL    HW2 6096   2.484   5.583   5.483
 1733SOL     OW 6097   1.976   4.620   1.439
 1733SOL    HW1 6098   1.937   4.695   1.493
 1733SOL    HW2 6099   2.074   4.614   1.456
 1734SOL     OW 6100   4.324   3.134   0.936
 1734SOL    HW1 6101   4.357   3.067   0.869
 1734SOL    HW2 6102   4.397   3.199   0.956
 1735SOL     OW 6103   4.981   6.037   0.463
 1735SOL    HW1 6104   4.916   6.112   0.446
 1735SOL    HW2 6105   4.930   5.954   0.483
 1736SOL     OW 6106   3.183   3.169   0.210
 1736SOL    HW1 6107   3.207   3.073   0.199
 1736SOL    HW2 6108   3.182   3.193   0.307
 1737SOL     OW 6109   2.822   1.291   4.242
 1737SOL    HW1 6110   2.907   1.244   4.220
 1737SOL    HW2 6111   2.759   1.227   4.286
 1738SOL     OW 6112   2.024   2.531   4.079
 1738SOL    HW1 6113   1.957   2.465   4.112
 1738SOL    HW2 6114   2.078   2.566   4.155
 1739SOL     OW 6115   0.210   2.108   5.461
 1739SOL    HW1 6116   0.287   2.168   5.441
 1739SOL    HW2 6117   0.126   2.162   5.464
 1740SOL     OW 6118   0.049   1.742   5.678
 1740SOL    HW1 6119   0.130   1.684   5.671
 1740SOL    HW2 6120   0.042   1.779   5.771
 1741SOL     OW 6121   2.547   0.857   3.629
 1741SOL    HW1 6122   2.497   0.837   3.544
 1741SOL    HW2 6123   2.613   0.783   3.646
 1742SOL     OW 6124   5.412   0.489   6.267
 1742SOL    HW1 6125   5.397   0.446   6.356
 1742SOL    HW2 6126   5.505   0.468   6.236
 1743SOL     OW 6127   1.235   2.438   1.134
 1743SOL    HW1 6128   1.217   2.534   1.116
 1743SOL    HW2 6129   1.162   2.382   1.094
 1744SOL     OW 6130   6.593   1.506   2.640
 1744SOL    HW1 6131   6.499   1.540   2.645
 1744SOL    HW2 6132   6.634   1.509   2.732
 1745SOL     OW 6133   6.008   6.116   2.862
 1745SOL    HW1 6134   6.104   6.089   2.853
 1745SOL    HW2 6135   5.971   6.141   2.772
 1746SOL     OW 6136   1.217   4.419   4.760
 1746SOL    HW1 6137   1.273   4.499   4.780
 1746SOL    HW2 6138   1.140   4.415   4.824
 1747SOL     OW 6139   5.205   1.618   3.086
 1747SOL    HW1 6140   5.124   1.593   3.033
 1747SOL    HW2 6141   5.278   1.646   3.024
 1748SOL     OW 6142   1.269   1.056   5.082
 1748SOL    HW1 6143   1.213   0.981   5.047
 1748SOL    HW2 6144   1.214   1.114   5.142
 1749SOL     OW 6145   2.548   0.458   4.799
 1749SOL    HW1 6146   2.529   0.539   4.855
 1749SOL    HW2 6147   2.466   0.435   4.746
 1750SOL     OW 6148   5.291   6.190   4.345
 1750SOL    HW1 6149   5.225   6.193   4.420
 1750SOL    HW2 6150   5.374   6.238   4.373
 1751SOL     OW 6151   4.128   6.458   5.013
 1751SOL    HW1 6152   4.108   6.512   5.094
 1751SOL    HW2 6153   4.226   6.438   5.009
 1752SOL     OW 6154   6.993   2.059   1.494
 1752SOL    HW1 6155   7.009   1.961   1.509
 1752SOL    HW2 6156   6.971   2.103   1.581
 1753SOL     OW 6157   0.329   1.016   0.807
 1753SOL    HW1 6158   0.326   0.992   0.905
 1753SOL    HW2 6159   0.363   1.109   0.797
 1754SOL     OW 6160   1.656   4.354   0.078
 1754SOL    HW1 6161   1.689   4.399   7.023
 1754SOL    HW2 6162   1.559   4.334   0.069
 1755SOL     OW 6163   0.006   6.007   2.359
 1755SOL    HW1 6164   0.063   5.925   2.372
 1755SOL    HW2 6165   7.005   6.012   2.264
 1756SOL     OW 6166   4.074   5.903   6.085
 1756SOL    HW1 6167   4.099   5.881   5.991
 1756SOL    HW2 6168   4.115   5.836   6.147
 1757SOL     OW 6169   2.722   5.719   5.058
 1757SOL    HW1 6170   2.719   5.748   4.963
 1757SOL    HW2 6171   2.703   5.620   5.063
 1758SOL     OW 6172   1.965   6.972   3.891
 1758SOL    HW1 6173   2.052   6.958   3.845
 1758SOL    HW2 6174   1.918   0.022   3.851
 1759SOL     OW 6175   1.677   5.757   6.269
 1759SOL    HW1 6176   1.647   5.717   6.356
 1759SOL    HW2 6177   1.749   5.699   6.229
 1760SOL     OW 6178   5.294   1.187   3.032
 1760SOL    HW1 6179   5.351   1.105   3.034
 1760SOL    HW2 6180   5.253   1.201   3.122
 1761SOL     OW 6181   0.291   0.295   0.931
 1761SOL    HW1 6182   0.373   0.246   0.905
 1761SOL    HW2 6183   0.250   0.338   0.850
 1762SOL     OW 6184   0.446   1.035   5.067
 1762SOL    HW1 6185   0.423   1.098   5.142
 1762SOL    HW2 6186   0.363   1.003   5.023
 1763SOL     OW 6187   1.188   3.403   3.608
 1763SOL    HW1 6188   1.175   3.316   3.655
 1763SOL    HW2 6189   1.244   3.389   3.526
 1764SOL     OW 6190   2.182   3.850   2.663
 1764SOL    HW1 6191   2.205   3.937   2.705
 1764SOL    HW2 6192   2.243   3.833   2.586
 1765SOL     OW 6193   3.475   0.945   0.890
 1765SOL    HW1 6194   3.536   1.003   0.838
 1765SOL    HW2 6195   3.513   0.929   0.981
 1766SOL     OW 6196   4.788   4.002   2.428
 1766SOL    HW1 6197   4.861   3.973   2.366
 1766SOL    HW2 6198   4.798   3.955   2.516
 1767SOL     OW 6199   0.411   3.508   2.931
 1767SOL    HW1 6200   0.367   3.555   2.854
 1767SOL    HW2 6201   0.346   3.443   2.971
 1768SOL     OW 6202   4.492   1.645   6.104
 1768SOL    HW1 6203   4.531   1.590   6.177
 1768SOL    HW2 6204   4.414   1.597   6.063
 1769SOL     OW 6205   4.042   2.225   5.835
 1769SOL    HW1 6206   4.106   2.254   5.906
 1769SOL    HW2 6207   3.949   2.247   5.862
 1770SOL     OW 6208   6.918   4.321   4.420
 1770SOL    HW1 6209   6.829   4.277   4.418
 1770SOL    HW2 6210   6.957   4.315   4.513
 1771SOL     OW 6211   1.993   4.941   0.030
 1771SOL    HW1 6212   1.929   4.949   6.982
 1771SOL    HW2 6213   1.958   4.992   0.109
 1772SOL     OW 6214   3.457   0.084   3.229
 1772SOL    HW1 6215   3.478   0.055   3.135
 1772SOL    HW2 6216   3.521   0.156   3.257
 1773SOL     OW 6217   3.218   3.871   6.820
 1773SOL    HW1 6218   3.295   3.807   6.813
 1773SOL    HW2 6219   3.249   3.963   6.800
 1774SOL     OW 6220   4.591   0.323   1.562
 1774SOL    HW1 6221   4.520   0.277   1.617
 1774SOL    HW2 6222   4.580   0.299   1.466
 1775SOL     OW 6223   1.486   5.866   4.683
 1775SOL    HW1 6224   1.397   5.831   4.713
 1775SOL    HW2 6225   1.490   5.867   4.583
 1776SOL     OW 6226   4.416   0.734   5.949
 1776SOL    HW1 6227   4.358   0.667   5.995
 1776SOL    HW2 6228   4.362   0.815   5.925
 1777SOL     OW 6229   3.075   6.088   5.620
 1777SOL    HW1 6230   3.120   6.060   5.705
 1777SOL    HW2 6231   3.008   6.019   5.593
 1778SOL     OW 6232   4.223   2.322   4.376
 1778SOL    HW1 6233   4.171   2.300   4.459
 1778SOL    HW2 6234   4.269   2.410   4.388
 1779SOL     OW 6235   3.939   2.076   4.389
 1779SOL    HW1 6236   3.983   2.132   4.459
 1779SOL    HW2 6237   3.908   2.135   4.315
 1780SOL     OW 6238   1.900   4.611   5.719
 1780SOL    HW1 6239   1.930   4.704   5.740
 1780SOL    HW2 6240   1.869   4.606   5.624
 1781SOL     OW 6241   5.158   5.551   3.488
 1781SOL    HW1 6242   5.095   5.512   3.556
 1781SOL    HW2 6243   5.251   5.519   3.507
 1782SOL     OW 6244   2.904   1.817   3.255
 1782SOL    HW1 6245   2.843   1.894   3.241
 1782SOL    HW2 6246   2.920   1.804   3.353
 1783SOL     OW 6247   2.409   3.377   6.427
 1783SOL    HW1 6248   2.478   3.364   6.356
 1783SOL    HW2 6249   2.361   3.463   6.411
 1784SOL     OW 6250   3.043   0.718   2.892
 1784SOL    HW1 6251   3.108   0.780   2.848
 1784SOL    HW2 6252   2.987   0.769   2.956
 1785SOL     OW 6253   5.341   5.343   3.531
 1785SOL    HW1 6254   5.341   5.254   3.576
 1785SOL    HW2 6255   5.312   5.333   3.436
 1786SOL     OW 6256   1.095   3.359   0.791
 1786SOL    HW1 6257   1.044   3.402   0.865
 1786SOL    HW2 6258   1.039   3.288   0.748
 1787SOL     OW 6259   2.082   0.755   5.068
 1787SOL    HW1 6260   2.037   0.842   5.046
 1787SOL    HW2 6261   2.017   0.695   5.114
 1788SOL     OW 6262   3.269   3.855   0.065
 1788SOL    HW1 6263   3.185   3.892   0.103
 1788SOL    HW2 6264   3.250   3.809   7.007
 1789SOL     OW 6265   6.350   2.331   2.420
 1789SOL    HW1 6266   6.263   2.355   2.462
 1789SOL    HW2 6267   6.339   2.248   2.365
 1790SOL     OW 6268   4.036   6.292   4.582
 1790SOL    HW1 6269   4.118   6.239   4.603
 1790SOL    HW2 6270   4.055   6.389   4.599
 1791SOL     OW 6271   0.823   1.910   4.579
 1791SOL    HW1 6272   0.772   1.841   4.527
 1791SOL    HW2 6273   0.871   1.865   4.655
 1792SOL     OW 6274   0.674   1.260   4.265
 1792SOL    HW1 6275   0.581   1.249   4.231
 1792SOL    HW2 6276   0.671   1.296   4.358
 1793SOL     OW 6277   7.017   0.208   3.664
 1793SOL    HW1 6278   0.019   0.148   3.590
 1793SOL    HW2 6279   6.964   0.284   3.627
 1794SOL     OW 6280   5.159   6.405   6.571
 1794SOL    HW1 6281   5.090   6.351   6.523
 1794SOL    HW2 6282   5.244   6.405   6.518
 1795SOL     OW 6283   6.919   5.157   2.175
 1795SOL    HW1 6284   6.908   5.152   2.076
 1795SOL    HW2 6285   7.015   5.143   2.199
 1796SOL     OW 6286   2.433   1.489   4.203
 1796SOL    HW1 6287   2.381   1.518   4.122
 1796SOL    HW2 6288   2.390   1.526   4.285
 1797SOL     OW 6289   1.593   0.453   5.883
 1797SOL    HW1 6290   1.654   0.454   5.962
 1797SOL    HW2 6291   1.543   0.366   5.881
 1798SOL     OW 6292   4.731   2.664   5.505
 1798SOL    HW1 6293   4.738   2.638   5.601
 1798SOL    HW2 6294   4.814   2.713   5.478
 1799SOL     OW 6295   5.970   2.109   6.402
 1799SOL    HW1 6296   5.898   2.130   6.468
 1799SOL    HW2 6297   6.054   2.087   6.452
 1800SOL     OW 6298   5.204   4.312   3.686
 1800SOL    HW1 6299   5.231   4.391   3.631
 1800SOL    HW2 6300   5.249   4.230   3.651
 1801SOL     OW 6301   1.217   1.564   3.017
 1801SOL    HW1 6302   1.272   1.576   3.100
 1801SOL    HW2 6303   1.243   1.479   2.972
 1802SOL     OW 6304   5.385   5.103   2.660
 1802SOL    HW1 6305   5.407   5.101   2.758
 1802SOL    HW2 6306   5.290   5.133   2.648
 1803SOL     OW 6307   6.751   6.247   1.286
 1803SOL    HW1 6308   6.740   6.332   1.236
 1803SOL    HW2 6309   6.823   6.258   1.355
 1804SOL     OW 6310   3.494   3.326   5.307
 1804SOL    HW1 6311   3.561   3.321   5.233
 1804SOL    HW2 6312   3.504   3.413   5.355
 1805SOL     OW 6313   0.713   3.962   5.835
 1805SOL    HW1 6314   0.758   3.992   5.751
 1805SOL    HW2 6315   0.651   3.887   5.814
 1806SOL     OW 6316   1.630   2.110   1.650
 1806SOL    HW1 6317   1.651   2.198   1.608
 1806SOL    HW2 6318   1.670   2.106   1.742
 1807SOL     OW 6319   6.215   2.056   6.493
 1807SOL    HW1 6320   6.247   2.051   6.588
 1807SOL    HW2 6321   6.285   2.100   6.437
 1808SOL     OW 6322   5.933   4.478   4.746
 1808SOL    HW1 6323   5.994   4.451   4.821
 1808SOL    HW2 6324   5.912   4.575   4.754
 1809SOL     OW 6325   2.610   2.489   4.723
 1809SOL    HW1 6326   2.574   2.526   4.638
 1809SOL    HW2 6327   2.687   2.428   4.703
 1810SOL     OW 6328   1.998   0.113   5.420
 1810SOL    HW1 6329   2.093   0.090   5.400
 1810SOL    HW2 6330   1.939   0.037   5.393
 1811SOL     OW 6331   4.300   4.723   3.434
 1811SOL    HW1 6332   4.228   4.739   3.502
 1811SOL    HW2 6333   4.367   4.797   3.440
 1812SOL     OW 6334   5.047   0.113   5.528
 1812SOL    HW1 6335   5.039   0.211   5.544
 1812SOL    HW2 6336   4.969   0.081   5.474
 1813SOL     OW 6337   4.255   4.927   1.353
 1813SOL    HW1 6338   4.232   4.999   1.418
 1813SOL    HW2 6339   4.245   4.962   1.260
 1814SOL     OW 6340   6.544   0.548   0.829
 1814SOL    HW1 6341   6.464   0.502   0.866
 1814SOL    HW2 6342   6.627   0.512   0.872
 1815SOL     OW 6343   5.997   0.947   2.386
 1815SOL    HW1 6344   5.957   0.863   2.349
 1815SOL    HW2 6345   5.945   1.026   2.353
 1816SOL     OW 6346   1.809   4.482   0.683
 1816SOL    HW1 6347   1.825   4.444   0.592
 1816SOL    HW2 6348   1.897   4.505   0.726
 1817SOL     OW 6349   3.874   6.961   3.103
 1817SOL    HW1 6350   3.861   6.961   3.202
 1817SOL    HW2 6351   3.836   0.017   3.064
 1818SOL     OW 6352   2.488   5.703   1.316
 1818SOL    HW1 6353   2.450   5.791   1.288
 1818SOL    HW2 6354   2.485   5.695   1.415
 1819SOL     OW 6355   1.341   6.251   1.906
 1819SOL    HW1 6356   1.331   6.191   1.826
 1819SOL    HW2 6357   1.317   6.200   1.988
 1820SOL     OW 6358   3.229   0.134   2.288
 1820SOL    HW1 6359   3.130   0.131   2.274
 1820SOL    HW2 6360   3.258   0.228   2.304
 1821SOL     OW 6361   2.478   1.066   1.824
 1821SOL    HW1 6362   2.437   1.157   1.814
 1821SOL    HW2 6363   2.500   1.050   1.921
 1822SOL     OW 6364   1.186   2.835   1.430
 1822SOL    HW1 6365   1.240   2.895   1.489
 1822SOL    HW2 6366   1.131   2.891   1.368
 1823SOL     OW 6367   3.234   5.492   3.222
 1823SOL    HW1 6368   3.206   5.432   3.147
 1823SOL    HW2 6369   3.219   5.587   3.195
 1824SOL     OW 6370   3.910   3.438   0.416
 1824SOL    HW1 6371   4.002   3.446   0.378
 1824SOL    HW2 6372   3.843   3.471   0.349
 1825SOL     OW 6373   1.907   2.038   4.473
 1825SOL    HW1 6374   2.003   2.061   4.458
 1825SOL    HW2 6375   1.849   2.103   4.423
 1826SOL     OW 6376   3.673   1.603   1.545
 1826SOL    HW1 6377   3.739   1.533   1.573
 1826SOL    HW2 6378   3.715   1.663   1.477
 1827SOL     OW 6379   6.644   5.521   1.156
 1827SOL    HW1 6380   6.580   5.463   1.206
 1827SOL    HW2 6381   6.675   5.473   1.073
 1828SOL     OW 6382   1.894   2.449   0.391
 1828SOL    HW1 6383   1.800   2.449   0.427
 1828SOL    HW2 6384   1.892   2.474   0.294
 1829SOL     OW 6385   3.336   0.532   3.020
 1829SOL    HW1 6386   3.251   0.489   2.989
 1829SOL    HW2 6387   3.401   0.461   3.048
 1830SOL     OW 6388   5.586   6.154   4.215
 1830SOL    HW1 6389   5.554   6.060   4.204
 1830SOL    HW2 6390   5.556   6.190   4.303
 1831SOL     OW 6391   5.777   6.958   1.722
 1831SOL    HW1 6392   5.874   6.935   1.717
 1831SOL    HW2 6393   5.767   0.022   1.760
 1832SOL     OW 6394   4.402   2.223   1.260
 1832SOL    HW1 6395   4.481   2.278   1.235
 1832SOL    HW2 6396   4.343   2.209   1.180
 1833SOL     OW 6397   5.471   0.752   1.023
 1833SOL    HW1 6398   5.528   0.713   1.095
 1833SOL    HW2 6399   5.526   0.811   0.964
 1834SOL     OW 6400   2.096   3.966   0.963
 1834SOL    HW1 6401   2.126   3.943   1.055
 1834SOL    HW2 6402   2.160   3.928   0.896
 1835SOL     OW 6403   0.260   4.479   1.821
 1835SOL    HW1 6404   0.257   4.380   1.809
 1835SOL    HW2 6405   0.348   4.505   1.861
 1836SOL     OW 6406   5.029   2.121   1.374
 1836SOL    HW1 6407   5.011   2.110   1.471
 1836SOL    HW2 6408   5.033   2.032   1.330
 1837SOL     OW 6409   1.176   0.310   4.651
 1837SOL    HW1 6410   1.121   0.269   4.578
 1837SOL    HW2 6411   1.186   0.245   4.726
 1838SOL     OW 6412   6.511   1.096   5.787
 1838SOL    HW1 6413   6.608   1.119   5.782
 1838SOL    HW2 6414   6.469   1.109   5.697
 1839SOL     OW 6415   0.352   1.726   5.338
 1839SOL    HW1 6416   0.272   1.758   5.389
 1839SOL    HW2 6417   0.349   1.627   5.330
 1840SOL     OW 6418   3.737   0.199   1.425
 1840SOL    HW1 6419   3.718   0.167   1.518
 1840SOL    HW2 6420   3.699   0.134   1.360
 1841SOL     OW 6421   2.292   1.486   3.722
 1841SOL    HW1 6422   2.286   1.418   3.649
 1841SOL    HW2 6423   2.242   1.453   3.803
 1842SOL     OW 6424   1.178   5.873   0.147
 1842SOL    HW1 6425   1.233   5.944   0.190
 1842SOL    HW2 6426   1.236   5.796   0.122
 1843SOL     OW 6427   6.099   1.305   4.069
 1843SOL    HW1 6428   6.189   1.290   4.110
 1843SOL    HW2 6429   6.065   1.219   4.032
 1844SOL     OW 6430   3.403   6.346   5.317
 1844SOL    HW1 6431   3.422   6.259   5.363
 1844SOL    HW2 6432   3.478   6.409   5.333
 1845SOL     OW 6433   3.279   6.670   5.038
 1845SOL    HW1 6434   3.200   6.724   5.070
 1845SOL    HW2 6435   3.280   6.670   4.938
 1846SOL     OW 6436   3.446   1.329   1.934
 1846SOL    HW1 6437   3.382   1.252   1.946
 1846SOL    HW2 6438   3.422   1.402   1.997
 1847SOL     OW 6439   1.432   0.799   6.627
 1847SOL    HW1 6440   1.358   0.834   6.570
 1847SOL    HW2 6441   1.481   0.876   6.667
 1848SOL     OW 6442   2.079   6.019   3.282
 1848SOL    HW1 6443   2.132   6.022   3.366
 1848SOL    HW2 6444   1.984   5.997   3.303
 1849SOL     OW 6445   4.037   2.701   1.676
 1849SOL    HW1 6446   4.131   2.709   1.644
 1849SOL    HW2 6447   4.012   2.604   1.682
 1850SOL     OW 6448   0.326   2.460   2.585
 1850SOL    HW1 6449   0.308   2.362   2.578
 1850SOL    HW2 6450   0.417   2.475   2.622
 1851SOL     OW 6451   0.456   3.397   6.544
 1851SOL    HW1 6452   0.515   3.424   6.620
 1851SOL    HW2 6453   0.512   3.360   6.469
 1852SOL     OW 6454   6.494   4.135   2.339
 1852SOL    HW1 6455   6.431   4.162   2.412
 1852SOL    HW2 6456   6.585   4.172   2.358
 1853SOL     OW 6457   0.561   2.492   3.469
 1853SOL    HW1 6458   0.514   2.423   3.525
 1853SOL    HW2 6459   0.579   2.573   3.525
 1854SOL     OW 6460   2.155   5.605   2.845
 1854SOL    HW1 6461   2.088   5.669   2.881
 1854SOL    HW2 6462   2.188   5.546   2.918
 1855SOL     OW 6463   5.289   3.736   5.683
 1855SOL    HW1 6464   5.308   3.729   5.781
 1855SOL    HW2 6465   5.245   3.653   5.651
 1856SOL     OW 6466   5.163   4.128   6.138
 1856SOL    HW1 6467   5.146   4.096   6.045
 1856SOL    HW2 6468   5.101   4.082   6.202
 1857SOL     OW 6469   4.157   2.053   6.555
 1857SOL    HW1 6470   4.246   2.009   6.547
 1857SOL    HW2 6471   4.099   1.999   6.617
 1858SOL     OW 6472   5.572   3.514   3.174
 1858SOL    HW1 6473   5.494   3.576   3.185
 1858SOL    HW2 6474   5.549   3.442   3.108
 1859SOL     OW 6475   4.698   1.881   4.152
 1859SOL    HW1 6476   4.634   1.876   4.075
 1859SOL    HW2 6477   4.688   1.799   4.209
 1860SOL     OW 6478   0.492   1.111   5.437
 1860SOL    HW1 6479   0.560   1.038   5.436
 1860SOL    HW2 6480   0.404   1.074   5.464
 1861SOL     OW 6481   6.780   6.744   1.994
 1861SOL    HW1 6482   6.794   6.667   2.058
 1861SOL    HW2 6483   6.686   6.742   1.960
 1862SOL     OW 6484   3.184   0.136   6.776
 1862SOL    HW1 6485   3.113   0.077   6.738
 1862SOL    HW2 6486   3.193   0.118   6.875
 1863SOL     OW 6487   0.381   2.577   3.248
 1863SOL    HW1 6488   0.453   2.508   3.251
 1863SOL    HW2 6489   0.342   2.589   3.340
 1864SOL     OW 6490   1.564   6.374   5.122
 1864SOL    HW1 6491   1.657   6.343   5.143
 1864SOL    HW2 6492   1.560   6.474   5.126
 1865SOL     OW 6493   3.984   6.718   0.243
 1865SOL    HW1 6494   4.005   6.650   0.172
 1865SOL    HW2 6495   4.070   6.757   0.276
 1866SOL     OW 6496   5.945   4.800   3.321
 1866SOL    HW1 6497   5.981   4.707   3.328
 1866SOL    HW2 6498   6.020   4.865   3.330
 1867SOL     OW 6499   0.869   4.011   0.159
 1867SOL    HW1 6500   0.800   4.052   0.099
 1867SOL    HW2 6501   0.914   4.083   0.212
 1868SOL     OW 6502   4.675   3.423   6.484
 1868SOL    HW1 6503   4.580   3.441   6.458
 1868SOL    HW2 6504   4.677   3.381   6.575
 1869SOL     OW 6505   0.039   3.173   4.941
 1869SOL    HW1 6506   0.021   3.248   4.877
 1869SOL    HW2 6507   7.011   3.094   4.916
 1870SOL     OW 6508   1.820   2.868   4.999
 1870SOL    HW1 6509   1.863   2.801   4.938
 1870SOL    HW2 6510   1.819   2.833   5.092
 1871SOL     OW 6511   0.359   1.018   6.649
 1871SOL    HW1 6512   0.451   1.055   6.662
 1871SOL    HW2 6513   0.291   1.082   6.685
 1872SOL     OW 6514   4.373   1.937   0.193
 1872SOL    HW1 6515   4.274   1.927   0.180
 1872SOL    HW2 6516   4.398   2.033   0.195
 1873SOL     OW 6517   6.013   1.115   5.884
 1873SOL    HW1 6518   6.025   1.173   5.804
 1873SOL    HW2 6519   5.965   1.166   5.956
 1874SOL     OW 6520   2.357   1.006   0.007
 1874SOL    HW1 6521   2.436   1.018   0.068
 1874SOL    HW2 6522   2.380   0.940   6.963
 1875SOL     OW 6523   6.989   0.955   0.805
 1875SOL    HW1 6524   6.958   0.860   0.811
 1875SOL    HW2 6525   6.930   1.013   0.862
 1876SOL     OW 6526   3.503   6.325   5.960
 1876SOL    HW1 6527   3.517   6.234   5.921
 1876SOL    HW2 6528   3.589   6.376   5.958
 1877SOL     OW 6529   0.419   1.403   3.187
 1877SOL    HW1 6530   0.506   1.449   3.201
 1877SOL    HW2 6531   0.392   1.356   3.272
 1878SOL     OW 6532   6.604   3.151   4.198
 1878SOL    HW1 6533   6.548   3.138   4.116
 1878SOL    HW2 6534   6.615   3.249   4.215
 1879SOL     OW 6535   1.870   5.393   3.626
 1879SOL    HW1 6536   1.875   5.492   3.642
 1879SOL    HW2 6537   1.782   5.370   3.585
 1880SOL     OW 6538   0.247   1.612   3.785
 1880SOL    HW1 6539   0.275   1.708   3.780
 1880SOL    HW2 6540   0.240   1.584   3.880
 1881SOL     OW 6541   1.064   2.520   3.140
 1881SOL    HW1 6542   1.011   2.539   3.222
 1881SOL    HW2 6543   1.023   2.567   3.062
 1882SOL     OW 6544   1.035   4.011   6.678
 1882SOL    HW1 6545   1.031   4.014   6.778
 1882SOL    HW2 6546   1.051   4.103   6.643
 1883SOL     OW 6547   1.367   3.052   3.657
 1883SOL    HW1 6548   1.417   3.013   3.734
 1883SOL    HW2 6549   1.431   3.086   3.588
 1884SOL     OW 6550   5.984   2.932   6.938
 1884SOL    HW1 6551   6.022   2.847   6.900
 1884SOL    HW2 6552   5.906   2.962   6.883
 1885SOL     OW 6553   0.160   2.229   6.569
 1885SOL    HW1 6554   0.146   2.152   6.631
 1885SOL    HW2 6555   0.209   2.302   6.617
 1886SOL     OW 6556   1.870   1.339   1.272
 1886SOL    HW1 6557   1.780   1.305   1.247
 1886SOL    HW2 6558   1.886   1.427   1.228
 1887SOL     OW 6559   0.895   5.997   6.360
 1887SOL    HW1 6560   0.932   6.082   6.398
 1887SOL    HW2 6561   0.812   5.971   6.409
 1888SOL     OW 6562   3.040   2.219   6.769
 1888SOL    HW1 6563   3.100   2.284   6.723
 1888SOL    HW2 6564   3.095   2.156   6.824
 1889SOL     OW 6565   5.380   2.661   6.442
 1889SOL    HW1 6566   5.435   2.630   6.365
 1889SOL    HW2 6567   5.361   2.584   6.503
 1890SOL     OW 6568   1.428   5.740   5.214
 1890SOL    HW1 6569   1.356   5.810   5.208
 1890SOL    HW2 6570   1.407   5.677   5.288
 1891SOL     OW 6571   5.488   2.352   3.667
 1891SOL    HW1 6572   5.389   2.337   3.668
 1891SOL    HW2 6573   5.533   2.278   3.717
 1892SOL     OW 6574   3.883   0.713   0.576
 1892SOL    HW1 6575   3.824   0.664   0.512
 1892SOL    HW2 6576   3.978   0.706   0.545
 1893SOL     OW 6577   3.137   2.678   6.373
 1893SOL    HW1 6578   3.175   2.622   6.300
 1893SOL    HW2 6579   3.069   2.625   6.424
 1894SOL     OW 6580   3.565   3.525   3.140
 1894SOL    HW1 6581   3.574   3.575   3.054
 1894SOL    HW2 6582   3.620   3.442   3.137
 1895SOL     OW 6583   5.767   0.817   2.576
 1895SOL    HW1 6584   5.809   0.751   2.515
 1895SOL    HW2 6585   5.837   0.871   2.622
 1896SOL     OW 6586   0.535   0.561   2.495
 1896SOL    HW1 6587   0.623   0.567   2.447
 1896SOL    HW2 6588   0.473   0.631   2.458
 1897SOL     OW 6589   1.115   4.813   2.284
 1897SOL    HW1 6590   1.025   4.832   2.323
 1897SOL    HW2 6591   1.184   4.868   2.331
 1898SOL     OW 6592   3.575   4.903   2.427
 1898SOL    HW1 6593   3.571   4.870   2.521
 1898SOL    HW2 6594   3.485   4.892   2.384
 1899SOL     OW 6595   0.959   1.935   2.719
 1899SOL    HW1 6596   0.936   1.904   2.627
 1899SOL    HW2 6597   0.888   1.998   2.752
 1900SOL     OW 6598   1.188   0.152   5.729
 1900SOL    HW1 6599   1.267   0.172   5.787
 1900SOL    HW2 6600   1.139   0.237   5.709
 1901SOL     OW 6601   1.914   1.407   1.553
 1901SOL    HW1 6602   1.831   1.413   1.608
 1901SOL    HW2 6603   1.890   1.380   1.460
 1902SOL     OW 6604   2.301   2.458   5.031
 1902SOL    HW1 6605   2.349   2.533   4.985
 1902SOL    HW2 6606   2.203   2.480   5.035
 1903SOL     OW 6607   6.111   2.944   3.373
 1903SOL    HW1 6608   6.139   3.037   3.396
 1903SOL    HW2 6609   6.026   2.922   3.422
 1904SOL     OW 6610   5.899   6.592   4.547
 1904SOL    HW1 6611   5.825   6.580   4.481
 1904SOL    HW2 6612   5.861   6.616   4.636
 1905SOL     OW 6613   2.062   0.996   4.131
 1905SOL    HW1 6614   1.970   1.035   4.126
 1905SOL    HW2 6615   2.124   1.050   4.076
 1906SOL     OW 6616   2.583   0.009   5.308
 1906SOL    HW1 6617   2.507   6.978   5.280
 1906SOL    HW2 6618   2.593   0.083   5.242
 1907SOL     OW 6619   3.338   6.807   3.384
 1907SOL    HW1 6620   3.357   6.897   3.423
 1907SOL    HW2 6621   3.392   6.795   3.300
 1908SOL     OW 6622   4.056   0.220   5.145
 1908SOL    HW1 6623   4.006   0.296   5.187
 1908SOL    HW2 6624   4.116   0.178   5.214
 1909SOL     OW 6625   0.828   4.043   2.515
 1909SOL    HW1 6626   0.789   4.105   2.583
 1909SOL    HW2 6627   0.892   3.981   2.560
 1910SOL     OW 6628   0.036   2.857   6.140
 1910SOL    HW1 6629   7.010   2.907   6.208
 1910SOL    HW2 6630   0.019   2.759   6.151
 1911SOL     OW 6631   5.577   3.730   5.060
 1911SOL    HW1 6632   5.603   3.826   5.065
 1911SOL    HW2 6633   5.524   3.713   4.977
 1912SOL     OW 6634   2.793   0.108   1.058
 1912SOL    HW1 6635   2.892   0.099   1.042
 1912SOL    HW2 6636   2.747   0.027   1.022
 1913SOL     OW 6637   0.957   5.871   5.208
 1913SOL    HW1 6638   0.869   5.887   5.164
 1913SOL    HW2 6639   0.960   5.920   5.296
 1914SOL     OW 6640   3.666   3.005   6.401
 1914SOL    HW1 6641   3.617   2.950   6.334
 1914SOL    HW2 6642   3.603   3.035   6.473
 1915SOL     OW 6643   3.591   2.171   5.179
 1915SOL    HW1 6644   3.506   2.179   5.127
 1915SOL    HW2 6645   3.580   2.103   5.252
 1916SOL     OW 6646   3.353   5.600   1.063
 1916SOL    HW1 6647   3.294   5.534   1.016
 1916SOL    HW2 6648   3.298   5.677   1.095
 1917SOL     OW 6649   2.912   3.343   5.078
 1917SOL    HW1 6650   2.912   3.248   5.048
 1917SOL    HW2 6651   2.999   3.365   5.121
 1918SOL     OW 6652   0.842   1.460   6.124
 1918SOL    HW1 6653   0.914   1.476   6.192
 1918SOL    HW2 6654   0.824   1.362   6.118
 1919SOL     OW 6655   2.343   0.655   1.791
 1919SOL    HW1 6656   2.322   0.691   1.700
 1919SOL    HW2 6657   2.440   0.670   1.810
 1920SOL     OW 6658   1.709   4.866   2.478
 1920SOL    HW1 6659   1.717   4.829   2.571
 1920SOL    HW2 6660   1.752   4.956   2.474
 1921SOL     OW 6661   1.081   4.868   0.128
 1921SOL    HW1 6662   1.082   4.923   0.045
 1921SOL    HW2 6663   1.162   4.888   0.182
 1922SOL     OW 6664   2.898   4.629   0.484
 1922SOL    HW1 6665   2.924   4.534   0.466
 1922SOL    HW2 6666   2.834   4.660   0.414
 1923SOL     OW 6667   3.191   0.725   5.674
 1923SOL    HW1 6668   3.262   0.657   5.653
 1923SOL    HW2 6669   3.232   0.816   5.675
 1924SOL     OW 6670   4.471   5.431   1.678
 1924SOL    HW1 6671   4.430   5.342   1.699
 1924SOL    HW2 6672   4.537   5.454   1.750
 1925SOL     OW 6673   1.351   4.341   0.320
 1925SOL    HW1 6674   1.348   4.248   0.285
 1925SOL    HW2 6675   1.348   4.339   0.420
 1926SOL     OW 6676   2.150   6.181   2.888
 1926SOL    HW1 6677   2.181   6.199   2.981
 1926SOL    HW2 6678   2.054   6.155   2.889
 1927SOL     OW 6679   3.186   4.122   6.198
 1927SOL    HW1 6680   3.086   4.116   6.196
 1927SOL    HW2 6681   3.215   4.203   6.147
 1928SOL     OW 6682   6.367   4.425   5.974
 1928SOL    HW1 6683   6.464   4.413   5.995
 1928SOL    HW2 6684   6.354   4.423   5.875
 1929SOL     OW 6685   1.084   5.385   1.169
 1929SOL    HW1 6686   1.139   5.462   1.200
 1929SOL    HW2 6687   1.145   5.309   1.144
 1930SOL     OW 6688   3.755   3.830   6.711
 1930SOL    HW1 6689   3.663   3.836   6.750
 1930SOL    HW2 6690   3.815   3.896   6.757
 1931SOL     OW 6691   0.686   3.283   2.636
 1931SOL    HW1 6692   0.750   3.359   2.642
 1931SOL    HW2 6693   0.715   3.209   2.696
 1932SOL     OW 6694   4.848   3.646   3.625
 1932SOL    HW1 6695   4.888   3.630   3.715
 1932SOL    HW2 6696   4.848   3.560   3.573
 1933SOL     OW 6697   2.309   4.183   0.639
 1933SOL    HW1 6698   2.331   4.261   0.580
 1933SOL    HW2 6699   2.328   4.207   0.735
 1934SOL     OW 6700   0.679   0.182   5.485
 1934SOL    HW1 6701   0.772   0.196   5.518
 1934SOL    HW2 6702   0.680   0.167   5.386
 1935SOL     OW 6703   4.359   6.161   3.898
 1935SOL    HW1 6704   4.272   6.115   3.880
 1935SOL    HW2 6705   4.360   6.193   3.993
 1936SOL     OW 6706   6.034   3.786   3.804
 1936SOL    HW1 6707   6.009   3.864   3.746
 1936SOL    HW2 6708   5.951   3.738   3.833
 1937SOL     OW 6709   3.908   0.089   0.970
 1937SOL    HW1 6710   3.958   0.022   1.026
 1937SOL    HW2 6711   3.829   0.123   1.022
 1938SOL     OW 6712   1.856   1.913   1.166
 1938SOL    HW1 6713   1.842   1.850   1.241
 1938SOL    HW2 6714   1.844   2.007   1.198
 1939SOL     OW 6715   6.886   0.279   4.895
 1939SOL    HW1 6716   6.787   0.279   4.884
 1939SOL    HW2 6717   6.913   0.357   4.953
 1940SOL     OW 6718   4.989   5.005   0.722
 1940SOL    HW1 6719   5.072   4.953   0.703
 1940SOL    HW2 6720   5.011   5.084   0.779
 1941SOL     OW 6721   0.212   4.095   3.614
 1941SOL    HW1 6722   0.304   4.126   3.640
 1941SOL    HW2 6723   0.200   4.000   3.643
 1942SOL     OW 6724   5.687   1.055   1.302
 1942SOL    HW1 6725   5.640   1.116   1.239
 1942SOL    HW2 6726   5.640   1.054   1.390
 1943SOL     OW 6727   2.989   6.189   2.929
 1943SOL    HW1 6728   3.069   6.233   2.888
 1943SOL    HW2 6729   3.001   6.185   3.029
 1944SOL     OW 6730   6.346   2.597   0.188
 1944SOL    HW1 6731   6.409   2.668   0.157
 1944SOL    HW2 6732   6.312   2.620   0.279
 1945SOL     OW 6733   3.664   5.794   1.184
 1945SOL    HW1 6734   3.644   5.800   1.282
 1945SOL    HW2 6735   3.679   5.698   1.160
 1946SOL     OW 6736   6.463   7.010   1.123
 1946SOL    HW1 6737   6.525   7.000   1.201
 1946SOL    HW2 6738   6.503   0.046   1.057
 1947SOL     OW 6739   4.893   6.644   4.970
 1947SOL    HW1 6740   4.980   6.684   4.997
 1947SOL    HW2 6741   4.818   6.705   4.997
 1948SOL     OW 6742   5.539   5.569   4.396
 1948SOL    HW1 6743   5.609   5.579   4.326
 1948SOL    HW2 6744   5.574   5.514   4.472
 1949SOL     OW 6745   3.179   4.606   6.275
 1949SOL    HW1 6746   3.151   4.682   6.333
 1949SOL    HW2 6747   3.140   4.521   6.310
 1950SOL     OW 6748   3.896   4.392   6.852
 1950SOL    HW1 6749   3.801   4.364   6.855
 1950SOL    HW2 6750   3.902   4.490   6.833
 1951SOL     OW 6751   6.069   3.198   0.002
 1951SOL    HW1 6752   6.053   3.115   6.978
 1951SOL    HW2 6753   6.006   3.202   0.080
 1952SOL     OW 6754   4.927   2.865   0.449
 1952SOL    HW1 6755   4.842   2.869   0.503
 1952SOL    HW2 6756   5.005   2.871   0.511
 1953SOL     OW 6757   6.685   1.596   5.915
 1953SOL    HW1 6758   6.588   1.615   5.900
 1953SOL    HW2 6759   6.736   1.682   5.916
 1954SOL     OW 6760   5.798   0.414   3.041
 1954SOL    HW1 6761   5.727   0.470   3.083
 1954SOL    HW2 6762   5.808   0.440   2.945
 1955SOL     OW 6763   0.883   1.481   2.766
 1955SOL    HW1 6764   0.918   1.410   2.827
 1955SOL    HW2 6765   0.831   1.548   2.819
 1956SOL     OW 6766   5.121   6.945   2.689
 1956SOL    HW1 6767   5.085   6.946   2.595
 1956SOL    HW2 6768   5.103   0.005   2.732
 1957SOL     OW 6769   5.856   4.558   4.000
 1957SOL    HW1 6770   5.874   4.647   4.042
 1957SOL    HW2 6771   5.761   4.531   4.016
 1958SOL     OW 6772   4.970   2.357   2.339
 1958SOL    HW1 6773   4.954   2.270   2.385
 1958SOL    HW2 6774   4.883   2.398   2.313
 1959SOL     OW 6775   1.080   0.828   5.064
 1959SOL    HW1 6776   0.986   0.858   5.048
 1959SOL    HW2 6777   1.105   0.757   4.997
 1960SOL     OW 6778   6.629   4.613   2.284
 1960SOL    HW1 6779   6.706   4.549   2.286
 1960SOL    HW2 6780   6.664   4.707   2.292
 1961SOL     OW 6781   6.055   4.201   3.864
 1961SOL    HW1 6782   6.070   4.295   3.893
 1961SOL    HW2 6783   5.972   4.165   3.906
 1962SOL     OW 6784   1.378   6.645   4.029
 1962SOL    HW1 6785   1.406   6.602   4.115
 1962SOL    HW2 6786   1.459   6.681   3.982
 1963SOL     OW 6787   0.712   2.239   1.230
 1963SOL    HW1 6788   0.806   2.206   1.214
 1963SOL    HW2 6789   0.655   2.214   1.152
 1964SOL     OW 6790   4.454   4.408   0.757
 1964SOL    HW1 6791   4.506   4.474   0.809
 1964SOL    HW2 6792   4.393   4.357   0.818
 1965SOL     OW 6793   1.629   3.137   4.724
 1965SOL    HW1 6794   1.641   3.125   4.823
 1965SOL    HW2 6795   1.653   3.231   4.699
 1966SOL     OW 6796   6.968   6.332   0.989
 1966SOL    HW1 6797   7.013   6.398   0.930
 1966SOL    HW2 6798   6.923   6.262   0.933
 1967SOL     OW 6799   5.687   2.492   5.958
 1967SOL    HW1 6800   5.614   2.457   5.899
 1967SOL    HW2 6801   5.754   2.541   5.902
 1968SOL     OW 6802   1.725   6.454   5.995
 1968SOL    HW1 6803   1.680   6.407   5.919
 1968SOL    HW2 6804   1.658   6.474   6.066
 1969SOL     OW 6805   0.560   1.551   1.416
 1969SOL    HW1 6806   0.523   1.630   1.368
 1969SOL    HW2 6807   0.641   1.579   1.469
 1970SOL     OW 6808   3.029   6.365   6.163
 1970SOL    HW1 6809   2.999   6.438   6.102
 1970SOL    HW2 6810   3.093   6.305   6.114
 1971SOL     OW 6811   0.180   0.530   5.343
 1971SOL    HW1 6812   0.221   0.560   5.256
 1971SOL    HW2 6813   0.164   0.431   5.339
 1972SOL     OW 6814   5.493   2.202   2.096
 1972SOL    HW1 6815   5.397   2.199   2.125
 1972SOL    HW2 6816   5.501   2.165   2.004
 1973SOL     OW 6817   3.257   2.844   6.965
 1973SOL    HW1 6818   3.278   2.749   6.943
 1973SOL    HW2 6819   3.167   2.868   6.926
 1974SOL     OW 6820   6.039   6.786   5.375
 1974SOL    HW1 6821   6.085   6.836   5.448
 1974SOL    HW2 6822   5.978   6.848   5.325
 1975SOL     OW 6823   2.159   1.339   3.923
 1975SOL    HW1 6824   2.161   1.381   4.014
 1975SOL    HW2 6825   2.186   1.243   3.931
 1976SOL     OW 6826   0.226   0.027   6.943
 1976SOL    HW1 6827   0.256   0.115   6.979
 1976SOL    HW2 6828   0.181   7.003   7.016
 1977SOL     OW 6829   1.144   3.000   5.041
 1977SOL    HW1 6830   1.112   3.005   5.136
 1977SOL    HW2 6831   1.145   3.092   5.002
 1978SOL     OW 6832   2.254   6.703   2.785
 1978SOL    HW1 6833   2.172   6.709   2.729
 1978SOL    HW2 6834   2.323   6.646   2.740
 1979SOL     OW 6835   5.968   3.866   6.134
 1979SOL    HW1 6836   5.971   3.766   6.139
 1979SOL    HW2 6837   6.019   3.905   6.211
 1980SOL     OW 6838   3.189   6.955   4.739
 1980SOL    HW1 6839   3.095   6.970   4.769
 1980SOL    HW2 6840   3.250   6.957   4.818
 1981SOL     OW 6841   6.936   2.524   2.371
 1981SOL    HW1 6842   7.022   2.526   2.319
 1981SOL    HW2 6843   6.914   2.430   2.395
 1982SOL     OW 6844   0.310   4.126   4.503
 1982SOL    HW1 6845   0.378   4.062   4.538
 1982SOL    HW2 6846   0.356   4.203   4.459
 1983SOL     OW 6847   1.246   1.143   2.608
 1983SOL    HW1 6848   1.192   1.109   2.531
 1983SOL    HW2 6849   1.319   1.202   2.575
 1984SOL     OW 6850   5.044   1.622   5.238
 1984SOL    HW1 6851   5.036   1.590   5.332
 1984SOL    HW2 6852   4.982   1.699   5.224
 1985SOL     OW 6853   1.547   6.296   2.181
 1985SOL    HW1 6854   1.595   6.226   2.233
 1985SOL    HW2 6855   1.590   6.306   2.091
 1986SOL     OW 6856   2.256   1.441   6.707
 1986SOL    HW1 6857   2.214   1.521   6.747
 1986SOL    HW2 6858   2.197   1.404   6.635
 1987SOL     OW 6859   1.824   2.472   2.480
 1987SOL    HW1 6860   1.729   2.477   2.511
 1987SOL    HW2 6861   1.826   2.446   2.383
 1988SOL     OW 6862   6.203   3.928   0.814
 1988SOL    HW1 6863   6.218   3.918   0.913
 1988SOL    HW2 6864   6.150   4.011   0.797
 1989SOL     OW 6865   2.153   5.305   5.164
 1989SOL    HW1 6866   2.062   5.347   5.161
 1989SOL    HW2 6867   2.210   5.346   5.093
 1990SOL     OW 6868   3.421   6.139   0.691
 1990SOL    HW1 6869   3.366   6.070   0.645
 1990SOL    HW2 6870   3.460   6.202   0.623
 1991SOL     OW 6871   3.347   5.358   6.954
 1991SOL    HW1 6872   3.420   5.319   6.898
 1991SOL    HW2 6873   3.386   5.413   7.028
 1992SOL     OW 6874   0.558   0.678   0.561
 1992SOL    HW1 6875   0.533   0.686   0.657
 1992SOL    HW2 6876   0.603   0.762   0.531
 1993SOL     OW 6877   3.559   2.439   5.469
 1993SOL    HW1 6878   3.632   2.492   5.427
 1993SOL    HW2 6879   3.489   2.417   5.401
 1994SOL     OW 6880   0.694   1.557   0.539
 1994SOL    HW1 6881   0.748   1.554   0.456
 1994SOL    HW2 6882   0.751   1.585   0.616
 1995SOL     OW 6883   5.163   2.472   3.794
 1995SOL    HW1 6884   5.144   2.374   3.789
 1995SOL    HW2 6885   5.119   2.518   3.717
 1996SOL     OW 6886   1.992   3.290   0.549
 1996SOL    HW1 6887   1.945   3.290   0.637
 1996SOL    HW2 6888   2.062   3.219   0.548
 1997SOL     OW 6889   3.370   1.278   4.592
 1997SOL    HW1 6890   3.447   1.340   4.606
 1997SOL    HW2 6891   3.399   1.184   4.611
 1998SOL     OW 6892   2.721   4.377   6.939
 1998SOL    HW1 6893   2.732   4.295   6.884
 1998SOL    HW2 6894   2.706   4.456   6.879
 1999SOL     OW 6895   2.444   6.146   6.838
 1999SOL    HW1 6896   2.370   6.211   6.819
 1999SOL    HW2 6897   2.412   6.053   6.823
 2000SOL     OW 6898   4.336   2.319   5.487
 2000SOL    HW1 6899   4.418   2.373   5.503
 2000SOL    HW2 6900   4.317   2.262   5.567
 2001SOL     OW 6901   3.325   0.303   1.444
 2001SOL    HW1 6902   3.241   0.328   1.492
 2001SOL    HW2 6903   3.338   0.364   1.366
 2002SOL     OW 6904   0.360   4.613   6.721
 2002SOL    HW1 6905   0.405   4.581   6.638
 2002SOL    HW2 6906   0.400   4.701   6.749
 2003SOL     OW 6907   5.959   5.679   2.394
 2003SOL    HW1 6908   5.914   5.751   2.448
 2003SOL    HW2 6909   5.917   5.591   2.416
 2004SOL     OW 6910   4.895   1.688   4.852
 2004SOL    HW1 6911   4.963   1.742   4.903
 2004SOL    HW2 6912   4.823   1.659   4.914
 2005SOL     OW 6913   0.177   5.148   0.177
 2005SOL    HW1 6914   0.172   5.246   0.195
 2005SOL    HW2 6915   0.171   5.098   0.263
 2006SOL     OW 6916   5.728   7.009   3.555
 2006SOL    HW1 6917   5.631   6.994   3.538
 2006SOL    HW2 6918   5.738   0.058   3.619
 2007SOL     OW 6919   4.562   4.862   1.230
 2007SOL    HW1 6920   4.491   4.830   1.293
 2007SOL    HW2 6921   4.551   4.815   1.142
 2008SOL     OW 6922   2.038   4.875   4.075
 2008SOL    HW1 6923   2.054   4.936   3.997
 2008SOL    HW2 6924   2.096   4.904   4.152
 2009SOL     OW 6925   5.174   0.822   2.270
 2009SOL    HW1 6926   5.150   0.775   2.185
 2009SOL    HW2 6927   5.274   0.819   2.282
 2010SOL     OW 6928   1.886   1.904   1.635
 2010SOL    HW1 6929   1.836   1.876   1.553
 2010SOL    HW2 6930   1.904   2.002   1.631
 2011SOL     OW 6931   6.531   6.416   5.005
 2011SOL    HW1 6932   6.576   6.498   4.970
 2011SOL    HW2 6933   6.529   6.346   4.934
 2012SOL     OW 6934   1.397   4.065   2.490
 2012SOL    HW1 6935   1.470   4.091   2.426
 2012SOL    HW2 6936   1.430   4.072   2.583
 2013SOL     OW 6937   6.126   2.404   3.162
 2013SOL    HW1 6938   6.108   2.311   3.128
 2013SOL    HW2 6939   6.197   2.400   3.232
 2014SOL     OW 6940   2.415   5.745   3.634
 2014SOL    HW1 6941   2.325   5.771   3.670
 2014SOL    HW2 6942   2.405   5.710   3.541
 2015SOL     OW 6943   2.098   0.626   0.097
 2015SOL    HW1 6944   2.144   0.541   0.124
 2015SOL    HW2 6945   2.001   0.609   0.086
 2016SOL     OW 6946   1.622   5.919   5.806
 2016SOL    HW1 6947   1.607   5.860   5.886
 2016SOL    HW2 6948   1.704   5.888   5.757
 2017SOL     OW 6949   3.510   6.844   4.382
 2017SOL    HW1 6950   3.549   6.756   4.411
 2017SOL    HW2 6951   3.541   6.916   4.444
 2018SOL     OW 6952   4.959   1.229   5.557
 2018SOL    HW1 6953   4.982   1.131   5.559
 2018SOL    HW2 6954   5.043   1.282   5.567
 2019SOL     OW 6955   5.272   2.866   6.578
 2019SOL    HW1 6956   5.295   2.867   6.675
 2019SOL    HW2 6957   5.310   2.783   6.536
 2020SOL     OW 6958   1.797   6.525   5.353
 2020SOL    HW1 6959   1.835   6.451   5.299
 2020SOL    HW2 6960   1.784   6.605   5.294
 2021SOL     OW 6961   0.551   6.041   4.776
 2021SOL    HW1 6962   0.619   6.016   4.845
 2021SOL    HW2 6963   0.590   6.027   4.685
 2022SOL     OW 6964   1.569   3.701   3.230
 2022SOL    HW1 6965   1.581   3.682   3.328
 2022SOL    HW2 6966   1.473   3.726   3.213
 2023SOL     OW 6967   6.705   0.791   6.592
 2023SOL    HW1 6968   6.688   0.797   6.494
 2023SOL    HW2 6969   6.756   0.707   6.612
 2024SOL     OW 6970   0.357   6.657   3.812
 2024SOL    HW1 6971   0.454   6.678   3.824
 2024SOL    HW2 6972   0.341   6.561   3.837
 2025SOL     OW 6973   2.935   1.369   3.213
 2025SOL    HW1 6974   2.894   1.422   3.288
 2025SOL    HW2 6975   3.011   1.315   3.247
 2026SOL     OW 6976   0.120   2.731   5.535
 2026SOL    HW1 6977   0.187   2.694   5.600
 2026SOL    HW2 6978   0.111   2.829   5.548
 2027SOL     OW 6979   1.251   0.069   0.368
 2027SOL    HW1 6980   1.244   0.146   0.304
 2027SOL    HW2 6981   1.161   0.046   0.404
 2028SOL     OW 6982   2.896   6.295   4.989
 2028SOL    HW1 6983   2.891   6.370   5.055
 2028SOL    HW2 6984   2.863   6.211   5.030
 2029SOL     OW 6985   7.022   0.952   0.311
 2029SOL    HW1 6986   6.942   0.895   0.329
 2029SOL    HW2 6987   0.014   1.008   0.391
 2030SOL     OW 6988   2.733   0.802   3.347
 2030SOL    HW1 6989   2.744   0.872   3.418
 2030SOL    HW2 6990   2.643   0.760   3.356
 2031SOL     OW 6991   6.679   5.852   1.355
 2031SOL    HW1 6992   6.609   5.836   1.425
 2031SOL    HW2 6993   6.770   5.834   1.394
 2032SOL     OW 6994   4.865   0.366   2.225
 2032SOL    HW1 6995   4.933   0.337   2.293
 2032SOL    HW2 6996   4.787   0.304   2.227
 2033SOL     OW 6997   3.399   3.433   5.615
 2033SOL    HW1 6998   3.362   3.341   5.603
 2033SOL    HW2 6999   3.449   3.438   5.701
 2034SOL     OW 7000   2.538   5.830   5.731
 2034SOL    HW1 7001   2.489   5.917   5.736
 2034SOL    HW2 7002   2.481   5.762   5.685
 2035SOL     OW 7003   6.780   6.314   3.979
 2035SOL    HW1 7004   6.693   6.313   4.029
 2035SOL    HW2 7005   6.776   6.383   3.907
 2036SOL     OW 7006   1.285   4.411   2.726
 2036SOL    HW1 7007   1.297   4.319   2.763
 2036SOL    HW2 7008   1.269   4.476   2.800
 2037SOL     OW 7009   6.549   3.226   5.552
 2037SOL    HW1 7010   6.595   3.188   5.472
 2037SOL    HW2 7011   6.502   3.153   5.602
 2038SOL     OW 7012   1.829   2.583   0.161
 2038SOL    HW1 7013   1.896   2.656   0.171
 2038SOL    HW2 7014   1.738   2.623   0.145
 2039SOL     OW 7015   0.066   5.366   4.036
 2039SOL    HW1 7016   0.114   5.364   3.948
 2039SOL    HW2 7017   6.996   5.374   4.020
 2040SOL     OW 7018   3.011   3.287   5.381
 2040SOL    HW1 7019   2.950   3.341   5.440
 2040SOL    HW2 7020   3.035   3.341   5.301
 2041SOL     OW 7021   1.015   6.318   6.194
 2041SOL    HW1 7022   0.956   6.248   6.155
 2041SOL    HW2 7023   0.992   6.408   6.155
 2042SOL     OW 7024   4.850   6.359   0.104
 2042SOL    HW1 7025   4.851   6.446   0.056
 2042SOL    HW2 7026   4.934   6.309   0.084
 2043SOL     OW 7027   6.309   3.945   3.582
 2043SOL    HW1 7028   6.322   4.013   3.509
 2043SOL    HW2 7029   6.214   3.947   3.612
 2044SOL     OW 7030   6.762   0.198   2.056
 2044SOL    HW1 7031   6.810   0.165   2.137
 2044SOL    HW2 7032   6.663   0.191   2.070
 2045SOL     OW 7033   1.212   5.196   4.039
 2045SOL    HW1 7034   1.262   5.130   3.983
 2045SOL    HW2 7035   1.114   5.189   4.021
 2046SOL     OW 7036   6.882   2.249   3.821
 2046SOL    HW1 7037   6.789   2.212   3.823
 2046SOL    HW2 7038   6.877   2.349   3.819
 2047SOL     OW 7039   0.120   2.723   6.930
 2047SOL    HW1 7040   0.215   2.755   6.938
 2047SOL    HW2 7041   0.062   2.776   6.992
 2048SOL     OW 7042   1.550   6.703   6.032
 2048SOL    HW1 7043   1.492   6.701   5.950
 2048SOL    HW2 7044   1.562   6.797   6.062
 2049SOL     OW 7045   6.306   1.786   4.923
 2049SOL    HW1 7046   6.288   1.798   5.021
 2049SOL    HW2 7047   6.364   1.706   4.909
 2050SOL     OW 7048   6.355   2.199   3.707
 2050SOL    HW1 7049   6.266   2.187   3.750
 2050SOL    HW2 7050   6.347   2.263   3.631
 2051SOL     OW 7051   0.826   5.846   6.881
 2051SOL    HW1 7052   0.728   5.830   6.876
 2051SOL    HW2 7053   0.845   5.944   6.877
 2052SOL     OW 7054   1.350   3.492   1.116
 2052SOL    HW1 7055   1.446   3.467   1.107
 2052SOL    HW2 7056   1.293   3.410   1.108
 2053SOL     OW 7057   6.503   6.333   4.071
 2053SOL    HW1 7058   6.444   6.313   3.992
 2053SOL    HW2 7059   6.460   6.403   4.128
 2054SOL     OW 7060   3.213   4.111   2.940
 2054SOL    HW1 7061   3.306   4.128   2.908
 2054SOL    HW2 7062   3.168   4.043   2.881
 2055SOL     OW 7063   5.901   3.904   4.238
 2055SOL    HW1 7064   5.881   3.974   4.170
 2055SOL    HW2 7065   5.822   3.844   4.248
 2056SOL     OW 7066   4.212   5.541   2.205
 2056SOL    HW1 7067   4.199   5.597   2.286
 2056SOL    HW2 7068   4.233   5.600   2.127
 2057SOL     OW 7069   5.344   4.374   6.031
 2057SOL    HW1 7070   5.300   4.296   6.076
 2057SOL    HW2 7071   5.434   4.390   6.072
 2058SOL     OW 7072   0.416   0.943   2.962
 2058SOL    HW1 7073   0.450   1.029   3.000
 2058SOL    HW2 7074   0.358   0.962   2.883
 2059SOL     OW 7075   1.902   6.013   6.705
 2059SOL    HW1 7076   1.866   6.105   6.722
 2059SOL    HW2 7077   1.827   5.946   6.712
 2060SOL     OW 7078   0.723   4.184   1.416
 2060SOL    HW1 7079   0.652   4.179   1.486
 2060SOL    HW2 7080   0.798   4.241   1.449
 2061SOL     OW 7081   1.225   1.865   2.575
 2061SOL    HW1 7082   1.144   1.877   2.518
 2061SOL    HW2 7083   1.197   1.848   2.670
 2062SOL     OW 7084   6.424   5.430   4.958
 2062SOL    HW1 7085   6.385   5.365   5.023
 2062SOL    HW2 7086   6.523   5.416   4.953
 2063SOL     OW 7087   1.404   6.549   5.787
 2063SOL    HW1 7088   1.332   6.542   5.857
 2063SOL    HW2 7089   1.428   6.458   5.755
 2064SOL     OW 7090   0.695   2.394   5.395
 2064SOL    HW1 7091   0.663   2.489   5.402
 2064SOL    HW2 7092   0.756   2.386   5.316
 2065SOL     OW 7093   5.865   2.266   5.567
 2065SOL    HW1 7094   5.945   2.314   5.531
 2065SOL    HW2 7095   5.880   2.245   5.664
 2066SOL     OW 7096   0.408   4.753   4.142
 2066SOL    HW1 7097   0.466   4.833   4.161
 2066SOL    HW2 7098   0.392   4.703   4.227
 2067SOL     OW 7099   6.607   5.785   1.096
 2067SOL    HW1 7100   6.617   5.833   1.183
 2067SOL    HW2 7101   6.606   5.686   1.112
 2068SOL     OW 7102   2.078   0.083   4.350
 2068SOL    HW1 7103   2.005   0.143   4.317
 2068SOL    HW2 7104   2.116   0.032   4.273
 2069SOL     OW 7105   6.440   2.421   3.585
 2069SOL    HW1 7106   6.448   2.510   3.629
 2069SOL    HW2 7107   6.520   2.404   3.528
 2070SOL     OW 7108   1.129   0.864   1.499
 2070SOL    HW1 7109   1.224   0.857   1.470
 2070SOL    HW2 7110   1.092   0.772   1.513
 2071SOL     OW 7111   6.004   0.327   5.976
 2071SOL    HW1 7112   5.918   0.379   5.980
 2071SOL    HW2 7113   6.048   0.328   6.066
 2072SOL     OW 7114   4.367   5.576   4.237
 2072SOL    HW1 7115   4.439   5.644   4.248
 2072SOL    HW2 7116   4.354   5.557   4.139
 2073SOL     OW 7117   4.474   6.838   5.207
 2073SOL    HW1 7118   4.436   6.789   5.286
 2073SOL    HW2 7119   4.468   6.779   5.126
 2074SOL     OW 7120   1.732   2.507   6.544
 2074SOL    HW1 7121   1.775   2.426   6.503
 2074SOL    HW2 7122   1.801   2.579   6.555
 2075SOL     OW 7123   6.878   2.530   3.294
 2075SOL    HW1 7124   6.824   2.533   3.210
 2075SOL    HW2 7125   6.938   2.609   3.298
 2076SOL     OW 7126   5.745   0.441   5.976
 2076SOL    HW1 7127   5.720   0.438   6.073
 2076SOL    HW2 7128   5.696   0.369   5.927
 2077SOL     OW 7129   5.743   1.917   3.239
 2077SOL    HW1 7130   5.711   2.009   3.217
 2077SOL    HW2 7131   5.681   1.874   3.305
 2078SOL     OW 7132   1.091   5.887   5.888
 2078SOL    HW1 7133   1.146   5.807   5.912
 2078SOL    HW2 7134   1.026   5.862   5.816
 2079SOL     OW 7135   5.792   1.769   3.009
 2079SOL    HW1 7136   5.795   1.676   3.043
 2079SOL    HW2 7137   5.806   1.833   3.084
 2080SOL     OW 7138   1.837   0.232   4.917
 2080SOL    HW1 7139   1.870   0.204   5.008
 2080SOL    HW2 7140   1.741   0.207   4.907
 2081SOL     OW 7141   0.669   6.076   4.529
 2081SOL    HW1 7142   0.613   6.079   4.446
 2081SOL    HW2 7143   0.764   6.058   4.504
 2082SOL     OW 7144   0.526   6.564   3.059
 2082SOL    HW1 7145   0.431   6.592   3.072
 2082SOL    HW2 7146   0.585   6.645   3.062
 2083SOL     OW 7147   0.496   4.882   5.632
 2083SOL    HW1 7148   0.559   4.807   5.611
 2083SOL    HW2 7149   0.549   4.966   5.648
 2084SOL     OW 7150   0.644   4.529   3.299
 2084SOL    HW1 7151   0.665   4.614   3.250
 2084SOL    HW2 7152   0.566   4.544   3.359
 2085SOL     OW 7153   4.872   1.156   0.215
 2085SOL    HW1 7154   4.823   1.083   0.264
 2085SOL    HW2 7155   4.875   1.238   0.272
 2086SOL     OW 7156   3.572   6.907   6.478
 2086SOL    HW1 7157   3.647   6.967   6.450
 2086SOL    HW2 7158   3.583   6.882   6.574
 2087SOL     OW 7159   5.065   0.941   1.314
 2087SOL    HW1 7160   5.157   0.979   1.318
 2087SOL    HW2 7161   5.005   1.004   1.265
 2088SOL     OW 7162   1.116   5.886   6.906
 2088SOL    HW1 7163   1.141   5.899   7.002
 2088SOL    HW2 7164   1.016   5.883   6.899
 2089SOL     OW 7165   4.915   2.913   6.038
 2089SOL    HW1 7166   4.868   2.948   6.119
 2089SOL    HW2 7167   4.851   2.859   5.983
 2090SOL     OW 7168   4.566   3.561   5.905
 2090SOL    HW1 7169   4.584   3.515   5.819
 2090SOL    HW2 7170   4.468   3.579   5.914
 2091SOL     OW 7171   7.027   5.271   0.569
 2091SOL    HW1 7172   6.997   5.180   0.542
 2091SOL    HW2 7173   0.020   5.270   0.667
 2092SOL     OW 7174   5.532   3.724   0.309
 2092SOL    HW1 7175   5.481   3.659   0.365
 2092SOL    HW2 7176   5.471   3.765   0.241
 2093SOL     OW 7177   2.742   1.987   1.394
 2093SOL    HW1 7178   2.781   1.897   1.415
 2093SOL    HW2 7179   2.643   1.982   1.401
 2094SOL     OW 7180   5.799   1.604   2.244
 2094SOL    HW1 7181   5.709   1.608   2.287
 2094SOL    HW2 7182   5.846   1.692   2.256
 2095SOL     OW 7183   6.891   6.885   4.984
 2095SOL    HW1 7184   6.970   6.946   4.974
 2095SOL    HW2 7185   6.836   6.888   4.901
 2096SOL     OW 7186   4.936   4.257   2.875
 2096SOL    HW1 7187   4.919   4.288   2.968
 2096SOL    HW2 7188   5.008   4.188   2.875
 2097SOL     OW 7189   3.005   3.288   6.136
 2097SOL    HW1 7190   2.968   3.245   6.218
 2097SOL    HW2 7191   3.105   3.293   6.143
 2098SOL     OW 7192   4.451   6.081   2.095
 2098SOL    HW1 7193   4.412   6.165   2.133
 2098SOL    HW2 7194   4.399   6.053   2.015
 2099SOL     OW 7195   3.518   1.986   6.538
 2099SOL    HW1 7196   3.463   1.961   6.458
 2099SOL    HW2 7197   3.584   2.056   6.512
 2100SOL     OW 7198   4.876   2.053   0.182
 2100SOL    HW1 7199   4.963   2.061   0.133
 2100SOL    HW2 7200   4.873   1.966   0.232
 2101SOL     OW 7201   0.559   6.633   1.010
 2101SOL    HW1 7202   0.607   6.619   0.924
 2101SOL    HW2 7203   0.469   6.588   1.006
 2102SOL     OW 7204   5.055   4.167   2.497
 2102SOL    HW1 7205   5.012   4.191   2.410
 2102SOL    HW2 7206   5.016   4.081   2.531
 2103SOL     OW 7207   3.630   4.111   6.742
 2103SOL    HW1 7208   3.646   4.071   6.652
 2103SOL    HW2 7209   3.703   4.085   6.804
 2104SOL     OW 7210   1.733   4.385   2.312
 2104SOL    HW1 7211   1.712   4.382   2.409
 2104SOL    HW2 7212   1.657   4.344   2.261
 2105SOL     OW 7213   5.039   4.500   6.932
 2105SOL    HW1 7214   4.951   4.513   6.887
 2105SOL    HW2 7215   5.081   4.415   6.898
 2106SOL     OW 7216   5.733   3.388   1.050
 2106SOL    HW1 7217   5.729   3.487   1.037
 2106SOL    HW2 7218   5.667   3.361   1.120
 2107SOL     OW 7219   6.472   2.217   5.260
 2107SOL    HW1 7220   6.452   2.123   5.232
 2107SOL    HW2 7221   6.531   2.261   5.192
 2108SOL     OW 7222   5.946   5.407   5.037
 2108SOL    HW1 7223   5.847   5.418   5.027
 2108SOL    HW2 7224   5.985   5.376   4.950
 2109SOL     OW 7225   4.246   5.816   2.469
 2109SOL    HW1 7226   4.264   5.915   2.474
 2109SOL    HW2 7227   4.306   5.768   2.532
 2110SOL     OW 7228   2.768   0.821   0.529
 2110SOL    HW1 7229   2.691   0.760   0.547
 2110SOL    HW2 7230   2.737   0.901   0.479
 2111SOL     OW 7231   2.084   3.383   0.171
 2111SOL    HW1 7232   2.011   3.421   0.228
 2111SOL    HW2 7233   2.134   3.313   0.223
 2112SOL     OW 7234   5.196   2.313   0.680
 2112SOL    HW1 7235   5.110   2.357   0.653
 2112SOL    HW2 7236   5.255   2.379   0.726
 2113SOL     OW 7237   2.598   0.994   4.501
 2113SOL    HW1 7238   2.500   0.997   4.479
 2113SOL    HW2 7239   2.631   1.086   4.517
 2114SOL     OW 7240   2.284   1.980   6.658
 2114SOL    HW1 7241   2.210   1.917   6.685
 2114SOL    HW2 7242   2.357   1.928   6.613
 2115SOL     OW 7243   0.431   4.464   2.139
 2115SOL    HW1 7244   0.531   4.460   2.136
 2115SOL    HW2 7245   0.394   4.372   2.144
 2116SOL     OW 7246   0.631   4.142   2.701
 2116SOL    HW1 7247   0.640   4.043   2.711
 2116SOL    HW2 7248   0.623   4.184   2.792
 2117SOL     OW 7249   6.439   4.551   1.470
 2117SOL    HW1 7250   6.514   4.515   1.525
 2117SOL    HW2 7251   6.469   4.633   1.422
 2118SOL     OW 7252   6.140   2.939   3.090
 2118SOL    HW1 7253   6.115   2.930   3.186
 2118SOL    HW2 7254   6.237   2.920   3.079
 2119SOL     OW 7255   1.328   0.332   1.479
 2119SOL    HW1 7256   1.381   0.269   1.535
 2119SOL    HW2 7257   1.240   0.291   1.456
 2120SOL     OW 7258   0.575   4.263   3.295
 2120SOL    HW1 7259   0.611   4.356   3.296
 2120SOL    HW2 7260   0.477   4.265   3.275
 2121SOL     OW 7261   1.497   3.213   5.578
 2121SOL    HW1 7262   1.557   3.190   5.655
 2121SOL    HW2 7263   1.543   3.279   5.519
 2122SOL     OW 7264   5.697   5.437   6.511
 2122SOL    HW1 7265   5.795   5.432   6.493
 2122SOL    HW2 7266   5.667   5.353   6.555
 2123SOL     OW 7267   6.603   5.491   2.011
 2123SOL    HW1 7268   6.532   5.441   1.961
 2123SOL    HW2 7269   6.573   5.585   2.026
 2124SOL     OW 7270   3.086   1.748   1.068
 2124SOL    HW1 7271   3.138   1.786   0.992
 2124SOL    HW2 7272   3.145   1.741   1.148
 2125SOL     OW 7273   1.946   6.426   2.106
 2125SOL    HW1 7274   1.922   6.465   2.195
 2125SOL    HW2 7275   1.959   6.500   2.040
 2126SOL     OW 7276   3.552   2.784   6.233
 2126SOL    HW1 7277   3.569   2.710   6.298
 2126SOL    HW2 7278   3.538   2.745   6.142
 2127SOL     OW 7279   1.578   1.851   5.898
 2127SOL    HW1 7280   1.509   1.874   5.830
 2127SOL    HW2 7281   1.564   1.907   5.980
 2128SOL     OW 7282   6.306   2.734   3.369
 2128SOL    HW1 7283   6.262   2.824   3.367
 2128SOL    HW2 7284   6.252   2.672   3.426
 2129SOL     OW 7285   5.056   3.590   5.147
 2129SOL    HW1 7286   5.030   3.515   5.208
 2129SOL    HW2 7287   4.976   3.620   5.096
 2130SOL     OW 7288   3.550   7.020   2.982
 2130SOL    HW1 7289   3.503   0.064   2.930
 2130SOL    HW2 7290   3.598   6.959   2.919
 2131SOL     OW 7291   4.774   1.877   0.845
 2131SOL    HW1 7292   4.829   1.804   0.805
 2131SOL    HW2 7293   4.695   1.895   0.785
 2132SOL     OW 7294   3.381   1.071   0.600
 2132SOL    HW1 7295   3.313   1.006   0.634
 2132SOL    HW2 7296   3.472   1.033   0.610
 2133SOL     OW 7297   3.467   2.452   1.417
 2133SOL    HW1 7298   3.369   2.473   1.418
 2133SOL    HW2 7299   3.486   2.388   1.342
 2134SOL     OW 7300   1.089   0.905   4.269
 2134SOL    HW1 7301   1.030   0.930   4.193
 2134SOL    HW2 7302   1.170   0.965   4.269
 2135SOL     OW 7303   1.085   2.145   4.399
 2135SOL    HW1 7304   1.096   2.136   4.300
 2135SOL    HW2 7305   1.010   2.208   4.419
 2136SOL     OW 7306   0.976   4.349   4.385
 2136SOL    HW1 7307   1.028   4.290   4.448
 2136SOL    HW2 7308   0.985   4.444   4.414
 2137SOL     OW 7309   0.030   6.012   4.176
 2137SOL    HW1 7310   6.999   5.948   4.128
 2137SOL    HW2 7311   0.034   6.098   4.125
 2138SOL     OW 7312   6.863   1.016   1.646
 2138SOL    HW1 7313   6.835   0.923   1.621
 2138SOL    HW2 7314   6.788   1.079   1.626
 2139SOL     OW 7315   3.502   0.791   2.904
 2139SOL    HW1 7316   3.557   0.773   2.986
 2139SOL    HW2 7317   3.480   0.705   2.859
 2140SOL     OW 7318   3.342   5.928   3.486
 2140SOL    HW1 7319   3.374   5.920   3.392
 2140SOL    HW2 7320   3.242   5.928   3.488
 2141SOL     OW 7321   6.131   4.661   1.336
 2141SOL    HW1 7322   6.178   4.580   1.300
 2141SOL    HW2 7323   6.195   4.714   1.393
 2142SOL     OW 7324   1.373   1.901   3.140
 2142SOL    HW1 7325   1.413   1.906   3.049
 2142SOL    HW2 7326   1.381   1.990   3.185
 2143SOL     OW 7327   3.038   4.441   1.340
 2143SOL    HW1 7328   2.953   4.460   1.389
 2143SOL    HW2 7329   3.039   4.345   1.311
 2144SOL     OW 7330   1.312   5.623   3.081
 2144SOL    HW1 7331   1.248   5.604   3.155
 2144SOL    HW2 7332   1.397   5.572   3.097
 2145SOL     OW 7333   3.591   6.002   4.311
 2145SOL    HW1 7334   3.605   6.098   4.337
 2145SOL    HW2 7335   3.497   5.990   4.280
 2146SOL     OW 7336   2.498   3.499   1.653
 2146SOL    HW1 7337   2.447   3.459   1.578
 2146SOL    HW2 7338   2.439   3.510   1.733
 2147SOL     OW 7339   0.533   1.337   6.410
 2147SOL    HW1 7340   0.575   1.340   6.501
 2147SOL    HW2 7341   0.499   1.428   6.386
 2148SOL     OW 7342   5.441   2.383   4.417
 2148SOL    HW1 7343   5.395   2.320   4.480
 2148SOL    HW2 7344   5.375   2.418   4.351
 2149SOL     OW 7345   3.812   1.317   1.282
 2149SOL    HW1 7346   3.832   1.374   1.202
 2149SOL    HW2 7347   3.855   1.356   1.363
 2150SOL     OW 7348   2.376   2.211   2.267
 2150SOL    HW1 7349   2.346   2.282   2.331
 2150SOL    HW2 7350   2.331   2.124   2.291
 2151SOL     OW 7351   1.797   1.133   4.050
 2151SOL    HW1 7352   1.802   1.218   3.998
 2151SOL    HW2 7353   1.781   1.153   4.146
 2152SOL     OW 7354   3.848   6.600   1.238
 2152SOL    HW1 7355   3.896   6.650   1.166
 2152SOL    HW2 7356   3.873   6.503   1.233
 2153SOL     OW 7357   3.979   0.298   3.175
 2153SOL    HW1 7358   4.023   0.340   3.095
 2153SOL    HW2 7359   3.896   0.251   3.147
 2154SOL     OW 7360   5.254   0.201   4.851
 2154SOL    HW1 7361   5.260   0.105   4.827
 2154SOL    HW2 7362   5.286   0.257   4.776
 2155SOL     OW 7363   1.972   5.598   0.380
 2155SOL    HW1 7364   1.882   5.572   0.345
 2155SOL    HW2 7365   2.030   5.628   0.304
 2156SOL     OW 7366   2.310   0.858   3.132
 2156SOL    HW1 7367   2.278   0.949   3.104
 2156SOL    HW2 7368   2.375   0.824   3.064
 2157SOL     OW 7369   5.664   0.563   3.349
 2157SOL    HW1 7370   5.747   0.612   3.378
 2157SOL    HW2 7371   5.587   0.626   3.348
 2158SOL     OW 7372   4.045   6.289   0.930
 2158SOL    HW1 7373   4.051   6.301   0.831
 2158SOL    HW2 7374   3.954   6.316   0.962
 2159SOL     OW 7375   2.252   6.260   5.579
 2159SOL    HW1 7376   2.156   6.287   5.564
 2159SOL    HW2 7377   2.304   6.275   5.495
 2160SOL     OW 7378   4.507   3.254   1.259
 2160SOL    HW1 7379   4.573   3.181   1.280
 2160SOL    HW2 7380   4.518   3.282   1.164
 2161SOL     OW 7381   5.319   4.067   3.636
 2161SOL    HW1 7382   5.282   3.978   3.608
 2161SOL    HW2 7383   5.419   4.063   3.633
 2162SOL     OW 7384   2.977   0.965   0.686
 2162SOL    HW1 7385   2.943   0.949   0.778
 2162SOL    HW2 7386   2.916   0.922   0.619
 2163SOL     OW 7387   0.031   4.659   6.451
 2163SOL    HW1 7388   0.009   4.592   6.522
 2163SOL    HW2 7389   6.984   4.724   6.441
 2164SOL     OW 7390   1.979   2.821   0.204
 2164SOL    HW1 7391   1.909   2.882   0.240
 2164SOL    HW2 7392   2.040   2.873   0.143
 2165SOL     OW 7393   1.162   1.777   2.836
 2165SOL    HW1 7394   1.070   1.818   2.829
 2165SOL    HW2 7395   1.158   1.695   2.893
 2166SOL     OW 7396   1.735   2.747   5.491
 2166SOL    HW1 7397   1.651   2.797   5.513
 2166SOL    HW2 7398   1.730   2.714   5.397
 2167SOL     OW 7399   1.573   0.940   3.548
 2167SOL    HW1 7400   1.595   0.940   3.645
 2167SOL    HW2 7401   1.475   0.954   3.536
 2168SOL     OW 7402   0.599   1.506   3.381
 2168SOL    HW1 7403   0.689   1.492   3.340
 2168SOL    HW2 7404   0.563   1.595   3.353
 2169SOL     OW 7405   5.410   2.243   5.567
 2169SOL    HW1 7406   5.395   2.146   5.554
 2169SOL    HW2 7407   5.337   2.295   5.523
 2170SOL     OW 7408   6.211   4.988   5.590
 2170SOL    HW1 7409   6.234   5.076   5.632
 2170SOL    HW2 7410   6.220   4.915   5.658
 2171SOL     OW 7411   6.928   3.596   2.233
 2171SOL    HW1 7412   6.906   3.692   2.254
 2171SOL    HW2 7413   6.922   3.581   2.135
 2172SOL     OW 7414   2.765   1.958   0.414
 2172SOL    HW1 7415   2.856   1.998   0.426
 2172SOL    HW2 7416   2.726   1.988   0.326
 2173SOL     OW 7417   4.366   0.141   5.373
 2173SOL    HW1 7418   4.393   0.115   5.466
 2173SOL    HW2 7419   4.442   0.124   5.311
 2174SOL     OW 7420   5.938   5.258   5.902
 2174SOL    HW1 7421   5.912   5.354   5.895
 2174SOL    HW2 7422   5.877   5.212   5.967
 2175SOL     OW 7423   2.912   1.914   3.920
 2175SOL    HW1 7424   2.856   1.994   3.898
 2175SOL    HW2 7425   2.856   1.831   3.912
 2176SOL     OW 7426   0.540   3.527   6.803
 2176SOL    HW1 7427   0.557   3.447   6.860
 2176SOL    HW2 7428   0.458   3.574   6.835
 2177SOL     OW 7429   6.734   1.096   3.522
 2177SOL    HW1 7430   6.741   0.997   3.538
 2177SOL    HW2 7431   6.780   1.145   3.597
 2178SOL     OW 7432   1.048   3.946   6.949
 2178SOL    HW1 7433   0.993   3.904   7.021
 2178SOL    HW2 7434   1.124   3.885   6.924
 2179SOL     OW 7435   1.287   5.534   5.015
 2179SOL    HW1 7436   1.295   5.634   5.016
 2179SOL    HW2 7437   1.221   5.507   4.945
 2180SOL     OW 7438   2.737   3.425   1.811
 2180SOL    HW1 7439   2.724   3.326   1.812
 2180SOL    HW2 7440   2.655   3.470   1.775
 2181SOL     OW 7441   5.236   4.446   5.778
 2181SOL    HW1 7442   5.268   4.408   5.865
 2181SOL    HW2 7443   5.280   4.397   5.702
 2182SOL     OW 7444   6.820   2.714   5.001
 2182SOL    HW1 7445   6.919   2.725   5.014
 2182SOL    HW2 7446   6.773   2.792   5.042
 2183SOL     OW 7447   3.440   3.395   6.277
 2183SOL    HW1 7448   3.389   3.339   6.212
 2183SOL    HW2 7449   3.485   3.470   6.228
 2184SOL     OW 7450   4.242   1.438   5.600
 2184SOL    HW1 7451   4.194   1.479   5.678
 2184SOL    HW2 7452   4.177   1.420   5.526
 2185SOL     OW 7453   1.365   2.048   0.951
 2185SOL    HW1 7454   1.392   2.027   1.045
 2185SOL    HW2 7455   1.418   1.991   0.888
 2186SOL     OW 7456   6.790   4.851   2.285
 2186SOL    HW1 7457   6.834   4.851   2.195
 2186SOL    HW2 7458   6.860   4.865   2.356
 2187SOL     OW 7459   0.079   1.763   2.077
 2187SOL    HW1 7460   0.121   1.818   2.150
 2187SOL    HW2 7461   0.083   1.814   1.991
 2188SOL     OW 7462   5.248   6.513   4.171
 2188SOL    HW1 7463   5.304   6.437   4.205
 2188SOL    HW2 7464   5.307   6.584   4.133
 2189SOL     OW 7465   1.740   6.628   0.025
 2189SOL    HW1 7466   1.668   6.587   6.998
 2189SOL    HW2 7467   1.829   6.604   7.014
 2190SOL     OW 7468   0.556   2.588   2.668
 2190SOL    HW1 7469   0.570   2.674   2.716
 2190SOL    HW2 7470   0.625   2.579   2.596
 2191SOL     OW 7471   2.796   1.466   6.323
 2191SOL    HW1 7472   2.816   1.557   6.287
 2191SOL    HW2 7473   2.881   1.419   6.344
 2192SOL     OW 7474   3.807   0.092   3.543
 2192SOL    HW1 7475   3.896   0.091   3.499
 2192SOL    HW2 7476   3.818   0.090   3.642
 2193SOL     OW 7477   0.243   5.843   6.194
 2193SOL    HW1 7478   0.179   5.790   6.139
 2193SOL    HW2 7479   0.296   5.903   6.134
 2194SOL     OW 7480   2.109   5.370   6.835
 2194SOL    HW1 7481   2.028   5.425   6.857
 2194SOL    HW2 7482   2.089   5.312   6.756
 2195SOL     OW 7483   6.982   6.799   3.919
 2195SOL    HW1 7484   6.958   6.735   3.991
 2195SOL    HW2 7485   6.899   6.826   3.869
 2196SOL     OW 7486   3.778   0.092   5.417
 2196SOL    HW1 7487   3.878   0.098   5.417
 2196SOL    HW2 7488   3.743   0.109   5.325
 2197SOL     OW 7489   3.820   3.502   1.561
 2197SOL    HW1 7490   3.839   3.586   1.510
 2197SOL    HW2 7491   3.787   3.432   1.498
 2198SOL     OW 7492   6.328   1.564   6.932
 2198SOL    HW1 7493   6.229   1.564   6.946
 2198SOL    HW2 7494   6.371   1.629   6.994
 2199SOL     OW 7495   4.690   0.877   2.493
 2199SOL    HW1 7496   4.688   0.795   2.550
 2199SOL    HW2 7497   4.756   0.942   2.531
 2200SOL     OW 7498   3.960   0.249   4.712
 2200SOL    HW1 7499   3.954   0.150   4.728
 2200SOL    HW2 7500   4.048   0.282   4.746
 2201SOL     OW 7501   6.673   2.661   2.570
 2201SOL    HW1 7502   6.772   2.665   2.564
 2201SOL    HW2 7503   6.640   2.727   2.638
 2202SOL     OW 7504   3.156   4.881   3.255
 2202SOL    HW1 7505   3.125   4.850   3.165
 2202SOL    HW2 7506   3.197   4.805   3.305
 2203SOL     OW 7507   2.180   2.603   1.524
 2203SOL    HW1 7508   2.236   2.556   1.456
 2203SOL    HW2 7509   2.112   2.660   1.478
 2204SOL     OW 7510   3.442   1.225   6.604
 2204SOL    HW1 7511   3.378   1.299   6.624
 2204SOL    HW2 7512   3.505   1.213   6.680
 2205SOL     OW 7513   1.869   0.178   6.033
 2205SOL    HW1 7514   1.925   0.258   6.054
 2205SOL    HW2 7515   1.858   0.170   5.934
 2206SOL     OW 7516   2.546   4.105   5.574
 2206SOL    HW1 7517   2.559   4.067   5.482
 2206SOL    HW2 7518   2.550   4.205   5.569
 2207SOL     OW 7519   2.374   3.861   6.861
 2207SOL    HW1 7520   2.296   3.853   6.799
 2207SOL    HW2 7521   2.423   3.946   6.841
 2208SOL     OW 7522   1.671   5.382   2.315
 2208SOL    HW1 7523   1.737   5.456   2.311
 2208SOL    HW2 7524   1.634   5.365   2.223
 2209SOL     OW 7525   1.214   5.614   5.681
 2209SOL    HW1 7526   1.178   5.539   5.626
 2209SOL    HW2 7527   1.226   5.695   5.623
 2210SOL     OW 7528   6.835   4.688   3.686
 2210SOL    HW1 7529   6.877   4.599   3.705
 2210SOL    HW2 7530   6.739   4.675   3.663
 2211SOL     OW 7531   5.139   0.916   0.316
 2211SOL    HW1 7532   5.171   1.005   0.350
 2211SOL    HW2 7533   5.141   0.850   0.391
 2212SOL     OW 7534   1.955   6.486   6.963
 2212SOL    HW1 7535   2.025   6.439   6.909
 2212SOL    HW2 7536   1.938   6.435   0.019
 2213SOL     OW 7537   3.998   2.766   5.283
 2213SOL    HW1 7538   4.072   2.733   5.223
 2213SOL    HW2 7539   3.992   2.865   5.277
 2214SOL     OW 7540   4.527   2.479   5.579
 2214SOL    HW1 7541   4.507   2.554   5.642
 2214SOL    HW2 7542   4.616   2.494   5.537
 2215SOL     OW 7543   6.492   1.817   7.026
 2215SOL    HW1 7544   6.405   1.864   7.011
 2215SOL    HW2 7545   6.567   1.883   7.016
 2216SOL     OW 7546   1.928   0.632   5.974
 2216SOL    HW1 7547   1.902   0.709   5.915
 2216SOL    HW2 7548   2.020   0.601   5.950
 2217SOL     OW 7549   3.668   0.453   1.367
 2217SOL    HW1 7550   3.638   0.514   1.440
 2217SOL    HW2 7551   3.686   0.362   1.406
 2218SOL     OW 7552   0.811   6.741   0.578
 2218SOL    HW1 7553   0.812   6.832   0.619
 2218SOL    HW2 7554   0.782   6.748   0.482
 2219SOL     OW 7555   0.432   2.977   2.421
 2219SOL    HW1 7556   0.524   2.979   2.461
 2219SOL    HW2 7557   0.437   3.006   2.326
 2220SOL     OW 7558   0.624   1.154   4.640
 2220SOL    HW1 7559   0.662   1.124   4.727
 2220SOL    HW2 7560   0.608   1.074   4.582
 2221SOL     OW 7561   6.485   0.655   5.651
 2221SOL    HW1 7562   6.455   0.560   5.641
 2221SOL    HW2 7563   6.429   0.702   5.719
 2222SOL     OW 7564   3.694   0.595   0.804
 2222SOL    HW1 7565   3.691   0.495   0.805
 2222SOL    HW2 7566   3.782   0.626   0.771
 2223SOL     OW 7567   6.245   0.059   4.148
 2223SOL    HW1 7568   6.253   0.140   4.091
 2223SOL    HW2 7569   6.336   0.032   4.179
 2224SOL     OW 7570   1.776   4.604   1.798
 2224SOL    HW1 7571   1.847   4.602   1.868
 2224SOL    HW2 7572   1.764   4.513   1.759
 2225SOL     OW 7573   6.415   5.530   3.121
 2225SOL    HW1 7574   6.499   5.566   3.161
 2225SOL    HW2 7575   6.336   5.557   3.176
 2226SOL     OW 7576   4.395   4.163   0.324
 2226SOL    HW1 7577   4.298   4.155   0.348
 2226SOL    HW2 7578   4.449   4.175   0.407
 2227SOL     OW 7579   5.278   3.333   0.225
 2227SOL    HW1 7580   5.247   3.385   0.145
 2227SOL    HW2 7581   5.359   3.280   0.200
 2228SOL     OW 7582   2.906   5.284   1.319
 2228SOL    HW1 7583   2.865   5.355   1.262
 2228SOL    HW2 7584   2.976   5.235   1.267
 2229SOL     OW 7585   4.135   1.640   4.990
 2229SOL    HW1 7586   4.178   1.577   4.925
 2229SOL    HW2 7587   4.127   1.731   4.949
 2230SOL     OW 7588   6.758   5.331   5.870
 2230SOL    HW1 7589   6.686   5.329   5.801
 2230SOL    HW2 7590   6.827   5.262   5.848
 2231SOL     OW 7591   1.367   0.917   1.334
 2231SOL    HW1 7592   1.311   0.979   1.278
 2231SOL    HW2 7593   1.358   0.824   1.298
 2232SOL     OW 7594   1.613   2.204   4.083
 2232SOL    HW1 7595   1.529   2.228   4.132
 2232SOL    HW2 7596   1.597   2.120   4.031
 2233SOL     OW 7597   2.229   4.523   1.428
 2233SOL    HW1 7598   2.328   4.533   1.433
 2233SOL    HW2 7599   2.205   4.465   1.350
 2234SOL     OW 7600   4.892   2.195   2.073
 2234SOL    HW1 7601   4.798   2.173   2.099
 2234SOL    HW2 7602   4.955   2.145   2.133
 2235SOL     OW 7603   1.849   0.490   1.146
 2235SOL    HW1 7604   1.831   0.397   1.178
 2235SOL    HW2 7605   1.945   0.513   1.159
 2236SOL     OW 7606   0.827   4.232   6.590
 2236SOL    HW1 7607   0.858   4.178   6.512
 2236SOL    HW2 7608   0.798   4.322   6.559
 2237SOL     OW 7609   5.529   4.334   4.510
 2237SOL    HW1 7610   5.506   4.239   4.528
 2237SOL    HW2 7611   5.624   4.351   4.536
 2238SOL     OW 7612   5.526   5.721   1.827
 2238SOL    HW1 7613   5.571   5.634   1.846
 2238SOL    HW2 7614   5.435   5.704   1.788
 2239SOL     OW 7615   3.574   5.372   3.666
 2239SOL    HW1 7616   3.513   5.315   3.611
 2239SOL    HW2 7617   3.519   5.431   3.725
 2240SOL     OW 7618   5.552   5.784   3.864
 2240SOL    HW1 7619   5.485   5.789   3.790
 2240SOL    HW2 7620   5.573   5.688   3.884
 2241SOL     OW 7621   0.476   6.831   2.148
 2241SOL    HW1 7622   0.568   6.869   2.138
 2241SOL    HW2 7623   0.482   6.731   2.153
 2242SOL     OW 7624   5.116   2.457   2.643
 2242SOL    HW1 7625   5.121   2.382   2.577
 2242SOL    HW2 7626   5.204   2.504   2.647
 2243SOL     OW 7627   2.750   6.422   5.223
 2243SOL    HW1 7628   2.830   6.482   5.224
 2243SOL    HW2 7629   2.721   6.405   5.317
 2244SOL     OW 7630   3.133   0.449   2.855
 2244SOL    HW1 7631   3.114   0.547   2.868
 2244SOL    HW2 7632   3.098   0.420   2.766
 2245SOL     OW 7633   0.561   2.016   1.948
 2245SOL    HW1 7634   0.539   1.937   2.005
 2245SOL    HW2 7635   0.481   2.076   1.940
 2246SOL     OW 7636   1.538   1.111   5.123
 2246SOL    HW1 7637   1.566   1.070   5.210
 2246SOL    HW2 7638   1.441   1.093   5.107
 2247SOL     OW 7639   2.744   3.181   5.683
 2247SOL    HW1 7640   2.688   3.133   5.750
 2247SOL    HW2 7641   2.764   3.120   5.606
 2248SOL     OW 7642   3.963   4.191   6.339
 2248SOL    HW1 7643   3.914   4.126   6.397
 2248SOL    HW2 7644   4.042   4.227   6.389
 2249SOL     OW 7645   6.639   5.977   2.633
 2249SOL    HW1 7646   6.738   5.969   2.638
 2249SOL    HW2 7647   6.599   5.963   2.724
 2250SOL     OW 7648   5.078   3.767   0.907
 2250SOL    HW1 7649   5.000   3.716   0.870
 2250SOL    HW2 7650   5.054   3.800   0.999
 2251SOL     OW 7651   5.284   1.721   0.127
 2251SOL    HW1 7652   5.330   1.634   0.108
 2251SOL    HW2 7653   5.326   1.793   0.073
 2252SOL     OW 7654   6.701   1.990   3.126
 2252SOL    HW1 7655   6.795   1.962   3.107
 2252SOL    HW2 7656   6.691   2.088   3.111
 2253SOL     OW 7657   0.627   3.764   0.049
 2253SOL    HW1 7658   0.682   3.761   0.132
 2253SOL    HW2 7659   0.658   3.693   7.014
 2254SOL     OW 7660   2.347   3.401   5.909
 2254SOL    HW1 7661   2.367   3.477   5.971
 2254SOL    HW2 7662   2.253   3.409   5.877
 2255SOL     OW 7663   4.817   2.514   0.229
 2255SOL    HW1 7664   4.876   2.443   0.268
 2255SOL    HW2 7665   4.862   2.554   0.149
 2256SOL     OW 7666   4.011   6.605   1.737
 2256SOL    HW1 7667   3.926   6.575   1.694
 2256SOL    HW2 7668   4.023   6.703   1.723
 2257SOL     OW 7669   0.189   2.682   3.753
 2257SOL    HW1 7670   0.233   2.686   3.843
 2257SOL    HW2 7671   0.155   2.772   3.728
 2258SOL     OW 7672   1.148   5.391   5.530
 2258SOL    HW1 7673   1.150   5.368   5.433
 2258SOL    HW2 7674   1.175   5.311   5.584
 2259SOL     OW 7675   4.734   3.870   6.728
 2259SOL    HW1 7676   4.701   3.964   6.739
 2259SOL    HW2 7677   4.693   3.812   6.799
 2260SOL     OW 7678   5.678   4.638   3.040
 2260SOL    HW1 7679   5.587   4.617   3.077
 2260SOL    HW2 7680   5.693   4.585   2.957
 2261SOL     OW 7681   6.378   6.694   1.176
 2261SOL    HW1 7682   6.397   6.700   1.078
 2261SOL    HW2 7683   6.458   6.727   1.227
 2262SOL     OW 7684   5.461   2.572   2.589
 2262SOL    HW1 7685   5.435   2.498   2.527
 2262SOL    HW2 7686   5.398   2.649   2.577
 2263SOL     OW 7687   2.827   6.213   6.038
 2263SOL    HW1 7688   2.880   6.240   5.958
 2263SOL    HW2 7689   2.826   6.288   6.104
 2264SOL     OW 7690   3.459   3.343   1.467
 2264SOL    HW1 7691   3.551   3.308   1.487
 2264SOL    HW2 7692   3.401   3.332   1.547
 2265SOL     OW 7693   0.463   0.393   4.047
 2265SOL    HW1 7694   0.372   0.366   4.017
 2265SOL    HW2 7695   0.522   0.407   3.968
 2266SOL     OW 7696   5.907   1.622   1.246
 2266SOL    HW1 7697   5.876   1.533   1.280
 2266SOL    HW2 7698   5.827   1.679   1.226
 2267SOL     OW 7699   4.838   2.390   5.046
 2267SOL    HW1 7700   4.904   2.395   4.971
 2267SOL    HW2 7701   4.787   2.476   5.052
 2268SOL     OW 7702   6.275   3.699   6.266
 2268SOL    HW1 7703   6.268   3.621   6.204
 2268SOL    HW2 7704   6.339   3.678   6.339
 2269SOL     OW 7705   5.617   5.895   4.774
 2269SOL    HW1 7706   5.643   5.948   4.693
 2269SOL    HW2 7707   5.614   5.798   4.752
 2270SOL     OW 7708   3.309   2.751   6.600
 2270SOL    HW1 7709   3.290   2.849   6.603
 2270SOL    HW2 7710   3.257   2.710   6.526
 2271SOL     OW 7711   6.244   3.861   0.257
 2271SOL    HW1 7712   6.341   3.885   0.265
 2271SOL    HW2 7713   6.223   3.785   0.318
 2272SOL     OW 7714   5.747   1.795   5.328
 2272SOL    HW1 7715   5.678   1.847   5.279
 2272SOL    HW2 7716   5.702   1.727   5.386
 2273SOL     OW 7717   1.312   1.233   2.117
 2273SOL    HW1 7718   1.344   1.139   2.128
 2273SOL    HW2 7719   1.379   1.286   2.064
 2274SOL     OW 7720   1.682   2.408   6.159
 2274SOL    HW1 7721   1.743   2.483   6.183
 2274SOL    HW2 7722   1.589   2.443   6.149
 2275SOL     OW 7723   5.704   0.365   4.740
 2275SOL    HW1 7724   5.620   0.332   4.698
 2275SOL    HW2 7725   5.760   0.287   4.768
 2276SOL     OW 7726   3.307   4.774   1.027
 2276SOL    HW1 7727   3.285   4.869   1.003
 2276SOL    HW2 7728   3.228   4.733   1.073
 2277SOL     OW 7729   3.672   4.157   4.543
 2277SOL    HW1 7730   3.758   4.128   4.501
 2277SOL    HW2 7731   3.686   4.177   4.640
 2278SOL     OW 7732   5.823   6.110   4.398
 2278SOL    HW1 7733   5.750   6.061   4.350
 2278SOL    HW2 7734   5.834   6.201   4.359
 2279SOL     OW 7735   4.940   5.785   4.478
 2279SOL    HW1 7736   4.900   5.795   4.387
 2279SOL    HW2 7737   4.922   5.692   4.512
 2280SOL     OW 7738   6.930   6.256   4.954
 2280SOL    HW1 7739   6.897   6.292   5.041
 2280SOL    HW2 7740   6.878   6.174   4.930
 2281SOL     OW 7741   3.278   1.075   1.948
 2281SOL    HW1 7742   3.183   1.060   1.921
 2281SOL    HW2 7743   3.309   1.000   2.007
 2282SOL     OW 7744   5.664   0.085   5.226
 2282SOL    HW1 7745   5.573   0.065   5.188
 2282SOL    HW2 7746   5.695   0.174   5.192
 2283SOL     OW 7747   6.605   4.319   1.298
 2283SOL    HW1 7748   6.541   4.377   1.246
 2283SOL    HW2 7749   6.587   4.223   1.277
 2284SOL     OW 7750   2.253   1.832   0.571
 2284SOL    HW1 7751   2.209   1.833   0.481
 2284SOL    HW2 7752   2.202   1.773   0.633
 2285SOL     OW 7753   1.485   2.832   0.350
 2285SOL    HW1 7754   1.394   2.871   0.345
 2285SOL    HW2 7755   1.546   2.894   0.400
 2286SOL     OW 7756   0.077   0.093   4.285
 2286SOL    HW1 7757   0.149   0.145   4.240
 2286SOL    HW2 7758   0.009   0.156   4.324
 2287SOL     OW 7759   2.280   2.768   1.933
 2287SOL    HW1 7760   2.343   2.716   1.991
 2287SOL    HW2 7761   2.317   2.773   1.840
 2288SOL     OW 7762   6.756   4.570   4.741
 2288SOL    HW1 7763   6.690   4.528   4.679
 2288SOL    HW2 7764   6.780   4.505   4.813
 2289SOL     OW 7765   6.093   4.412   2.567
 2289SOL    HW1 7766   6.029   4.472   2.616
 2289SOL    HW2 7767   6.068   4.408   2.470
 2290SOL     OW 7768   1.951   3.847   2.119
 2290SOL    HW1 7769   1.963   3.752   2.147
 2290SOL    HW2 7770   2.027   3.875   2.060
 2291SOL     OW 7771   2.268   2.117   0.552
 2291SOL    HW1 7772   2.341   2.152   0.494
 2291SOL    HW2 7773   2.271   2.017   0.554
 2292SOL     OW 7774   5.453   2.176   3.243
 2292SOL    HW1 7775   5.551   2.179   3.264
 2292SOL    HW2 7776   5.431   2.248   3.177
 2293SOL     OW 7777   6.665   0.149   1.036
 2293SOL    HW1 7778   6.705   0.221   1.093
 2293SOL    HW2 7779   6.723   0.068   1.041
 2294SOL     OW 7780   2.881   1.364   6.083
 2294SOL    HW1 7781   2.825   1.324   6.011
 2294SOL    HW2 7782   2.824   1.383   6.163
 2295SOL     OW 7783   0.557   1.360   2.778
 2295SOL    HW1 7784   0.623   1.318   2.717
 2295SOL    HW2 7785   0.586   1.454   2.799
 2296SOL     OW 7786   3.556   5.497   2.419
 2296SOL    HW1 7787   3.621   5.499   2.495
 2296SOL    HW2 7788   3.599   5.538   2.338
 2297SOL     OW 7789   4.842   4.552   5.940
 2297SOL    HW1 7790   4.760   4.502   5.915
 2297SOL    HW2 7791   4.908   4.490   5.982
 2298SOL     OW 7792   3.905   3.510   2.924
 2298SOL    HW1 7793   3.966   3.578   2.965
 2298SOL    HW2 7794   3.810   3.542   2.929
 2299SOL     OW 7795   4.821   4.384   5.214
 2299SOL    HW1 7796   4.729   4.365   5.181
 2299SOL    HW2 7797   4.816   4.434   5.300
 2300SOL     OW 7798   2.814   6.384   3.359
 2300SOL    HW1 7799   2.796   6.468   3.308
 2300SOL    HW2 7800   2.738   6.364   3.421
 2301SOL     OW 7801   3.865   3.001   3.396
 2301SOL    HW1 7802   3.941   3.030   3.337
 2301SOL    HW2 7803   3.888   3.020   3.491
 2302SOL     OW 7804   3.806   0.353   1.115
 2302SOL    HW1 7805   3.894   0.400   1.120
 2302SOL    HW2 7806   3.743   0.395   1.180
 2303SOL     OW 7807   2.862   3.296   0.872
 2303SOL    HW1 7808   2.933   3.233   0.841
 2303SOL    HW2 7809   2.829   3.268   0.962
 2304SOL     OW 7810   5.674   5.841   4.362
 2304SOL    HW1 7811   5.609   5.847   4.438
 2304SOL    HW2 7812   5.628   5.861   4.276
 2305SOL     OW 7813   2.273   0.276   3.192
 2305SOL    HW1 7814   2.285   0.245   3.287
 2305SOL    HW2 7815   2.362   0.304   3.155
 2306SOL     OW 7816   2.295   5.070   1.701
 2306SOL    HW1 7817   2.271   5.044   1.794
 2306SOL    HW2 7818   2.225   5.131   1.664
 2307SOL     OW 7819   0.292   3.056   5.230
 2307SOL    HW1 7820   0.382   3.029   5.195
 2307SOL    HW2 7821   0.249   3.119   5.165
 2308SOL     OW 7822   2.838   4.657   0.935
 2308SOL    HW1 7823   2.771   4.653   0.861
 2308SOL    HW2 7824   2.911   4.591   0.918
 2309SOL     OW 7825   2.141   0.726   5.447
 2309SOL    HW1 7826   2.059   0.765   5.406
 2309SOL    HW2 7827   2.128   0.714   5.546
 2310SOL     OW 7828   5.869   5.504   1.651
 2310SOL    HW1 7829   5.895   5.440   1.578
 2310SOL    HW2 7830   5.819   5.581   1.611
 2311SOL     OW 7831   2.094   6.744   1.034
 2311SOL    HW1 7832   2.111   6.805   1.112
 2311SOL    HW2 7833   2.151   6.662   1.043
 2312SOL     OW 7834   4.898   5.480   3.345
 2312SOL    HW1 7835   4.994   5.507   3.346
 2312SOL    HW2 7836   4.890   5.387   3.307
 2313SOL     OW 7837   4.883   5.825   2.616
 2313SOL    HW1 7838   4.956   5.894   2.609
 2313SOL    HW2 7839   4.805   5.854   2.561
 2314SOL     OW 7840   5.107   6.219   3.025
 2314SOL    HW1 7841   5.071   6.292   3.083
 2314SOL    HW2 7842   5.134   6.258   2.936
 2315SOL     OW 7843   5.148   3.042   6.417
 2315SOL    HW1 7844   5.065   3.076   6.462
 2315SOL    HW2 7845   5.199   2.985   6.481
 2316SOL     OW 7846   4.017   1.921   4.050
 2316SOL    HW1 7847   4.108   1.896   4.084
 2316SOL    HW2 7848   3.991   1.859   3.977
 2317SOL     OW 7849   0.249   5.875   2.898
 2317SOL    HW1 7850   0.229   5.968   2.871
 2317SOL    HW2 7851   0.164   5.825   2.913
 2318SOL     OW 7852   0.556   2.761   3.320
 2318SOL    HW1 7853   0.482   2.702   3.287
 2318SOL    HW2 7854   0.561   2.756   3.420
 2319SOL     OW 7855   1.560   5.138   3.799
 2319SOL    HW1 7856   1.481   5.082   3.822
 2319SOL    HW2 7857   1.532   5.234   3.789
 2320SOL     OW 7858   0.804   2.261   3.660
 2320SOL    HW1 7859   0.832   2.212   3.742
 2320SOL    HW2 7860   0.736   2.207   3.610
 2321SOL     OW 7861   3.597   0.667   5.524
 2321SOL    HW1 7862   3.606   0.724   5.442
 2321SOL    HW2 7863   3.661   0.699   5.594
 2322SOL     OW 7864   2.356   1.722   5.193
 2322SOL    HW1 7865   2.345   1.657   5.118
 2322SOL    HW2 7866   2.452   1.724   5.221
 2323SOL     OW 7867   3.082   4.941   2.042
 2323SOL    HW1 7868   3.122   4.924   1.953
 2323SOL    HW2 7869   2.989   4.903   2.044
 2324SOL     OW 7870   0.149   6.344   2.743
 2324SOL    HW1 7871   0.150   6.437   2.782
 2324SOL    HW2 7872   0.242   6.319   2.717
 2325SOL     OW 7873   0.561   4.387   1.231
 2325SOL    HW1 7874   0.549   4.323   1.307
 2325SOL    HW2 7875   0.602   4.472   1.265
 2326SOL     OW 7876   3.408   4.515   5.539
 2326SOL    HW1 7877   3.349   4.518   5.620
 2326SOL    HW2 7878   3.503   4.504   5.568
 2327SOL     OW 7879   5.978   3.091   4.556
 2327SOL    HW1 7880   6.065   3.047   4.535
 2327SOL    HW2 7881   5.913   3.023   4.590
 2328SOL     OW 7882   4.181   1.884   3.504
 2328SOL    HW1 7883   4.246   1.830   3.557
 2328SOL    HW2 7884   4.094   1.889   3.554
 2329SOL     OW 7885   1.682   5.165   4.880
 2329SOL    HW1 7886   1.731   5.215   4.808
 2329SOL    HW2 7887   1.656   5.228   4.952
 2330SOL     OW 7888   6.805   4.172   2.425
 2330SOL    HW1 7889   6.806   4.082   2.469
 2330SOL    HW2 7890   6.897   4.196   2.395
 2331SOL     OW 7891   6.486   4.557   7.024
 2331SOL    HW1 7892   6.498   4.531   6.928
 2331SOL    HW2 7893   6.571   4.542   0.046
 2332SOL     OW 7894   3.850   1.947   5.218
 2332SOL    HW1 7895   3.914   1.938   5.294
 2332SOL    HW2 7896   3.883   2.017   5.154
 2333SOL     OW 7897   6.687   4.863   2.932
 2333SOL    HW1 7898   6.666   4.781   2.986
 2333SOL    HW2 7899   6.684   4.943   2.991
 2334SOL     OW 7900   2.818   0.424   0.496
 2334SOL    HW1 7901   2.876   0.505   0.508
 2334SOL    HW2 7902   2.742   0.428   0.560
 2335SOL     OW 7903   5.689   0.861   3.149
 2335SOL    HW1 7904   5.690   0.814   3.061
 2335SOL    HW2 7905   5.781   0.895   3.170
 2336SOL     OW 7906   4.339   1.939   5.569
 2336SOL    HW1 7907   4.389   1.897   5.644
 2336SOL    HW2 7908   4.301   2.027   5.598
 2337SOL     OW 7909   4.724   1.179   3.648
 2337SOL    HW1 7910   4.789   1.177   3.724
 2337SOL    HW2 7911   4.732   1.095   3.595
 2338SOL     OW 7912   1.025   0.244   7.008
 2338SOL    HW1 7913   0.963   0.185   0.031
 2338SOL    HW2 7914   1.018   0.337   0.015
 2339SOL     OW 7915   3.765   3.681   4.954
 2339SOL    HW1 7916   3.817   3.621   4.894
 2339SOL    HW2 7917   3.704   3.626   5.011
 2340SOL     OW 7918   5.178   6.251   5.993
 2340SOL    HW1 7919   5.243   6.204   6.053
 2340SOL    HW2 7920   5.192   6.221   5.898
 2341SOL     OW 7921   4.832   3.328   0.767
 2341SOL    HW1 7922   4.840   3.310   0.865
 2341SOL    HW2 7923   4.898   3.272   0.717
 2342SOL     OW 7924   0.757   6.195   6.027
 2342SOL    HW1 7925   0.692   6.219   5.955
 2342SOL    HW2 7926   0.814   6.118   5.997
 2343SOL     OW 7927   1.761   6.672   1.318
 2343SOL    HW1 7928   1.741   6.738   1.245
 2343SOL    HW2 7929   1.801   6.721   1.396
 2344SOL     OW 7930   1.274   1.346   1.152
 2344SOL    HW1 7931   1.349   1.409   1.132
 2344SOL    HW2 7932   1.254   1.348   1.250
 2345SOL     OW 7933   2.066   6.000   5.246
 2345SOL    HW1 7934   2.144   5.971   5.301
 2345SOL    HW2 7935   2.097   6.022   5.154
 2346SOL     OW 7936   4.941   3.245   4.863
 2346SOL    HW1 7937   4.890   3.248   4.948
 2346SOL    HW2 7938   4.924   3.158   4.817
 2347SOL     OW 7939   2.391   4.203   1.482
 2347SOL    HW1 7940   2.453   4.241   1.551
 2347SOL    HW2 7941   2.431   4.213   1.391
 2348SOL     OW 7942   3.069   5.828   3.452
 2348SOL    HW1 7943   2.997   5.882   3.408
 2348SOL    HW2 7944   3.035   5.736   3.470
 2349SOL     OW 7945   0.646   6.116   0.027
 2349SOL    HW1 7946   0.601   6.103   6.967
 2349SOL    HW2 7947   0.595   6.183   0.081
 2350SOL     OW 7948   4.384   7.002   5.926
 2350SOL    HW1 7949   4.418   0.065   5.900
 2350SOL    HW2 7950   4.457   6.952   5.974
 2351SOL     OW 7951   3.179   5.271   3.066
 2351SOL    HW1 7952   3.266   5.247   3.023
 2351SOL    HW2 7953   3.177   5.235   3.159
 2352SOL     OW 7954   0.531   4.768   2.359
 2352SOL    HW1 7955   0.624   4.774   2.396
 2352SOL    HW2 7956   0.496   4.676   2.372
 2353SOL     OW 7957   2.684   4.740   4.371
 2353SOL    HW1 7958   2.709   4.679   4.447
 2353SOL    HW2 7959   2.712   4.698   4.285
 2354SOL     OW 7960   3.367   2.214   6.221
 2354SOL    HW1 7961   3.462   2.242   6.232
 2354SOL    HW2 7962   3.359   2.152   6.142
 2355SOL     OW 7963   0.445   5.342   0.363
 2355SOL    HW1 7964   0.407   5.434   0.354
 2355SOL    HW2 7965   0.430   5.308   0.455
 2356SOL     OW 7966   2.441   4.035   1.072
 2356SOL    HW1 7967   2.442   4.108   1.139
 2356SOL    HW2 7968   2.390   4.064   0.991
 2357SOL     OW 7969   3.711   4.942   4.067
 2357SOL    HW1 7970   3.738   5.036   4.047
 2357SOL    HW2 7971   3.738   4.883   3.990
 2358SOL     OW 7972   2.835   5.576   4.737
 2358SOL    HW1 7973   2.867   5.620   4.653
 2358SOL    HW2 7974   2.747   5.616   4.763
 2359SOL     OW 7975   1.732   1.223   5.894
 2359SOL    HW1 7976   1.721   1.208   5.795
 2359SOL    HW2 7977   1.778   1.310   5.910
 2360SOL     OW 7978   4.889   5.824   5.478
 2360SOL    HW1 7979   4.852   5.770   5.554
 2360SOL    HW2 7980   4.971   5.780   5.443
 2361SOL     OW 7981   2.611   0.236   4.476
 2361SOL    HW1 7982   2.609   0.276   4.385
 2361SOL    HW2 7983   2.580   0.304   4.543
 2362SOL     OW 7984   4.419   6.720   4.937
 2362SOL    HW1 7985   4.344   6.754   4.880
 2362SOL    HW2 7986   4.404   6.624   4.958
 2363SOL     OW 7987   4.920   2.257   5.390
 2363SOL    HW1 7988   4.829   2.255   5.348
 2363SOL    HW2 7989   4.925   2.190   5.464
 2364SOL     OW 7990   6.132   1.830   2.285
 2364SOL    HW1 7991   6.191   1.805   2.208
 2364SOL    HW2 7992   6.123   1.752   2.346
 2365SOL     OW 7993   5.564   3.737   5.510
 2365SOL    HW1 7994   5.481   3.786   5.486
 2365SOL    HW2 7995   5.582   3.666   5.442
 2366SOL     OW 7996   1.203   3.917   5.655
 2366SOL    HW1 7997   1.269   3.992   5.660
 2366SOL    HW2 7998   1.229   3.846   5.720
 2367SOL     OW 7999   1.819   3.899   6.738
 2367SOL    HW1 8000   1.729   3.888   6.696
 2367SOL    HW2 8001   1.890   3.901   6.668
 2368SOL     OW 8002   5.152   1.204   4.726
 2368SOL    HW1 8003   5.052   1.202   4.720
 2368SOL    HW2 8004   5.186   1.292   4.692
 2369SOL     OW 8005   2.567   2.519   4.221
 2369SOL    HW1 8006   2.618   2.445   4.178
 2369SOL    HW2 8007   2.508   2.563   4.154
 2370SOL     OW 8008   4.367   3.915   6.824
 2370SOL    HW1 8009   4.298   3.898   6.894
 2370SOL    HW2 8010   4.416   3.830   6.804
 2371SOL     OW 8011   1.747   5.534   2.004
 2371SOL    HW1 8012   1.676   5.471   2.034
 2371SOL    HW2 8013   1.726   5.626   2.037
 2372SOL     OW 8014   0.399   1.932   0.282
 2372SOL    HW1 8015   0.429   1.845   0.320
 2372SOL    HW2 8016   0.407   1.931   0.183
 2373SOL     OW 8017   6.129   1.313   6.517
 2373SOL    HW1 8018   6.066   1.261   6.574
 2373SOL    HW2 8019   6.205   1.348   6.574
 2374SOL     OW 8020   6.266   5.425   3.630
 2374SOL    HW1 8021   6.295   5.357   3.563
 2374SOL    HW2 8022   6.332   5.429   3.705
 2375SOL     OW 8023   0.893   6.699   4.544
 2375SOL    HW1 8024   0.921   6.711   4.639
 2375SOL    HW2 8025   0.845   6.613   4.533
 2376SOL     OW 8026   5.925   2.498   3.372
 2376SOL    HW1 8027   5.912   2.592   3.405
 2376SOL    HW2 8028   6.007   2.494   3.315
 2377SOL     OW 8029   3.324   3.409   4.494
 2377SOL    HW1 8030   3.395   3.479   4.503
 2377SOL    HW2 8031   3.342   3.353   4.413
 2378SOL     OW 8032   5.139   1.999   0.027
 2378SOL    HW1 8033   5.086   1.991   6.970
 2378SOL    HW2 8034   5.112   1.925   0.089
 2379SOL     OW 8035   6.927   2.555   0.178
 2379SOL    HW1 8036   6.968   2.645   0.196
 2379SOL    HW2 8037   6.829   2.566   0.159
 2380SOL     OW 8038   6.744   0.748   5.642
 2380SOL    HW1 8039   6.651   0.712   5.644
 2380SOL    HW2 8040   6.797   0.697   5.574
 2381SOL     OW 8041   1.597   4.260   4.612
 2381SOL    HW1 8042   1.562   4.342   4.567
 2381SOL    HW2 8043   1.696   4.255   4.602
 2382SOL     OW 8044   1.982   5.328   2.577
 2382SOL    HW1 8045   2.025   5.362   2.494
 2382SOL    HW2 8046   1.916   5.394   2.611
 2383SOL     OW 8047   5.533   6.265   6.582
 2383SOL    HW1 8048   5.483   6.252   6.668
 2383SOL    HW2 8049   5.538   6.178   6.534
 2384SOL     OW 8050   1.172   1.700   1.702
 2384SOL    HW1 8051   1.133   1.669   1.615
 2384SOL    HW2 8052   1.262   1.739   1.686
 2385SOL     OW 8053   7.010   0.320   1.330
 2385SOL    HW1 8054   0.058   0.256   1.318
 2385SOL    HW2 8055   7.004   0.347   1.426
 2386SOL     OW 8056   3.225   5.231   4.586
 2386SOL    HW1 8057   3.177   5.282   4.657
 2386SOL    HW2 8058   3.320   5.261   4.582
 2387SOL     OW 8059   6.555   2.819   4.531
 2387SOL    HW1 8060   6.473   2.789   4.580
 2387SOL    HW2 8061   6.630   2.756   4.550
 2388SOL     OW 8062   1.776   1.751   5.743
 2388SOL    HW1 8063   1.864   1.742   5.789
 2388SOL    HW2 8064   1.709   1.789   5.806
 2389SOL     OW 8065   4.491   4.461   4.011
 2389SOL    HW1 8066   4.502   4.414   4.099
 2389SOL    HW2 8067   4.580   4.476   3.969
 2390SOL     OW 8068   3.870   4.126   5.034
 2390SOL    HW1 8069   3.931   4.192   5.079
 2390SOL    HW2 8070   3.920   4.041   5.016
 2391SOL     OW 8071   3.453   4.554   6.057
 2391SOL    HW1 8072   3.418   4.648   6.053
 2391SOL    HW2 8073   3.535   4.552   6.114
 2392SOL     OW 8074   3.048   5.016   6.260
 2392SOL    HW1 8075   3.144   5.042   6.258
 2392SOL    HW2 8076   2.991   5.098   6.246
 2393SOL     OW 8077   4.080   5.386   1.646
 2393SOL    HW1 8078   4.150   5.443   1.602
 2393SOL    HW2 8079   3.998   5.385   1.590
 2394SOL     OW 8080   1.447   3.819   4.132
 2394SOL    HW1 8081   1.412   3.748   4.071
 2394SOL    HW2 8082   1.547   3.817   4.131
 2395SOL     OW 8083   0.111   2.472   6.813
 2395SOL    HW1 8084   0.106   2.564   6.852
 2395SOL    HW2 8085   0.110   2.479   6.713
 2396SOL     OW 8086   6.079   6.354   0.807
 2396SOL    HW1 8087   6.085   6.361   0.707
 2396SOL    HW2 8088   5.982   6.352   0.834
 2397SOL     OW 8089   6.611   4.929   0.169
 2397SOL    HW1 8090   6.595   4.988   0.248
 2397SOL    HW2 8091   6.665   4.850   0.198
 2398SOL     OW 8092   2.474   5.127   4.962
 2398SOL    HW1 8093   2.492   5.077   4.877
 2398SOL    HW2 8094   2.510   5.075   5.039
 2399SOL     OW 8095   4.279   1.724   2.805
 2399SOL    HW1 8096   4.252   1.643   2.859
 2399SOL    HW2 8097   4.200   1.756   2.752
 2400SOL     OW 8098   2.990   3.898   0.633
 2400SOL    HW1 8099   3.036   3.858   0.553
 2400SOL    HW2 8100   2.901   3.854   0.645
 2401SOL     OW 8101   3.449   0.415   4.921
 2401SOL    HW1 8102   3.487   0.365   4.843
 2401SOL    HW2 8103   3.386   0.486   4.887
 2402SOL     OW 8104   0.027   2.402   4.067
 2402SOL    HW1 8105   7.002   2.437   3.990
 2402SOL    HW2 8106   0.119   2.377   4.036
 2403SOL     OW 8107   3.187   3.235   0.493
 2403SOL    HW1 8108   3.279   3.275   0.496
 2403SOL    HW2 8109   3.182   3.158   0.557
 2404SOL     OW 8110   5.370   1.532   1.752
 2404SOL    HW1 8111   5.284   1.581   1.763
 2404SOL    HW2 8112   5.410   1.513   1.842
 2405SOL     OW 8113   3.726   3.804   5.194
 2405SOL    HW1 8114   3.631   3.829   5.176
 2405SOL    HW2 8115   3.771   3.782   5.107
 2406SOL     OW 8116   1.964   1.036   2.977
 2406SOL    HW1 8117   1.921   0.989   2.900
 2406SOL    HW2 8118   2.063   1.039   2.963
 2407SOL     OW 8119   4.667   2.220   2.947
 2407SOL    HW1 8120   4.661   2.235   3.046
 2407SOL    HW2 8121   4.610   2.142   2.922
 2408SOL     OW 8122   3.403   5.204   2.930
 2408SOL    HW1 8123   3.488   5.241   2.966
 2408SOL    HW2 8124   3.390   5.233   2.835
 2409SOL     OW 8125   1.737   2.342   1.581
 2409SOL    HW1 8126   1.821   2.376   1.624
 2409SOL    HW2 8127   1.715   2.400   1.502
 2410SOL     OW 8128   6.592   3.489   5.582
 2410SOL    HW1 8129   6.518   3.541   5.624
 2410SOL    HW2 8130   6.565   3.392   5.576
 2411SOL     OW 8131   3.353   4.167   5.332
 2411SOL    HW1 8132   3.282   4.224   5.291
 2411SOL    HW2 8133   3.325   4.140   5.424
 2412SOL     OW 8134   2.735   3.651   0.250
 2412SOL    HW1 8135   2.750   3.559   0.288
 2412SOL    HW2 8136   2.643   3.682   0.274
 2413SOL     OW 8137   6.446   3.327   6.693
 2413SOL    HW1 8138   6.427   3.375   6.778
 2413SOL    HW2 8139   6.508   3.381   6.637
 2414SOL     OW 8140   5.681   3.346   2.768
 2414SOL    HW1 8141   5.723   3.316   2.854
 2414SOL    HW2 8142   5.667   3.445   2.770
 2415SOL     OW 8143   2.205   0.524   1.459
 2415SOL    HW1 8144   2.160   0.467   1.390
 2415SOL    HW2 8145   2.226   0.468   1.540
 2416SOL     OW 8146   2.048   1.455   4.817
 2416SOL    HW1 8147   2.069   1.533   4.758
 2416SOL    HW2 8148   2.123   1.442   4.882
 2417SOL     OW 8149   5.477   2.106   0.299
 2417SOL    HW1 8150   5.483   2.114   0.399
 2417SOL    HW2 8151   5.383   2.118   0.270
 2418SOL     OW 8152   3.484   3.583   4.959
 2418SOL    HW1 8153   3.420   3.602   5.034
 2418SOL    HW2 8154   3.501   3.668   4.908
 2419SOL     OW 8155   0.902   6.915   5.016
 2419SOL    HW1 8156   0.939   6.866   4.938
 2419SOL    HW2 8157   0.804   6.895   5.025
 2420SOL     OW 8158   3.880   0.095   2.536
 2420SOL    HW1 8159   3.913   0.074   2.628
 2420SOL    HW2 8160   3.786   0.061   2.526
 2421SOL     OW 8161   3.079   0.879   4.719
 2421SOL    HW1 8162   2.983   0.870   4.746
 2421SOL    HW2 8163   3.138   0.841   4.791
 2422SOL     OW 8164   5.189   0.882   0.928
 2422SOL    HW1 8165   5.221   0.789   0.945
 2422SOL    HW2 8166   5.090   0.880   0.909
 2423SOL     OW 8167   2.098   5.828   2.209
 2423SOL    HW1 8168   2.173   5.891   2.229
 2423SOL    HW2 8169   2.133   5.736   2.198
 2424SOL     OW 8170   5.283   5.994   6.639
 2424SOL    HW1 8171   5.223   6.041   6.575
 2424SOL    HW2 8172   5.258   6.020   6.733
 2425SOL     OW 8173   6.621   6.631   4.879
 2425SOL    HW1 8174   6.679   6.711   4.873
 2425SOL    HW2 8175   6.596   6.601   4.787
 2426SOL     OW 8176   0.803   5.722   4.912
 2426SOL    HW1 8177   0.864   5.771   4.849
 2426SOL    HW2 8178   0.790   5.628   4.879
 2427SOL     OW 8179   5.645   5.425   6.834
 2427SOL    HW1 8180   5.628   5.509   6.885
 2427SOL    HW2 8181   5.671   5.447   6.741
 2428SOL     OW 8182   0.870   0.545   3.953
 2428SOL    HW1 8183   0.781   0.589   3.939
 2428SOL    HW2 8184   0.877   0.513   4.048
 2429SOL     OW 8185   5.761   5.060   3.254
 2429SOL    HW1 8186   5.770   4.970   3.297
 2429SOL    HW2 8187   5.819   5.063   3.172
 2430SOL     OW 8188   5.510   2.833   0.847
 2430SOL    HW1 8189   5.455   2.867   0.771
 2430SOL    HW2 8190   5.563   2.754   0.816
 2431SOL     OW 8191   4.270   0.614   1.328
 2431SOL    HW1 8192   4.318   0.527   1.317
 2431SOL    HW2 8193   4.323   0.674   1.388
 2432SOL     OW 8194   4.055   6.435   2.932
 2432SOL    HW1 8195   4.077   6.503   2.863
 2432SOL    HW2 8196   4.011   6.480   3.010
 2433SOL     OW 8197   2.506   0.219   0.128
 2433SOL    HW1 8198   2.596   0.227   0.172
 2433SOL    HW2 8199   2.518   0.194   0.032
 2434SOL     OW 8200   4.625   1.320   3.420
 2434SOL    HW1 8201   4.701   1.319   3.355
 2434SOL    HW2 8202   4.655   1.282   3.507
 2435SOL     OW 8203   4.853   4.771   0.470
 2435SOL    HW1 8204   4.821   4.825   0.393
 2435SOL    HW2 8205   4.776   4.745   0.528
 2436SOL     OW 8206   1.775   7.017   1.100
 2436SOL    HW1 8207   1.788   6.930   1.054
 2436SOL    HW2 8208   1.722   7.003   1.184
 2437SOL     OW 8209   4.919   5.643   1.259
 2437SOL    HW1 8210   4.928   5.698   1.176
 2437SOL    HW2 8211   4.881   5.701   1.332
 2438SOL     OW 8212   4.149   0.872   4.598
 2438SOL    HW1 8213   4.229   0.909   4.551
 2438SOL    HW2 8214   4.135   0.921   4.684
 2439SOL     OW 8215   0.874   4.226   0.547
 2439SOL    HW1 8216   0.888   4.305   0.487
 2439SOL    HW2 8217   0.868   4.143   0.492
 2440SOL     OW 8218   3.743   6.742   5.257
 2440SOL    HW1 8219   3.668   6.797   5.221
 2440SOL    HW2 8220   3.829   6.790   5.244
 2441SOL     OW 8221   5.674   0.600   0.308
 2441SOL    HW1 8222   5.751   0.580   0.247
 2441SOL    HW2 8223   5.617   0.518   0.317
 2442SOL     OW 8224   5.966   5.451   2.906
 2442SOL    HW1 8225   6.023   5.454   2.824
 2442SOL    HW2 8226   5.870   5.451   2.879
 2443SOL     OW 8227   2.974   0.587   6.612
 2443SOL    HW1 8228   3.072   0.568   6.615
 2443SOL    HW2 8229   2.924   0.501   6.602
 2444SOL     OW 8230   3.631   4.292   6.955
 2444SOL    HW1 8231   3.602   4.233   6.879
 2444SOL    HW2 8232   3.552   4.343   6.990
 2445SOL     OW 8233   6.675   1.524   2.171
 2445SOL    HW1 8234   6.646   1.562   2.083
 2445SOL    HW2 8235   6.626   1.438   2.188
 2446SOL     OW 8236   0.694   2.962   4.610
 2446SOL    HW1 8237   0.633   2.888   4.582
 2446SOL    HW2 8238   0.699   3.031   4.538
 2447SOL     OW 8239   2.245   1.452   0.923
 2447SOL    HW1 8240   2.279   1.405   1.004
 2447SOL    HW2 8241   2.311   1.521   0.894
 2448SOL     OW 8242   6.658   1.234   4.287
 2448SOL    HW1 8243   6.568   1.191   4.287
 2448SOL    HW2 8244   6.714   1.195   4.214
 2449SOL     OW 8245   0.467   3.808   2.691
 2449SOL    HW1 8246   0.418   3.896   2.689
 2449SOL    HW2 8247   0.556   3.821   2.735
 2450SOL     OW 8248   3.250   5.482   5.709
 2450SOL    HW1 8249   3.185   5.435   5.768
 2450SOL    HW2 8250   3.233   5.580   5.712
 2451SOL     OW 8251   1.456   0.277   3.276
 2451SOL    HW1 8252   1.556   0.286   3.274
 2451SOL    HW2 8253   1.431   0.191   3.322
 2452SOL     OW 8254   3.003   2.166   3.400
 2452SOL    HW1 8255   2.974   2.111   3.321
 2452SOL    HW2 8256   3.102   2.176   3.398
 2453SOL     OW 8257   6.736   3.638   0.665
 2453SOL    HW1 8258   6.800   3.664   0.737
 2453SOL    HW2 8259   6.749   3.541   0.643
 2454SOL     OW 8260   3.811   0.563   6.301
 2454SOL    HW1 8261   3.865   0.638   6.340
 2454SOL    HW2 8262   3.729   0.549   6.357
 2455SOL     OW 8263   4.191   0.621   0.751
 2455SOL    HW1 8264   4.151   0.596   0.663
 2455SOL    HW2 8265   4.201   0.539   0.808
 2456SOL     OW 8266   6.238   2.332   0.200
 2456SOL    HW1 8267   6.288   2.417   0.183
 2456SOL    HW2 8268   6.160   2.351   0.259
 2457SOL     OW 8269   6.326   0.113   6.853
 2457SOL    HW1 8270   6.369   0.143   6.938
 2457SOL    HW2 8271   6.367   0.027   6.823
 2458SOL     OW 8272   1.976   6.146   4.001
 2458SOL    HW1 8273   1.924   6.202   4.065
 2458SOL    HW2 8274   1.929   6.144   3.913
 2459SOL     OW 8275   2.496   6.210   5.965
 2459SOL    HW1 8276   2.516   6.307   5.950
 2459SOL    HW2 8277   2.575   6.166   6.006
 2460SOL     OW 8278   1.622   1.585   1.265
 2460SOL    HW1 8279   1.586   1.566   1.356
 2460SOL    HW2 8280   1.647   1.499   1.221
 2461SOL     OW 8281   4.577   1.034   3.168
 2461SOL    HW1 8282   4.674   1.039   3.195
 2461SOL    HW2 8283   4.571   1.004   3.073
 2462SOL     OW 8284   1.560   5.447   6.671
 2462SOL    HW1 8285   1.634   5.502   6.710
 2462SOL    HW2 8286   1.573   5.439   6.572
 2463SOL     OW 8287   6.444   1.695   6.167
 2463SOL    HW1 8288   6.445   1.764   6.095
 2463SOL    HW2 8289   6.360   1.703   6.220
 2464SOL     OW 8290   2.266   4.156   2.551
 2464SOL    HW1 8291   2.233   4.128   2.642
 2464SOL    HW2 8292   2.316   4.081   2.509
 2465SOL     OW 8293   0.908   0.180   0.862
 2465SOL    HW1 8294   0.893   0.156   0.766
 2465SOL    HW2 8295   0.990   0.133   0.896
 2466SOL     OW 8296   2.497   1.546   2.842
 2466SOL    HW1 8297   2.454   1.629   2.808
 2466SOL    HW2 8298   2.565   1.570   2.912
 2467SOL     OW 8299   4.834   1.257   5.318
 2467SOL    HW1 8300   4.804   1.351   5.334
 2467SOL    HW2 8301   4.877   1.221   5.401
 2468SOL     OW 8302   4.299   6.547   1.847
 2468SOL    HW1 8303   4.220   6.556   1.786
 2468SOL    HW2 8304   4.327   6.452   1.850
 2469SOL     OW 8305   4.079   3.840   5.839
 2469SOL    HW1 8306   4.139   3.767   5.872
 2469SOL    HW2 8307   4.071   3.910   5.910
 2470SOL     OW 8308   4.265   4.212   6.269
 2470SOL    HW1 8309   4.277   4.312   6.272
 2470SOL    HW2 8310   4.252   4.183   6.174
 2471SOL     OW 8311   2.409   6.068   0.492
 2471SOL    HW1 8312   2.479   5.996   0.493
 2471SOL    HW2 8313   2.320   6.028   0.470
 2472SOL     OW 8314   4.870   2.494   4.307
 2472SOL    HW1 8315   4.803   2.555   4.267
 2472SOL    HW2 8316   4.935   2.546   4.363
 2473SOL     OW 8317   1.805   4.120   4.977
 2473SOL    HW1 8318   1.804   4.035   4.925
 2473SOL    HW2 8319   1.898   4.139   5.007
 2474SOL     OW 8320   0.379   5.690   0.796
 2474SOL    HW1 8321   0.472   5.701   0.761
 2474SOL    HW2 8322   0.342   5.780   0.818
 2475SOL     OW 8323   4.481   1.000   2.297
 2475SOL    HW1 8324   4.515   0.956   2.214
 2475SOL    HW2 8325   4.519   0.954   2.378
 2476SOL     OW 8326   6.989   1.374   3.062
 2476SOL    HW1 8327   7.017   1.460   3.020
 2476SOL    HW2 8328   6.992   1.300   2.995
 2477SOL     OW 8329   4.582   1.412   2.096
 2477SOL    HW1 8330   4.676   1.385   2.075
 2477SOL    HW2 8331   4.548   1.473   2.024
 2478SOL     OW 8332   6.283   1.105   1.732
 2478SOL    HW1 8333   6.205   1.043   1.718
 2478SOL    HW2 8334   6.366   1.063   1.694
 2479SOL     OW 8335   1.564   3.745   1.259
 2479SOL    HW1 8336   1.625   3.703   1.191
 2479SOL    HW2 8337   1.507   3.813   1.214
 2480SOL     OW 8338   4.755   4.252   0.946
 2480SOL    HW1 8339   4.750   4.294   0.855
 2480SOL    HW2 8340   4.711   4.314   1.013
 2481SOL     OW 8341   2.329   0.843   0.337
 2481SOL    HW1 8342   2.254   0.870   0.277
 2481SOL    HW2 8343   2.416   0.874   0.297
 2482SOL     OW 8344   5.059   3.726   5.935
 2482SOL    HW1 8345   5.056   3.632   5.969
 2482SOL    HW2 8346   5.047   3.727   5.836
 2483SOL     OW 8347   2.184   1.663   6.879
 2483SOL    HW1 8348   2.133   1.600   6.938
 2483SOL    HW2 8349   2.256   1.707   6.932
 2484SOL     OW 8350   3.576   0.536   0.115
 2484SOL    HW1 8351   3.574   0.551   0.214
 2484SOL    HW2 8352   3.582   0.624   0.068
 2485SOL     OW 8353   6.136   4.208   1.050
 2485SOL    HW1 8354   6.226   4.229   1.011
 2485SOL    HW2 8355   6.071   4.280   1.024
 2486SOL     OW 8356   1.871   4.937   4.295
 2486SOL    HW1 8357   1.906   4.888   4.215
 2486SOL    HW2 8358   1.771   4.937   4.293
 2487SOL     OW 8359   3.995   5.809   0.221
 2487SOL    HW1 8360   4.002   5.894   0.273
 2487SOL    HW2 8361   3.913   5.759   0.249
 2488SOL     OW 8362   2.128   4.471   2.582
 2488SOL    HW1 8363   2.039   4.493   2.623
 2488SOL    HW2 8364   2.192   4.446   2.655
 2489SOL     OW 8365   1.237   5.556   2.600
 2489SOL    HW1 8366   1.204   5.466   2.628
 2489SOL    HW2 8367   1.159   5.616   2.584
 2490SOL     OW 8368   6.565   4.966   1.670
 2490SOL    HW1 8369   6.620   4.916   1.603
 2490SOL    HW2 8370   6.486   5.007   1.624
 2491SOL     OW 8371   2.914   5.431   0.873
 2491SOL    HW1 8372   2.873   5.504   0.818
 2491SOL    HW2 8373   2.843   5.384   0.925
 2492SOL     OW 8374   4.193   2.130   1.099
 2492SOL    HW1 8375   4.157   2.053   1.151
 2492SOL    HW2 8376   4.138   2.212   1.118
 2493SOL     OW 8377   6.084   0.819   2.132
 2493SOL    HW1 8378   6.163   0.872   2.104
 2493SOL    HW2 8379   6.115   0.735   2.178
 2494SOL     OW 8380   5.660   3.423   1.998
 2494SOL    HW1 8381   5.746   3.409   2.048
 2494SOL    HW2 8382   5.587   3.371   2.042
 2495SOL     OW 8383   5.207   0.193   4.565
 2495SOL    HW1 8384   5.191   0.284   4.605
 2495SOL    HW2 8385   5.179   0.194   4.469
 2496SOL     OW 8386   0.591   3.629   6.060
 2496SOL    HW1 8387   0.493   3.617   6.074
 2496SOL    HW2 8388   0.640   3.552   6.102
 2497SOL     OW 8389   0.746   0.580   0.896
 2497SOL    HW1 8390   0.660   0.614   0.857
 2497SOL    HW2 8391   0.823   0.624   0.851
 2498SOL     OW 8392   3.098   1.157   4.802
 2498SOL    HW1 8393   3.065   1.225   4.737
 2498SOL    HW2 8394   3.087   1.066   4.763
 2499SOL     OW 8395   5.484   2.194   3.905
 2499SOL    HW1 8396   5.433   2.276   3.930
 2499SOL    HW2 8397   5.423   2.115   3.906
 2500SOL     OW 8398   4.376   3.011   6.973
 2500SOL    HW1 8399   4.329   3.001   6.885
 2500SOL    HW2 8400   4.337   2.947   0.011
 2501SOL     OW 8401   5.747   5.146   0.068
 2501SOL    HW1 8402   5.690   5.122   7.017
 2501SOL    HW2 8403   5.831   5.093   0.066
 2502SOL     OW 8404   1.821   5.461   3.023
 2502SOL    HW1 8405   1.875   5.541   3.047
 2502SOL    HW2 8406   1.882   5.384   3.005
 2503SOL     OW 8407   3.394   5.587   4.510
 2503SOL    HW1 8408   3.447   5.617   4.589
 2503SOL    HW2 8409   3.454   5.541   4.444
 2504SOL     OW 8410   3.266   5.023   4.823
 2504SOL    HW1 8411   3.325   4.992   4.748
 2504SOL    HW2 8412   3.251   5.121   4.814
 2505SOL     OW 8413   1.279   6.235   3.875
 2505SOL    HW1 8414   1.199   6.236   3.815
 2505SOL    HW2 8415   1.338   6.312   3.853
 2506SOL     OW 8416   6.741   3.666   5.438
 2506SOL    HW1 8417   6.757   3.733   5.510
 2506SOL    HW2 8418   6.680   3.594   5.472
 2507SOL     OW 8419   1.111   4.682   0.951
 2507SOL    HW1 8420   1.204   4.645   0.942
 2507SOL    HW2 8421   1.049   4.632   0.890
 2508SOL     OW 8422   2.769   1.483   2.091
 2508SOL    HW1 8423   2.693   1.495   2.156
 2508SOL    HW2 8424   2.820   1.569   2.085
 2509SOL     OW 8425   6.769   2.420   2.038
 2509SOL    HW1 8426   6.689   2.363   2.057
 2509SOL    HW2 8427   6.771   2.496   2.103
 2510SOL     OW 8428   3.372   4.307   1.398
 2510SOL    HW1 8429   3.360   4.249   1.317
 2510SOL    HW2 8430   3.469   4.325   1.411
 2511SOL     OW 8431   2.660   1.301   3.877
 2511SOL    HW1 8432   2.639   1.204   3.889
 2511SOL    HW2 8433   2.669   1.322   3.779
 2512SOL     OW 8434   4.923   4.383   4.954
 2512SOL    HW1 8435   4.882   4.392   5.044
 2512SOL    HW2 8436   4.995   4.315   4.956
 2513SOL     OW 8437   1.366   3.904   4.391
 2513SOL    HW1 8438   1.392   3.890   4.296
 2513SOL    HW2 8439   1.283   3.960   4.395
 2514SOL     OW 8440   6.335   3.539   4.085
 2514SOL    HW1 8441   6.326   3.587   3.997
 2514SOL    HW2 8442   6.245   3.512   4.118
 2515SOL     OW 8443   1.462   6.056   0.513
 2515SOL    HW1 8444   1.410   6.006   0.582
 2515SOL    HW2 8445   1.457   6.154   0.532
 2516SOL     OW 8446   6.076   0.733   3.033
 2516SOL    HW1 8447   6.057   0.712   3.129
 2516SOL    HW2 8448   6.022   0.813   3.005
 2517SOL     OW 8449   0.641   5.512   5.880
 2517SOL    HW1 8450   0.630   5.418   5.914
 2517SOL    HW2 8451   0.675   5.570   5.953
 2518SOL     OW 8452   1.060   4.234   7.016
 2518SOL    HW1 8453   0.973   4.283   7.010
 2518SOL    HW2 8454   1.043   4.136   7.021
 2519SOL     OW 8455   5.436   6.917   3.868
 2519SOL    HW1 8456   5.489   6.997   3.896
 2519SOL    HW2 8457   5.384   6.940   3.786
 2520SOL     OW 8458   1.993   2.336   6.612
 2520SOL    HW1 8459   2.059   2.387   6.668
 2520SOL    HW2 8460   1.982   2.244   6.649
 2521SOL     OW 8461   0.907   0.146   5.131
 2521SOL    HW1 8462   0.817   0.153   5.175
 2521SOL    HW2 8463   0.925   0.050   5.107
 2522SOL     OW 8464   0.466   3.297   5.872
 2522SOL    HW1 8465   0.413   3.369   5.916
 2522SOL    HW2 8466   0.549   3.337   5.832
 2523SOL     OW 8467   0.193   2.938   2.063
 2523SOL    HW1 8468   0.099   2.929   2.097
 2523SOL    HW2 8469   0.257   2.910   2.134
 2524SOL     OW 8470   0.633   5.766   5.439
 2524SOL    HW1 8471   0.651   5.684   5.492
 2524SOL    HW2 8472   0.557   5.750   5.376
 2525SOL     OW 8473   0.856   2.584   4.534
 2525SOL    HW1 8474   0.795   2.523   4.586
 2525SOL    HW2 8475   0.819   2.598   4.443
 2526SOL     OW 8476   1.229   4.813   5.215
 2526SOL    HW1 8477   1.248   4.911   5.213
 2526SOL    HW2 8478   1.210   4.785   5.309
 2527SOL     OW 8479   5.177   5.976   4.793
 2527SOL    HW1 8480   5.165   5.936   4.703
 2527SOL    HW2 8481   5.187   5.904   4.861
 2528SOL     OW 8482   5.461   4.752   1.453
 2528SOL    HW1 8483   5.512   4.832   1.486
 2528SOL    HW2 8484   5.514   4.707   1.381
 2529SOL     OW 8485   6.614   6.872   6.474
 2529SOL    HW1 8486   6.701   6.894   6.429
 2529SOL    HW2 8487   6.598   6.774   6.471
 2530SOL     OW 8488   2.053   0.043   4.871
 2530SOL    HW1 8489   2.038   6.996   4.806
 2530SOL    HW2 8490   1.980   0.110   4.862
 2531SOL     OW 8491   4.805   5.983   4.201
 2531SOL    HW1 8492   4.808   5.883   4.210
 2531SOL    HW2 8493   4.710   6.014   4.206
 2532SOL     OW 8494   0.515   6.338   0.408
 2532SOL    HW1 8495   0.615   6.338   0.416
 2532SOL    HW2 8496   0.485   6.249   0.374
 2533SOL     OW 8497   2.744   0.153   3.066
 2533SOL    HW1 8498   2.783   0.061   3.057
 2533SOL    HW2 8499   2.801   0.218   3.015
 2534SOL     OW 8500   3.250   0.910   2.847
 2534SOL    HW1 8501   3.332   0.865   2.883
 2534SOL    HW2 8502   3.243   1.002   2.886
 2535SOL     OW 8503   3.313   2.967   5.716
 2535SOL    HW1 8504   3.370   2.917   5.781
 2535SOL    HW2 8505   3.217   2.955   5.741
 2536SOL     OW 8506   7.016   1.859   4.500
 2536SOL    HW1 8507   6.937   1.909   4.464
 2536SOL    HW2 8508   7.019   1.768   4.460
 2537SOL     OW 8509   4.648   6.887   6.545
 2537SOL    HW1 8510   4.649   6.986   6.560
 2537SOL    HW2 8511   4.626   6.841   6.631
 2538SOL     OW 8512   1.181   5.005   4.723
 2538SOL    HW1 8513   1.174   5.057   4.638
 2538SOL    HW2 8514   1.191   4.908   4.702
 2539SOL     OW 8515   5.034   1.007   5.895
 2539SOL    HW1 8516   4.989   0.985   5.982
 2539SOL    HW2 8517   4.969   0.995   5.820
 2540SOL     OW 8518   3.728   1.065   2.452
 2540SOL    HW1 8519   3.673   1.127   2.396
 2540SOL    HW2 8520   3.820   1.103   2.464
 2541SOL     OW 8521   1.830   6.924   5.370
 2541SOL    HW1 8522   1.860   6.860   5.300
 2541SOL    HW2 8523   1.821   6.876   5.458
 2542SOL     OW 8524   4.469   1.158   6.322
 2542SOL    HW1 8525   4.457   1.242   6.269
 2542SOL    HW2 8526   4.542   1.103   6.281
 2543SOL     OW 8527   1.777   1.958   2.812
 2543SOL    HW1 8528   1.718   1.884   2.780
 2543SOL    HW2 8529   1.843   1.922   2.878
 2544SOL     OW 8530   0.300   5.530   1.264
 2544SOL    HW1 8531   0.308   5.489   1.355
 2544SOL    HW2 8532   0.380   5.588   1.247
 2545SOL     OW 8533   1.702   0.680   1.540
 2545SOL    HW1 8534   1.662   0.702   1.629
 2545SOL    HW2 8535   1.716   0.764   1.488
 2546SOL     OW 8536   0.318   2.034   1.700
 2546SOL    HW1 8537   0.307   2.120   1.749
 2546SOL    HW2 8538   0.415   2.011   1.693
 2547SOL     OW 8539   6.005   3.517   0.037
 2547SOL    HW1 8540   5.999   3.440   7.001
 2547SOL    HW2 8541   5.916   3.532   0.079
 2548SOL     OW 8542   2.830   6.640   5.737
 2548SOL    HW1 8543   2.881   6.651   5.652
 2548SOL    HW2 8544   2.842   6.721   5.794
 2549SOL     OW 8545   1.621   0.583   1.303
 2549SOL    HW1 8546   1.689   0.520   1.266
 2549SOL    HW2 8547   1.658   0.628   1.384
 2550SOL     OW 8548   6.740   0.438   6.257
 2550SOL    HW1 8549   6.808   0.484   6.314
 2550SOL    HW2 8550   6.726   0.490   6.173
 2551SOL     OW 8551   3.634   5.392   0.327
 2551SOL    HW1 8552   3.649   5.418   0.422
 2551SOL    HW2 8553   3.614   5.294   0.322
 2552SOL     OW 8554   1.891   5.611   6.172
 2552SOL    HW1 8555   1.963   5.659   6.222
 2552SOL    HW2 8556   1.887   5.645   6.078
 2553SOL     OW 8557   3.948   3.250   0.001
 2553SOL    HW1 8558   3.853   3.248   0.032
 2553SOL    HW2 8559   3.981   3.157   7.017
 2554SOL     OW 8560   1.459   6.344   6.592
 2554SOL    HW1 8561   1.466   6.315   6.497
 2554SOL    HW2 8562   1.531   6.299   6.646
 2555SOL     OW 8563   6.336   6.474   6.808
 2555SOL    HW1 8564   6.310   6.399   6.869
 2555SOL    HW2 8565   6.434   6.467   6.787
 2556SOL     OW 8566   4.769   5.086   0.291
 2556SOL    HW1 8567   4.677   5.048   0.294
 2556SOL    HW2 8568   4.818   5.047   0.213
 2557SOL     OW 8569   2.872   2.564   6.547
 2557SOL    HW1 8570   2.937   2.596   6.617
 2557SOL    HW2 8571   2.875   2.626   6.469
 2558SOL     OW 8572   4.258   3.128   5.602
 2558SOL    HW1 8573   4.302   3.217   5.588
 2558SOL    HW2 8574   4.241   3.085   5.513
 2559SOL     OW 8575   6.580   3.419   4.442
 2559SOL    HW1 8576   6.566   3.363   4.524
 2559SOL    HW2 8577   6.574   3.516   4.466
 2560SOL     OW 8578   5.878   3.369   3.988
 2560SOL    HW1 8579   5.814   3.346   3.915
 2560SOL    HW2 8580   5.845   3.330   4.075
 2561SOL     OW 8581   2.759   0.052   4.264
 2561SOL    HW1 8582   2.709   0.025   4.346
 2561SOL    HW2 8583   2.848   0.007   4.263
 2562SOL     OW 8584   1.685   5.886   2.558
 2562SOL    HW1 8585   1.691   5.830   2.476
 2562SOL    HW2 8586   1.656   5.830   2.636
 2563SOL     OW 8587   3.921   2.065   6.910
 2563SOL    HW1 8588   3.964   2.147   6.872
 2563SOL    HW2 8589   3.931   2.065   7.009
 2564SOL     OW 8590   1.265   6.771   6.203
 2564SOL    HW1 8591   1.258   6.835   6.126
 2564SOL    HW2 8592   1.187   6.784   6.264
 2565SOL     OW 8593   6.737   1.019   0.621
 2565SOL    HW1 8594   6.755   0.936   0.569
 2565SOL    HW2 8595   6.767   1.006   0.716
 2566SOL     OW 8596   1.603   6.957   1.330
 2566SOL    HW1 8597   1.593   6.951   1.429
 2566SOL    HW2 8598   1.518   6.930   1.285
 2567SOL     OW 8599   1.119   1.234   1.657
 2567SOL    HW1 8600   1.187   1.282   1.601
 2567SOL    HW2 8601   1.079   1.159   1.604
 2568SOL     OW 8602   3.611   6.508   0.127
 2568SOL    HW1 8603   3.629   6.515   0.029
 2568SOL    HW2 8604   3.536   6.445   0.143
 2569SOL     OW 8605   2.769   1.063   1.755
 2569SOL    HW1 8606   2.670   1.058   1.762
 2569SOL    HW2 8607   2.795   1.139   1.695
 2570SOL     OW 8608   5.683   0.983   6.610
 2570SOL    HW1 8609   5.604   0.952   6.557
 2570SOL    HW2 8610   5.735   0.904   6.641
 2571SOL     OW 8611   2.078   4.211   5.486
 2571SOL    HW1 8612   2.134   4.259   5.553
 2571SOL    HW2 8613   2.136   4.170   5.416
 2572SOL     OW 8614   2.171   5.976   0.397
 2572SOL    HW1 8615   2.153   6.073   0.377
 2572SOL    HW2 8616   2.089   5.934   0.436
 2573SOL     OW 8617   6.336   1.993   1.685
 2573SOL    HW1 8618   6.362   1.975   1.780
 2573SOL    HW2 8619   6.261   2.059   1.684
 2574SOL     OW 8620   6.467   3.311   0.245
 2574SOL    HW1 8621   6.440   3.407   0.241
 2574SOL    HW2 8622   6.428   3.262   0.167
 2575SOL     OW 8623   4.486   5.059   6.831
 2575SOL    HW1 8624   4.458   5.143   6.786
 2575SOL    HW2 8625   4.417   5.034   6.900
 2576SOL     OW 8626   3.804   6.748   4.556
 2576SOL    HW1 8627   3.772   6.661   4.520
 2576SOL    HW2 8628   3.823   6.739   4.654
 2577SOL     OW 8629   3.713   6.565   1.916
 2577SOL    HW1 8630   3.640   6.624   1.880
 2577SOL    HW2 8631   3.692   6.470   1.894
 2578SOL     OW 8632   4.780   2.264   4.189
 2578SOL    HW1 8633   4.827   2.347   4.219
 2578SOL    HW2 8634   4.839   2.185   4.204
 2579SOL     OW 8635   1.558   6.478   2.826
 2579SOL    HW1 8636   1.489   6.524   2.881
 2579SOL    HW2 8637   1.533   6.484   2.729
 2580SOL     OW 8638   2.690   3.216   6.612
 2580SOL    HW1 8639   2.600   3.256   6.622
 2580SOL    HW2 8640   2.760   3.284   6.635
 2581SOL     OW 8641   0.066   4.122   0.934
 2581SOL    HW1 8642   0.152   4.146   0.979
 2581SOL    HW2 8643   0.043   4.191   0.866
 2582SOL     OW 8644   0.895   4.077   1.944
 2582SOL    HW1 8645   0.831   4.038   1.877
 2582SOL    HW2 8646   0.917   4.008   2.013
 2583SOL     OW 8647   0.572   1.481   1.120
 2583SOL    HW1 8648   0.589   1.402   1.178
 2583SOL    HW2 8649   0.588   1.565   1.172
 2584SOL     OW 8650   4.342   5.553   0.174
 2584SOL    HW1 8651   4.317   5.462   0.208
 2584SOL    HW2 8652   4.439   5.553   0.149
 2585SOL     OW 8653   5.004   2.618   0.794
 2585SOL    HW1 8654   4.952   2.703   0.787
 2585SOL    HW2 8655   4.978   2.557   0.719
 2586SOL     OW 8656   3.370   1.457   3.599
 2586SOL    HW1 8657   3.465   1.430   3.585
 2586SOL    HW2 8658   3.310   1.378   3.583
 2587SOL     OW 8659   0.632   0.681   3.392
 2587SOL    HW1 8660   0.666   0.626   3.469
 2587SOL    HW2 8661   0.687   0.662   3.311
 2588SOL     OW 8662   4.443   0.672   6.244
 2588SOL    HW1 8663   4.526   0.680   6.189
 2588SOL    HW2 8664   4.441   0.746   6.312
 2589SOL     OW 8665   7.003   6.158   6.646
 2589SOL    HW1 8666   0.049   6.160   6.714
 2589SOL    HW2 8667   7.023   6.088   6.577
 2590SOL     OW 8668   3.411   6.191   1.377
 2590SOL    HW1 8669   3.417   6.254   1.299
 2590SOL    HW2 8670   3.401   6.098   1.344
 2591SOL     OW 8671   6.706   5.750   2.421
 2591SOL    HW1 8672   6.764   5.756   2.502
 2591SOL    HW2 8673   6.677   5.655   2.408
 2592SOL     OW 8674   3.597   6.488   1.252
 2592SOL    HW1 8675   3.648   6.407   1.224
 2592SOL    HW2 8676   3.634   6.569   1.206
 2593SOL     OW 8677   2.780   5.622   0.743
 2593SOL    HW1 8678   2.703   5.674   0.705
 2593SOL    HW2 8679   2.817   5.669   0.823
 2594SOL     OW 8680   0.706   5.318   6.232
 2594SOL    HW1 8681   0.733   5.320   6.328
 2594SOL    HW2 8682   0.643   5.243   6.216
 2595SOL     OW 8683   6.497   1.674   3.980
 2595SOL    HW1 8684   6.584   1.711   4.012
 2595SOL    HW2 8685   6.485   1.695   3.883
 2596SOL     OW 8686   4.097   1.855   1.976
 2596SOL    HW1 8687   4.084   1.798   1.895
 2596SOL    HW2 8688   4.015   1.851   2.033
 2597SOL     OW 8689   1.801   4.204   5.613
 2597SOL    HW1 8690   1.746   4.243   5.687
 2597SOL    HW2 8691   1.884   4.259   5.600
 2598SOL     OW 8692   6.017   1.055   3.961
 2598SOL    HW1 8693   5.954   1.076   3.886
 2598SOL    HW2 8694   6.088   0.992   3.928
 2599SOL     OW 8695   2.061   7.010   1.158
 2599SOL    HW1 8696   1.976   7.014   1.104
 2599SOL    HW2 8697   2.136   0.021   1.104
 2600SOL     OW 8698   4.897   3.260   4.252
 2600SOL    HW1 8699   4.860   3.181   4.204
 2600SOL    HW2 8700   4.945   3.229   4.334
 2601SOL     OW 8701   1.887   1.945   0.878
 2601SOL    HW1 8702   1.829   1.970   0.955
 2601SOL    HW2 8703   1.847   1.980   0.793
 2602SOL     OW 8704   0.526   3.779   4.245
 2602SOL    HW1 8705   0.624   3.766   4.233
 2602SOL    HW2 8706   0.500   3.753   4.338
 2603SOL     OW 8707   2.566   1.467   2.331
 2603SOL    HW1 8708   2.526   1.550   2.368
 2603SOL    HW2 8709   2.493   1.406   2.300
 2604SOL     OW 8710   4.918   1.334   3.008
 2604SOL    HW1 8711   4.950   1.403   2.943
 2604SOL    HW2 8712   4.941   1.242   2.974
 2605SOL     OW 8713   1.927   4.342   2.860
 2605SOL    HW1 8714   2.005   4.288   2.892
 2605SOL    HW2 8715   1.877   4.378   2.939
 2606SOL     OW 8716   6.367   4.406   1.843
 2606SOL    HW1 8717   6.282   4.389   1.792
 2606SOL    HW2 8718   6.348   4.399   1.941
 2607SOL     OW 8719   1.084   0.903   0.467
 2607SOL    HW1 8720   1.124   0.917   0.557
 2607SOL    HW2 8721   1.003   0.961   0.457
 2608SOL     OW 8722   4.801   4.841   1.371
 2608SOL    HW1 8723   4.726   4.853   1.306
 2608SOL    HW2 8724   4.766   4.805   1.457
 2609SOL     OW 8725   6.478   1.736   1.222
 2609SOL    HW1 8726   6.415   1.677   1.171
 2609SOL    HW2 8727   6.429   1.817   1.253
 2610SOL     OW 8728   0.726   4.738   4.715
 2610SOL    HW1 8729   0.799   4.681   4.677
 2610SOL    HW2 8730   0.722   4.825   4.666
 2611SOL     OW 8731   4.477   6.428   0.926
 2611SOL    HW1 8732   4.389   6.400   0.964
 2611SOL    HW2 8733   4.526   6.485   0.993
 2612SOL     OW 8734   6.905   0.109   6.106
 2612SOL    HW1 8735   6.995   0.066   6.103
 2612SOL    HW2 8736   6.844   0.063   6.042
 2613SOL     OW 8737   2.565   6.140   6.602
 2613SOL    HW1 8738   2.523   6.164   6.690
 2613SOL    HW2 8739   2.506   6.172   6.528
 2614SOL     OW 8740   6.749   1.052   6.049
 2614SOL    HW1 8741   6.718   1.106   6.128
 2614SOL    HW2 8742   6.818   0.987   6.080
 2615SOL     OW 8743   0.148   2.305   3.271
 2615SOL    HW1 8744   0.156   2.294   3.172
 2615SOL    HW2 8745   0.091   2.384   3.291
 2616SOL     OW 8746   3.289   3.648   5.211
 2616SOL    HW1 8747   3.272   3.742   5.184
 2616SOL    HW2 8748   3.361   3.646   5.281
 2617SOL     OW 8749   3.620   6.276   0.506
 2617SOL    HW1 8750   3.628   6.312   0.412
 2617SOL    HW2 8751   3.648   6.347   0.570
 2618SOL     OW 8752   0.095   0.649   4.336
 2618SOL    HW1 8753   0.059   0.731   4.381
 2618SOL    HW2 8754   0.078   0.655   4.238
 2619SOL     OW 8755   4.089   1.802   3.231
 2619SOL    HW1 8756   4.005   1.855   3.221
 2619SOL    HW2 8757   4.143   1.839   3.307
 2620SOL     OW 8758   0.041   0.349   3.321
 2620SOL    HW1 8759   6.998   0.393   3.376
 2620SOL    HW2 8760   0.130   0.361   3.365
 2621SOL     OW 8761   1.512   5.823   3.152
 2621SOL    HW1 8762   1.486   5.781   3.239
 2621SOL    HW2 8763   1.448   5.794   3.081
 2622SOL     OW 8764   1.925   3.317   5.436
 2622SOL    HW1 8765   1.893   3.226   5.464
 2622SOL    HW2 8766   1.925   3.323   5.336
 2623SOL     OW 8767   1.713   1.156   5.625
 2623SOL    HW1 8768   1.694   1.240   5.574
 2623SOL    HW2 8769   1.629   1.103   5.634
 2624SOL     OW 8770   6.822   1.424   5.758
 2624SOL    HW1 8771   6.766   1.436   5.676
 2624SOL    HW2 8772   6.792   1.488   5.829
 2625SOL     OW 8773   1.984   2.991   5.333
 2625SOL    HW1 8774   1.953   3.010   5.240
 2625SOL    HW2 8775   2.017   2.897   5.338
 2626SOL     OW 8776   0.516   0.461   5.692
 2626SOL    HW1 8777   0.536   0.391   5.623
 2626SOL    HW2 8778   0.438   0.515   5.662
 2627SOL     OW 8779   1.508   1.000   5.731
 2627SOL    HW1 8780   1.433   0.935   5.723
 2627SOL    HW2 8781   1.561   0.979   5.814
 2628SOL     OW 8782   1.575   4.739   5.520
 2628SOL    HW1 8783   1.627   4.766   5.439
 2628SOL    HW2 8784   1.572   4.639   5.526
 2629SOL     OW 8785   3.343   3.091   1.237
 2629SOL    HW1 8786   3.440   3.107   1.223
 2629SOL    HW2 8787   3.329   3.045   1.325
 2630SOL     OW 8788   3.297   2.139   2.637
 2630SOL    HW1 8789   3.198   2.144   2.631
 2630SOL    HW2 8790   3.330   2.212   2.697
 2631SOL     OW 8791   5.287   1.237   5.461
 2631SOL    HW1 8792   5.337   1.189   5.533
 2631SOL    HW2 8793   5.290   1.183   5.377
 2632SOL     OW 8794   4.490   2.551   6.639
 2632SOL    HW1 8795   4.578   2.593   6.661
 2632SOL    HW2 8796   4.502   2.452   6.631
 2633SOL     OW 8797   0.424   1.663   4.409
 2633SOL    HW1 8798   0.380   1.745   4.447
 2633SOL    HW2 8799   0.452   1.603   4.483
 2634SOL     OW 8800   0.442   4.638   3.459
 2634SOL    HW1 8801   0.452   4.727   3.414
 2634SOL    HW2 8802   0.426   4.653   3.557
 2635SOL     OW 8803   6.701   5.567   5.292
 2635SOL    HW1 8804   6.630   5.633   5.267
 2635SOL    HW2 8805   6.664   5.474   5.284
 2636SOL     OW 8806   4.540   0.767   5.168
 2636SOL    HW1 8807   4.450   0.800   5.139
 2636SOL    HW2 8808   4.529   0.705   5.246
 2637SOL     OW 8809   4.925   1.876   3.629
 2637SOL    HW1 8810   4.925   1.778   3.651
 2637SOL    HW2 8811   4.874   1.925   3.700
 2638SOL     OW 8812   0.091   0.009   3.899
 2638SOL    HW1 8813   0.034   6.955   3.890
 2638SOL    HW2 8814   0.040   0.089   3.867
 2639SOL     OW 8815   0.279   5.938   0.777
 2639SOL    HW1 8816   0.190   5.947   0.733
 2639SOL    HW2 8817   0.297   6.017   0.835
 2640SOL     OW 8818   0.600   6.258   5.470
 2640SOL    HW1 8819   0.613   6.162   5.444
 2640SOL    HW2 8820   0.655   6.279   5.550
 2641SOL     OW 8821   5.500   2.965   2.923
 2641SOL    HW1 8822   5.404   2.938   2.933
 2641SOL    HW2 8823   5.524   2.970   2.826
 2642SOL     OW 8824   4.716   6.475   3.823
 2642SOL    HW1 8825   4.703   6.384   3.863
 2642SOL    HW2 8826   4.681   6.545   3.886
 2643SOL     OW 8827   0.248   3.833   3.673
 2643SOL    HW1 8828   0.268   3.754   3.732
 2643SOL    HW2 8829   0.182   3.806   3.603
 2644SOL     OW 8830   5.659   6.555   5.680
 2644SOL    HW1 8831   5.660   6.469   5.732
 2644SOL    HW2 8832   5.753   6.588   5.669
 2645SOL     OW 8833   4.431   5.866   4.442
 2645SOL    HW1 8834   4.496   5.941   4.430
 2645SOL    HW2 8835   4.479   5.785   4.477
 2646SOL     OW 8836   6.247   0.909   6.451
 2646SOL    HW1 8837   6.156   0.886   6.418
 2646SOL    HW2 8838   6.312   0.906   6.375
 2647SOL     OW 8839   6.562   6.998   2.233
 2647SOL    HW1 8840   6.656   6.962   2.235
 2647SOL    HW2 8841   6.502   6.931   2.190
 2648SOL     OW 8842   0.466   0.483   4.345
 2648SOL    HW1 8843   0.454   0.577   4.377
 2648SOL    HW2 8844   0.526   0.482   4.266
 2649SOL     OW 8845   5.646   2.726   6.904
 2649SOL    HW1 8846   5.693   2.640   6.885
 2649SOL    HW2 8847   5.680   2.797   6.843
 2650SOL     OW 8848   1.340   4.338   4.168
 2650SOL    HW1 8849   1.283   4.416   4.145
 2650SOL    HW2 8850   1.324   4.264   4.102
 2651SOL     OW 8851   1.062   1.254   0.696
 2651SOL    HW1 8852   1.046   1.287   0.789
 2651SOL    HW2 8853   1.100   1.162   0.699
 2652SOL     OW 8854   4.108   3.348   4.673
 2652SOL    HW1 8855   4.152   3.369   4.586
 2652SOL    HW2 8856   4.141   3.260   4.706
 2653SOL     OW 8857   5.132   6.734   5.075
 2653SOL    HW1 8858   5.169   6.810   5.128
 2653SOL    HW2 8859   5.190   6.716   4.996
 2654SOL     OW 8860   4.371   6.054   2.513
 2654SOL    HW1 8861   4.335   6.144   2.488
 2654SOL    HW2 8862   4.410   6.058   2.605
 2655SOL     OW 8863   4.558   6.108   4.218
 2655SOL    HW1 8864   4.535   6.157   4.303
 2655SOL    HW2 8865   4.474   6.073   4.177
 2656SOL     OW 8866   3.522   5.209   5.075
 2656SOL    HW1 8867   3.434   5.239   5.112
 2656SOL    HW2 8868   3.560   5.137   5.134
 2657SOL     OW 8869   0.932   3.785   6.371
 2657SOL    HW1 8870   0.877   3.758   6.292
 2657SOL    HW2 8871   1.027   3.798   6.342
 2658SOL     OW 8872   5.191   4.285   1.081
 2658SOL    HW1 8873   5.189   4.322   1.174
 2658SOL    HW2 8874   5.137   4.345   1.021
 2659SOL     OW 8875   5.147   2.986   4.459
 2659SOL    HW1 8876   5.228   2.927   4.457
 2659SOL    HW2 8877   5.090   2.962   4.537
 2660SOL     OW 8878   1.866   0.114   1.798
 2660SOL    HW1 8879   1.902   0.047   1.863
 2660SOL    HW2 8880   1.922   0.197   1.803
 2661SOL     OW 8881   2.558   0.206   1.205
 2661SOL    HW1 8882   2.561   0.284   1.143
 2661SOL    HW2 8883   2.619   0.135   1.172
 2662SOL     OW 8884   5.275   6.483   4.480
 2662SOL    HW1 8885   5.181   6.492   4.448
 2662SOL    HW2 8886   5.277   6.423   4.560
 2663SOL     OW 8887   2.683   3.986   6.707
 2663SOL    HW1 8888   2.772   4.028   6.726
 2663SOL    HW2 8889   2.686   3.889   6.729
 2664SOL     OW 8890   4.397   3.748   5.583
 2664SOL    HW1 8891   4.440   3.659   5.570
 2664SOL    HW2 8892   4.405   3.775   5.680
 2665SOL     OW 8893   2.549   2.767   5.291
 2665SOL    HW1 8894   2.638   2.729   5.265
 2665SOL    HW2 8895   2.538   2.857   5.250
 2666SOL     OW 8896   5.707   5.182   1.215
 2666SOL    HW1 8897   5.753   5.098   1.243
 2666SOL    HW2 8898   5.620   5.160   1.172
 2667SOL     OW 8899   0.145   5.798   4.288
 2667SOL    HW1 8900   0.110   5.884   4.251
 2667SOL    HW2 8901   0.189   5.746   4.215
 2668SOL     OW 8902   0.293   3.216   4.987
 2668SOL    HW1 8903   0.343   3.245   4.905
 2668SOL    HW2 8904   0.202   3.183   4.961
 2669SOL     OW 8905   2.724   4.443   5.389
 2669SOL    HW1 8906   2.785   4.456   5.312
 2669SOL    HW2 8907   2.641   4.395   5.359
 2670SOL     OW 8908   5.774   3.103   6.046
 2670SOL    HW1 8909   5.703   3.165   6.081
 2670SOL    HW2 8910   5.861   3.151   6.042
 2671SOL     OW 8911   4.464   5.339   6.054
 2671SOL    HW1 8912   4.519   5.328   6.137
 2671SOL    HW2 8913   4.466   5.255   6.000
 2672SOL     OW 8914   1.755   5.060   0.503
 2672SOL    HW1 8915   1.830   5.066   0.569
 2672SOL    HW2 8916   1.670   5.090   0.546
 2673SOL     OW 8917   5.601   1.062   2.594
 2673SOL    HW1 8918   5.633   1.157   2.595
 2673SOL    HW2 8919   5.675   1.003   2.560
 2674SOL     OW 8920   1.230   4.243   3.787
 2674SOL    HW1 8921   1.317   4.196   3.798
 2674SOL    HW2 8922   1.247   4.338   3.759
 2675SOL     OW 8923   6.172   5.129   3.996
 2675SOL    HW1 8924   6.227   5.068   3.939
 2675SOL    HW2 8925   6.183   5.103   4.092
 2676SOL     OW 8926   3.420   2.547   1.003
 2676SOL    HW1 8927   3.510   2.525   1.040
 2676SOL    HW2 8928   3.425   2.631   0.949
 2677SOL     OW 8929   2.762   3.746   0.621
 2677SOL    HW1 8930   2.729   3.717   0.712
 2677SOL    HW2 8931   2.775   3.665   0.564
 2678SOL     OW 8932   0.081   2.632   1.403
 2678SOL    HW1 8933   0.016   2.606   1.331
 2678SOL    HW2 8934   0.174   2.614   1.372
 2679SOL     OW 8935   2.844   4.181   1.119
 2679SOL    HW1 8936   2.782   4.223   1.185
 2679SOL    HW2 8937   2.939   4.195   1.149
 2680SOL     OW 8938   1.120   1.792   0.074
 2680SOL    HW1 8939   1.029   1.802   0.033
 2680SOL    HW2 8940   1.111   1.779   0.172
 2681SOL     OW 8941   1.177   2.762   4.260
 2681SOL    HW1 8942   1.085   2.766   4.222
 2681SOL    HW2 8943   1.175   2.787   4.357
 2682SOL     OW 8944   4.843   4.008   2.713
 2682SOL    HW1 8945   4.776   4.076   2.744
 2682SOL    HW2 8946   4.924   4.012   2.771
 2683SOL     OW 8947   2.625   4.967   1.389
 2683SOL    HW1 8948   2.682   4.885   1.395
 2683SOL    HW2 8949   2.539   4.953   1.438
 2684SOL     OW 8950   4.157   5.353   2.009
 2684SOL    HW1 8951   4.182   5.394   2.097
 2684SOL    HW2 8952   4.095   5.414   1.960
 2685SOL     OW 8953   5.716   6.462   6.522
 2685SOL    HW1 8954   5.793   6.449   6.584
 2685SOL    HW2 8955   5.641   6.401   6.548
 2686SOL     OW 8956   2.181   2.067   5.844
 2686SOL    HW1 8957   2.209   2.161   5.864
 2686SOL    HW2 8958   2.223   2.038   5.758
 2687SOL     OW 8959   5.087   4.678   1.376
 2687SOL    HW1 8960   5.055   4.712   1.464
 2687SOL    HW2 8961   5.009   4.647   1.321
 2688SOL     OW 8962   3.710   3.818   0.131
 2688SOL    HW1 8963   3.720   3.740   0.070
 2688SOL    HW2 8964   3.614   3.829   0.157
 2689SOL     OW 8965   1.554   3.868   3.665
 2689SOL    HW1 8966   1.474   3.875   3.607
 2689SOL    HW2 8967   1.637   3.863   3.609
 2690SOL     OW 8968   3.648   2.919   4.287
 2690SOL    HW1 8969   3.583   2.915   4.211
 2690SOL    HW2 8970   3.598   2.903   4.373
 2691SOL     OW 8971   1.894   5.550   2.759
 2691SOL    HW1 8972   1.843   5.513   2.837
 2691SOL    HW2 8973   1.991   5.555   2.782
 2692SOL     OW 8974   3.195   5.453   2.815
 2692SOL    HW1 8975   3.104   5.492   2.800
 2692SOL    HW2 8976   3.187   5.365   2.861
 2693SOL     OW 8977   2.027   5.399   3.432
 2693SOL    HW1 8978   2.043   5.309   3.393
 2693SOL    HW2 8979   1.959   5.392   3.505
 2694SOL     OW 8980   3.833   5.817   2.946
 2694SOL    HW1 8981   3.796   5.725   2.956
 2694SOL    HW2 8982   3.880   5.825   2.858
 2695SOL     OW 8983   5.864   0.160   2.206
 2695SOL    HW1 8984   5.941   0.178   2.268
 2695SOL    HW2 8985   5.860   0.062   2.187
 2696SOL     OW 8986   3.974   3.169   5.630
 2696SOL    HW1 8987   4.074   3.163   5.635
 2696SOL    HW2 8988   3.934   3.084   5.663
 2697SOL     OW 8989   3.548   1.314   2.635
 2697SOL    HW1 8990   3.467   1.354   2.677
 2697SOL    HW2 8991   3.559   1.220   2.667
 2698SOL     OW 8992   1.929   6.302   0.125
 2698SOL    HW1 8993   1.922   6.275   0.221
 2698SOL    HW2 8994   1.990   6.240   0.077
 2699SOL     OW 8995   2.375   6.459   0.786
 2699SOL    HW1 8996   2.304   6.481   0.720
 2699SOL    HW2 8997   2.413   6.369   0.765
 2700SOL     OW 8998   2.500   3.442   0.089
 2700SOL    HW1 8999   2.562   3.452   0.011
 2700SOL    HW2 9000   2.470   3.532   0.120
 2701SOL     OW 9001   5.576   1.483   5.657
 2701SOL    HW1 9002   5.613   1.450   5.744
 2701SOL    HW2 9003   5.498   1.426   5.630
 2702SOL     OW 9004   0.275   2.678   3.475
 2702SOL    HW1 9005   0.247   2.751   3.413
 2702SOL    HW2 9006   0.291   2.715   3.566
 2703SOL     OW 9007   1.169   6.780   1.381
 2703SOL    HW1 9008   1.112   6.834   1.443
 2703SOL    HW2 9009   1.213   6.707   1.433
 2704SOL     OW 9010   0.187   5.574   1.593
 2704SOL    HW1 9011   0.091   5.582   1.621
 2704SOL    HW2 9012   0.224   5.488   1.627
 2705SOL     OW 9013   6.707   5.421   4.966
 2705SOL    HW1 9014   6.793   5.451   5.007
 2705SOL    HW2 9015   6.705   5.321   4.963
 2706SOL     OW 9016   6.882   5.481   1.952
 2706SOL    HW1 9017   6.785   5.498   1.965
 2706SOL    HW2 9018   6.912   5.521   1.865
 2707SOL     OW 9019   3.807   0.133   4.205
 2707SOL    HW1 9020   3.722   0.082   4.190
 2707SOL    HW2 9021   3.882   0.069   4.223
 2708SOL     OW 9022   0.627   2.598   0.052
 2708SOL    HW1 9023   0.570   2.550   7.013
 2708SOL    HW2 9024   0.651   2.534   0.126
 2709SOL     OW 9025   5.323   0.225   0.229
 2709SOL    HW1 9026   5.288   0.286   0.158
 2709SOL    HW2 9027   5.278   0.136   0.223
 2710SOL     OW 9028   0.517   3.882   3.752
 2710SOL    HW1 9029   0.595   3.879   3.689
 2710SOL    HW2 9030   0.434   3.904   3.701
 2711SOL     OW 9031   2.509   0.460   3.725
 2711SOL    HW1 9032   2.440   0.474   3.796
 2711SOL    HW2 9033   2.585   0.406   3.762
 2712SOL     OW 9034   3.127   4.580   1.123
 2712SOL    HW1 9035   3.094   4.543   1.210
 2712SOL    HW2 9036   3.204   4.524   1.091
 2713SOL     OW 9037   2.448   2.657   4.928
 2713SOL    HW1 9038   2.447   2.744   4.978
 2713SOL    HW2 9039   2.541   2.638   4.895
 2714SOL     OW 9040   3.612   2.660   0.107
 2714SOL    HW1 9041   3.562   2.618   0.183
 2714SOL    HW2 9042   3.588   2.614   0.022
 2715SOL     OW 9043   5.127   1.579   0.846
 2715SOL    HW1 9044   5.049   1.576   0.783
 2715SOL    HW2 9045   5.094   1.572   0.940
 2716SOL     OW 9046   5.019   3.839   2.367
 2716SOL    HW1 9047   5.010   3.752   2.319
 2716SOL    HW2 9048   5.062   3.823   2.457
 2717SOL     OW 9049   0.811   6.444   2.586
 2717SOL    HW1 9050   0.907   6.426   2.610
 2717SOL    HW2 9051   0.756   6.446   2.669
 2718SOL     OW 9052   1.457   1.992   4.914
 2718SOL    HW1 9053   1.493   1.930   4.844
 2718SOL    HW2 9054   1.477   1.956   5.005
 2719SOL     OW 9055   0.169   5.169   1.515
 2719SOL    HW1 9056   0.079   5.183   1.556
 2719SOL    HW2 9057   0.232   5.238   1.550
 2720SOL     OW 9058   2.009   5.453   2.027
 2720SOL    HW1 9059   1.911   5.476   2.025
 2720SOL    HW2 9060   2.062   5.533   1.999
 2721SOL     OW 9061   2.896   0.145   3.339
 2721SOL    HW1 9062   2.815   0.183   3.294
 2721SOL    HW2 9063   2.975   0.152   3.278
 2722SOL     OW 9064   6.667   5.275   0.601
 2722SOL    HW1 9065   6.601   5.326   0.546
 2722SOL    HW2 9066   6.754   5.324   0.602
 2723SOL     OW 9067   0.732   0.311   6.526
 2723SOL    HW1 9068   0.795   0.294   6.449
 2723SOL    HW2 9069   0.756   0.397   6.570
 2724SOL     OW 9070   2.044   6.763   7.000
 2724SOL    HW1 9071   2.014   6.668   7.014
 2724SOL    HW2 9072   1.978   6.810   6.941
 2725SOL     OW 9073   5.159   4.536   4.288
 2725SOL    HW1 9074   5.074   4.491   4.260
 2725SOL    HW2 9075   5.139   4.612   4.349
 2726SOL     OW 9076   0.359   2.711   0.733
 2726SOL    HW1 9077   0.274   2.661   0.718
 2726SOL    HW2 9078   0.409   2.668   0.808
 2727SOL     OW 9079   0.180   5.130   2.873
 2727SOL    HW1 9080   0.234   5.214   2.881
 2727SOL    HW2 9081   0.139   5.108   2.962
 2728SOL     OW 9082   4.964   6.617   5.672
 2728SOL    HW1 9083   4.919   6.621   5.582
 2728SOL    HW2 9084   4.998   6.708   5.696
 2729SOL     OW 9085   6.853   6.260   0.599
 2729SOL    HW1 9086   6.768   6.310   0.584
 2729SOL    HW2 9087   6.851   6.217   0.689
 2730SOL     OW 9088   2.125   5.899   1.397
 2730SOL    HW1 9089   2.141   5.816   1.452
 2730SOL    HW2 9090   2.055   5.879   1.328
 2731SOL     OW 9091   3.469   4.135   2.894
 2731SOL    HW1 9092   3.556   4.142   2.943
 2731SOL    HW2 9093   3.475   4.064   2.824
 2732SOL     OW 9094   5.516   2.150   1.794
 2732SOL    HW1 9095   5.484   2.056   1.793
 2732SOL    HW2 9096   5.492   2.194   1.707
 2733SOL     OW 9097   6.636   1.689   4.394
 2733SOL    HW1 9098   6.732   1.663   4.383
 2733SOL    HW2 9099   6.630   1.786   4.416
 2734SOL     OW 9100   3.149   5.772   1.038
 2734SOL    HW1 9101   3.049   5.769   1.044
 2734SOL    HW2 9102   3.175   5.789   0.943
 2735SOL     OW 9103   1.384   3.541   1.925
 2735SOL    HW1 9104   1.434   3.613   1.878
 2735SOL    HW2 9105   1.313   3.581   1.983
 2736SOL     OW 9106   5.875   6.637   4.833
 2736SOL    HW1 9107   5.955   6.682   4.873
 2736SOL    HW2 9108   5.879   6.539   4.853
 2737SOL     OW 9109   3.292   3.359   5.874
 2737SOL    HW1 9110   3.259   3.451   5.894
 2737SOL    HW2 9111   3.224   3.311   5.819
 2738SOL     OW 9112   5.050   6.614   1.873
 2738SOL    HW1 9113   4.978   6.565   1.924
 2738SOL    HW2 9114   5.007   6.681   1.813
 2739SOL     OW 9115   0.963   4.317   1.478
 2739SOL    HW1 9116   0.990   4.341   1.571
 2739SOL    HW2 9117   1.039   4.273   1.430
 2740SOL     OW 9118   0.291   3.876   2.392
 2740SOL    HW1 9119   0.256   3.786   2.365
 2740SOL    HW2 9120   0.257   3.898   2.483
 2741SOL     OW 9121   6.218   0.642   4.839
 2741SOL    HW1 9122   6.212   0.733   4.798
 2741SOL    HW2 9123   6.126   0.608   4.858
 2742SOL     OW 9124   2.241   5.497   0.122
 2742SOL    HW1 9125   2.175   5.566   0.096
 2742SOL    HW2 9126   2.333   5.526   0.094
 2743SOL     OW 9127   6.233   4.829   2.479
 2743SOL    HW1 9128   6.144   4.823   2.434
 2743SOL    HW2 9129   6.231   4.902   2.548
 2744SOL     OW 9130   4.692   2.070   6.658
 2744SOL    HW1 9131   4.727   2.162   6.677
 2744SOL    HW2 9132   4.737   2.034   6.577
 2745SOL     OW 9133   6.820   0.353   5.875
 2745SOL    HW1 9134   6.791   0.444   5.904
 2745SOL    HW2 9135   6.911   0.360   5.833
 2746SOL     OW 9136   2.699   1.529   4.234
 2746SOL    HW1 9137   2.610   1.513   4.192
 2746SOL    HW2 9138   2.753   1.445   4.232
 2747SOL     OW 9139   6.065   3.494   6.452
 2747SOL    HW1 9140   6.152   3.447   6.443
 2747SOL    HW2 9141   6.072   3.564   6.524
 2748SOL     OW 9142   4.606   1.519   1.523
 2748SOL    HW1 9143   4.693   1.524   1.572
 2748SOL    HW2 9144   4.623   1.524   1.425
 2749SOL     OW 9145   7.028   4.673   2.325
 2749SOL    HW1 9146   0.085   4.669   2.272
 2749SOL    HW2 9147   0.018   4.644   2.419
 2750SOL     OW 9148   0.471   5.132   0.993
 2750SOL    HW1 9149   0.542   5.125   0.923
 2750SOL    HW2 9150   0.514   5.140   1.083
 2751SOL     OW 9151   0.919   5.066   1.157
 2751SOL    HW1 9152   0.949   4.971   1.153
 2751SOL    HW2 9153   0.819   5.070   1.152
 2752SOL     OW 9154   4.096   5.676   5.678
 2752SOL    HW1 9155   4.050   5.692   5.591
 2752SOL    HW2 9156   4.148   5.757   5.704
 2753SOL     OW 9157   0.247   6.381   5.684
 2753SOL    HW1 9158   0.251   6.282   5.691
 2753SOL    HW2 9159   0.255   6.409   5.588
 2754SOL     OW 9160   0.465   0.277   2.071
 2754SOL    HW1 9161   0.479   0.369   2.107
 2754SOL    HW2 9162   0.552   0.228   2.070
 2755SOL     OW 9163   2.220   6.946   2.921
 2755SOL    HW1 9164   2.312   6.982   2.936
 2755SOL    HW2 9165   2.226   6.860   2.871
 2756SOL     OW 9166   5.906   4.627   6.616
 2756SOL    HW1 9167   5.899   4.541   6.667
 2756SOL    HW2 9168   5.816   4.672   6.614
 2757SOL     OW 9169   2.955   0.062   0.029
 2757SOL    HW1 9170   2.937   0.083   0.125
 2757SOL    HW2 9171   2.879   0.008   7.020
 2758SOL     OW 9172   3.887   6.051   4.110
 2758SOL    HW1 9173   3.876   5.958   4.147
 2758SOL    HW2 9174   3.875   6.049   4.011
 2759SOL     OW 9175   6.110   6.437   5.275
 2759SOL    HW1 9176   6.017   6.424   5.239
 2759SOL    HW2 9177   6.140   6.531   5.255
 2760SOL     OW 9178   1.000   5.596   2.199
 2760SOL    HW1 9179   1.039   5.632   2.114
 2760SOL    HW2 9180   1.075   5.566   2.259
 2761SOL     OW 9181   1.974   5.355   5.510
 2761SOL    HW1 9182   2.068   5.331   5.535
 2761SOL    HW2 9183   1.973   5.397   5.419
 2762SOL     OW 9184   1.441   0.885   4.852
 2762SOL    HW1 9185   1.346   0.879   4.823
 2762SOL    HW2 9186   1.465   0.981   4.867
 2763SOL     OW 9187   4.739   2.036   3.778
 2763SOL    HW1 9188   4.703   2.082   3.697
 2763SOL    HW2 9189   4.682   1.956   3.800
 2764SOL     OW 9190   6.236   0.816   1.579
 2764SOL    HW1 9191   6.333   0.827   1.601
 2764SOL    HW2 9192   6.180   0.854   1.653
 2765SOL     OW 9193   6.424   6.707   0.480
 2765SOL    HW1 9194   6.407   6.741   0.573
 2765SOL    HW2 9195   6.346   6.652   0.450
 2766SOL     OW 9196   5.127   2.884   0.648
 2766SOL    HW1 9197   5.091   2.811   0.707
 2766SOL    HW2 9198   5.223   2.900   0.669
 2767SOL     OW 9199   6.283   5.532   6.766
 2767SOL    HW1 9200   6.376   5.561   6.784
 2767SOL    HW2 9201   6.284   5.451   6.707
 2768SOL     OW 9202   4.593   0.639   1.296
 2768SOL    HW1 9203   4.665   0.571   1.287
 2768SOL    HW2 9204   4.623   0.725   1.255
 2769SOL     OW 9205   1.861   4.891   4.973
 2769SOL    HW1 9206   1.936   4.885   5.039
 2769SOL    HW2 9207   1.846   4.986   4.947
 2770SOL     OW 9208   3.854   5.929   6.254
 2770SOL    HW1 9209   3.896   5.904   6.341
 2770SOL    HW2 9210   3.923   5.928   6.182
 2771SOL     OW 9211   6.242   0.776   3.599
 2771SOL    HW1 9212   6.335   0.798   3.629
 2771SOL    HW2 9213   6.232   0.677   3.592
 2772SOL     OW 9214   3.834   2.012   1.064
 2772SOL    HW1 9215   3.744   1.976   1.088
 2772SOL    HW2 9216   3.864   2.075   1.135
 2773SOL     OW 9217   6.246   2.346   5.215
 2773SOL    HW1 9218   6.241   2.375   5.119
 2773SOL    HW2 9219   6.336   2.308   5.234
 2774SOL     OW 9220   5.733   2.487   2.958
 2774SOL    HW1 9221   5.815   2.545   2.963
 2774SOL    HW2 9222   5.658   2.539   2.917
 2775SOL     OW 9223   6.448   4.841   5.751
 2775SOL    HW1 9224   6.395   4.864   5.833
 2775SOL    HW2 9225   6.413   4.756   5.712
 2776SOL     OW 9226   4.625   4.876   5.797
 2776SOL    HW1 9227   4.560   4.826   5.740
 2776SOL    HW2 9228   4.715   4.832   5.793
 2777SOL     OW 9229   2.959   1.715   1.390
 2777SOL    HW1 9230   3.036   1.736   1.331
 2777SOL    HW2 9231   2.968   1.764   1.477
 2778SOL     OW 9232   1.774   0.333   5.458
 2778SOL    HW1 9233   1.847   0.265   5.462
 2778SOL    HW2 9234   1.771   0.384   5.544
 2779SOL     OW 9235   4.861   6.784   1.733
 2779SOL    HW1 9236   4.789   6.817   1.795
 2779SOL    HW2 9237   4.829   6.792   1.639
 2780SOL     OW 9238   0.225   6.633   0.077
 2780SOL    HW1 9239   0.190   6.642   7.012
 2780SOL    HW2 9240   0.228   6.536   0.102
 2781SOL     OW 9241   5.367   6.987   1.827
 2781SOL    HW1 9242   5.285   7.020   1.781
 2781SOL    HW2 9243   5.423   6.935   1.763
 2782SOL     OW 9244   5.148   2.206   5.911
 2782SOL    HW1 9245   5.236   2.205   5.958
 2782SOL    HW2 9246   5.143   2.285   5.850
 2783SOL     OW 9247   5.337   4.199   2.991
 2783SOL    HW1 9248   5.298   4.192   2.900
 2783SOL    HW2 9249   5.263   4.199   3.059
 2784SOL     OW 9250   3.288   1.483   2.336
 2784SOL    HW1 9251   3.271   1.384   2.334
 2784SOL    HW2 9252   3.261   1.519   2.425
 2785SOL     OW 9253   4.850   2.886   0.802
 2785SOL    HW1 9254   4.889   2.977   0.788
 2785SOL    HW2 9255   4.785   2.865   0.729
 2786SOL     OW 9256   4.824   6.934   2.574
 2786SOL    HW1 9257   4.890   6.925   2.501
 2786SOL    HW2 9258   4.743   6.879   2.553
 2787SOL     OW 9259   5.031   0.678   5.940
 2787SOL    HW1 9260   4.970   0.700   6.016
 2787SOL    HW2 9261   5.015   0.743   5.866
 2788SOL     OW 9262   2.120   5.326   5.860
 2788SOL    HW1 9263   2.148   5.393   5.791
 2788SOL    HW2 9264   2.020   5.318   5.859
 2789SOL     OW 9265   1.638   2.452   3.591
 2789SOL    HW1 9266   1.579   2.494   3.522
 2789SOL    HW2 9267   1.635   2.353   3.582
 2790SOL     OW 9268   3.851   5.836   2.253
 2790SOL    HW1 9269   3.878   5.740   2.262
 2790SOL    HW2 9270   3.780   5.857   2.320
 2791SOL     OW 9271   0.300   2.865   3.057
 2791SOL    HW1 9272   0.285   2.767   3.072
 2791SOL    HW2 9273   0.283   2.915   3.141
 2792SOL     OW 9274   1.596   6.709   3.888
 2792SOL    HW1 9275   1.610   6.760   3.803
 2792SOL    HW2 9276   1.675   6.723   3.948
 2793SOL     OW 9277   5.826   4.159   1.570
 2793SOL    HW1 9278   5.766   4.087   1.604
 2793SOL    HW2 9279   5.893   4.182   1.641
 2794SOL     OW 9280   0.217   2.510   6.556
 2794SOL    HW1 9281   0.294   2.573   6.562
 2794SOL    HW2 9282   0.178   2.514   6.464
 2795SOL     OW 9283   0.710   2.849   0.804
 2795SOL    HW1 9284   0.711   2.903   0.889
 2795SOL    HW2 9285   0.626   2.870   0.753
 2796SOL     OW 9286   0.381   6.172   3.504
 2796SOL    HW1 9287   0.341   6.131   3.586
 2796SOL    HW2 9288   0.420   6.261   3.528
 2797SOL     OW 9289   4.497   5.324   5.156
 2797SOL    HW1 9290   4.544   5.235   5.159
 2797SOL    HW2 9291   4.418   5.317   5.096
 2798SOL     OW 9292   0.460   5.245   1.958
 2798SOL    HW1 9293   0.462   5.241   2.058
 2798SOL    HW2 9294   0.382   5.193   1.924
 2799SOL     OW 9295   5.978   5.312   6.290
 2799SOL    HW1 9296   5.960   5.406   6.262
 2799SOL    HW2 9297   6.013   5.310   6.383
 2800SOL     OW 9298   4.749   6.552   6.965
 2800SOL    HW1 9299   4.779   6.496   6.888
 2800SOL    HW2 9300   4.650   6.560   6.965
 2801SOL     OW 9301   6.905   5.990   6.025
 2801SOL    HW1 9302   6.966   6.067   6.006
 2801SOL    HW2 9303   6.959   5.909   6.047
 2802SOL     OW 9304   5.570   6.730   5.324
 2802SOL    HW1 9305   5.490   6.757   5.270
 2802SOL    HW2 9306   5.571   6.782   5.409
 2803SOL     OW 9307   4.180   5.706   6.282
 2803SOL    HW1 9308   4.243   5.646   6.331
 2803SOL    HW2 9309   4.113   5.744   6.347
 2804SOL     OW 9310   0.376   4.307   5.389
 2804SOL    HW1 9311   0.425   4.272   5.309
 2804SOL    HW2 9312   0.378   4.239   5.462
 2805SOL     OW 9313   6.139   3.397   2.067
 2805SOL    HW1 9314   6.145   3.477   2.007
 2805SOL    HW2 9315   6.219   3.339   2.054
 2806SOL     OW 9316   0.281   3.877   5.929
 2806SOL    HW1 9317   0.352   3.816   5.893
 2806SOL    HW2 9318   0.298   3.970   5.896
 2807SOL     OW 9319   3.660   6.462   3.916
 2807SOL    HW1 9320   3.711   6.542   3.948
 2807SOL    HW2 9321   3.698   6.431   3.829
 2808SOL     OW 9322   6.339   4.725   2.118
 2808SOL    HW1 9323   6.385   4.645   2.157
 2808SOL    HW2 9324   6.242   4.721   2.139
 2809SOL     OW 9325   5.762   2.750   1.219
 2809SOL    HW1 9326   5.749   2.767   1.121
 2809SOL    HW2 9327   5.704   2.674   1.247
 2810SOL     OW 9328   3.055   5.517   3.447
 2810SOL    HW1 9329   3.084   5.542   3.539
 2810SOL    HW2 9330   3.133   5.523   3.385
 2811SOL     OW 9331   1.022   1.898   3.749
 2811SOL    HW1 9332   1.038   1.807   3.709
 2811SOL    HW2 9333   1.084   1.964   3.708
 2812SOL     OW 9334   5.349   2.655   6.808
 2812SOL    HW1 9335   5.349   2.580   6.742
 2812SOL    HW2 9336   5.443   2.689   6.819
 2813SOL     OW 9337   0.504   0.294   6.669
 2813SOL    HW1 9338   0.581   0.275   6.609
 2813SOL    HW2 9339   0.420   0.257   6.629
 2814SOL     OW 9340   4.118   3.723   5.515
 2814SOL    HW1 9341   4.207   3.713   5.560
 2814SOL    HW2 9342   4.046   3.690   5.576
 2815SOL     OW 9343   6.555   6.607   6.466
 2815SOL    HW1 9344   6.534   6.612   6.369
 2815SOL    HW2 9345   6.632   6.545   6.481
 2816SOL     OW 9346   6.360   5.025   3.582
 2816SOL    HW1 9347   6.438   5.016   3.645
 2816SOL    HW2 9348   6.363   5.114   3.537
 2817SOL     OW 9349   3.045   6.772   1.924
 2817SOL    HW1 9350   2.965   6.808   1.972
 2817SOL    HW2 9351   3.021   6.755   1.828
 2818SOL     OW 9352   0.394   0.354   1.788
 2818SOL    HW1 9353   0.420   0.448   1.764
 2818SOL    HW2 9354   0.428   0.332   1.880
 2819SOL     OW 9355   1.639   0.694   2.148
 2819SOL    HW1 9356   1.589   0.775   2.181
 2819SOL    HW2 9357   1.580   0.639   2.090
 2820SOL     OW 9358   0.628   2.459   3.212
 2820SOL    HW1 9359   0.649   2.479   3.308
 2820SOL    HW2 9360   0.686   2.515   3.153
 2821SOL     OW 9361   3.757   4.224   6.083
 2821SOL    HW1 9362   3.658   4.215   6.072
 2821SOL    HW2 9363   3.781   4.208   6.179
 2822SOL     OW 9364   4.116   2.522   0.656
 2822SOL    HW1 9365   4.177   2.594   0.624
 2822SOL    HW2 9366   4.025   2.535   0.615
 2823SOL     OW 9367   4.882   0.923   0.941
 2823SOL    HW1 9368   4.894   0.921   1.040
 2823SOL    HW2 9369   4.792   0.886   0.917
 2824SOL     OW 9370   1.919   1.684   3.598
 2824SOL    HW1 9371   2.016   1.686   3.621
 2824SOL    HW2 9372   1.907   1.654   3.504
 2825SOL     OW 9373   5.130   6.751   6.669
 2825SOL    HW1 9374   5.071   6.786   6.742
 2825SOL    HW2 9375   5.156   6.657   6.690
 2826SOL     OW 9376   5.074   1.113   0.027
 2826SOL    HW1 9377   5.039   1.049   6.987
 2826SOL    HW2 9378   5.001   1.138   0.091
 2827SOL     OW 9379   1.065   1.555   6.530
 2827SOL    HW1 9380   0.979   1.569   6.578
 2827SOL    HW2 9381   1.115   1.479   6.572
 2828SOL     OW 9382   2.562   1.487   0.546
 2828SOL    HW1 9383   2.561   1.496   0.645
 2828SOL    HW2 9384   2.556   1.578   0.504
 2829SOL     OW 9385   2.918   3.591   4.581
 2829SOL    HW1 9386   2.940   3.504   4.536
 2829SOL    HW2 9387   2.905   3.574   4.679
 2830SOL     OW 9388   2.473   3.618   6.132
 2830SOL    HW1 9389   2.508   3.691   6.192
 2830SOL    HW2 9390   2.448   3.657   6.043
 2831SOL     OW 9391   0.850   4.393   3.602
 2831SOL    HW1 9392   0.756   4.398   3.634
 2831SOL    HW2 9393   0.904   4.466   3.645
 2832SOL     OW 9394   1.077   3.347   1.992
 2832SOL    HW1 9395   1.103   3.347   2.088
 2832SOL    HW2 9396   1.143   3.292   1.940
 2833SOL     OW 9397   2.775   2.081   2.390
 2833SOL    HW1 9398   2.747   2.120   2.477
 2833SOL    HW2 9399   2.849   2.136   2.351
 2834SOL     OW 9400   4.404   5.960   6.153
 2834SOL    HW1 9401   4.382   6.056   6.137
 2834SOL    HW2 9402   4.422   5.915   6.066
 2835SOL     OW 9403   0.486   6.184   1.383
 2835SOL    HW1 9404   0.425   6.233   1.445
 2835SOL    HW2 9405   0.473   6.217   1.290
 2836SOL     OW 9406   0.198   6.291   2.298
 2836SOL    HW1 9407   0.239   6.263   2.385
 2836SOL    HW2 9408   0.211   6.390   2.285
 2837SOL     OW 9409   4.671   4.925   2.351
 2837SOL    HW1 9410   4.664   4.825   2.355
 2837SOL    HW2 9411   4.590   4.962   2.306
 2838SOL     OW 9412   3.589   3.803   0.521
 2838SOL    HW1 9413   3.494   3.784   0.548
 2838SOL    HW2 9414   3.646   3.723   0.540
 2839SOL     OW 9415   6.754   2.006   2.756
 2839SOL    HW1 9416   6.776   2.004   2.659
 2839SOL    HW2 9417   6.674   1.948   2.774
 2840SOL     OW 9418   1.439   0.334   2.607
 2840SOL    HW1 9419   1.360   0.377   2.652
 2840SOL    HW2 9420   1.480   0.398   2.543
 2841SOL     OW 9421   0.096   1.932   6.207
 2841SOL    HW1 9422   0.070   1.881   6.125
 2841SOL    HW2 9423   0.187   1.904   6.236
 2842SOL     OW 9424   6.984   4.063   3.556
 2842SOL    HW1 9425   6.928   4.023   3.629
 2842SOL    HW2 9426   0.052   4.059   3.581
 2843SOL     OW 9427   2.222   2.005   3.183
 2843SOL    HW1 9428   2.185   2.021   3.275
 2843SOL    HW2 9429   2.253   2.092   3.144
 2844SOL     OW 9430   6.318   5.259   6.620
 2844SOL    HW1 9431   6.390   5.266   6.552
 2844SOL    HW2 9432   6.275   5.169   6.613
 2845SOL     OW 9433   5.530   3.203   2.144
 2845SOL    HW1 9434   5.432   3.185   2.144
 2845SOL    HW2 9435   5.579   3.122   2.176
 2846SOL     OW 9436   4.415   1.206   0.506
 2846SOL    HW1 9437   4.479   1.209   0.429
 2846SOL    HW2 9438   4.364   1.291   0.510
 2847SOL     OW 9439   5.335   4.022   3.274
 2847SOL    HW1 9440   5.263   4.080   3.236
 2847SOL    HW2 9441   5.415   4.078   3.296
 2848SOL     OW 9442   1.859   3.056   5.566
 2848SOL    HW1 9443   1.766   3.019   5.569
 2848SOL    HW2 9444   1.905   3.023   5.484
 2849SOL     OW 9445   4.659   0.270   0.648
 2849SOL    HW1 9446   4.745   0.224   0.667
 2849SOL    HW2 9447   4.648   0.285   0.550
 2850SOL     OW 9448   2.035   6.801   2.632
 2850SOL    HW1 9449   2.020   6.800   2.731
 2850SOL    HW2 9450   1.947   6.797   2.584
 2851SOL     OW 9451   5.714   1.906   5.781
 2851SOL    HW1 9452   5.763   1.906   5.694
 2851SOL    HW2 9453   5.754   1.975   5.842
 2852SOL     OW 9454   6.545   3.789   6.887
 2852SOL    HW1 9455   6.597   3.808   6.804
 2852SOL    HW2 9456   6.448   3.784   6.866
 2853SOL     OW 9457   2.062   1.292   6.500
 2853SOL    HW1 9458   2.035   1.387   6.485
 2853SOL    HW2 9459   2.014   1.233   6.436
 2854SOL     OW 9460   4.790   0.702   5.030
 2854SOL    HW1 9461   4.714   0.740   5.083
 2854SOL    HW2 9462   4.870   0.761   5.039
 2855SOL     OW 9463   2.194   2.368   5.931
 2855SOL    HW1 9464   2.266   2.422   5.888
 2855SOL    HW2 9465   2.106   2.416   5.921
 2856SOL     OW 9466   0.385   3.644   5.627
 2856SOL    HW1 9467   0.341   3.585   5.695
 2856SOL    HW2 9468   0.415   3.589   5.550
 2857SOL     OW 9469   2.131   2.994   2.005
 2857SOL    HW1 9470   2.191   2.927   1.962
 2857SOL    HW2 9471   2.146   2.994   2.104
 2858SOL     OW 9472   4.581   4.472   1.786
 2858SOL    HW1 9473   4.524   4.408   1.838
 2858SOL    HW2 9474   4.527   4.550   1.757
 2859SOL     OW 9475   5.176   0.650   6.691
 2859SOL    HW1 9476   5.201   0.696   6.606
 2859SOL    HW2 9477   5.145   0.717   6.758
 2860SOL     OW 9478   2.180   2.326   1.747
 2860SOL    HW1 9479   2.259   2.298   1.693
 2860SOL    HW2 9480   2.201   2.317   1.845
 2861SOL     OW 9481   3.589   5.222   5.635
 2861SOL    HW1 9482   3.639   5.211   5.550
 2861SOL    HW2 9483   3.628   5.162   5.705
 2862SOL     OW 9484   4.917   2.077   2.351
 2862SOL    HW1 9485   4.962   1.993   2.320
 2862SOL    HW2 9486   4.840   2.053   2.411
 2863SOL     OW 9487   4.439   1.505   6.928
 2863SOL    HW1 9488   4.526   1.549   6.903
 2863SOL    HW2 9489   4.379   1.572   6.970
 2864SOL     OW 9490   4.044   1.539   2.197
 2864SOL    HW1 9491   3.958   1.587   2.214
 2864SOL    HW2 9492   4.120   1.594   2.232
 2865SOL     OW 9493   3.993   6.324   5.971
 2865SOL    HW1 9494   3.989   6.250   5.904
 2865SOL    HW2 9495   4.085   6.363   5.972
 2866SOL     OW 9496   5.994   5.396   6.562
 2866SOL    HW1 9497   5.959   5.330   6.628
 2866SOL    HW2 9498   5.996   5.487   6.604
 2867SOL     OW 9499   7.017   6.353   3.537
 2867SOL    HW1 9500   6.987   6.263   3.569
 2867SOL    HW2 9501   0.066   6.385   3.592
 2868SOL     OW 9502   2.029   1.310   5.179
 2868SOL    HW1 9503   2.016   1.389   5.239
 2868SOL    HW2 9504   1.944   1.291   5.131
 2869SOL     OW 9505   6.827   0.932   3.208
 2869SOL    HW1 9506   6.912   0.985   3.205
 2869SOL    HW2 9507   6.795   0.925   3.302
 2870SOL     OW 9508   0.760   1.759   5.469
 2870SOL    HW1 9509   0.756   1.664   5.499
 2870SOL    HW2 9510   0.832   1.807   5.519
 2871SOL     OW 9511   0.292   1.470   6.602
 2871SOL    HW1 9512   0.367   1.508   6.547
 2871SOL    HW2 9513   0.261   1.538   6.668
 2872SOL     OW 9514   2.572   2.116   2.054
 2872SOL    HW1 9515   2.535   2.043   2.111
 2872SOL    HW2 9516   2.672   2.120   2.066
 2873SOL     OW 9517   6.654   5.654   3.210
 2873SOL    HW1 9518   6.706   5.719   3.154
 2873SOL    HW2 9519   6.659   5.682   3.306
 2874SOL     OW 9520   5.104   0.088   3.443
 2874SOL    HW1 9521   5.139   0.117   3.355
 2874SOL    HW2 9522   5.038   0.014   3.430
 2875SOL     OW 9523   5.175   0.395   1.586
 2875SOL    HW1 9524   5.161   0.429   1.493
 2875SOL    HW2 9525   5.091   0.352   1.618
 2876SOL     OW 9526   1.962   6.938   2.190
 2876SOL    HW1 9527   1.880   6.889   2.160
 2876SOL    HW2 9528   2.033   6.872   2.215
 2877SOL     OW 9529   2.310   1.942   5.658
 2877SOL    HW1 9530   2.379   1.873   5.634
 2877SOL    HW2 9531   2.261   1.970   5.575
 2878SOL     OW 9532   3.929   4.314   5.310
 2878SOL    HW1 9533   3.862   4.241   5.298
 2878SOL    HW2 9534   4.021   4.275   5.315
 2879SOL     OW 9535   5.089   4.961   0.234
 2879SOL    HW1 9536   4.998   4.918   0.236
 2879SOL    HW2 9537   5.138   4.931   0.152
 2880SOL     OW 9538   0.089   1.290   2.626
 2880SOL    HW1 9539   0.187   1.288   2.605
 2880SOL    HW2 9540   0.042   1.350   2.561
 2881SOL     OW 9541   4.307   5.837   6.690
 2881SOL    HW1 9542   4.280   5.911   6.628
 2881SOL    HW2 9543   4.226   5.787   6.719
 2882SOL     OW 9544   6.858   5.786   2.136
 2882SOL    HW1 9545   6.928   5.717   2.121
 2882SOL    HW2 9546   6.769   5.742   2.145
 2883SOL     OW 9547   6.221   0.376   3.540
 2883SOL    HW1 9548   6.185   0.437   3.470
 2883SOL    HW2 9549   6.269   0.299   3.497
 2884SOL     OW 9550   1.227   6.982   2.797
 2884SOL    HW1 9551   1.138   6.936   2.794
 2884SOL    HW2 9552   1.217   0.044   2.840
 2885SOL     OW 9553   1.640   3.627   3.753
 2885SOL    HW1 9554   1.608   3.721   3.746
 2885SOL    HW2 9555   1.674   3.609   3.846
 2886SOL     OW 9556   0.695   3.412   6.184
 2886SOL    HW1 9557   0.644   3.340   6.231
 2886SOL    HW2 9558   0.764   3.371   6.124
 2887SOL     OW 9559   0.871   0.939   5.687
 2887SOL    HW1 9560   0.795   0.877   5.708
 2887SOL    HW2 9561   0.886   1.000   5.765
 2888SOL     OW 9562   6.850   4.369   6.819
 2888SOL    HW1 9563   6.846   4.271   6.802
 2888SOL    HW2 9564   6.783   4.415   6.761
 2889SOL     OW 9565   2.983   6.433   2.362
 2889SOL    HW1 9566   3.007   6.422   2.265
 2889SOL    HW2 9567   2.892   6.397   2.379
 2890SOL     OW 9568   1.197   6.236   0.085
 2890SOL    HW1 9569   1.197   6.220   7.014
 2890SOL    HW2 9570   1.107   6.215   0.122
 2891SOL     OW 9571   1.084   4.703   3.425
 2891SOL    HW1 9572   1.173   4.732   3.460
 2891SOL    HW2 9573   1.093   4.616   3.378
 2892SOL     OW 9574   6.132   3.613   0.313
 2892SOL    HW1 9575   6.034   3.599   0.327
 2892SOL    HW2 9576   6.157   3.582   0.222
 2893SOL     OW 9577   6.809   5.354   4.016
 2893SOL    HW1 9578   6.811   5.423   4.088
 2893SOL    HW2 9579   6.734   5.289   4.034
 2894SOL     OW 9580   0.768   3.465   1.654
 2894SOL    HW1 9581   0.790   3.413   1.572
 2894SOL    HW2 9582   0.749   3.402   1.730
 2895SOL     OW 9583   5.111   2.408   5.729
 2895SOL    HW1 9584   5.092   2.430   5.633
 2895SOL    HW2 9585   5.106   2.492   5.783
 2896SOL     OW 9586   4.689   5.832   5.241
 2896SOL    HW1 9587   4.734   5.826   5.330
 2896SOL    HW2 9588   4.686   5.742   5.199
 2897SOL     OW 9589   3.742   4.893   3.128
 2897SOL    HW1 9590   3.643   4.906   3.139
 2897SOL    HW2 9591   3.778   4.842   3.206
 2898SOL     OW 9592   4.416   4.594   4.331
 2898SOL    HW1 9593   4.433   4.627   4.424
 2898SOL    HW2 9594   4.328   4.631   4.299
 2899SOL     OW 9595   0.679   2.104   0.060
 2899SOL    HW1 9596   0.713   2.090   0.153
 2899SOL    HW2 9597   0.721   2.186   0.021
 2900SOL     OW 9598   2.335   3.707   5.881
 2900SOL    HW1 9599   2.394   3.688   5.803
 2900SOL    HW2 9600   2.307   3.803   5.879
 2901SOL     OW 9601   2.775   5.109   3.179
 2901SOL    HW1 9602   2.776   5.032   3.243
 2901SOL    HW2 9603   2.818   5.188   3.222
 2902SOL     OW 9604   5.535   5.534   3.145
 2902SOL    HW1 9605   5.630   5.545   3.172
 2902SOL    HW2 9606   5.485   5.619   3.164
 2903SOL     OW 9607   3.269   6.963   0.763
 2903SOL    HW1 9608   3.352   6.909   0.750
 2903SOL    HW2 9609   3.189   6.905   0.752
 2904SOL     OW 9610   2.401   4.792   4.457
 2904SOL    HW1 9611   2.496   4.763   4.464
 2904SOL    HW2 9612   2.352   4.733   4.393
 2905SOL     OW 9613   1.331   2.386   4.786
 2905SOL    HW1 9614   1.239   2.413   4.758
 2905SOL    HW2 9615   1.325   2.322   4.862
 2906SOL     OW 9616   4.581   5.123   2.046
 2906SOL    HW1 9617   4.642   5.182   2.100
 2906SOL    HW2 9618   4.512   5.083   2.106
 2907SOL     OW 9619   1.112   0.974   3.072
 2907SOL    HW1 9620   1.036   0.983   3.008
 2907SOL    HW2 9621   1.135   0.877   3.083
 2908SOL     OW 9622   5.602   6.438   3.161
 2908SOL    HW1 9623   5.529   6.437   3.093
 2908SOL    HW2 9624   5.687   6.407   3.119
 2909SOL     OW 9625   1.341   5.620   3.791
 2909SOL    HW1 9626   1.414   5.553   3.781
 2909SOL    HW2 9627   1.275   5.589   3.859
 2910SOL     OW 9628   4.644   0.872   4.360
 2910SOL    HW1 9629   4.571   0.868   4.428
 2910SOL    HW2 9630   4.714   0.936   4.391
 2911SOL     OW 9631   0.906   5.656   3.672
 2911SOL    HW1 9632   0.830   5.669   3.608
 2911SOL    HW2 9633   0.984   5.618   3.624
 2912SOL     OW 9634   5.336   0.382   6.506
 2912SOL    HW1 9635   5.397   0.303   6.497
 2912SOL    HW2 9636   5.350   0.424   6.595
 2913SOL     OW 9637   3.101   5.219   1.870
 2913SOL    HW1 9638   3.047   5.137   1.888
 2913SOL    HW2 9639   3.116   5.269   1.955
 2914SOL     OW 9640   6.407   6.362   6.361
 2914SOL    HW1 9641   6.455   6.352   6.449
 2914SOL    HW2 9642   6.474   6.378   6.288
 2915SOL     OW 9643   3.907   2.007   3.694
 2915SOL    HW1 9644   3.905   1.920   3.744
 2915SOL    HW2 9645   3.979   2.065   3.731
 2916SOL     OW 9646   0.730   6.246   0.711
 2916SOL    HW1 9647   0.781   6.199   0.782
 2916SOL    HW2 9648   0.639   6.270   0.746
 2917SOL     OW 9649   2.434   1.148   3.370
 2917SOL    HW1 9650   2.530   1.131   3.391
 2917SOL    HW2 9651   2.403   1.084   3.300
 2918SOL     OW 9652   5.785   4.704   4.837
 2918SOL    HW1 9653   5.712   4.730   4.900
 2918SOL    HW2 9654   5.873   4.721   4.880
 2919SOL     OW 9655   5.510   0.748   2.617
 2919SOL    HW1 9656   5.461   0.704   2.542
 2919SOL    HW2 9657   5.606   0.761   2.591
 2920SOL     OW 9658   2.979   1.343   1.694
 2920SOL    HW1 9659   3.030   1.280   1.635
 2920SOL    HW2 9660   2.886   1.354   1.657
 2921SOL     OW 9661   0.982   0.042   4.713
 2921SOL    HW1 9662   0.922   7.017   4.772
 2921SOL    HW2 9663   1.075   0.007   4.720
 2922SOL     OW 9664   4.968   0.566   1.396
 2922SOL    HW1 9665   4.994   0.654   1.355
 2922SOL    HW2 9666   4.914   0.583   1.479
 2923SOL     OW 9667   6.170   5.018   2.680
 2923SOL    HW1 9668   6.256   5.026   2.731
 2923SOL    HW2 9669   6.125   5.107   2.678
 2924SOL     OW 9670   6.500   2.134   5.883
 2924SOL    HW1 9671   6.556   2.203   5.836
 2924SOL    HW2 9672   6.423   2.179   5.929
 2925SOL     OW 9673   4.742   1.222   2.267
 2925SOL    HW1 9674   4.803   1.227   2.188
 2925SOL    HW2 9675   4.670   1.155   2.250
 2926SOL     OW 9676   6.492   1.957   4.512
 2926SOL    HW1 9677   6.477   1.957   4.413
 2926SOL    HW2 9678   6.448   2.037   4.552
 2927SOL     OW 9679   1.641   4.347   1.177
 2927SOL    HW1 9680   1.658   4.379   1.270
 2927SOL    HW2 9681   1.728   4.334   1.129
 2928SOL     OW 9682   7.011   0.823   6.936
 2928SOL    HW1 9683   0.020   0.832   0.000
 2928SOL    HW2 9684   6.963   0.736   6.927
 2929SOL     OW 9685   1.201   2.193   0.012
 2929SOL    HW1 9686   1.166   2.115   6.987
 2929SOL    HW2 9687   1.151   2.276   7.014
 2930SOL     OW 9688   5.335   0.327   5.066
 2930SOL    HW1 9689   5.391   0.405   5.036
 2930SOL    HW2 9690   5.307   0.273   4.987
 2931SOL     OW 9691   5.790   4.621   6.993
 2931SOL    HW1 9692   5.837   4.616   0.053
 2931SOL    HW2 9693   5.758   4.715   6.978
 2932SOL     OW 9694   1.093   5.402   1.911
 2932SOL    HW1 9695   1.064   5.494   1.941
 2932SOL    HW2 9696   1.050   5.381   1.823
 2933SOL     OW 9697   0.343   5.359   2.897
 2933SOL    HW1 9698   0.319   5.429   2.830
 2933SOL    HW2 9699   0.443   5.355   2.907
 2934SOL     OW 9700   4.715   1.836   0.455
 2934SOL    HW1 9701   4.724   1.740   0.428
 2934SOL    HW2 9702   4.805   1.873   0.476
 2935SOL     OW 9703   6.971   2.847   0.084
 2935SOL    HW1 9704   0.013   2.869   0.151
 2935SOL    HW2 9705   6.977   2.910   0.007
 2936SOL     OW 9706   4.397   6.567   0.311
 2936SOL    HW1 9707   4.479   6.521   0.278
 2936SOL    HW2 9708   4.335   6.500   0.352
 2937SOL     OW 9709   4.846   4.519   1.094
 2937SOL    HW1 9710   4.934   4.509   1.047
 2937SOL    HW2 9711   4.862   4.525   1.192
 2938SOL     OW 9712   4.446   4.939   6.520
 2938SOL    HW1 9713   4.479   4.945   6.614
 2938SOL    HW2 9714   4.519   4.903   6.461
 2939SOL     OW 9715   1.981   0.568   2.823
 2939SOL    HW1 9716   2.040   0.504   2.872
 2939SOL    HW2 9717   1.917   0.518   2.766
 2940SOL     OW 9718   5.798   5.001   5.741
 2940SOL    HW1 9719   5.885   5.047   5.758
 2940SOL    HW2 9720   5.735   5.019   5.817
 2941SOL     OW 9721   2.031   2.072   4.188
 2941SOL    HW1 9722   2.109   2.106   4.241
 2941SOL    HW2 9723   1.949   2.123   4.213
 2942SOL     OW 9724   2.950   2.324   0.401
 2942SOL    HW1 9725   2.951   2.362   0.308
 2942SOL    HW2 9726   2.893   2.382   0.460
 2943SOL     OW 9727   4.914   4.307   3.440
 2943SOL    HW1 9728   4.924   4.233   3.506
 2943SOL    HW2 9729   4.962   4.283   3.356
 2944SOL     OW 9730   2.812   5.995   4.322
 2944SOL    HW1 9731   2.879   5.999   4.397
 2944SOL    HW2 9732   2.722   6.018   4.358
 2945SOL     OW 9733   3.024   3.806   3.579
 2945SOL    HW1 9734   3.060   3.876   3.518
 2945SOL    HW2 9735   3.070   3.719   3.561
 2946SOL     OW 9736   0.886   4.686   5.859
 2946SOL    HW1 9737   0.875   4.784   5.848
 2946SOL    HW2 9738   0.797   4.642   5.857
 2947SOL     OW 9739   0.527   3.375   1.102
 2947SOL    HW1 9740   0.564   3.441   1.037
 2947SOL    HW2 9741   0.491   3.296   1.053
 2948SOL     OW 9742   0.991   3.715   5.035
 2948SOL    HW1 9743   0.942   3.766   5.106
 2948SOL    HW2 9744   1.084   3.697   5.065
 2949SOL     OW 9745   2.596   5.776   0.597
 2949SOL    HW1 9746   2.500   5.775   0.625
 2949SOL    HW2 9747   2.602   5.773   0.497
 2950SOL     OW 9748   5.465   4.631   4.175
 2950SOL    HW1 9749   5.386   4.583   4.214
 2950SOL    HW2 9750   5.523   4.567   4.126
 2951SOL     OW 9751   5.495   1.270   1.266
 2951SOL    HW1 9752   5.450   1.342   1.318
 2951SOL    HW2 9753   5.441   1.249   1.184
 2952SOL     OW 9754   0.043   4.224   4.968
 2952SOL    HW1 9755   0.073   4.161   4.897
 2952SOL    HW2 9756   0.086   4.198   5.055
 2953SOL     OW 9757   4.998   3.329   2.532
 2953SOL    HW1 9758   4.961   3.260   2.470
 2953SOL    HW2 9759   5.021   3.286   2.620
 2954SOL     OW 9760   0.960   5.371   1.675
 2954SOL    HW1 9761   0.966   5.378   1.575
 2954SOL    HW2 9762   0.876   5.416   1.707
 2955SOL     OW 9763   0.856   3.809   2.116
 2955SOL    HW1 9764   0.769   3.763   2.135
 2955SOL    HW2 9765   0.908   3.755   2.049
 2956SOL     OW 9766   5.062   5.985   2.928
 2956SOL    HW1 9767   5.040   6.071   2.974
 2956SOL    HW2 9768   4.979   5.929   2.923
 2957SOL     OW 9769   6.029   3.678   2.306
 2957SOL    HW1 9770   5.967   3.714   2.377
 2957SOL    HW2 9771   5.979   3.613   2.249
 2958SOL     OW 9772   2.786   4.730   3.800
 2958SOL    HW1 9773   2.707   4.759   3.745
 2958SOL    HW2 9774   2.755   4.703   3.891
 2959SOL     OW 9775   5.142   3.918   0.354
 2959SOL    HW1 9776   5.122   3.998   0.297
 2959SOL    HW2 9777   5.129   3.835   0.300
 2960SOL     OW 9778   3.378   1.227   0.352
 2960SOL    HW1 9779   3.373   1.172   0.435
 2960SOL    HW2 9780   3.302   1.293   0.350
 2961SOL     OW 9781   5.211   3.355   2.845
 2961SOL    HW1 9782   5.201   3.454   2.845
 2961SOL    HW2 9783   5.246   3.325   2.756
 2962SOL     OW 9784   4.862   7.007   2.957
 2962SOL    HW1 9785   4.893   6.922   2.914
 2962SOL    HW2 9786   4.849   6.993   3.055
 2963SOL     OW 9787   2.249   1.343   6.284
 2963SOL    HW1 9788   2.248   1.294   6.197
 2963SOL    HW2 9789   2.186   1.300   6.348
 2964SOL     OW 9790   0.560   0.481   3.802
 2964SOL    HW1 9791   0.467   0.504   3.771
 2964SOL    HW2 9792   0.606   0.564   3.834
 2965SOL     OW 9793   0.033   1.406   4.144
 2965SOL    HW1 9794   7.001   1.434   4.069
 2965SOL    HW2 9795   7.007   1.363   4.217
 2966SOL     OW 9796   5.000   5.848   3.513
 2966SOL    HW1 9797   4.957   5.773   3.563
 2966SOL    HW2 9798   4.954   5.860   3.425
 2967SOL     OW 9799   6.958   0.800   4.892
 2967SOL    HW1 9800   6.967   0.722   4.830
 2967SOL    HW2 9801   0.004   0.865   4.874
 2968SOL     OW 9802   1.043   2.698   6.993
 2968SOL    HW1 9803   1.131   2.740   7.015
 2968SOL    HW2 9804   0.995   2.754   6.926
 2969SOL     OW 9805   5.140   1.849   4.192
 2969SOL    HW1 9806   5.104   1.805   4.275
 2969SOL    HW2 9807   5.239   1.839   4.189
 2970SOL     OW 9808   1.934   4.117   5.904
 2970SOL    HW1 9809   1.989   4.070   5.835
 2970SOL    HW2 9810   1.847   4.071   5.914
 2971SOL     OW 9811   4.950   4.325   0.599
 2971SOL    HW1 9812   5.006   4.402   0.630
 2971SOL    HW2 9813   4.985   4.240   0.638
 2972SOL     OW 9814   6.362   4.614   6.551
 2972SOL    HW1 9815   6.403   4.705   6.546
 2972SOL    HW2 9816   6.277   4.613   6.498
 2973SOL     OW 9817   5.554   6.360   2.543
 2973SOL    HW1 9818   5.545   6.266   2.575
 2973SOL    HW2 9819   5.649   6.379   2.520
 2974SOL     OW 9820   0.975   4.612   3.676
 2974SOL    HW1 9821   0.992   4.641   3.582
 2974SOL    HW2 9822   0.906   4.671   3.717
 2975SOL     OW 9823   5.710   3.253   4.192
 2975SOL    HW1 9824   5.731   3.327   4.256
 2975SOL    HW2 9825   5.621   3.271   4.149
 2976SOL     OW 9826   4.496   1.747   2.977
 2976SOL    HW1 9827   4.456   1.693   3.051
 2976SOL    HW2 9828   4.427   1.763   2.906
 2977SOL     OW 9829   2.481   6.594   2.352
 2977SOL    HW1 9830   2.524   6.525   2.410
 2977SOL    HW2 9831   2.526   6.594   2.262
 2978SOL     OW 9832   4.952   4.494   0.381
 2978SOL    HW1 9833   4.947   4.421   0.450
 2978SOL    HW2 9834   4.950   4.583   0.427
 2979SOL     OW 9835   3.559   0.774   4.364
 2979SOL    HW1 9836   3.500   0.749   4.287
 2979SOL    HW2 9837   3.639   0.714   4.366
 2980SOL     OW 9838   1.258   5.819   4.795
 2980SOL    HW1 9839   1.161   5.823   4.772
 2980SOL    HW2 9840   1.282   5.896   4.855
 2981SOL     OW 9841   2.737   1.034   5.596
 2981SOL    HW1 9842   2.791   1.048   5.678
 2981SOL    HW2 9843   2.644   1.067   5.611
 2982SOL     OW 9844   3.295   4.930   2.940
 2982SOL    HW1 9845   3.196   4.940   2.946
 2982SOL    HW2 9846   3.336   5.020   2.920
 2983SOL     OW 9847   0.386   1.254   2.609
 2983SOL    HW1 9848   0.430   1.246   2.519
 2983SOL    HW2 9849   0.452   1.289   2.675
 2984SOL     OW 9850   5.287   4.923   0.760
 2984SOL    HW1 9851   5.269   4.907   0.857
 2984SOL    HW2 9852   5.256   5.015   0.735
 2985SOL     OW 9853   1.549   2.911   5.576
 2985SOL    HW1 9854   1.501   2.977   5.519
 2985SOL    HW2 9855   1.497   2.896   5.660
 2986SOL     OW 9856   3.575   4.003   3.377
 2986SOL    HW1 9857   3.652   3.952   3.417
 2986SOL    HW2 9858   3.537   4.064   3.446
 2987SOL     OW 9859   0.345   1.590   4.144
 2987SOL    HW1 9860   0.259   1.642   4.151
 2987SOL    HW2 9861   0.383   1.576   4.235
 2988SOL     OW 9862   1.534   5.330   2.831
 2988SOL    HW1 9863   1.610   5.265   2.831
 2988SOL    HW2 9864   1.521   5.367   2.739
 2989SOL     OW 9865   5.834   6.229   5.853
 2989SOL    HW1 9866   5.857   6.134   5.832
 2989SOL    HW2 9867   5.872   6.253   5.943
 2990SOL     OW 9868   3.643   1.921   5.014
 2990SOL    HW1 9869   3.680   1.919   5.107
 2990SOL    HW2 9870   3.566   1.985   5.009
 2991SOL     OW 9871   6.685   4.053   5.077
 2991SOL    HW1 9872   6.731   3.969   5.106
 2991SOL    HW2 9873   6.627   4.086   5.152
 2992SOL     OW 9874   2.475   6.210   4.780
 2992SOL    HW1 9875   2.563   6.249   4.808
 2992SOL    HW2 9876   2.476   6.195   4.681
 2993SOL     OW 9877   0.331   4.959   1.474
 2993SOL    HW1 9878   0.267   5.036   1.472
 2993SOL    HW2 9879   0.329   4.916   1.564
 2994SOL     OW 9880   4.117   6.163   7.015
 2994SOL    HW1 9881   4.035   6.149   0.043
 2994SOL    HW2 9882   4.096   6.144   6.920
 2995SOL     OW 9883   2.845   1.786   5.801
 2995SOL    HW1 9884   2.804   1.849   5.867
 2995SOL    HW2 9885   2.874   1.702   5.847
 2996SOL     OW 9886   1.609   1.377   4.055
 2996SOL    HW1 9887   1.591   1.331   3.968
 2996SOL    HW2 9888   1.522   1.406   4.095
 2997SOL     OW 9889   6.311   0.205   3.077
 2997SOL    HW1 9890   6.342   0.133   3.015
 2997SOL    HW2 9891   6.214   0.222   3.063
 2998SOL     OW 9892   4.597   6.917   3.773
 2998SOL    HW1 9893   4.611   6.849   3.701
 2998SOL    HW2 9894   4.591   6.872   3.862
 2999SOL     OW 9895   2.300   5.359   4.899
 2999SOL    HW1 9896   2.343   5.450   4.891
 2999SOL    HW2 9897   2.370   5.291   4.922
 3000SOL     OW 9898   2.975   3.908   6.446
 3000SOL    HW1 9899   2.991   3.948   6.356
 3000SOL    HW2 9900   3.059   3.911   6.499
 3001SOL     OW 9901   6.251   0.498   6.047
 3001SOL    HW1 9902   6.253   0.531   6.141
 3001SOL    HW2 9903   6.273   0.401   6.045
 3002SOL     OW 9904   3.315   1.366   6.977
 3002SOL    HW1 9905   3.328   1.410   6.888
 3002SOL    HW2 9906   3.317   1.435   0.021
 3003SOL     OW 9907   1.749   6.782   0.511
 3003SOL    HW1 9908   1.847   6.789   0.532
 3003SOL    HW2 9909   1.737   6.730   0.427
 3004SOL     OW 9910   0.860   4.343   3.311
 3004SOL    HW1 9911   0.862   4.314   3.406
 3004SOL    HW2 9912   0.800   4.423   3.301
 3005SOL     OW 9913   2.147   1.983   0.912
 3005SOL    HW1 9914   2.158   2.021   1.003
 3005SOL    HW2 9915   2.051   1.963   0.894
 3006SOL     OW 9916   5.545   1.736   5.117
 3006SOL    HW1 9917   5.558   1.714   5.021
 3006SOL    HW2 9918   5.604   1.679   5.174
 3007SOL     OW 9919   5.474   4.352   1.039
 3007SOL    HW1 9920   5.538   4.275   1.043
 3007SOL    HW2 9921   5.402   4.339   1.107
 3008SOL     OW 9922   3.637   2.258   6.212
 3008SOL    HW1 9923   3.690   2.325   6.160
 3008SOL    HW2 9924   3.642   2.169   6.166
 3009SOL     OW 9925   0.019   1.615   2.950
 3009SOL    HW1 9926   0.114   1.643   2.933
 3009SOL    HW2 9927   6.985   1.675   2.900
 3010SOL     OW 9928   3.676   5.925   3.168
 3010SOL    HW1 9929   3.734   5.916   3.087
 3010SOL    HW2 9930   3.580   5.927   3.140
 3011SOL     OW 9931   5.559   1.264   2.370
 3011SOL    HW1 9932   5.604   1.220   2.292
 3011SOL    HW2 9933   5.460   1.254   2.361
 3012SOL     OW 9934   1.959   3.556   6.156
 3012SOL    HW1 9935   1.962   3.498   6.075
 3012SOL    HW2 9936   1.886   3.524   6.217
 3013SOL     OW 9937   5.657   5.506   4.138
 3013SOL    HW1 9938   5.647   5.412   4.105
 3013SOL    HW2 9939   5.754   5.530   4.144
 3014SOL     OW 9940   4.475   2.383   4.570
 3014SOL    HW1 9941   4.473   2.388   4.669
 3014SOL    HW2 9942   4.483   2.287   4.542
 3015SOL     OW 9943   3.266   1.993   0.456
 3015SOL    HW1 9944   3.328   1.941   0.397
 3015SOL    HW2 9945   3.276   1.962   0.551
 3016SOL     OW 9946   2.006   6.559   3.969
 3016SOL    HW1 9947   1.957   6.646   3.965
 3016SOL    HW2 9948   1.945   6.484   3.945
 3017SOL     OW 9949   6.501   4.866   2.473
 3017SOL    HW1 9950   6.531   4.780   2.432
 3017SOL    HW2 9951   6.402   4.872   2.468
 3018SOL     OW 9952   3.139   6.696   5.940
 3018SOL    HW1 9953   3.219   6.637   5.935
 3018SOL    HW2 9954   3.156   6.769   6.006
 3019SOL     OW 9955   0.905   6.923   0.251
 3019SOL    HW1 9956   0.925   6.951   0.345
 3019SOL    HW2 9957   0.984   6.942   0.194
 3020SOL     OW 9958   3.767   2.827   1.634
 3020SOL    HW1 9959   3.713   2.757   1.679
 3020SOL    HW2 9960   3.861   2.794   1.621
 3021SOL     OW 9961   2.708   0.040   6.071
 3021SOL    HW1 9962   2.659   0.083   5.995
 3021SOL    HW2 9963   2.675   0.078   6.157
 3022SOL     OW 9964   3.494   5.229   4.676
 3022SOL    HW1 9965   3.569   5.163   4.670
 3022SOL    HW2 9966   3.524   5.308   4.730
 3023SOL     OW 9967   3.574   6.530   2.998
 3023SOL    HW1 9968   3.596   6.454   3.059
 3023SOL    HW2 9969   3.494   6.506   2.942
 3024SOL     OW 9970   4.734   0.197   4.905
 3024SOL    HW1 9971   4.824   0.154   4.895
 3024SOL    HW2 9972   4.716   0.255   4.826
 3025SOL     OW 9973   2.969   6.881   0.711
 3025SOL    HW1 9974   2.985   6.826   0.629
 3025SOL    HW2 9975   2.897   6.948   0.692
 3026SOL     OW 9976   1.281   0.589   6.774
 3026SOL    HW1 9977   1.332   0.658   6.722
 3026SOL    HW2 9978   1.340   0.553   6.847
 3027SOL     OW 9979   4.211   0.690   2.959
 3027SOL    HW1 9980   4.295   0.644   2.929
 3027SOL    HW2 9981   4.230   0.787   2.972
 3028SOL     OW 9982   1.251   3.770   5.941
 3028SOL    HW1 9983   1.302   3.737   6.021
 3028SOL    HW2 9984   1.188   3.699   5.911
 3029SOL     OW 9985   0.059   2.663   5.049
 3029SOL    HW1 9986   0.108   2.656   5.136
 3029SOL    HW2 9987   0.119   2.704   4.980
 3030SOL     OW 9988   0.117   3.596   0.475
 3030SOL    HW1 9989   0.101   3.500   0.496
 3030SOL    HW2 9990   0.075   3.618   0.387
 3031SOL     OW 9991   0.369   4.063   0.746
 3031SOL    HW1 9992   0.322   3.977   0.726
 3031SOL    HW2 9993   0.443   4.045   0.811
 3032SOL     OW 9994   2.784   6.492   0.825
 3032SOL    HW1 9995   2.878   6.480   0.855
 3032SOL    HW2 9996   2.743   6.402   0.807
 3033SOL     OW 9997   6.075   2.057   1.325
 3033SOL    HW1 9998   5.981   2.067   1.293
 3033SOL    HW2 9999   6.123   2.144   1.315
 3034SOL     OW10000   1.955   5.714   2.534
 3034SOL    HW110001   2.054   5.727   2.539
 3034SOL    HW210002   1.924   5.661   2.614
 3035SOL     OW10003   0.253   2.925   6.358
 3035SOL    HW110004   0.181   2.901   6.293
 3035SOL    HW210005   0.261   3.025   6.363
 3036SOL     OW10006   2.044   1.590   6.494
 3036SOL    HW110007   2.057   1.661   6.563
 3036SOL    HW210008   2.099   1.612   6.414
 3037SOL     OW10009   6.155   5.882   5.424
 3037SOL    HW110010   6.214   5.960   5.444
 3037SOL    HW210011   6.179   5.806   5.484
 3038SOL     OW10012   5.533   5.970   5.862
 3038SOL    HW110013   5.578   5.972   5.951
 3038SOL    HW210014   5.600   5.987   5.790
 3039SOL     OW10015   6.719   2.981   0.457
 3039SOL    HW110016   6.734   2.900   0.514
 3039SOL    HW210017   6.625   2.980   0.422
 3040SOL     OW10018   3.842   3.876   6.189
 3040SOL    HW110019   3.756   3.866   6.139
 3040SOL    HW210020   3.904   3.936   6.138
 3041SOL     OW10021   1.868   3.092   4.398
 3041SOL    HW110022   1.878   3.088   4.497
 3041SOL    HW210023   1.773   3.073   4.373
 3042SOL     OW10024   5.156   6.050   2.061
 3042SOL    HW110025   5.133   6.095   1.974
 3042SOL    HW210026   5.255   6.054   2.075
 3043SOL     OW10027   2.297   4.208   1.996
 3043SOL    HW110028   2.293   4.307   1.985
 3043SOL    HW210029   2.389   4.175   1.977
 3044SOL     OW10030   3.878   4.504   5.570
 3044SOL    HW110031   3.818   4.488   5.491
 3044SOL    HW210032   3.911   4.598   5.568
 3045SOL     OW10033   4.744   0.640   3.036
 3045SOL    HW110034   4.685   0.673   3.110
 3045SOL    HW210035   4.777   0.717   2.982
 3046SOL     OW10036   2.004   0.734   6.235
 3046SOL    HW110037   1.956   0.700   6.154
 3046SOL    HW210038   1.939   0.744   6.311
 3047SOL     OW10039   6.028   0.155   1.938
 3047SOL    HW110040   6.052   0.074   1.885
 3047SOL    HW210041   5.932   0.148   1.967
 3048SOL     OW10042   3.918   2.439   1.733
 3048SOL    HW110043   3.822   2.425   1.754
 3048SOL    HW210044   3.974   2.380   1.791
 3049SOL     OW10045   1.842   6.720   2.872
 3049SOL    HW110046   1.823   6.640   2.814
 3049SOL    HW210047   1.889   6.691   2.955
 3050SOL     OW10048   3.124   1.423   1.906
 3050SOL    HW110049   3.205   1.453   1.857
 3050SOL    HW210050   3.057   1.387   1.841
 3051SOL     OW10051   1.704   4.899   6.629
 3051SOL    HW110052   1.703   4.962   6.551
 3051SOL    HW210053   1.760   4.819   6.607
 3052SOL     OW10054   5.113   6.173   1.828
 3052SOL    HW110055   5.019   6.160   1.796
 3052SOL    HW210056   5.159   6.240   1.769
 3053SOL     OW10057   6.897   2.036   0.149
 3053SOL    HW110058   6.982   2.081   0.120
 3053SOL    HW210059   6.911   1.996   0.240
 3054SOL     OW10060   6.639   2.217   0.975
 3054SOL    HW110061   6.667   2.138   1.029
 3054SOL    HW210062   6.607   2.290   1.036
 3055SOL     OW10063   5.179   0.656   4.759
 3055SOL    HW110064   5.205   0.752   4.750
 3055SOL    HW210065   5.253   0.605   4.802
 3056SOL     OW10066   6.690   7.005   5.136
 3056SOL    HW110067   6.759   6.986   5.066
 3056SOL    HW210068   6.630   0.051   5.105
 3057SOL     OW10069   4.419   6.243   2.827
 3057SOL    HW110070   4.457   6.165   2.778
 3057SOL    HW210071   4.376   6.212   2.912
 3058SOL     OW10072   6.765   4.834   1.456
 3058SOL    HW110073   6.774   4.749   1.508
 3058SOL    HW210074   6.856   4.865   1.427
 3059SOL     OW10075   2.566   2.153   4.406
 3059SOL    HW110076   2.543   2.063   4.368
 3059SOL    HW210077   2.592   2.143   4.503
 3060SOL     OW10078   1.296   5.099   7.007
 3060SOL    HW110079   1.365   5.071   0.046
 3060SOL    HW210080   1.235   5.167   0.020
 3061SOL     OW10081   0.190   6.873   5.124
 3061SOL    HW110082   0.206   6.842   5.031
 3061SOL    HW210083   0.095   6.901   5.135
 3062SOL     OW10084   2.310   0.493   0.775
 3062SOL    HW110085   2.307   0.590   0.751
 3062SOL    HW210086   2.246   0.475   0.850
 3063SOL     OW10087   2.546   4.698   1.659
 3063SOL    HW110088   2.629   4.751   1.671
 3063SOL    HW210089   2.544   4.623   1.726
 3064SOL     OW10090   5.104   3.993   1.904
 3064SOL    HW110091   5.028   3.934   1.877
 3064SOL    HW210092   5.191   3.948   1.881
 3065SOL     OW10093   2.053   1.251   0.565
 3065SOL    HW110094   2.140   1.296   0.545
 3065SOL    HW210095   2.025   1.196   0.486
 3066SOL     OW10096   4.523   5.580   1.041
 3066SOL    HW110097   4.457   5.654   1.038
 3066SOL    HW210098   4.605   5.605   0.989
 3067SOL     OW10099   3.458   1.776   5.363
 3067SOL    HW110100   3.510   1.699   5.399
 3067SOL    HW210101   3.375   1.789   5.417
 3068SOL     OW10102   6.563   0.321   0.579
 3068SOL    HW110103   6.560   0.310   0.679
 3068SOL    HW210104   6.593   0.414   0.557
 3069SOL     OW10105   6.979   6.012   2.086
 3069SOL    HW110106   6.930   5.929   2.110
 3069SOL    HW210107   6.963   6.034   1.990
 3070SOL     OW10108   2.819   1.187   0.190
 3070SOL    HW110109   2.798   1.116   0.124
 3070SOL    HW210110   2.896   1.242   0.157
 3071SOL     OW10111   6.308   5.786   3.605
 3071SOL    HW110112   6.299   5.883   3.625
 3071SOL    HW210113   6.388   5.749   3.651
 3072SOL     OW10114   2.370   5.904   6.736
 3072SOL    HW110115   2.309   5.825   6.735
 3072SOL    HW210116   2.394   5.929   6.642
 3073SOL     OW10117   5.687   2.745   4.247
 3073SOL    HW110118   5.774   2.791   4.230
 3073SOL    HW210119   5.679   2.722   4.344
 3074SOL     OW10120   5.802   3.803   0.334
 3074SOL    HW110121   5.705   3.780   0.333
 3074SOL    HW210122   5.856   3.720   0.351
 3075SOL     OW10123   2.931   5.801   1.553
 3075SOL    HW110124   2.888   5.752   1.629
 3075SOL    HW210125   2.914   5.899   1.562
 3076SOL     OW10126   6.725   0.542   4.303
 3076SOL    HW110127   6.780   0.479   4.247
 3076SOL    HW210128   6.785   0.592   4.365
 3077SOL     OW10129   5.465   5.075   1.246
 3077SOL    HW110130   5.444   4.980   1.222
 3077SOL    HW210131   5.407   5.103   1.322
 3078SOL     OW10132   0.164   2.681   2.655
 3078SOL    HW110133   0.236   2.631   2.607
 3078SOL    HW210134   0.191   2.697   2.750
 3079SOL     OW10135   2.512   2.601   3.002
 3079SOL    HW110136   2.598   2.596   2.951
 3079SOL    HW210137   2.436   2.602   2.938
 3080SOL     OW10138   4.990   4.656   2.282
 3080SOL    HW110139   5.039   4.571   2.298
 3080SOL    HW210140   5.038   4.732   2.326
 3081SOL     OW10141   0.723   2.881   5.274
 3081SOL    HW110142   0.676   2.826   5.343
 3081SOL    HW210143   0.822   2.865   5.280
 3082SOL     OW10144   2.798   6.198   3.870
 3082SOL    HW110145   2.885   6.158   3.841
 3082SOL    HW210146   2.747   6.130   3.923
 3083SOL     OW10147   2.917   6.282   4.319
 3083SOL    HW110148   3.004   6.287   4.369
 3083SOL    HW210149   2.885   6.188   4.317
 3084SOL     OW10150   6.710   3.703   4.434
 3084SOL    HW110151   6.701   3.753   4.349
 3084SOL    HW210152   6.623   3.707   4.485
 3085SOL     OW10153   5.941   4.626   0.185
 3085SOL    HW110154   5.998   4.708   0.172
 3085SOL    HW210155   5.886   4.637   0.268
 3086SOL     OW10156   4.829   1.731   1.066
 3086SOL    HW110157   4.776   1.657   1.023
 3086SOL    HW210158   4.847   1.802   0.998
 3087SOL     OW10159   1.245   5.359   3.590
 3087SOL    HW110160   1.192   5.294   3.645
 3087SOL    HW210161   1.303   5.309   3.526
 3088SOL     OW10162   1.989   4.749   4.684
 3088SOL    HW110163   1.981   4.833   4.630
 3088SOL    HW210164   2.083   4.738   4.715
 3089SOL     OW10165   2.007   3.396   5.920
 3089SOL    HW110166   2.050   3.434   5.839
 3089SOL    HW210167   1.976   3.303   5.901
 3090SOL     OW10168   2.587   2.334   1.895
 3090SOL    HW110169   2.660   2.303   1.835
 3090SOL    HW210170   2.553   2.257   1.950
 3091SOL     OW10171   1.623   6.903   1.646
 3091SOL    HW110172   1.525   6.886   1.635
 3091SOL    HW210173   1.636   6.981   1.708
 3092SOL     OW10174   4.764   1.232   0.553
 3092SOL    HW110175   4.838   1.220   0.620
 3092SOL    HW210176   4.694   1.292   0.591
 3093SOL     OW10177   5.383   6.799   6.206
 3093SOL    HW110178   5.326   6.812   6.287
 3093SOL    HW210179   5.347   6.723   6.152
 3094SOL     OW10180   2.149   6.956   4.136
 3094SOL    HW110181   2.124   6.923   4.045
 3094SOL    HW210182   2.246   6.939   4.152
 3095SOL     OW10183   2.687   5.420   5.517
 3095SOL    HW110184   2.703   5.354   5.443
 3095SOL    HW210185   2.627   5.380   5.585
 3096SOL     OW10186   1.324   5.817   5.514
 3096SOL    HW110187   1.262   5.855   5.445
 3096SOL    HW210188   1.320   5.873   5.596
 3097SOL     OW10189   5.734   2.355   0.561
 3097SOL    HW110190   5.764   2.306   0.643
 3097SOL    HW210191   5.811   2.362   0.497
 3098SOL     OW10192   2.337   2.773   1.667
 3098SOL    HW110193   2.420   2.717   1.669
 3098SOL    HW210194   2.264   2.722   1.621
 3099SOL     OW10195   1.344   0.037   3.336
 3099SOL    HW110196   1.354   7.012   3.420
 3099SOL    HW210197   1.297   7.009   3.267
 3100SOL     OW10198   7.022   5.667   3.598
 3100SOL    HW110199   6.985   5.736   3.535
 3100SOL    HW210200   0.035   5.712   3.677
 3101SOL     OW10201   5.583   6.389   6.865
 3101SOL    HW110202   5.590   6.331   6.947
 3101SOL    HW210203   5.498   6.370   6.817
 3102SOL     OW10204   6.399   5.076   2.309
 3102SOL    HW110205   6.440   5.014   2.375
 3102SOL    HW210206   6.410   5.039   2.217
 3103SOL     OW10207   4.463   0.806   2.075
 3103SOL    HW110208   4.441   0.840   1.983
 3103SOL    HW210209   4.553   0.763   2.073
 3104SOL     OW10210   5.252   0.936   4.787
 3104SOL    HW110211   5.174   0.996   4.769
 3104SOL    HW210212   5.336   0.989   4.785
 3105SOL     OW10213   5.780   4.492   1.215
 3105SOL    HW110214   5.864   4.463   1.169
 3105SOL    HW210215   5.724   4.412   1.235
 3106SOL     OW10216   5.469   0.890   3.602
 3106SOL    HW110217   5.495   0.982   3.572
 3106SOL    HW210218   5.421   0.896   3.690
 3107SOL     OW10219   4.462   1.654   4.987
 3107SOL    HW110220   4.402   1.615   4.917
 3107SOL    HW210221   4.411   1.720   5.042
 3108SOL     OW10222   1.741   6.219   4.317
 3108SOL    HW110223   1.677   6.170   4.375
 3108SOL    HW210224   1.831   6.177   4.323
 3109SOL     OW10225   5.726   6.243   3.549
 3109SOL    HW110226   5.695   6.222   3.457
 3109SOL    HW210227   5.820   6.278   3.546
 3110SOL     OW10228   1.165   2.860   2.366
 3110SOL    HW110229   1.196   2.779   2.416
 3110SOL    HW210230   1.237   2.930   2.367
 3111SOL     OW10231   0.018   5.041   3.094
 3111SOL    HW110232   6.951   5.070   3.107
 3111SOL    HW210233   0.061   5.028   3.183
 3112SOL     OW10234   4.045   2.994   6.772
 3112SOL    HW110235   4.117   2.928   6.749
 3112SOL    HW210236   4.037   3.000   6.871
 3113SOL     OW10237   2.315   5.521   3.791
 3113SOL    HW110238   2.388   5.582   3.760
 3113SOL    HW210239   2.350   5.428   3.797
 3114SOL     OW10240   4.426   1.966   1.202
 3114SOL    HW110241   4.427   2.036   1.273
 3114SOL    HW210242   4.332   1.952   1.171
 3115SOL     OW10243   3.554   4.327   6.393
 3115SOL    HW110244   3.583   4.237   6.427
 3115SOL    HW210245   3.599   4.345   6.306
 3116SOL     OW10246   0.223   3.167   0.057
 3116SOL    HW110247   0.209   3.073   0.089
 3116SOL    HW210248   0.255   3.166   6.991
 3117SOL     OW10249   4.434   3.561   5.255
 3117SOL    HW110250   4.525   3.572   5.215
 3117SOL    HW210251   4.365   3.567   5.183
 3118SOL     OW10252   0.958   5.387   2.428
 3118SOL    HW110253   0.906   5.472   2.431
 3118SOL    HW210254   0.970   5.358   2.334
 3119SOL     OW10255   2.326   3.742   6.408
 3119SOL    HW110256   2.293   3.681   6.336
 3119SOL    HW210257   2.422   3.766   6.390
 3120SOL     OW10258   3.821   0.568   5.048
 3120SOL    HW110259   3.785   0.661   5.037
 3120SOL    HW210260   3.807   0.517   4.963
 3121SOL     OW10261   0.386   0.677   3.630
 3121SOL    HW110262   0.419   0.633   3.546
 3121SOL    HW210263   0.427   0.768   3.637
 3122SOL     OW10264   4.646   6.001   6.289
 3122SOL    HW110265   4.562   5.960   6.253
 3122SOL    HW210266   4.626   6.048   6.375
 3123SOL     OW10267   2.344   1.481   3.247
 3123SOL    HW110268   2.294   1.555   3.293
 3123SOL    HW210269   2.435   1.473   3.288
 3124SOL     OW10270   4.879   0.232   4.626
 3124SOL    HW110271   4.883   0.254   4.529
 3124SOL    HW210272   4.971   0.207   4.658
 3125SOL     OW10273   0.466   2.589   5.071
 3125SOL    HW110274   0.422   2.523   5.131
 3125SOL    HW210275   0.412   2.673   5.067
 3126SOL     OW10276   5.516   4.525   5.380
 3126SOL    HW110277   5.426   4.566   5.372
 3126SOL    HW210278   5.536   4.505   5.476
 3127SOL     OW10279   1.120   3.348   5.530
 3127SOL    HW110280   1.194   3.381   5.472
 3127SOL    HW210281   1.048   3.418   5.534
 3128SOL     OW10282   2.539   0.378   6.093
 3128SOL    HW110283   2.634   0.404   6.112
 3128SOL    HW210284   2.493   0.354   6.178
 3129SOL     OW10285   6.414   3.665   6.500
 3129SOL    HW110286   6.365   3.702   6.579
 3129SOL    HW210287   6.456   3.577   6.524
 3130SOL     OW10288   1.878   4.293   1.040
 3130SOL    HW110289   1.847   4.275   0.947
 3130SOL    HW210290   1.901   4.206   1.085
 3131SOL     OW10291   0.321   2.907   1.802
 3131SOL    HW110292   0.304   2.819   1.757
 3131SOL    HW210293   0.276   2.908   1.891
 3132SOL     OW10294   3.546   5.896   6.409
 3132SOL    HW110295   3.547   5.950   6.325
 3132SOL    HW210296   3.635   5.903   6.454
 3133SOL     OW10297   3.315   1.609   3.825
 3133SOL    HW110298   3.333   1.540   3.755
 3133SOL    HW210299   3.219   1.606   3.851
 3134SOL     OW10300   4.596   4.089   1.689
 3134SOL    HW110301   4.547   4.141   1.759
 3134SOL    HW210302   4.562   4.114   1.598
 3135SOL     OW10303   4.823   1.355   4.560
 3135SOL    HW110304   4.868   1.268   4.577
 3135SOL    HW210305   4.888   1.430   4.578
 3136SOL     OW10306   5.392   0.631   1.857
 3136SOL    HW110307   5.477   0.642   1.805
 3136SOL    HW210308   5.321   0.593   1.797
 3137SOL     OW10309   6.780   0.865   2.298
 3137SOL    HW110310   6.783   0.842   2.395
 3137SOL    HW210311   6.828   0.794   2.246
 3138SOL     OW10312   6.152   4.535   3.627
 3138SOL    HW110313   6.204   4.621   3.625
 3138SOL    HW210314   6.213   4.460   3.605
 3139SOL     OW10315   4.751   6.352   0.694
 3139SOL    HW110316   4.772   6.413   0.770
 3139SOL    HW210317   4.659   6.373   0.659
 3140SOL     OW10318   6.292   0.139   0.148
 3140SOL    HW110319   6.320   0.046   0.125
 3140SOL    HW210320   6.315   0.157   0.244
 3141SOL     OW10321   0.393   6.917   6.553
 3141SOL    HW110322   0.368   6.958   6.465
 3141SOL    HW210323   0.463   6.847   6.538
 3142SOL     OW10324   3.701   6.774   2.148
 3142SOL    HW110325   3.690   6.708   2.074
 3142SOL    HW210326   3.785   6.826   2.134
 3143SOL     OW10327   6.749   2.135   6.539
 3143SOL    HW110328   6.659   2.175   6.523
 3143SOL    HW210329   6.792   2.113   6.451
 3144SOL     OW10330   3.765   4.088   1.397
 3144SOL    HW110331   3.838   4.133   1.447
 3144SOL    HW210332   3.804   4.037   1.320
 3145SOL     OW10333   2.389   6.006   1.279
 3145SOL    HW110334   2.413   6.032   1.185
 3145SOL    HW210335   2.301   5.959   1.279
 3146SOL     OW10336   1.631   0.642   3.695
 3146SOL    HW110337   1.631   0.594   3.607
 3146SOL    HW210338   1.677   0.730   3.685
 3147SOL     OW10339   3.146   6.283   1.426
 3147SOL    HW110340   3.240   6.254   1.409
 3147SOL    HW210341   3.083   6.216   1.387
 3148SOL     OW10342   6.084   5.847   4.594
 3148SOL    HW110343   6.158   5.864   4.528
 3148SOL    HW210344   6.109   5.885   4.682
 3149SOL     OW10345   2.748   1.078   5.334
 3149SOL    HW110346   2.804   1.012   5.284
 3149SOL    HW210347   2.775   1.078   5.431
 3150SOL     OW10348   5.940   5.379   4.141
 3150SOL    HW110349   5.916   5.476   4.149
 3150SOL    HW210350   5.966   5.359   4.047
 3151SOL     OW10351   6.249   1.404   5.270
 3151SOL    HW110352   6.266   1.413   5.368
 3151SOL    HW210353   6.168   1.347   5.256
 3152SOL     OW10354   1.112   5.643   0.411
 3152SOL    HW110355   1.125   5.623   0.509
 3152SOL    HW210356   1.199   5.633   0.364
 3153SOL     OW10357   5.986   4.747   0.885
 3153SOL    HW110358   6.045   4.805   0.828
 3153SOL    HW210359   5.943   4.677   0.827
 3154SOL     OW10360   6.537   1.455   6.519
 3154SOL    HW110361   6.535   1.366   6.474
 3154SOL    HW210362   6.576   1.446   6.611
 3155SOL     OW10363   6.316   4.624   0.369
 3155SOL    HW110364   6.308   4.555   0.297
 3155SOL    HW210365   6.264   4.594   0.449
 3156SOL     OW10366   3.394   2.965   3.491
 3156SOL    HW110367   3.492   2.980   3.495
 3156SOL    HW210368   3.360   2.941   3.582
 3157SOL     OW10369   2.403   2.158   5.038
 3157SOL    HW110370   2.418   2.078   4.979
 3157SOL    HW210371   2.393   2.239   4.981
 3158SOL     OW10372   4.368   1.128   3.609
 3158SOL    HW110373   4.401   1.105   3.517
 3158SOL    HW210374   4.314   1.052   3.645
 3159SOL     OW10375   6.057   1.757   6.859
 3159SOL    HW110376   5.986   1.818   6.823
 3159SOL    HW210377   6.107   1.803   6.932
 3160SOL     OW10378   0.198   6.090   5.643
 3160SOL    HW110379   0.210   6.030   5.722
 3160SOL    HW210380   0.222   6.040   5.560
 3161SOL     OW10381   1.896   2.748   3.544
 3161SOL    HW110382   1.811   2.797   3.521
 3161SOL    HW210383   1.877   2.680   3.614
 3162SOL     OW10384   1.557   6.595   2.230
 3162SOL    HW110385   1.528   6.499   2.228
 3162SOL    HW210386   1.656   6.599   2.242
 3163SOL     OW10387   4.877   2.591   6.089
 3163SOL    HW110388   4.785   2.558   6.065
 3163SOL    HW210389   4.937   2.512   6.106
 3164SOL     OW10390   4.217   5.033   1.097
 3164SOL    HW110391   4.122   5.064   1.089
 3164SOL    HW210392   4.269   5.065   1.017
 3165SOL     OW10393   0.049   6.224   1.395
 3165SOL    HW110394   0.064   6.206   1.298
 3165SOL    HW210395   0.013   6.316   1.406
 3166SOL     OW10396   4.328   2.043   4.574
 3166SOL    HW110397   4.370   2.064   4.486
 3166SOL    HW210398   4.394   1.992   4.631
 3167SOL     OW10399   6.220   4.549   0.664
 3167SOL    HW110400   6.235   4.450   0.673
 3167SOL    HW210401   6.128   4.572   0.695
 3168SOL     OW10402   4.493   2.269   6.529
 3168SOL    HW110403   4.441   2.223   6.601
 3168SOL    HW210404   4.550   2.202   6.481
 3169SOL     OW10405   2.130   3.669   4.320
 3169SOL    HW110406   2.076   3.740   4.366
 3169SOL    HW210407   2.154   3.598   4.386
 3170SOL     OW10408   4.285   0.093   1.491
 3170SOL    HW110409   4.296   0.172   1.431
 3170SOL    HW210410   4.203   0.042   1.464
 3171SOL     OW10411   0.395   0.637   1.273
 3171SOL    HW110412   0.486   0.671   1.295
 3171SOL    HW210413   0.370   0.564   1.336
 3172SOL     OW10414   6.670   5.374   0.108
 3172SOL    HW110415   6.664   5.281   0.071
 3172SOL    HW210416   6.580   5.403   0.139
 3173SOL     OW10417   2.960   2.181   0.638
 3173SOL    HW110418   2.872   2.150   0.673
 3173SOL    HW210419   2.947   2.230   0.552
 3174SOL     OW10420   3.005   2.081   0.014
 3174SOL    HW110421   2.988   2.107   0.109
 3174SOL    HW210422   2.920   2.087   6.990
 3175SOL     OW10423   6.733   0.826   0.888
 3175SOL    HW110424   6.759   0.754   0.952
 3175SOL    HW210425   6.633   0.831   0.883
 3176SOL     OW10426   1.441   4.541   4.835
 3176SOL    HW110427   1.526   4.504   4.873
 3176SOL    HW210428   1.435   4.639   4.855
 3177SOL     OW10429   5.074   3.792   4.241
 3177SOL    HW110430   5.064   3.868   4.307
 3177SOL    HW210431   5.044   3.707   4.284
 3178SOL     OW10432   6.204   1.821   0.274
 3178SOL    HW110433   6.159   1.900   0.317
 3178SOL    HW210434   6.291   1.804   0.319
 3179SOL     OW10435   0.931   3.114   2.068
 3179SOL    HW110436   0.976   3.200   2.044
 3179SOL    HW210437   0.890   3.074   1.986
 3180SOL     OW10438   4.462   1.307   0.103
 3180SOL    HW110439   4.542   1.254   0.073
 3180SOL    HW210440   4.419   1.350   0.023
 3181SOL     OW10441   6.603   1.294   3.089
 3181SOL    HW110442   6.639   1.361   3.023
 3181SOL    HW210443   6.661   1.212   3.088
 3182SOL     OW10444   3.383   0.548   5.667
 3182SOL    HW110445   3.410   0.569   5.761
 3182SOL    HW210446   3.462   0.558   5.607
 3183SOL     OW10447   3.969   4.186   1.732
 3183SOL    HW110448   3.930   4.114   1.789
 3183SOL    HW210449   4.062   4.161   1.706
 3184SOL     OW10450   0.912   2.657   2.949
 3184SOL    HW110451   0.911   2.601   2.866
 3184SOL    HW210452   0.818   2.681   2.974
 3185SOL     OW10453   5.817   5.852   0.094
 3185SOL    HW110454   5.842   5.767   0.048
 3185SOL    HW210455   5.836   5.842   0.192
 3186SOL     OW10456   3.788   1.600   2.250
 3186SOL    HW110457   3.719   1.666   2.222
 3186SOL    HW210458   3.765   1.510   2.212
 3187SOL     OW10459   4.682   4.306   6.926
 3187SOL    HW110460   4.782   4.307   6.931
 3187SOL    HW210461   4.645   4.288   7.017
 3188SOL     OW10462   2.058   0.410   4.477
 3188SOL    HW110463   2.062   0.510   4.479
 3188SOL    HW210464   2.013   0.377   4.560
 3189SOL     OW10465   1.498   1.571   1.559
 3189SOL    HW110466   1.558   1.524   1.623
 3189SOL    HW210467   1.463   1.655   1.601
 3190SOL     OW10468   6.779   6.644   0.584
 3190SOL    HW110469   6.740   6.574   0.523
 3190SOL    HW210470   6.819   6.717   0.529
 3191SOL     OW10471   5.367   6.821   1.109
 3191SOL    HW110472   5.390   6.890   1.041
 3191SOL    HW210473   5.441   6.754   1.116
 3192SOL     OW10474   0.300   2.650   1.660
 3192SOL    HW110475   0.209   2.692   1.667
 3192SOL    HW210476   0.305   2.572   1.723
 3193SOL     OW10477   3.721   1.293   6.699
 3193SOL    HW110478   3.802   1.250   6.658
 3193SOL    HW210479   3.740   1.389   6.717
 3194SOL     OW10480   0.994   2.954   6.354
 3194SOL    HW110481   1.067   2.977   6.418
 3194SOL    HW210482   1.034   2.915   6.271
 3195SOL     OW10483   2.555   2.501   3.539
 3195SOL    HW110484   2.531   2.523   3.444
 3195SOL    HW210485   2.638   2.445   3.540
 3196SOL     OW10486   0.817   1.635   5.905
 3196SOL    HW110487   0.827   1.576   5.984
 3196SOL    HW210488   0.767   1.587   5.833
 3197SOL     OW10489   2.407   6.252   2.775
 3197SOL    HW110490   2.319   6.219   2.809
 3197SOL    HW210491   2.466   6.278   2.852
 3198SOL     OW10492   5.566   2.423   5.195
 3198SOL    HW110493   5.513   2.501   5.163
 3198SOL    HW210494   5.577   2.429   5.294
 3199SOL     OW10495   4.804   2.971   2.581
 3199SOL    HW110496   4.788   3.042   2.513
 3199SOL    HW210497   4.775   3.003   2.671
 3200SOL     OW10498   6.733   2.922   2.183
 3200SOL    HW110499   6.641   2.888   2.203
 3200SOL    HW210500   6.771   2.873   2.106
 3201SOL     OW10501   5.190   4.728   4.518
 3201SOL    HW110502   5.188   4.757   4.614
 3201SOL    HW210503   5.260   4.780   4.470
 3202SOL     OW10504   0.252   4.840   1.687
 3202SOL    HW110505   0.251   4.755   1.635
 3202SOL    HW210506   0.207   4.826   1.775
 3203SOL     OW10507   6.528   2.309   6.690
 3203SOL    HW110508   6.590   2.383   6.718
 3203SOL    HW210509   6.487   2.267   6.770
 3204SOL     OW10510   4.753   6.396   1.742
 3204SOL    HW110511   4.826   6.454   1.779
 3204SOL    HW210512   4.741   6.316   1.801
 3205SOL     OW10513   6.874   3.375   6.140
 3205SOL    HW110514   6.787   3.383   6.187
 3205SOL    HW210515   6.935   3.315   6.191
 3206SOL     OW10516   0.421   6.484   5.844
 3206SOL    HW110517   0.358   6.448   5.776
 3206SOL    HW210518   0.382   6.565   5.887
 3207SOL     OW10519   1.123   0.523   5.397
 3207SOL    HW110520   1.132   0.606   5.343
 3207SOL    HW210521   1.162   0.446   5.347
 3208SOL     OW10522   5.538   6.909   5.616
 3208SOL    HW110523   5.552   6.962   5.700
 3208SOL    HW210524   5.466   6.840   5.632
 3209SOL     OW10525   4.324   5.414   2.933
 3209SOL    HW110526   4.321   5.456   3.024
 3209SOL    HW210527   4.238   5.429   2.886
 3210SOL     OW10528   0.935   4.261   1.073
 3210SOL    HW110529   0.883   4.258   0.988
 3210SOL    HW210530   0.915   4.345   1.123
 3211SOL     OW10531   1.542   3.857   0.944
 3211SOL    HW110532   1.518   3.945   0.905
 3211SOL    HW210533   1.640   3.840   0.931
 3212SOL     OW10534   2.929   0.851   0.914
 3212SOL    HW110535   2.902   0.758   0.891
 3212SOL    HW210536   3.029   0.855   0.925
 3213SOL     OW10537   0.589   5.871   2.067
 3213SOL    HW110538   0.560   5.910   2.154
 3213SOL    HW210539   0.632   5.941   2.010
 3214SOL     OW10540   4.753   5.642   0.894
 3214SOL    HW110541   4.808   5.683   0.967
 3214SOL    HW210542   4.812   5.585   0.836
 3215SOL     OW10543   0.154   2.947   0.936
 3215SOL    HW110544   0.191   2.876   0.997
 3215SOL    HW210545   0.128   3.027   0.989
 3216SOL     OW10546   5.661   5.403   0.886
 3216SOL    HW110547   5.707   5.420   0.799
 3216SOL    HW210548   5.619   5.312   0.884
 3217SOL     OW10549   0.095   6.089   2.789
 3217SOL    HW110550   0.095   6.188   2.776
 3217SOL    HW210551   0.087   6.043   2.700
 3218SOL     OW10552   4.134   0.565   3.694
 3218SOL    HW110553   4.112   0.482   3.642
 3218SOL    HW210554   4.205   0.544   3.762
 3219SOL     OW10555   0.294   1.666   3.150
 3219SOL    HW110556   0.296   1.744   3.213
 3219SOL    HW210557   0.324   1.583   3.198
 3220SOL     OW10558   6.464   6.290   5.648
 3220SOL    HW110559   6.470   6.362   5.579
 3220SOL    HW210560   6.531   6.308   5.720
 3221SOL     OW10561   3.501   6.939   1.444
 3221SOL    HW110562   3.421   6.993   1.419
 3221SOL    HW210563   3.476   6.842   1.449
 3222SOL     OW10564   4.305   1.692   2.365
 3222SOL    HW110565   4.274   1.623   2.431
 3222SOL    HW210566   4.245   1.772   2.369
 3223SOL     OW10567   2.004   5.142   6.685
 3223SOL    HW110568   1.915   5.098   6.700
 3223SOL    HW210569   1.996   5.208   6.610
 3224SOL     OW10570   4.618   3.529   0.158
 3224SOL    HW110571   4.633   3.439   0.116
 3224SOL    HW210572   4.650   3.528   0.252
 3225SOL     OW10573   4.744   3.232   6.299
 3225SOL    HW110574   4.693   3.245   6.214
 3225SOL    HW210575   4.728   3.309   6.360
 3226SOL     OW10576   2.193   1.658   4.388
 3226SOL    HW110577   2.254   1.735   4.369
 3226SOL    HW210578   2.109   1.691   4.431
 3227SOL     OW10579   3.824   1.988   0.579
 3227SOL    HW110580   3.882   1.909   0.602
 3227SOL    HW210581   3.853   2.067   0.634
 3228SOL     OW10582   6.019   4.084   2.799
 3228SOL    HW110583   6.079   4.066   2.721
 3228SOL    HW210584   5.973   3.999   2.825
 3229SOL     OW10585   3.941   0.813   5.464
 3229SOL    HW110586   3.922   0.840   5.370
 3229SOL    HW210587   3.984   0.723   5.465
 3230SOL     OW10588   1.609   3.089   4.329
 3230SOL    HW110589   1.527   3.134   4.293
 3230SOL    HW210590   1.581   3.010   4.384
 3231SOL     OW10591   2.332   1.296   1.787
 3231SOL    HW110592   2.258   1.272   1.725
 3231SOL    HW210593   2.319   1.389   1.820
 3232SOL     OW10594   4.329   5.334   5.366
 3232SOL    HW110595   4.304   5.238   5.367
 3232SOL    HW210596   4.407   5.348   5.305
 3233SOL     OW10597   0.940   2.419   1.783
 3233SOL    HW110598   0.939   2.392   1.687
 3233SOL    HW210599   0.957   2.338   1.840
 3234SOL     OW10600   0.384   1.756   7.002
 3234SOL    HW110601   0.309   1.803   6.956
 3234SOL    HW210602   0.348   1.684   0.033
 3235SOL     OW10603   5.400   0.850   1.379
 3235SOL    HW110604   5.418   0.753   1.363
 3235SOL    HW210605   5.369   0.892   1.294
 3236SOL     OW10606   0.931   3.504   0.965
 3236SOL    HW110607   0.959   3.592   0.925
 3236SOL    HW210608   0.831   3.501   0.972
 3237SOL     OW10609   5.073   1.329   4.115
 3237SOL    HW110610   4.993   1.288   4.158
 3237SOL    HW210611   5.054   1.344   4.018
 3238SOL     OW10612   0.057   4.877   0.894
 3238SOL    HW110613   0.120   4.947   0.930
 3238SOL    HW210614   6.998   4.919   0.871
 3239SOL     OW10615   6.399   1.461   1.480
 3239SOL    HW110616   6.329   1.390   1.472
 3239SOL    HW210617   6.364   1.537   1.535
 3240SOL     OW10618   1.525   6.968   6.108
 3240SOL    HW110619   1.540   0.039   6.108
 3240SOL    HW210620   1.428   6.949   6.091
 3241SOL     OW10621   4.480   1.466   5.460
 3241SOL    HW110622   4.501   1.371   5.482
 3241SOL    HW210623   4.408   1.499   5.521
 3242SOL     OW10624   3.444   4.556   0.561
 3242SOL    HW110625   3.521   4.492   0.555
 3242SOL    HW210626   3.478   4.650   0.559
 3243SOL     OW10627   5.104   4.729   0.563
 3243SOL    HW110628   5.014   4.757   0.530
 3243SOL    HW210629   5.175   4.781   0.516
 3244SOL     OW10630   5.010   5.870   6.966
 3244SOL    HW110631   5.030   5.781   7.005
 3244SOL    HW210632   4.932   5.911   7.014
 3245SOL     OW10633   4.775   2.988   5.256
 3245SOL    HW110634   4.686   2.972   5.213
 3245SOL    HW210635   4.835   2.910   5.236
 3246SOL     OW10636   5.123   0.648   2.683
 3246SOL    HW110637   5.190   0.574   2.677
 3246SOL    HW210638   5.075   0.656   2.596
 3247SOL     OW10639   5.692   4.826   2.772
 3247SOL    HW110640   5.624   4.860   2.836
 3247SOL    HW210641   5.673   4.730   2.751
 3248SOL     OW10642   6.539   3.794   1.452
 3248SOL    HW110643   6.460   3.795   1.513
 3248SOL    HW210644   6.581   3.704   1.453
 3249SOL     OW10645   3.803   3.769   4.486
 3249SOL    HW110646   3.802   3.869   4.491
 3249SOL    HW210647   3.896   3.736   4.502
 3250SOL     OW10648   6.255   6.564   1.850
 3250SOL    HW110649   6.155   6.555   1.847
 3250SOL    HW210650   6.288   6.540   1.941
 3251SOL     OW10651   3.445   0.869   2.067
 3251SOL    HW110652   3.397   0.782   2.081
 3251SOL    HW210653   3.506   0.862   1.989
 3252SOL     OW10654   2.264   1.961   2.370
 3252SOL    HW110655   2.258   1.916   2.459
 3252SOL    HW210656   2.352   1.940   2.327
 3253SOL     OW10657   5.691   2.998   2.246
 3253SOL    HW110658   5.670   2.917   2.192
 3253SOL    HW210659   5.698   2.973   2.343
 3254SOL     OW10660   5.060   5.029   5.547
 3254SOL    HW110661   5.018   4.949   5.504
 3254SOL    HW210662   5.061   5.105   5.482
 3255SOL     OW10663   5.218   5.668   1.145
 3255SOL    HW110664   5.297   5.679   1.205
 3255SOL    HW210665   5.147   5.734   1.170
 3256SOL     OW10666   4.471   0.835   0.431
 3256SOL    HW110667   4.445   0.799   0.521
 3256SOL    HW210668   4.413   0.795   0.360
 3257SOL     OW10669   1.393   1.646   1.139
 3257SOL    HW110670   1.313   1.676   1.191
 3257SOL    HW210671   1.476   1.663   1.192
 3258SOL     OW10672   4.161   4.668   1.936
 3258SOL    HW110673   4.180   4.690   2.032
 3258SOL    HW210674   4.144   4.570   1.928
 3259SOL     OW10675   4.395   5.104   3.825
 3259SOL    HW110676   4.332   5.113   3.748
 3259SOL    HW210677   4.437   5.013   3.823
 3260SOL     OW10678   1.527   1.938   0.762
 3260SOL    HW110679   1.578   1.857   0.791
 3260SOL    HW210680   1.530   1.946   0.663
 3261SOL     OW10681   5.004   6.694   0.308
 3261SOL    HW110682   5.066   6.661   0.237
 3261SOL    HW210683   4.928   6.744   0.266
 3262SOL     OW10684   3.404   2.120   2.949
 3262SOL    HW110685   3.474   2.076   3.005
 3262SOL    HW210686   3.314   2.105   2.991
 3263SOL     OW10687   2.967   1.269   3.547
 3263SOL    HW110688   3.035   1.229   3.486
 3263SOL    HW210689   2.944   1.361   3.517
 3264SOL     OW10690   1.353   4.541   1.003
 3264SOL    HW110691   1.426   4.603   1.031
 3264SOL    HW210692   1.307   4.506   1.084
 3265SOL     OW10693   4.826   1.173   6.058
 3265SOL    HW110694   4.747   1.197   6.002
 3265SOL    HW210695   4.899   1.240   6.042
 3266SOL     OW10696   0.766   3.330   0.204
 3266SOL    HW110697   0.675   3.334   0.245
 3266SOL    HW210698   0.825   3.270   0.258
 3267SOL     OW10699   3.511   1.024   0.178
 3267SOL    HW110700   3.477   1.088   0.247
 3267SOL    HW210701   3.489   1.058   0.087
 3268SOL     OW10702   1.322   4.589   0.206
 3268SOL    HW110703   1.345   4.498   0.239
 3268SOL    HW210704   1.383   4.656   0.248
 3269SOL     OW10705   4.340   4.611   2.312
 3269SOL    HW110706   4.338   4.645   2.406
 3269SOL    HW210707   4.421   4.554   2.299
 3270SOL     OW10708   0.716   4.300   4.395
 3270SOL    HW110709   0.676   4.343   4.476
 3270SOL    HW210710   0.816   4.312   4.398
 3271SOL     OW10711   5.636   3.505   2.436
 3271SOL    HW110712   5.573   3.560   2.381
 3271SOL    HW210713   5.653   3.418   2.390
 3272SOL     OW10714   3.163   4.469   6.605
 3272SOL    HW110715   3.246   4.491   6.554
 3272SOL    HW210716   3.092   4.439   6.541
 3273SOL     OW10717   0.686   6.281   1.538
 3273SOL    HW110718   0.709   6.378   1.524
 3273SOL    HW210719   0.629   6.250   1.462
 3274SOL     OW10720   4.296   1.377   1.770
 3274SOL    HW110721   4.265   1.393   1.864
 3274SOL    HW210722   4.333   1.461   1.732
 3275SOL     OW10723   0.189   1.022   6.396
 3275SOL    HW110724   0.091   1.014   6.411
 3275SOL    HW210725   0.237   1.007   6.483
 3276SOL     OW10726   3.272   5.935   0.208
 3276SOL    HW110727   3.260   5.842   0.172
 3276SOL    HW210728   3.213   5.998   0.158
 3277SOL     OW10729   4.811   6.809   0.576
 3277SOL    HW110730   4.814   6.723   0.525
 3277SOL    HW210731   4.860   6.880   0.525
 3278SOL     OW10732   0.104   1.042   6.005
 3278SOL    HW110733   0.041   1.106   6.048
 3278SOL    HW210734   0.147   0.985   6.076
 3279SOL     OW10735   5.817   1.204   0.471
 3279SOL    HW110736   5.812   1.113   0.513
 3279SOL    HW210737   5.799   1.196   0.373
 3280SOL     OW10738   3.817   4.952   4.941
 3280SOL    HW110739   3.740   4.950   4.877
 3280SOL    HW210740   3.876   5.030   4.919
 3281SOL     OW10741   1.937   5.158   1.424
 3281SOL    HW110742   2.028   5.124   1.400
 3281SOL    HW210743   1.941   5.200   1.515
 3282SOL     OW10744   0.908   5.394   5.118
 3282SOL    HW110745   0.976   5.348   5.176
 3282SOL    HW210746   0.895   5.487   5.150
 3283SOL     OW10747   4.211   1.421   0.787
 3283SOL    HW110748   4.199   1.421   0.887
 3283SOL    HW210749   4.122   1.412   0.743
 3284SOL     OW10750   5.993   5.650   6.767
 3284SOL    HW110751   5.986   5.737   6.719
 3284SOL    HW210752   6.086   5.616   6.761
 3285SOL     OW10753   4.619   2.636   3.791
 3285SOL    HW110754   4.656   2.712   3.845
 3285SOL    HW210755   4.566   2.576   3.850
 3286SOL     OW10756   4.115   3.575   2.457
 3286SOL    HW110757   4.129   3.563   2.556
 3286SOL    HW210758   4.171   3.509   2.408
 3287SOL     OW10759   1.487   6.839   6.634
 3287SOL    HW110760   1.564   6.841   6.571
 3287SOL    HW210761   1.496   6.914   6.699
 3288SOL     OW10762   0.760   5.330   6.488
 3288SOL    HW110763   0.740   5.242   6.531
 3288SOL    HW210764   0.854   5.357   6.510
 3289SOL     OW10765   3.017   6.918   5.423
 3289SOL    HW110766   3.024   6.956   5.331
 3289SOL    HW210767   2.937   6.858   5.428
 3290SOL     OW10768   0.431   6.918   1.885
 3290SOL    HW110769   0.452   6.943   1.979
 3290SOL    HW210770   0.460   6.991   1.824
 3291SOL     OW10771   1.276   5.977   0.701
 3291SOL    HW110772   1.260   6.055   0.762
 3291SOL    HW210773   1.190   5.947   0.662
 3292SOL     OW10774   0.909   0.903   0.795
 3292SOL    HW110775   0.984   0.898   0.861
 3292SOL    HW210776   0.917   0.827   0.730
 3293SOL     OW10777   0.537   3.748   3.196
 3293SOL    HW110778   0.461   3.808   3.171
 3293SOL    HW210779   0.600   3.796   3.256
 3294SOL     OW10780   6.978   1.248   6.099
 3294SOL    HW110781   6.912   1.317   6.069
 3294SOL    HW210782   7.004   1.267   6.194
 3295SOL     OW10783   1.516   3.290   1.922
 3295SOL    HW110784   1.459   3.372   1.918
 3295SOL    HW210785   1.544   3.264   1.830
 3296SOL     OW10786   1.999   6.160   2.154
 3296SOL    HW110787   1.978   6.258   2.160
 3296SOL    HW210788   1.972   6.115   2.240
 3297SOL     OW10789   2.877   0.649   4.577
 3297SOL    HW110790   2.963   0.680   4.535
 3297SOL    HW210791   2.896   0.610   4.667
 3298SOL     OW10792   5.634   1.726   4.622
 3298SOL    HW110793   5.648   1.770   4.534
 3298SOL    HW210794   5.654   1.629   4.615
 3299SOL     OW10795   2.637   6.031   4.016
 3299SOL    HW110796   2.662   5.935   4.031
 3299SOL    HW210797   2.549   6.035   3.969
 3300SOL     OW10798   0.638   0.794   5.774
 3300SOL    HW110799   0.635   0.746   5.686
 3300SOL    HW210800   0.546   0.816   5.804
 3301SOL     OW10801   2.125   3.179   3.163
 3301SOL    HW110802   2.209   3.229   3.141
 3301SOL    HW210803   2.066   3.175   3.082
 3302SOL     OW10804   0.693   5.482   5.582
 3302SOL    HW110805   0.695   5.478   5.682
 3302SOL    HW210806   0.629   5.413   5.548
 3303SOL     OW10807   3.261   2.928   1.899
 3303SOL    HW110808   3.340   2.927   1.837
 3303SOL    HW210809   3.181   2.891   1.852
 3304SOL     OW10810   1.410   5.657   4.136
 3304SOL    HW110811   1.341   5.643   4.066
 3304SOL    HW210812   1.369   5.647   4.227
 3305SOL     OW10813   2.141   1.294   3.233
 3305SOL    HW110814   2.221   1.351   3.251
 3305SOL    HW210815   2.076   1.304   3.308
 3306SOL     OW10816   1.986   5.597   4.472
 3306SOL    HW110817   2.024   5.562   4.386
 3306SOL    HW210818   1.922   5.672   4.452
 3307SOL     OW10819   6.536   5.706   6.739
 3307SOL    HW110820   6.577   5.777   6.797
 3307SOL    HW210821   6.473   5.749   6.675
 3308SOL     OW10822   4.177   5.774   0.025
 3308SOL    HW110823   4.115   5.807   0.095
 3308SOL    HW210824   4.215   5.686   0.053
 3309SOL     OW10825   0.367   5.657   2.413
 3309SOL    HW110826   0.418   5.633   2.330
 3309SOL    HW210827   0.430   5.696   2.480
 3310SOL     OW10828   0.327   3.892   4.772
 3310SOL    HW110829   0.396   3.957   4.740
 3310SOL    HW210830   0.352   3.858   4.862
 3311SOL     OW10831   2.286   3.894   1.348
 3311SOL    HW110832   2.339   3.864   1.269
 3311SOL    HW210833   2.292   3.993   1.357
 3312SOL     OW10834   3.991   4.749   5.925
 3312SOL    HW110835   4.029   4.842   5.929
 3312SOL    HW210836   4.064   4.683   5.940
 3313SOL     OW10837   0.192   5.277   3.276
 3313SOL    HW110838   0.175   5.355   3.336
 3313SOL    HW210839   0.126   5.278   3.201
 3314SOL     OW10840   2.781   1.643   3.904
 3314SOL    HW110841   2.856   1.628   3.840
 3314SOL    HW210842   2.695   1.616   3.861
 3315SOL     OW10843   5.969   2.834   4.208
 3315SOL    HW110844   5.938   2.913   4.155
 3315SOL    HW210845   6.011   2.865   4.293
 3316SOL     OW10846   4.401   1.797   6.330
 3316SOL    HW110847   4.461   1.782   6.409
 3316SOL    HW210848   4.437   1.749   6.250
 3317SOL     OW10849   4.955   3.439   1.819
 3317SOL    HW110850   5.013   3.513   1.786
 3317SOL    HW210851   4.942   3.372   1.746
 3318SOL     OW10852   3.529   0.479   0.554
 3318SOL    HW110853   3.551   0.393   0.600
 3318SOL    HW210854   3.512   0.550   0.623
 3319SOL     OW10855   6.529   0.335   4.344
 3319SOL    HW110856   6.600   0.405   4.338
 3319SOL    HW210857   6.555   0.257   4.288
 3320SOL     OW10858   5.662   1.079   5.541
 3320SOL    HW110859   5.760   1.062   5.550
 3320SOL    HW210860   5.622   1.010   5.480
 3321SOL     OW10861   3.928   2.143   1.312
 3321SOL    HW110862   3.989   2.220   1.328
 3321SOL    HW210863   3.871   2.128   1.392
 3322SOL     OW10864   5.584   3.651   0.983
 3322SOL    HW110865   5.535   3.564   0.971
 3322SOL    HW210866   5.538   3.704   1.055
 3323SOL     OW10867   2.893   3.564   6.430
 3323SOL    HW110868   2.797   3.537   6.440
 3323SOL    HW210869   2.912   3.643   6.489
 3324SOL     OW10870   1.579   3.866   6.623
 3324SOL    HW110871   1.595   3.853   6.525
 3324SOL    HW210872   1.497   3.922   6.636
 3325SOL     OW10873   2.221   2.875   6.526
 3325SOL    HW110874   2.273   2.919   6.453
 3325SOL    HW210875   2.235   2.925   6.612
 3326SOL     OW10876   5.397   2.002   2.418
 3326SOL    HW110877   5.396   1.911   2.459
 3326SOL    HW210878   5.491   2.034   2.410
 3327SOL     OW10879   3.254   5.753   1.418
 3327SOL    HW110880   3.277   5.834   1.365
 3327SOL    HW210881   3.165   5.718   1.388
 3328SOL     OW10882   4.485   1.983   1.516
 3328SOL    HW110883   4.488   1.900   1.461
 3328SOL    HW210884   4.496   1.960   1.613
 3329SOL     OW10885   5.405   0.412   4.725
 3329SOL    HW110886   5.441   0.505   4.727
 3329SOL    HW210887   5.451   0.360   4.653
 3330SOL     OW10888   6.311   6.072   1.417
 3330SOL    HW110889   6.340   6.108   1.506
 3330SOL    HW210890   6.367   6.114   1.345
 3331SOL     OW10891   1.032   3.931   1.359
 3331SOL    HW110892   1.122   3.891   1.343
 3331SOL    HW210893   0.963   3.879   1.308
 3332SOL     OW10894   6.704   4.762   0.516
 3332SOL    HW110895   6.632   4.806   0.569
 3332SOL    HW210896   6.719   4.669   0.550
 3333SOL     OW10897   3.005   4.384   6.420
 3333SOL    HW110898   2.974   4.444   6.346
 3333SOL    HW210899   2.937   4.313   6.436
 3334SOL     OW10900   2.556   4.360   1.638
 3334SOL    HW110901   2.533   4.441   1.692
 3334SOL    HW210902   2.651   4.335   1.655
 3335SOL     OW10903   4.754   6.785   5.924
 3335SOL    HW110904   4.746   6.699   5.874
 3335SOL    HW210905   4.843   6.827   5.906
 3336SOL     OW10906   1.806   6.436   4.799
 3336SOL    HW110907   1.810   6.412   4.701
 3336SOL    HW210908   1.827   6.355   4.853
 3337SOL     OW10909   2.980   3.974   1.456
 3337SOL    HW110910   2.914   3.963   1.530
 3337SOL    HW210911   3.058   3.914   1.472
 3338SOL     OW10912   6.727   2.634   1.601
 3338SOL    HW110913   6.784   2.716   1.594
 3338SOL    HW210914   6.741   2.577   1.521
 3339SOL     OW10915   1.137   6.944   6.419
 3339SOL    HW110916   1.076   6.873   6.455
 3339SOL    HW210917   1.097   6.985   6.337
 3340SOL     OW10918   3.443   1.872   3.324
 3340SOL    HW110919   3.499   1.939   3.372
 3340SOL    HW210920   3.347   1.887   3.346
 3341SOL     OW10921   1.362   4.056   4.064
 3341SOL    HW110922   1.391   4.062   3.968
 3341SOL    HW210923   1.388   3.967   4.101
 3342SOL     OW10924   1.209   6.791   3.429
 3342SOL    HW110925   1.132   6.746   3.382
 3342SOL    HW210926   1.279   6.815   3.361
 3343SOL     OW10927   5.359   3.833   0.132
 3343SOL    HW110928   5.269   3.793   0.148
 3343SOL    HW210929   5.351   3.906   0.065
 3344SOL     OW10930   5.464   3.700   3.557
 3344SOL    HW110931   5.493   3.613   3.517
 3344SOL    HW210932   5.544   3.758   3.572
 3345SOL     OW10933   1.436   3.461   6.059
 3345SOL    HW110934   1.405   3.456   5.964
 3345SOL    HW210935   1.387   3.535   6.106
 3346SOL     OW10936   0.860   0.704   0.206
 3346SOL    HW110937   0.850   0.794   0.163
 3346SOL    HW210938   0.956   0.689   0.230
 3347SOL     OW10939   1.457   2.632   4.749
 3347SOL    HW110940   1.403   2.549   4.754
 3347SOL    HW210941   1.412   2.705   4.800
 3348SOL     OW10942   4.052   3.374   4.371
 3348SOL    HW110943   4.107   3.406   4.294
 3348SOL    HW210944   3.969   3.428   4.379
 3349SOL     OW10945   2.033   5.151   3.332
 3349SOL    HW110946   1.951   5.112   3.374
 3349SOL    HW210947   2.084   5.078   3.286
 3350SOL     OW10948   6.908   2.088   5.821
 3350SOL    HW110949   7.000   2.127   5.814
 3350SOL    HW210950   6.911   2.005   5.876
 3351SOL     OW10951   4.964   0.818   3.134
 3351SOL    HW110952   5.052   0.773   3.147
 3351SOL    HW210953   4.922   0.786   3.049
 3352SOL     OW10954   6.758   3.282   1.285
 3352SOL    HW110955   6.717   3.205   1.235
 3352SOL    HW210956   6.758   3.363   1.226
 3353SOL     OW10957   2.845   5.533   1.168
 3353SOL    HW110958   2.899   5.571   1.243
 3353SOL    HW210959   2.893   5.546   1.082
 3354SOL     OW10960   4.279   2.685   5.630
 3354SOL    HW110961   4.255   2.763   5.688
 3354SOL    HW210962   4.205   2.618   5.630
 3355SOL     OW10963   1.771   1.677   6.410
 3355SOL    HW110964   1.845   1.629   6.456
 3355SOL    HW210965   1.794   1.689   6.313
 3356SOL     OW10966   0.816   5.814   6.165
 3356SOL    HW110967   0.719   5.827   6.188
 3356SOL    HW210968   0.871   5.881   6.214
 3357SOL     OW10969   2.229   3.451   1.600
 3357SOL    HW110970   2.158   3.398   1.554
 3357SOL    HW210971   2.226   3.433   1.698
 3358SOL     OW10972   4.712   1.653   1.974
 3358SOL    HW110973   4.618   1.622   1.961
 3358SOL    HW210974   4.759   1.592   2.038
 3359SOL     OW10975   0.708   6.337   3.114
 3359SOL    HW110976   0.631   6.400   3.105
 3359SOL    HW210977   0.738   6.308   3.023
 3360SOL     OW10978   1.674   0.900   0.206
 3360SOL    HW110979   1.721   0.878   0.120
 3360SOL    HW210980   1.702   0.835   0.277
 3361SOL     OW10981   6.678   5.266   4.312
 3361SOL    HW110982   6.760   5.224   4.273
 3361SOL    HW210983   6.698   5.297   4.405
 3362SOL     OW10984   3.305   1.316   2.768
 3362SOL    HW110985   3.277   1.399   2.815
 3362SOL    HW210986   3.231   1.284   2.710
 3363SOL     OW10987   0.030   1.527   2.208
 3363SOL    HW110988   0.052   1.602   2.145
 3363SOL    HW210989   7.019   1.451   2.157
 3364SOL     OW10990   1.567   4.907   3.614
 3364SOL    HW110991   1.591   4.958   3.696
 3364SOL    HW210992   1.646   4.905   3.552
 3365SOL     OW10993   0.222   2.444   4.689
 3365SOL    HW110994   0.165   2.444   4.771
 3365SOL    HW210995   0.199   2.366   4.631
 3366SOL     OW10996   5.322   5.217   4.261
 3366SOL    HW110997   5.297   5.306   4.299
 3366SOL    HW210998   5.239   5.164   4.245
 3367SOL     OW10999   3.791   3.025   2.558
 3367SOL    HW111000   3.716   2.961   2.538
 3367SOL    HW211001   3.812   3.022   2.656
 3368SOL     OW11002   0.634   5.939   6.555
 3368SOL    HW111003   0.546   5.948   6.509
 3368SOL    HW211004   0.671   5.847   6.537
 3369SOL     OW11005   3.552   2.020   0.465
 3369SOL    HW111006   3.646   2.000   0.491
 3369SOL    HW211007   3.514   1.943   0.415
 3370SOL     OW11008   6.977   6.475   1.456
 3370SOL    HW111009   6.996   6.506   1.549
 3370SOL    HW211010   6.929   6.548   1.406
 3371SOL     OW11011   1.981   3.076   1.575
 3371SOL    HW111012   2.080   3.058   1.573
 3371SOL    HW211013   1.935   3.015   1.510
 3372SOL     OW11014   6.845   2.136   6.799
 3372SOL    HW111015   6.805   2.126   6.708
 3372SOL    HW211016   6.849   2.232   6.823
 3373SOL     OW11017   0.509   1.438   3.647
 3373SOL    HW111018   0.525   1.462   3.551
 3373SOL    HW211019   0.477   1.519   3.697
 3374SOL     OW11020   1.363   6.508   4.481
 3374SOL    HW111021   1.269   6.521   4.450
 3374SOL    HW211022   1.366   6.506   4.581
 3375SOL     OW11023   0.146   4.679   0.159
 3375SOL    HW111024   0.222   4.702   0.098
 3375SOL    HW211025   0.081   4.754   0.161
 3376SOL     OW11026   3.930   3.142   4.499
 3376SOL    HW111027   3.941   3.145   4.598
 3376SOL    HW211028   3.994   3.205   4.456
 3377SOL     OW11029   6.466   5.732   5.747
 3377SOL    HW111030   6.413   5.771   5.822
 3377SOL    HW211031   6.555   5.701   5.781
 3378SOL     OW11032   1.193   6.945   0.718
 3378SOL    HW111033   1.137   7.004   0.776
 3378SOL    HW211034   1.282   6.930   0.761
 3379SOL     OW11035   1.145   2.114   5.178
 3379SOL    HW111036   1.160   2.025   5.220
 3379SOL    HW211037   1.053   2.146   5.199
 3380SOL     OW11038   5.526   6.316   4.413
 3380SOL    HW111039   5.593   6.386   4.388
 3380SOL    HW211040   5.475   6.346   4.494
 3381SOL     OW11041   0.822   2.981   1.593
 3381SOL    HW111042   0.839   3.060   1.534
 3381SOL    HW211043   0.814   2.899   1.536
 3382SOL     OW11044   0.636   2.886   6.935
 3382SOL    HW111045   0.690   2.868   7.017
 3382SOL    HW211046   0.595   2.800   6.903
 3383SOL     OW11047   3.819   5.618   1.388
 3383SOL    HW111048   3.776   5.699   1.430
 3383SOL    HW211049   3.911   5.641   1.359
 3384SOL     OW11050   2.196   3.288   0.756
 3384SOL    HW111051   2.271   3.332   0.805
 3384SOL    HW211052   2.233   3.229   0.684
 3385SOL     OW11053   6.915   2.955   4.833
 3385SOL    HW111054   6.844   3.004   4.783
 3385SOL    HW211055   6.911   2.857   4.811
 3386SOL     OW11056   5.355   4.150   0.353
 3386SOL    HW111057   5.298   4.107   0.424
 3386SOL    HW211058   5.359   4.248   0.369
 3387SOL     OW11059   3.929   0.781   3.031
 3387SOL    HW111060   3.900   0.876   3.021
 3387SOL    HW211061   4.012   0.765   2.978
 3388SOL     OW11062   5.116   3.078   2.616
 3388SOL    HW111063   5.106   2.980   2.596
 3388SOL    HW211064   5.111   3.093   2.715
 3389SOL     OW11065   6.318   5.892   5.916
 3389SOL    HW111066   6.272   5.944   5.844
 3389SOL    HW211067   6.255   5.881   5.994
 3390SOL     OW11068   5.651   6.788   6.651
 3390SOL    HW111069   5.555   6.812   6.638
 3390SOL    HW211070   5.695   6.777   6.562
 3391SOL     OW11071   4.801   2.216   4.565
 3391SOL    HW111072   4.733   2.162   4.514
 3391SOL    HW211073   4.754   2.285   4.620
 3392SOL     OW11074   2.981   6.910   3.624
 3392SOL    HW111075   2.923   6.870   3.695
 3392SOL    HW211076   2.934   6.905   3.535
 3393SOL     OW11077   6.343   5.782   1.138
 3393SOL    HW111078   6.439   5.774   1.113
 3393SOL    HW211079   6.316   5.879   1.140
 3394SOL     OW11080   5.296   3.602   1.016
 3394SOL    HW111081   5.255   3.682   0.973
 3394SOL    HW211082   5.248   3.519   0.985
 3395SOL     OW11083   5.275   3.070   3.834
 3395SOL    HW111084   5.254   2.972   3.835
 3395SOL    HW211085   5.342   3.089   3.762
 3396SOL     OW11086   5.296   1.173   3.944
 3396SOL    HW111087   5.322   1.082   3.911
 3396SOL    HW211088   5.304   1.176   4.043
 3397SOL     OW11089   3.132   6.006   6.644
 3397SOL    HW111090   3.094   6.049   6.562
 3397SOL    HW211091   3.072   5.931   6.673
 3398SOL     OW11092   0.814   0.611   4.410
 3398SOL    HW111093   0.869   0.608   4.494
 3398SOL    HW211094   0.756   0.529   4.405
 3399SOL     OW11095   5.409   5.138   3.668
 3399SOL    HW111096   5.378   5.044   3.678
 3399SOL    HW211097   5.421   5.179   3.759
 3400SOL     OW11098   5.351   3.033   6.809
 3400SOL    HW111099   5.281   3.084   6.858
 3400SOL    HW211100   5.411   3.097   6.760
 3401SOL     OW11101   6.901   3.679   6.325
 3401SOL    HW111102   6.809   3.686   6.288
 3401SOL    HW211103   6.913   3.590   6.369
 3402SOL     OW11104   4.595   5.339   6.650
 3402SOL    HW111105   4.676   5.296   6.690
 3402SOL    HW211106   4.618   5.372   6.558
 3403SOL     OW11107   3.507   5.561   6.348
 3403SOL    HW111108   3.412   5.557   6.380
 3403SOL    HW211109   3.508   5.580   6.250
 3404SOL     OW11110   5.410   2.443   0.840
 3404SOL    HW111111   5.449   2.388   0.914
 3404SOL    HW211112   5.483   2.483   0.785
 3405SOL     OW11113   6.164   3.801   5.914
 3405SOL    HW111114   6.118   3.848   5.990
 3405SOL    HW211115   6.172   3.863   5.836
 3406SOL     OW11116   0.954   3.592   1.927
 3406SOL    HW111117   0.950   3.617   1.830
 3406SOL    HW211118   1.005   3.506   1.937
 3407SOL     OW11119   1.325   3.995   6.598
 3407SOL    HW111120   1.358   4.086   6.621
 3407SOL    HW211121   1.232   3.983   6.633
 3408SOL     OW11122   5.351   3.048   4.737
 3408SOL    HW111123   5.371   3.119   4.803
 3408SOL    HW211124   5.284   2.984   4.776
 3409SOL     OW11125   3.542   5.981   0.231
 3409SOL    HW111126   3.448   5.950   0.213
 3409SOL    HW211127   3.595   5.977   0.146
 3410SOL     OW11128   6.848   6.800   1.510
 3410SOL    HW111129   6.934   6.768   1.551
 3410SOL    HW211130   6.790   6.840   1.580
 3411SOL     OW11131   0.323   2.838   1.121
 3411SOL    HW111132   0.386   2.913   1.145
 3411SOL    HW211133   0.354   2.754   1.165
 3412SOL     OW11134   4.986   3.336   1.235
 3412SOL    HW111135   4.960   3.388   1.316
 3412SOL    HW211136   5.068   3.281   1.256
 3413SOL     OW11137   6.168   1.670   0.702
 3413SOL    HW111138   6.206   1.578   0.686
 3413SOL    HW211139   6.221   1.715   0.774
 3414SOL     OW11140   3.369   1.883   5.762
 3414SOL    HW111141   3.278   1.845   5.746
 3414SOL    HW211142   3.392   1.947   5.688
 3415SOL     OW11143   1.849   3.369   4.351
 3415SOL    HW111144   1.931   3.421   4.375
 3415SOL    HW211145   1.862   3.273   4.374
 3416SOL     OW11146   5.945   6.312   0.568
 3416SOL    HW111147   5.952   6.212   0.565
 3416SOL    HW211148   5.849   6.339   0.557
 3417SOL     OW11149   0.372   5.991   3.900
 3417SOL    HW111150   0.357   5.907   3.953
 3417SOL    HW211151   0.436   5.973   3.826
 3418SOL     OW11152   3.062   5.663   3.713
 3418SOL    HW111153   3.093   5.620   3.798
 3418SOL    HW211154   3.120   5.742   3.692
 3419SOL     OW11155   3.080   5.476   6.180
 3419SOL    HW111156   3.012   5.547   6.202
 3419SOL    HW211157   3.139   5.461   6.259
 3420SOL     OW11158   5.901   2.927   2.969
 3420SOL    HW111159   5.989   2.941   3.014
 3420SOL    HW211160   5.868   2.835   2.986
 3421SOL     OW11161   4.931   2.033   4.196
 3421SOL    HW111162   4.840   1.992   4.186
 3421SOL    HW211163   5.001   1.964   4.177
 3422SOL     OW11164   3.144   0.342   0.566
 3422SOL    HW111165   3.137   0.251   0.524
 3422SOL    HW211166   3.065   0.397   0.539
 3423SOL     OW11167   0.299   4.733   6.360
 3423SOL    HW111168   0.211   4.696   6.392
 3423SOL    HW211169   0.312   4.825   6.397
 3424SOL     OW11170   2.343   6.782   1.200
 3424SOL    HW111171   2.304   6.715   1.264
 3424SOL    HW211172   2.393   6.734   1.128
 3425SOL     OW11173   4.546   4.827   2.029
 3425SOL    HW111174   4.587   4.918   2.024
 3425SOL    HW211175   4.615   4.762   2.060
 3426SOL     OW11176   4.182   2.627   1.179
 3426SOL    HW111177   4.141   2.536   1.183
 3426SOL    HW211178   4.233   2.644   1.263
 3427SOL     OW11179   0.922   1.588   0.712
 3427SOL    HW111180   0.918   1.688   0.704
 3427SOL    HW211181   1.013   1.561   0.743
 3428SOL     OW11182   2.549   5.128   0.039
 3428SOL    HW111183   2.497   5.177   0.109
 3428SOL    HW211184   2.502   5.042   0.017
 3429SOL     OW11185   0.303   2.111   1.071
 3429SOL    HW111186   0.308   2.038   1.002
 3429SOL    HW211187   0.224   2.095   1.131
 3430SOL     OW11188   1.623   6.257   5.430
 3430SOL    HW111189   1.697   6.324   5.433
 3430SOL    HW211190   1.563   6.270   5.509
 3431SOL     OW11191   1.536   6.452   1.817
 3431SOL    HW111192   1.611   6.433   1.881
 3431SOL    HW211193   1.455   6.401   1.846
 3432SOL     OW11194   1.768   3.830   5.106
 3432SOL    HW111195   1.825   3.844   5.187
 3432SOL    HW211196   1.698   3.761   5.125
 3433SOL     OW11197   1.526   0.224   4.761
 3433SOL    HW111198   1.466   0.301   4.784
 3433SOL    HW211199   1.496   0.182   4.675
 3434SOL     OW11200   4.143   1.090   1.926
 3434SOL    HW111201   4.173   1.022   1.992
 3434SOL    HW211202   4.202   1.086   1.845
 3435SOL     OW11203   1.604   1.327   1.146
 3435SOL    HW111204   1.636   1.328   1.051
 3435SOL    HW211205   1.537   1.254   1.158
 3436SOL     OW11206   3.759   6.041   0.478
 3436SOL    HW111207   3.724   5.960   0.432
 3436SOL    HW211208   3.697   6.118   0.464
 3437SOL     OW11209   3.156   0.075   5.749
 3437SOL    HW111210   3.161   0.104   5.654
 3437SOL    HW211211   3.064   0.045   5.771
 3438SOL     OW11212   0.902   3.133   1.005
 3438SOL    HW111213   0.807   3.120   1.033
 3438SOL    HW211214   0.906   3.151   0.907
 3439SOL     OW11215   2.776   6.021   4.810
 3439SOL    HW111216   2.764   6.046   4.906
 3439SOL    HW211217   2.702   5.961   4.781
 3440SOL     OW11218   2.946   3.115   1.861
 3440SOL    HW111219   2.978   3.186   1.924
 3440SOL    HW211220   3.006   3.035   1.867
 3441SOL     OW11221   6.784   5.952   6.433
 3441SOL    HW111222   6.742   5.868   6.398
 3441SOL    HW211223   6.883   5.941   6.434
 3442SOL     OW11224   1.895   4.108   1.504
 3442SOL    HW111225   1.823   4.038   1.513
 3442SOL    HW211226   1.853   4.194   1.475
 3443SOL     OW11227   3.448   6.298   2.411
 3443SOL    HW111228   3.502   6.300   2.495
 3443SOL    HW211229   3.497   6.244   2.342
 3444SOL     OW11230   4.829   5.481   6.992
 3444SOL    HW111231   4.887   5.562   6.985
 3444SOL    HW211232   4.870   5.416   0.028
 3445SOL     OW11233   5.723   5.066   2.638
 3445SOL    HW111234   5.709   4.980   2.688
 3445SOL    HW211235   5.725   5.046   2.540
 3446SOL     OW11236   6.033   0.906   1.835
 3446SOL    HW111237   5.979   0.828   1.803
 3446SOL    HW211238   6.053   0.895   1.932
 3447SOL     OW11239   4.733   5.993   1.184
 3447SOL    HW111240   4.696   5.968   1.274
 3447SOL    HW211241   4.762   6.088   1.185
 3448SOL     OW11242   3.857   0.293   6.419
 3448SOL    HW111243   3.766   0.282   6.458
 3448SOL    HW211244   3.855   0.366   6.350
 3449SOL     OW11245   6.135   5.324   4.826
 3449SOL    HW111246   6.131   5.279   4.737
 3449SOL    HW211247   6.152   5.256   4.898
 3450SOL     OW11248   0.651   1.836   0.034
 3450SOL    HW111249   0.678   1.932   0.038
 3450SOL    HW211250   0.555   1.830   0.008
 3451SOL     OW11251   2.952   6.387   6.848
 3451SOL    HW111252   2.973   6.412   6.754
 3451SOL    HW211253   2.955   6.287   6.858
 3452SOL     OW11254   5.378   0.466   6.764
 3452SOL    HW111255   5.439   0.490   6.840
 3452SOL    HW211256   5.310   0.538   6.752
 3453SOL     OW11257   6.210   5.643   6.457
 3453SOL    HW111258   6.209   5.548   6.490
 3453SOL    HW211259   6.160   5.649   6.371
 3454SOL     OW11260   1.262   3.439   5.293
 3454SOL    HW111261   1.328   3.373   5.258
 3454SOL    HW211262   1.176   3.430   5.242
 3455SOL     OW11263   2.587   1.885   4.568
 3455SOL    HW111264   2.547   1.838   4.490
 3455SOL    HW211265   2.686   1.873   4.568
 3456SOL     OW11266   5.788   5.140   1.661
 3456SOL    HW111267   5.709   5.187   1.620
 3456SOL    HW211268   5.777   5.138   1.760
 3457SOL     OW11269   3.384   5.567   3.771
 3457SOL    HW111270   3.297   5.549   3.816
 3457SOL    HW211271   3.368   5.592   3.676
 3458SOL     OW11272   4.520   0.902   1.816
 3458SOL    HW111273   4.585   0.868   1.747
 3458SOL    HW211274   4.466   0.976   1.777
 3459SOL     OW11275   5.516   2.628   2.852
 3459SOL    HW111276   5.510   2.606   2.755
 3459SOL    HW211277   5.425   2.622   2.893
 3460SOL     OW11278   2.450   1.920   0.076
 3460SOL    HW111279   2.507   1.868   0.013
 3460SOL    HW211280   2.354   1.908   0.053
 3461SOL     OW11281   4.949   3.948   6.589
 3461SOL    HW111282   5.034   3.955   6.641
 3461SOL    HW211283   4.877   3.909   6.647
 3462SOL     OW11284   0.858   3.487   5.041
 3462SOL    HW111285   0.912   3.569   5.021
 3462SOL    HW211286   0.771   3.515   5.083
 3463SOL     OW11287   1.511   4.187   1.806
 3463SOL    HW111288   1.542   4.106   1.855
 3463SOL    HW211289   1.411   4.184   1.797
 3464SOL     OW11290   7.009   4.902   5.655
 3464SOL    HW111291   7.005   4.915   5.754
 3464SOL    HW211292   0.000   4.990   5.611
 3465SOL     OW11293   1.635   2.236   2.418
 3465SOL    HW111294   1.668   2.264   2.328
 3465SOL    HW211295   1.618   2.317   2.475
 3466SOL     OW11296   6.546   5.316   6.449
 3466SOL    HW111297   6.607   5.387   6.484
 3466SOL    HW211298   6.520   5.337   6.355
 3467SOL     OW11299   2.092   2.656   6.875
 3467SOL    HW111300   2.080   2.557   6.867
 3467SOL    HW211301   2.160   2.676   6.944
 3468SOL     OW11302   4.102   6.628   2.737
 3468SOL    HW111303   4.040   6.651   2.662
 3468SOL    HW211304   4.136   6.713   2.779
 3469SOL     OW11305   5.340   0.224   3.275
 3469SOL    HW111306   5.389   0.206   3.190
 3469SOL    HW211307   5.245   0.249   3.254
 3470SOL     OW11308   6.295   3.550   0.929
 3470SOL    HW111309   6.215   3.593   0.888
 3470SOL    HW211310   6.376   3.604   0.909
 3471SOL     OW11311   3.462   5.000   4.140
 3471SOL    HW111312   3.555   4.980   4.112
 3471SOL    HW211313   3.398   4.944   4.087
 3472SOL     OW11314   2.430   0.870   2.438
 3472SOL    HW111315   2.372   0.870   2.519
 3472SOL    HW211316   2.372   0.867   2.356
 3473SOL     OW11317   0.514   2.208   0.359
 3473SOL    HW111318   0.517   2.108   0.355
 3473SOL    HW211319   0.507   2.237   0.455
 3474SOL     OW11320   2.399   4.882   1.536
 3474SOL    HW111321   2.356   4.952   1.594
 3474SOL    HW211322   2.427   4.805   1.593
 3475SOL     OW11323   0.882   5.621   5.238
 3475SOL    HW111324   0.915   5.705   5.195
 3475SOL    HW211325   0.897   5.627   5.337
 3476SOL     OW11326   3.448   1.593   3.277
 3476SOL    HW111327   3.524   1.532   3.301
 3476SOL    HW211328   3.473   1.687   3.296
 3477SOL     OW11329   3.576   4.862   0.879
 3477SOL    HW111330   3.518   4.931   0.923
 3477SOL    HW211331   3.540   4.771   0.897
 3478SOL     OW11332   2.162   5.999   4.981
 3478SOL    HW111333   2.089   5.945   4.940
 3478SOL    HW211334   2.226   6.027   4.910
 3479SOL     OW11335   1.517   0.629   2.655
 3479SOL    HW111336   1.440   0.640   2.718
 3479SOL    HW211337   1.572   0.713   2.653
 3480SOL     OW11338   0.135   0.247   5.299
 3480SOL    HW111339   0.094   0.166   5.343
 3480SOL    HW211340   0.222   0.221   5.257
 3481SOL     OW11341   5.135   0.023   0.233
 3481SOL    HW111342   5.169   6.960   0.257
 3481SOL    HW211343   5.077   0.016   0.152
 3482SOL     OW11344   5.636   1.440   1.051
 3482SOL    HW111345   5.539   1.449   1.077
 3482SOL    HW211346   5.646   1.459   0.953
 3483SOL     OW11347   4.360   1.289   1.404
 3483SOL    HW111348   4.439   1.243   1.363
 3483SOL    HW211349   4.391   1.366   1.459
 3484SOL     OW11350   2.860   3.482   1.452
 3484SOL    HW111351   2.923   3.424   1.504
 3484SOL    HW211352   2.873   3.466   1.354
 3485SOL     OW11353   1.332   0.325   4.061
 3485SOL    HW111354   1.260   0.315   3.992
 3485SOL    HW211355   1.297   0.297   4.150
 3486SOL     OW11356   3.249   1.569   2.576
 3486SOL    HW111357   3.242   1.668   2.588
 3486SOL    HW211358   3.219   1.524   2.660
 3487SOL     OW11359   5.883   2.077   5.338
 3487SOL    HW111360   5.813   2.069   5.268
 3487SOL    HW211361   5.885   2.170   5.374
 3488SOL     OW11362   6.028   2.141   4.248
 3488SOL    HW111363   5.962   2.215   4.249
 3488SOL    HW211364   6.005   2.076   4.175
 3489SOL     OW11365   2.741   6.554   0.478
 3489SOL    HW111366   2.687   6.626   0.432
 3489SOL    HW211367   2.793   6.594   0.553
 3490SOL     OW11368   4.235   4.830   6.723
 3490SOL    HW111369   4.232   4.816   6.822
 3490SOL    HW211370   4.255   4.744   6.677
 3491SOL     OW11371   6.003   2.340   4.753
 3491SOL    HW111372   5.974   2.273   4.820
 3491SOL    HW211373   6.103   2.347   4.753
 3492SOL     OW11374   1.018   5.795   1.484
 3492SOL    HW111375   0.924   5.791   1.451
 3492SOL    HW211376   1.043   5.889   1.506
 3493SOL     OW11377   6.189   4.983   6.650
 3493SOL    HW111378   6.195   4.903   6.709
 3493SOL    HW211379   6.118   4.969   6.581
 3494SOL     OW11380   3.762   1.035   1.574
 3494SOL    HW111381   3.813   1.065   1.655
 3494SOL    HW211382   3.763   0.935   1.570
 3495SOL     OW11383   4.446   4.996   2.227
 3495SOL    HW111384   4.433   4.914   2.171
 3495SOL    HW211385   4.369   5.006   2.289
 3496SOL     OW11386   7.013   4.042   0.614
 3496SOL    HW111387   0.058   4.109   0.625
 3496SOL    HW211388   0.023   3.950   0.613
 3497SOL     OW11389   4.230   6.639   4.025
 3497SOL    HW111390   4.160   6.593   4.079
 3497SOL    HW211391   4.319   6.597   4.042
 3498SOL     OW11392   2.132   2.694   0.431
 3498SOL    HW111393   2.173   2.604   0.416
 3498SOL    HW211394   2.065   2.712   0.359
 3499SOL     OW11395   4.748   2.761   4.802
 3499SOL    HW111396   4.742   2.699   4.880
 3499SOL    HW211397   4.844   2.783   4.784
 3500SOL     OW11398   1.039   3.948   4.879
 3500SOL    HW111399   1.069   3.867   4.929
 3500SOL    HW211400   1.109   3.973   4.812
 3501SOL     OW11401   1.190   5.502   3.981
 3501SOL    HW111402   1.097   5.532   4.002
 3501SOL    HW211403   1.205   5.411   4.020
 3502SOL     OW11404   6.926   2.212   1.976
 3502SOL    HW111405   6.902   2.151   2.051
 3502SOL    HW211406   6.894   2.304   1.996
 3503SOL     OW11407   6.092   6.078   5.088
 3503SOL    HW111408   6.090   6.144   5.012
 3503SOL    HW211409   6.056   5.990   5.056
 3504SOL     OW11410   1.661   2.273   1.027
 3504SOL    HW111411   1.758   2.295   1.022
 3504SOL    HW211412   1.615   2.299   0.942
 3505SOL     OW11413   5.565   5.046   5.118
 3505SOL    HW111414   5.466   5.045   5.129
 3505SOL    HW211415   5.591   5.113   5.048
 3506SOL     OW11416   5.038   6.354   5.392
 3506SOL    HW111417   5.091   6.304   5.460
 3506SOL    HW211418   4.994   6.289   5.330
 3507SOL     OW11419   2.559   0.977   0.202
 3507SOL    HW111420   2.592   1.002   0.293
 3507SOL    HW211421   2.636   0.964   0.140
 3508SOL     OW11422   3.248   2.463   6.153
 3508SOL    HW111423   3.167   2.417   6.116
 3508SOL    HW211424   3.310   2.394   6.192
 3509SOL     OW11425   4.995   0.212   6.389
 3509SOL    HW111426   5.002   0.139   6.321
 3509SOL    HW211427   4.997   0.301   6.344
 3510SOL     OW11428   1.964   2.154   1.661
 3510SOL    HW111429   2.046   2.206   1.684
 3510SOL    HW211430   1.921   2.193   1.579
 3511SOL     OW11431   1.911   4.614   0.354
 3511SOL    HW111432   1.822   4.570   0.346
 3511SOL    HW211433   1.907   4.685   0.424
 3512SOL     OW11434   6.479   4.212   0.951
 3512SOL    HW111435   6.503   4.115   0.957
 3512SOL    HW211436   6.521   4.252   0.870
 3513SOL     OW11437   6.178   3.931   0.006
 3513SOL    HW111438   6.231   4.012   7.008
 3513SOL    HW211439   6.177   3.923   0.105
 3514SOL     OW11440   6.886   1.350   2.053
 3514SOL    HW111441   6.787   1.358   2.058
 3514SOL    HW211442   6.913   1.257   2.074
 3515SOL     OW11443   4.712   6.300   2.735
 3515SOL    HW111444   4.745   6.254   2.652
 3515SOL    HW211445   4.680   6.232   2.800
 3516SOL     OW11446   4.326   6.992   0.939
 3516SOL    HW111447   4.349   7.013   0.844
 3516SOL    HW211448   4.395   6.931   0.977
 3517SOL     OW11449   1.377   2.440   0.326
 3517SOL    HW111450   1.430   2.499   0.387
 3517SOL    HW211451   1.432   2.418   0.246
 3518SOL     OW11452   5.420   4.161   4.734
 3518SOL    HW111453   5.416   4.250   4.688
 3518SOL    HW211454   5.379   4.092   4.674
 3519SOL     OW11455   1.807   0.488   6.393
 3519SOL    HW111456   1.817   0.396   6.432
 3519SOL    HW211457   1.784   0.552   6.466
 3520SOL     OW11458   3.253   4.934   0.149
 3520SOL    HW111459   3.276   5.023   0.190
 3520SOL    HW211460   3.218   4.949   0.056
 3521SOL     OW11461   5.563   3.278   1.252
 3521SOL    HW111462   5.616   3.196   1.272
 3521SOL    HW211463   5.510   3.304   1.333
 3522SOL     OW11464   4.852   5.381   1.968
 3522SOL    HW111465   4.923   5.414   1.905
 3522SOL    HW211466   4.878   5.291   2.003
 3523SOL     OW11467   2.614   4.591   5.716
 3523SOL    HW111468   2.681   4.662   5.738
 3523SOL    HW211469   2.660   4.502   5.712
 3524SOL     OW11470   2.750   1.188   1.102
 3524SOL    HW111471   2.774   1.146   1.190
 3524SOL    HW211472   2.668   1.243   1.113
 3525SOL     OW11473   0.479   4.087   1.960
 3525SOL    HW111474   0.473   3.987   1.963
 3525SOL    HW211475   0.565   4.117   1.999
 3526SOL     OW11476   2.163   5.839   3.605
 3526SOL    HW111477   2.170   5.937   3.587
 3526SOL    HW211478   2.111   5.824   3.689
 3527SOL     OW11479   5.976   3.602   5.913
 3527SOL    HW111480   5.923   3.666   5.857
 3527SOL    HW211481   6.070   3.635   5.922
 3528SOL     OW11482   1.044   5.326   3.274
 3528SOL    HW111483   1.099   5.277   3.206
 3528SOL    HW211484   1.039   5.273   3.358
 3529SOL     OW11485   5.016   0.141   5.190
 3529SOL    HW111486   5.047   0.215   5.250
 3529SOL    HW211487   5.007   0.176   5.097
 3530SOL     OW11488   2.584   4.733   3.411
 3530SOL    HW111489   2.569   4.755   3.508
 3530SOL    HW211490   2.677   4.758   3.385
 3531SOL     OW11491   4.803   4.404   1.368
 3531SOL    HW111492   4.719   4.435   1.412
 3531SOL    HW211493   4.876   4.397   1.437
 3532SOL     OW11494   2.424   0.251   0.499
 3532SOL    HW111495   2.416   0.215   0.592
 3532SOL    HW211496   2.379   0.188   0.435
 3533SOL     OW11497   1.138   2.137   2.506
 3533SOL    HW111498   1.095   2.061   2.553
 3533SOL    HW211499   1.219   2.104   2.456
 3534SOL     OW11500   6.990   1.167   5.483
 3534SOL    HW111501   6.925   1.110   5.533
 3534SOL    HW211502   6.969   1.163   5.385
 3535SOL     OW11503   6.650   5.625   0.658
 3535SOL    HW111504   6.570   5.674   0.694
 3535SOL    HW211505   6.731   5.653   0.709
 3536SOL     OW11506   2.367   2.772   3.347
 3536SOL    HW111507   2.396   2.688   3.302
 3536SOL    HW211508   2.407   2.777   3.438
 3537SOL     OW11509   2.474   5.066   0.438
 3537SOL    HW111510   2.569   5.096   0.432
 3537SOL    HW211511   2.465   4.998   0.511
 3538SOL     OW11512   3.117   0.464   4.249
 3538SOL    HW111513   3.186   0.492   4.182
 3538SOL    HW211514   3.026   0.469   4.207
 3539SOL     OW11515   5.834   3.333   6.505
 3539SOL    HW111516   5.760   3.396   6.480
 3539SOL    HW211517   5.921   3.382   6.507
 3540SOL     OW11518   1.953   1.571   5.309
 3540SOL    HW111519   1.884   1.618   5.255
 3540SOL    HW211520   2.038   1.625   5.309
 3541SOL     OW11521   2.741   2.917   6.698
 3541SOL    HW111522   2.811   2.914   6.627
 3541SOL    HW211523   2.673   2.986   6.676
 3542SOL     OW11524   0.380   3.336   1.327
 3542SOL    HW111525   0.417   3.337   1.234
 3542SOL    HW211526   0.281   3.320   1.322
 3543SOL     OW11527   1.607   3.547   5.229
 3543SOL    HW111528   1.582   3.639   5.261
 3543SOL    HW211529   1.706   3.542   5.216
 3544SOL     OW11530   1.852   4.707   6.503
 3544SOL    HW111531   1.893   4.729   6.414
 3544SOL    HW211532   1.924   4.676   6.566
 3545SOL     OW11533   3.487   5.214   6.530
 3545SOL    HW111534   3.568   5.177   6.486
 3545SOL    HW211535   3.469   5.164   6.615
 3546SOL     OW11536   6.608   4.896   3.331
 3546SOL    HW111537   6.538   4.829   3.306
 3546SOL    HW211538   6.698   4.864   3.302
 3547SOL     OW11539   6.897   3.946   4.620
 3547SOL    HW111540   6.825   4.013   4.641
 3547SOL    HW211541   6.856   3.866   4.576
 3548SOL     OW11542   5.302   0.195   6.021
 3548SOL    HW111543   5.391   0.191   5.975
 3548SOL    HW211544   5.281   0.290   6.045
 3549SOL     OW11545   1.641   4.137   6.364
 3549SOL    HW111546   1.588   4.139   6.280
 3549SOL    HW211547   1.737   4.156   6.343
 3550SOL     OW11548   6.262   2.404   4.671
 3550SOL    HW111549   6.344   2.425   4.725
 3550SOL    HW211550   6.266   2.454   4.584
 3551SOL     OW11551   3.905   1.466   4.096
 3551SOL    HW111552   3.991   1.494   4.138
 3551SOL    HW211553   3.829   1.514   4.139
 3552SOL     OW11554   6.524   6.685   1.928
 3552SOL    HW111555   6.475   6.717   2.010
 3552SOL    HW211556   6.458   6.655   1.860
 3553SOL     OW11557   3.748   5.700   0.309
 3553SOL    HW111558   3.704   5.667   0.393
 3553SOL    HW211559   3.698   5.666   0.230
 3554SOL     OW11560   4.395   2.921   0.749
 3554SOL    HW111561   4.470   2.872   0.793
 3554SOL    HW211562   4.341   2.857   0.694
 3555SOL     OW11563   0.969   3.420   3.901
 3555SOL    HW111564   0.956   3.493   3.834
 3555SOL    HW211565   0.887   3.410   3.956
 3556SOL     OW11566   3.746   1.035   4.106
 3556SOL    HW111567   3.648   1.050   4.119
 3556SOL    HW211568   3.785   0.992   4.187
 3557SOL     OW11569   1.494   7.000   4.234
 3557SOL    HW111570   1.506   0.064   4.271
 3557SOL    HW211571   1.536   6.934   4.296
 3558SOL     OW11572   1.651   4.766   1.646
 3558SOL    HW111573   1.691   4.698   1.707
 3558SOL    HW211574   1.656   4.856   1.688
 3559SOL     OW11575   0.870   6.196   5.213
 3559SOL    HW111576   0.796   6.134   5.240
 3559SOL    HW211577   0.890   6.258   5.288
 3560SOL     OW11578   2.132   4.791   2.658
 3560SOL    HW111579   2.152   4.853   2.734
 3560SOL    HW211580   2.088   4.708   2.694
 3561SOL     OW11581   5.193   3.967   5.630
 3561SOL    HW111582   5.219   3.873   5.652
 3561SOL    HW211583   5.151   3.970   5.539
 3562SOL     OW11584   2.991   1.527   3.453
 3562SOL    HW111585   3.066   1.572   3.406
 3562SOL    HW211586   2.910   1.586   3.451
 3563SOL     OW11587   6.563   1.827   6.616
 3563SOL    HW111588   6.645   1.772   6.601
 3563SOL    HW211589   6.590   1.919   6.646
 3564SOL     OW11590   0.490   4.600   2.598
 3564SOL    HW111591   0.477   4.501   2.590
 3564SOL    HW211592   0.544   4.620   2.680
 3565SOL     OW11593   3.310   5.830   4.067
 3565SOL    HW111594   3.396   5.834   4.015
 3565SOL    HW211595   3.325   5.868   4.159
 3566SOL     OW11596   6.433   2.247   6.446
 3566SOL    HW111597   6.456   2.265   6.542
 3566SOL    HW211598   6.454   2.328   6.391
 3567SOL     OW11599   0.811   2.360   7.016
 3567SOL    HW111600   0.790   2.361   0.086
 3567SOL    HW211601   0.798   2.452   6.978
 3568SOL     OW11602   4.981   4.189   4.669
 3568SOL    HW111603   4.957   4.111   4.611
 3568SOL    HW211604   5.060   4.237   4.630
 3569SOL     OW11605   2.823   2.731   6.326
 3569SOL    HW111606   2.804   2.693   6.235
 3569SOL    HW211607   2.738   2.761   6.368
 3570SOL     OW11608   5.101   0.495   6.373
 3570SOL    HW111609   5.172   0.477   6.441
 3570SOL    HW211610   5.142   0.534   6.290
 3571SOL     OW11611   0.390   5.217   6.676
 3571SOL    HW111612   0.292   5.202   6.673
 3571SOL    HW211613   0.437   5.132   6.698
 3572SOL     OW11614   5.584   4.285   3.211
 3572SOL    HW111615   5.498   4.307   3.164
 3572SOL    HW211616   5.658   4.280   3.144
 3573SOL     OW11617   0.250   4.609   3.682
 3573SOL    HW111618   0.293   4.571   3.763
 3573SOL    HW211619   0.224   4.535   3.619
 3574SOL     OW11620   0.523   4.385   0.550
 3574SOL    HW111621   0.564   4.309   0.601
 3574SOL    HW211622   0.486   4.452   0.613
 3575SOL     OW11623   5.099   4.795   3.092
 3575SOL    HW111624   5.034   4.824   3.021
 3575SOL    HW211625   5.146   4.875   3.128
 3576SOL     OW11626   1.549   1.718   5.601
 3576SOL    HW111627   1.620   1.726   5.671
 3576SOL    HW211628   1.590   1.689   5.515
 3577SOL     OW11629   1.396   2.782   6.084
 3577SOL    HW111630   1.312   2.792   6.138
 3577SOL    HW211631   1.467   2.843   6.121
 3578SOL     OW11632   3.037   2.503   0.833
 3578SOL    HW111633   2.948   2.463   0.857
 3578SOL    HW211634   3.078   2.450   0.760
 3579SOL     OW11635   5.944   3.483   5.045
 3579SOL    HW111636   5.944   3.383   5.045
 3579SOL    HW211637   5.918   3.516   5.135
 3580SOL     OW11638   6.108   2.949   1.188
 3580SOL    HW111639   6.079   2.893   1.265
 3580SOL    HW211640   6.091   2.900   1.103
 3581SOL     OW11641   0.465   5.871   3.461
 3581SOL    HW111642   0.466   5.833   3.368
 3581SOL    HW211643   0.420   5.961   3.460
 3582SOL     OW11644   0.954   2.182   5.599
 3582SOL    HW111645   0.878   2.186   5.665
 3582SOL    HW211646   1.037   2.217   5.642
 3583SOL     OW11647   1.642   3.310   6.069
 3583SOL    HW111648   1.709   3.289   6.140
 3583SOL    HW211649   1.592   3.393   6.094
 3584SOL     OW11650   5.615   5.189   6.595
 3584SOL    HW111651   5.668   5.171   6.678
 3584SOL    HW211652   5.599   5.104   6.546
 3585SOL     OW11653   4.642   6.431   5.201
 3585SOL    HW111654   4.686   6.454   5.287
 3585SOL    HW211655   4.676   6.344   5.167
 3586SOL     OW11656   0.442   2.294   5.493
 3586SOL    HW111657   0.411   2.360   5.560
 3586SOL    HW211658   0.528   2.325   5.452
 3587SOL     OW11659   2.939   5.209   6.762
 3587SOL    HW111660   2.860   5.238   6.816
 3587SOL    HW211661   2.937   5.252   6.672
 3588SOL     OW11662   0.984   2.786   5.181
 3588SOL    HW111663   1.031   2.848   5.119
 3588SOL    HW211664   1.046   2.758   5.254
 3589SOL     OW11665   3.954   2.127   5.020
 3589SOL    HW111666   3.865   2.092   4.991
 3589SOL    HW211667   4.015   2.130   4.941
 3590SOL     OW11668   1.459   2.815   6.795
 3590SOL    HW111669   1.432   2.723   6.766
 3590SOL    HW211670   1.556   2.830   6.772
 3591SOL     OW11671   5.199   3.405   6.654
 3591SOL    HW111672   5.257   3.468   6.603
 3591SOL    HW211673   5.127   3.370   6.595
 3592SOL     OW11674   6.630   4.399   1.864
 3592SOL    HW111675   6.660   4.494   1.859
 3592SOL    HW211676   6.530   4.395   1.859
 3593SOL     OW11677   1.781   6.187   4.895
 3593SOL    HW111678   1.875   6.194   4.927
 3593SOL    HW211679   1.744   6.096   4.918
 3594SOL     OW11680   4.593   0.754   3.263
 3594SOL    HW111681   4.548   0.843   3.250
 3594SOL    HW211682   4.531   0.691   3.309
 3595SOL     OW11683   2.384   5.882   0.211
 3595SOL    HW111684   2.349   5.955   0.152
 3595SOL    HW211685   2.328   5.876   0.294
 3596SOL     OW11686   6.677   1.782   3.320
 3596SOL    HW111687   6.675   1.855   3.251
 3596SOL    HW211688   6.702   1.696   3.276
 3597SOL     OW11689   2.338   1.525   4.593
 3597SOL    HW111690   2.279   1.565   4.523
 3597SOL    HW211691   2.317   1.427   4.602
 3598SOL     OW11692   1.517   6.049   6.507
 3598SOL    HW111693   1.613   6.023   6.516
 3598SOL    HW211694   1.501   6.084   6.414
 3599SOL     OW11695   0.644   2.125   5.809
 3599SOL    HW111696   0.643   2.203   5.747
 3599SOL    HW211697   0.644   2.040   5.756
 3600SOL     OW11698   1.024   3.619   0.149
 3600SOL    HW111699   0.959   3.669   0.206
 3600SOL    HW211700   1.110   3.606   0.200
 3601SOL     OW11701   5.493   4.563   6.234
 3601SOL    HW111702   5.427   4.511   6.288
 3601SOL    HW211703   5.486   4.660   6.259
 3602SOL     OW11704   1.530   2.925   0.637
 3602SOL    HW111705   1.465   2.851   0.656
 3602SOL    HW211706   1.601   2.926   0.707
 3603SOL     OW11707   3.536   7.021   3.689
 3603SOL    HW111708   3.529   6.922   3.681
 3603SOL    HW211709   3.459   0.035   3.641
 3604SOL     OW11710   6.823   4.390   2.875
 3604SOL    HW111711   6.913   4.349   2.889
 3604SOL    HW211712   6.798   4.384   2.778
 3605SOL     OW11713   5.468   4.209   5.335
 3605SOL    HW111714   5.515   4.260   5.264
 3605SOL    HW211715   5.516   4.220   5.422
 3606SOL     OW11716   6.920   6.739   5.801
 3606SOL    HW111717   6.908   6.783   5.712
 3606SOL    HW211718   6.910   6.640   5.791
 3607SOL     OW11719   5.459   6.127   1.138
 3607SOL    HW111720   5.477   6.029   1.146
 3607SOL    HW211721   5.372   6.141   1.090
 3608SOL     OW11722   5.914   1.430   3.460
 3608SOL    HW111723   5.816   1.407   3.458
 3608SOL    HW211724   5.937   1.472   3.548
 3609SOL     OW11725   0.972   0.429   4.213
 3609SOL    HW111726   1.039   0.499   4.189
 3609SOL    HW211727   0.928   0.452   4.300
 3610SOL     OW11728   1.692   6.875   5.678
 3610SOL    HW111729   1.619   6.809   5.659
 3610SOL    HW211730   1.780   6.827   5.679
 3611SOL     OW11731   5.003   5.813   6.101
 3611SOL    HW111732   4.948   5.763   6.035
 3611SOL    HW211733   5.100   5.796   6.084
 3612SOL     OW11734   5.963   0.053   6.883
 3612SOL    HW111735   6.063   0.062   6.889
 3612SOL    HW211736   5.939   7.023   6.805
 3613SOL     OW11737   4.603   5.498   1.898
 3613SOL    HW111738   4.660   5.431   1.946
 3613SOL    HW211739   4.661   5.571   1.862
 3614SOL     OW11740   4.290   3.500   1.662
 3614SOL    HW111741   4.240   3.547   1.735
 3614SOL    HW211742   4.332   3.567   1.601
 3615SOL     OW11743   4.972   5.369   0.174
 3615SOL    HW111744   4.948   5.446   0.233
 3615SOL    HW211745   5.056   5.327   0.206
 3616SOL     OW11746   0.731   2.898   6.370
 3616SOL    HW111747   0.700   2.961   6.442
 3616SOL    HW211748   0.831   2.892   6.372
 3617SOL     OW11749   3.592   1.757   6.225
 3617SOL    HW111750   3.586   1.734   6.128
 3617SOL    HW211751   3.598   1.673   6.279
 3618SOL     OW11752   2.671   2.066   5.659
 3618SOL    HW111753   2.646   2.027   5.570
 3618SOL    HW211754   2.718   2.153   5.645
 3619SOL     OW11755   5.714   2.294   4.456
 3619SOL    HW111756   5.617   2.317   4.462
 3619SOL    HW211757   5.751   2.329   4.370
 3620SOL     OW11758   6.210   6.263   5.944
 3620SOL    HW111759   6.160   6.321   6.008
 3620SOL    HW211760   6.309   6.278   5.955
 3621SOL     OW11761   3.708   3.148   5.548
 3621SOL    HW111762   3.636   3.189   5.604
 3621SOL    HW211763   3.796   3.193   5.568
 3622SOL     OW11764   1.778   1.385   4.829
 3622SOL    HW111765   1.719   1.466   4.830
 3622SOL    HW211766   1.873   1.413   4.812
 3623SOL     OW11767   5.934   5.649   4.133
 3623SOL    HW111768   5.938   5.709   4.214
 3623SOL    HW211769   5.926   5.705   4.051
 3624SOL     OW11770   2.111   6.238   1.751
 3624SOL    HW111771   2.131   6.164   1.687
 3624SOL    HW211772   2.146   6.215   1.842
 3625SOL     OW11773   6.001   3.344   6.784
 3625SOL    HW111774   6.022   3.258   6.832
 3625SOL    HW211775   5.905   3.367   6.797
 3626SOL     OW11776   0.900   3.228   6.406
 3626SOL    HW111777   0.835   3.288   6.452
 3626SOL    HW211778   0.942   3.166   6.472
 3627SOL     OW11779   3.504   2.837   3.244
 3627SOL    HW111780   3.560   2.755   3.243
 3627SOL    HW211781   3.473   2.855   3.338
 3628SOL     OW11782   1.286   1.390   1.500
 3628SOL    HW111783   1.217   1.462   1.489
 3628SOL    HW211784   1.374   1.432   1.523
 3629SOL     OW11785   6.769   1.907   5.358
 3629SOL    HW111786   6.795   1.812   5.372
 3629SOL    HW211787   6.693   1.912   5.294
 3630SOL     OW11788   5.112   2.955   4.199
 3630SOL    HW111789   5.165   2.871   4.188
 3630SOL    HW211790   5.115   2.984   4.294
 3631SOL     OW11791   1.692   6.812   3.627
 3631SOL    HW111792   1.691   6.728   3.573
 3631SOL    HW211793   1.775   6.863   3.607
 3632SOL     OW11794   4.958   6.117   1.602
 3632SOL    HW111795   4.955   6.040   1.538
 3632SOL    HW211796   4.912   6.196   1.562
 3633SOL     OW11797   3.841   1.799   5.611
 3633SOL    HW111798   3.777   1.725   5.591
 3633SOL    HW211799   3.812   1.848   5.693
 3634SOL     OW11800   0.601   5.420   4.925
 3634SOL    HW111801   0.613   5.462   5.015
 3634SOL    HW211802   0.533   5.347   4.932
 3635SOL     OW11803   2.956   6.973   6.095
 3635SOL    HW111804   2.868   7.018   6.079
 3635SOL    HW211805   3.029   0.005   6.064
 3636SOL     OW11806   0.152   5.425   0.219
 3636SOL    HW111807   0.213   5.457   0.291
 3636SOL    HW211808   0.057   5.443   0.246
 3637SOL     OW11809   6.574   1.686   1.756
 3637SOL    HW111810   6.549   1.748   1.681
 3637SOL    HW211811   6.665   1.710   1.790
 3638SOL     OW11812   0.283   4.161   3.911
 3638SOL    HW111813   0.268   4.068   3.946
 3638SOL    HW211814   0.201   4.192   3.863
 3639SOL     OW11815   3.462   3.926   0.244
 3639SOL    HW111816   3.436   3.883   0.330
 3639SOL    HW211817   3.407   3.889   0.169
 3640SOL     OW11818   3.912   0.957   0.701
 3640SOL    HW111819   3.898   0.861   0.677
 3640SOL    HW211820   4.002   0.986   0.670
 3641SOL     OW11821   5.206   3.278   3.316
 3641SOL    HW111822   5.218   3.233   3.227
 3641SOL    HW211823   5.279   3.249   3.378
 3642SOL     OW11824   5.309   1.209   6.614
 3642SOL    HW111825   5.351   1.120   6.600
 3642SOL    HW211826   5.365   1.264   6.675
 3643SOL     OW11827   2.726   6.081   5.365
 3643SOL    HW111828   2.757   6.168   5.404
 3643SOL    HW211829   2.767   6.005   5.416
 3644SOL     OW11830   6.591   1.198   1.954
 3644SOL    HW111831   6.523   1.248   2.007
 3644SOL    HW211832   6.570   1.206   1.857
 3645SOL     OW11833   0.188   2.910   3.376
 3645SOL    HW111834   0.167   3.008   3.375
 3645SOL    HW211835   0.103   2.858   3.379
 3646SOL     OW11836   0.405   4.284   6.707
 3646SOL    HW111837   0.484   4.229   6.681
 3646SOL    HW211838   0.436   4.366   6.756
 3647SOL     OW11839   2.899   4.832   6.129
 3647SOL    HW111840   2.809   4.856   6.165
 3647SOL    HW211841   2.966   4.900   6.159
 3648SOL     OW11842   3.862   4.836   1.899
 3648SOL    HW111843   3.861   4.857   1.997
 3648SOL    HW211844   3.777   4.790   1.874
 3649SOL     OW11845   4.613   2.710   1.920
 3649SOL    HW111846   4.583   2.725   2.014
 3649SOL    HW211847   4.708   2.741   1.910
 3650SOL     OW11848   0.058   5.435   1.175
 3650SOL    HW111849   0.151   5.471   1.179
 3650SOL    HW211850   0.061   5.335   1.182
 3651SOL     OW11851   0.532   6.571   4.687
 3651SOL    HW111852   0.473   6.497   4.655
 3651SOL    HW211853   0.557   6.555   4.782
 3652SOL     OW11854   5.617   6.190   3.308
 3652SOL    HW111855   5.627   6.281   3.267
 3652SOL    HW211856   5.553   6.136   3.253
 3653SOL     OW11857   0.425   1.216   4.162
 3653SOL    HW111858   0.328   1.206   4.184
 3653SOL    HW211859   0.437   1.290   4.096
 3654SOL     OW11860   2.653   4.295   0.875
 3654SOL    HW111861   2.643   4.204   0.834
 3654SOL    HW211862   2.662   4.286   0.974
 3655SOL     OW11863   1.706   6.434   4.133
 3655SOL    HW111864   1.609   6.450   4.149
 3655SOL    HW211865   1.730   6.342   4.164
 3656SOL     OW11866   1.267   4.117   1.730
 3656SOL    HW111867   1.225   4.033   1.698
 3656SOL    HW211868   1.203   4.166   1.790
 3657SOL     OW11869   5.142   5.032   6.038
 3657SOL    HW111870   5.206   5.025   5.961
 3657SOL    HW211871   5.048   5.023   6.004
 3658SOL     OW11872   1.727   5.232   5.439
 3658SOL    HW111873   1.658   5.293   5.477
 3658SOL    HW211874   1.817   5.259   5.472
 3659SOL     OW11875   1.480   3.435   4.787
 3659SOL    HW111876   1.534   3.517   4.768
 3659SOL    HW211877   1.397   3.461   4.836
 3660SOL     OW11878   5.708   6.887   3.812
 3660SOL    HW111879   5.737   6.916   3.721
 3660SOL    HW211880   5.615   6.849   3.808
 3661SOL     OW11881   5.553   1.634   5.432
 3661SOL    HW111882   5.499   1.580   5.368
 3661SOL    HW211883   5.551   1.591   5.522
 3662SOL     OW11884   4.298   6.239   4.154
 3662SOL    HW111885   4.212   6.218   4.200
 3662SOL    HW211886   4.320   6.336   4.168
 3663SOL     OW11887   1.872   1.707   0.689
 3663SOL    HW111888   1.863   1.807   0.680
 3663SOL    HW211889   1.944   1.685   0.754
 3664SOL     OW11890   5.102   2.842   1.663
 3664SOL    HW111891   5.075   2.756   1.706
 3664SOL    HW211892   5.131   2.824   1.568
 3665SOL     OW11893   1.823   6.029   5.338
 3665SOL    HW111894   1.806   6.023   5.436
 3665SOL    HW211895   1.921   6.021   5.321
 3666SOL     OW11896   0.990   4.217   2.894
 3666SOL    HW111897   0.946   4.143   2.945
 3666SOL    HW211898   1.084   4.190   2.871
 3667SOL     OW11899   0.809   0.816   2.352
 3667SOL    HW111900   0.836   0.832   2.447
 3667SOL    HW211901   0.835   0.894   2.295
 3668SOL     OW11902   1.550   0.824   1.725
 3668SOL    HW111903   1.490   0.898   1.693
 3668SOL    HW211904   1.494   0.746   1.753
 3669SOL     OW11905   4.795   0.668   3.590
 3669SOL    HW111906   4.725   0.600   3.610
 3669SOL    HW211907   4.875   0.653   3.649
 3670SOL     OW11908   2.309   5.019   0.216
 3670SOL    HW111909   2.255   5.096   0.181
 3670SOL    HW211910   2.357   5.047   0.299
 3671SOL     OW11911   6.432   1.020   4.277
 3671SOL    HW111912   6.345   0.972   4.270
 3671SOL    HW211913   6.470   1.007   4.368
 3672SOL     OW11914   5.569   1.834   1.378
 3672SOL    HW111915   5.475   1.840   1.346
 3672SOL    HW211916   5.628   1.799   1.306
 3673SOL     OW11917   4.404   6.157   6.423
 3673SOL    HW111918   4.474   6.186   6.488
 3673SOL    HW211919   4.422   6.199   6.334
 3674SOL     OW11920   0.680   6.508   5.351
 3674SOL    HW111921   0.774   6.541   5.352
 3674SOL    HW211922   0.679   6.410   5.368
 3675SOL     OW11923   2.161   3.260   4.111
 3675SOL    HW111924   2.183   3.237   4.206
 3675SOL    HW211925   2.177   3.179   4.054
 3676SOL     OW11926   5.140   4.221   3.180
 3676SOL    HW111927   5.045   4.237   3.153
 3676SOL    HW211928   5.177   4.302   3.224
 3677SOL     OW11929   2.064   5.663   3.370
 3677SOL    HW111930   2.068   5.728   3.446
 3677SOL    HW211931   2.061   5.569   3.406
 3678SOL     OW11932   0.857   2.425   5.160
 3678SOL    HW111933   0.842   2.346   5.100
 3678SOL    HW211934   0.833   2.508   5.110
 3679SOL     OW11935   1.172   0.250   3.173
 3679SOL    HW111936   1.199   0.168   3.222
 3679SOL    HW211937   1.186   0.330   3.230
 3680SOL     OW11938   5.778   2.728   3.901
 3680SOL    HW111939   5.811   2.705   3.993
 3680SOL    HW211940   5.851   2.772   3.850
 3681SOL     OW11941   0.772   0.167   0.089
 3681SOL    HW111942   0.790   0.129   7.026
 3681SOL    HW211943   0.676   0.193   0.095
 3682SOL     OW11944   5.917   2.121   0.109
 3682SOL    HW111945   5.998   2.111   0.167
 3682SOL    HW211946   5.848   2.053   0.135
 3683SOL     OW11947   6.351   0.375   2.815
 3683SOL    HW111948   6.356   0.466   2.774
 3683SOL    HW211949   6.400   0.375   2.902
 3684SOL     OW11950   1.841   5.297   0.130
 3684SOL    HW111951   1.791   5.212   0.148
 3684SOL    HW211952   1.892   5.325   0.211
 3685SOL     OW11953   0.148   6.657   6.823
 3685SOL    HW111954   0.209   6.597   6.772
 3685SOL    HW211955   0.145   6.747   6.779
 3686SOL     OW11956   5.747   5.502   3.804
 3686SOL    HW111957   5.791   5.437   3.742
 3686SOL    HW211958   5.649   5.506   3.784
 3687SOL     OW11959   3.455   6.006   4.968
 3687SOL    HW111960   3.404   6.010   5.055
 3687SOL    HW211961   3.406   6.058   4.898
 3688SOL     OW11962   6.591   3.893   6.453
 3688SOL    HW111963   6.550   3.975   6.491
 3688SOL    HW211964   6.530   3.815   6.469
 3689SOL     OW11965   2.199   0.269   6.309
 3689SOL    HW111966   2.238   0.181   6.283
 3689SOL    HW211967   2.272   0.337   6.316
 3690SOL     OW11968   4.570   5.747   0.383
 3690SOL    HW111969   4.556   5.758   0.285
 3690SOL    HW211970   4.491   5.782   0.433
 3691SOL     OW11971   2.756   2.064   6.881
 3691SOL    HW111972   2.691   1.989   6.895
 3691SOL    HW211973   2.817   2.042   6.806
 3692SOL     OW11974   6.544   5.239   5.651
 3692SOL    HW111975   6.581   5.149   5.629
 3692SOL    HW211976   6.563   5.303   5.576
 3693SOL     OW11977   2.211   4.087   2.824
 3693SOL    HW111978   2.257   4.168   2.860
 3693SOL    HW211979   2.148   4.050   2.892
 3694SOL     OW11980   1.673   6.070   3.125
 3694SOL    HW111981   1.577   6.092   3.110
 3694SOL    HW211982   1.684   5.970   3.129
 3695SOL     OW11983   6.513   3.220   1.612
 3695SOL    HW111984   6.464   3.201   1.527
 3695SOL    HW211985   6.476   3.302   1.654
 3696SOL     OW11986   3.771   5.955   5.203
 3696SOL    HW111987   3.815   6.030   5.153
 3696SOL    HW211988   3.816   5.869   5.179
 3697SOL     OW11989   0.272   6.645   3.136
 3697SOL    HW111990   0.246   6.740   3.155
 3697SOL    HW211991   0.256   6.590   3.218
 3698SOL     OW11992   2.172   0.480   4.009
 3698SOL    HW111993   2.145   0.496   3.914
 3698SOL    HW211994   2.090   0.476   4.067
 3699SOL     OW11995   0.732   1.844   3.504
 3699SOL    HW111996   0.770   1.767   3.554
 3699SOL    HW211997   0.691   1.812   3.419
 3700SOL     OW11998   0.794   6.116   4.947
 3700SOL    HW111999   0.854   6.145   4.872
 3700SOL    HW212000   0.789   6.189   5.015
 3701SOL     OW12001   1.608   0.528   3.449
 3701SOL    HW112002   1.682   0.556   3.387
 3701SOL    HW212003   1.615   0.429   3.466
 3702SOL     OW12004   6.305   6.770   3.285
 3702SOL    HW112005   6.240   6.760   3.360
 3702SOL    HW212006   6.304   6.687   3.229
 3703SOL     OW12007   5.609   1.444   5.172
 3703SOL    HW112008   5.691   1.457   5.229
 3703SOL    HW212009   5.536   1.406   5.229
 3704SOL     OW12010   3.808   2.102   1.564
 3704SOL    HW112011   3.829   2.077   1.658
 3704SOL    HW212012   3.773   2.195   1.561
 3705SOL     OW12013   3.988   4.864   3.886
 3705SOL    HW112014   4.049   4.803   3.937
 3705SOL    HW212015   3.997   4.957   3.923
 3706SOL     OW12016   1.667   3.292   6.880
 3706SOL    HW112017   1.693   3.389   6.873
 3706SOL    HW212018   1.661   3.252   6.789
 3707SOL     OW12019   5.524   4.624   4.489
 3707SOL    HW112020   5.460   4.682   4.438
 3707SOL    HW212021   5.487   4.531   4.495
 3708SOL     OW12022   0.185   0.595   6.782
 3708SOL    HW112023   0.118   0.669   6.783
 3708SOL    HW212024   0.175   0.542   6.698
 3709SOL     OW12025   3.205   0.840   0.984
 3709SOL    HW112026   3.184   0.935   1.007
 3709SOL    HW212027   3.285   0.836   0.924
 3710SOL     OW12028   6.030   5.670   5.786
 3710SOL    HW112029   6.110   5.727   5.765
 3710SOL    HW212030   6.026   5.592   5.724
 3711SOL     OW12031   0.756   0.050   4.439
 3711SOL    HW112032   0.838   7.021   4.436
 3711SOL    HW212033   0.675   7.022   4.421
 3712SOL     OW12034   7.000   5.539   6.811
 3712SOL    HW112035   6.954   5.512   6.896
 3712SOL    HW212036   0.043   5.606   6.832
 3713SOL     OW12037   0.856   6.481   5.768
 3713SOL    HW112038   0.912   6.407   5.804
 3713SOL    HW212039   0.896   6.569   5.792
 3714SOL     OW12040   5.297   6.257   5.499
 3714SOL    HW112041   5.387   6.299   5.501
 3714SOL    HW212042   5.304   6.164   5.463
 3715SOL     OW12043   0.446   4.337   2.594
 3715SOL    HW112044   0.389   4.307   2.518
 3715SOL    HW212045   0.511   4.264   2.617
 3716SOL     OW12046   6.357   0.404   5.205
 3716SOL    HW112047   6.258   0.396   5.204
 3716SOL    HW212048   6.385   0.483   5.151
 3717SOL     OW12049   6.232   6.721   6.729
 3717SOL    HW112050   6.237   6.633   6.778
 3717SOL    HW212051   6.148   6.724   6.675
 3718SOL     OW12052   1.680   0.602   6.608
 3718SOL    HW112053   1.657   0.507   6.625
 3718SOL    HW212054   1.598   0.652   6.580
 3719SOL     OW12055   5.452   4.393   1.398
 3719SOL    HW112056   5.438   4.453   1.476
 3719SOL    HW212057   5.550   4.385   1.379
 3720SOL     OW12058   5.863   2.407   6.589
 3720SOL    HW112059   5.957   2.397   6.558
 3720SOL    HW212060   5.807   2.441   6.513
 3721SOL     OW12061   6.196   4.470   1.626
 3721SOL    HW112062   6.296   4.474   1.626
 3721SOL    HW212063   6.160   4.552   1.581
 3722SOL     OW12064   6.690   5.909   0.877
 3722SOL    HW112065   6.676   5.866   0.966
 3722SOL    HW212066   6.602   5.915   0.829
 3723SOL     OW12067   6.016   5.072   1.522
 3723SOL    HW112068   5.933   5.089   1.576
 3723SOL    HW212069   6.076   5.011   1.574
 3724SOL     OW12070   1.855   4.583   4.525
 3724SOL    HW112071   1.769   4.626   4.500
 3724SOL    HW212072   1.902   4.639   4.592
 3725SOL     OW12073   5.787   5.488   0.648
 3725SOL    HW112074   5.759   5.584   0.651
 3725SOL    HW212075   5.773   5.452   0.556
 3726SOL     OW12076   5.566   3.682   0.690
 3726SOL    HW112077   5.535   3.593   0.655
 3726SOL    HW212078   5.550   3.685   0.789
 3727SOL     OW12079   0.053   2.035   4.763
 3727SOL    HW112080   0.137   2.089   4.768
 3727SOL    HW212081   0.074   1.938   4.779
 3728SOL     OW12082   1.754   3.476   6.583
 3728SOL    HW112083   1.713   3.500   6.671
 3728SOL    HW212084   1.841   3.522   6.573
 3729SOL     OW12085   0.666   2.536   3.758
 3729SOL    HW112086   0.705   2.452   3.720
 3729SOL    HW212087   0.605   2.513   3.834
 3730SOL     OW12088   2.385   5.090   6.109
 3730SOL    HW112089   2.361   5.088   6.012
 3730SOL    HW212090   2.315   5.141   6.160
 3731SOL     OW12091   6.769   1.935   0.708
 3731SOL    HW112092   6.695   2.001   0.696
 3731SOL    HW212093   6.732   1.842   0.704
 3732SOL     OW12094   3.004   1.221   0.492
 3732SOL    HW112095   2.979   1.135   0.446
 3732SOL    HW212096   2.980   1.215   0.588
 3733SOL     OW12097   1.684   3.868   2.460
 3733SOL    HW112098   1.638   3.878   2.372
 3733SOL    HW212099   1.664   3.778   2.498
 3734SOL     OW12100   5.024   1.068   2.315
 3734SOL    HW112101   4.939   1.073   2.367
 3734SOL    HW212102   5.059   0.974   2.317
 3735SOL     OW12103   1.948   1.068   3.697
 3735SOL    HW112104   2.011   1.090   3.623
 3735SOL    HW212105   1.951   0.970   3.716
 3736SOL     OW12106   0.158   2.479   0.977
 3736SOL    HW112107   0.157   2.490   0.877
 3736SOL    HW212108   0.250   2.456   1.007
 3737SOL     OW12109   4.870   0.624   3.313
 3737SOL    HW112110   4.826   0.665   3.233
 3737SOL    HW212111   4.810   0.631   3.392
 3738SOL     OW12112   0.203   0.034   2.544
 3738SOL    HW112113   0.249   7.011   2.472
 3738SOL    HW212114   0.267   0.053   2.618
 3739SOL     OW12115   2.498   4.549   1.409
 3739SOL    HW112116   2.551   4.608   1.346
 3739SOL    HW212117   2.516   4.577   1.503
 3740SOL     OW12118   5.665   0.911   0.883
 3740SOL    HW112119   5.716   0.913   0.969
 3740SOL    HW212120   5.633   1.003   0.860
 3741SOL     OW12121   5.331   2.691   0.343
 3741SOL    HW112122   5.233   2.697   0.323
 3741SOL    HW212123   5.366   2.602   0.315
 3742SOL     OW12124   2.844   1.717   0.219
 3742SOL    HW112125   2.818   1.722   0.123
 3742SOL    HW212126   2.774   1.761   0.275
 3743SOL     OW12127   5.820   3.449   0.654
 3743SOL    HW112128   5.844   3.381   0.723
 3743SOL    HW212129   5.726   3.480   0.669
 3744SOL     OW12130   1.475   6.003   2.248
 3744SOL    HW112131   1.409   5.967   2.314
 3744SOL    HW212132   1.552   6.043   2.296
 3745SOL     OW12133   3.970   4.937   1.577
 3745SOL    HW112134   3.890   4.912   1.523
 3745SOL    HW212135   3.986   5.036   1.568
 3746SOL     OW12136   5.204   0.691   3.111
 3746SOL    HW112137   5.250   0.744   3.183
 3746SOL    HW212138   5.251   0.704   3.024
 3747SOL     OW12139   2.418   6.508   5.134
 3747SOL    HW112140   2.466   6.445   5.074
 3747SOL    HW212141   2.325   6.521   5.100
 3748SOL     OW12142   5.187   1.247   1.285
 3748SOL    HW112143   5.109   1.289   1.239
 3748SOL    HW212144   5.229   1.180   1.224
 3749SOL     OW12145   1.462   5.669   3.389
 3749SOL    HW112146   1.383   5.608   3.381
 3749SOL    HW212147   1.454   5.723   3.472
 3750SOL     OW12148   0.696   4.261   0.746
 3750SOL    HW112149   0.761   4.240   0.673
 3750SOL    HW212150   0.735   4.331   0.806
 3751SOL     OW12151   0.081   3.598   1.609
 3751SOL    HW112152   0.021   3.535   1.658
 3751SOL    HW212153   0.096   3.679   1.666
 3752SOL     OW12154   5.163   0.282   0.487
 3752SOL    HW112155   5.194   0.376   0.497
 3752SOL    HW212156   5.189   0.248   0.396
 3753SOL     OW12157   6.196   6.836   4.687
 3753SOL    HW112158   6.180   6.930   4.719
 3753SOL    HW212159   6.198   6.834   4.587
 3754SOL     OW12160   2.372   0.987   1.551
 3754SOL    HW112161   2.297   0.921   1.555
 3754SOL    HW212162   2.406   1.006   1.643
 3755SOL     OW12163   4.854   4.467   4.189
 3755SOL    HW112164   4.771   4.415   4.208
 3755SOL    HW212165   4.852   4.552   4.241
 3756SOL     OW12166   3.332   5.032   6.264
 3756SOL    HW112167   3.332   5.118   6.212
 3756SOL    HW212168   3.324   5.052   6.361
 3757SOL     OW12169   5.450   5.713   0.346
 3757SOL    HW112170   5.462   5.670   0.256
 3757SOL    HW212171   5.482   5.807   0.342
 3758SOL     OW12172   2.781   1.399   4.995
 3758SOL    HW112173   2.782   1.300   4.979
 3758SOL    HW212174   2.776   1.447   4.908
 3759SOL     OW12175   4.007   0.118   6.535
 3759SOL    HW112176   3.936   0.182   6.506
 3759SOL    HW212177   4.069   0.101   6.458
 3760SOL     OW12178   1.583   1.559   4.893
 3760SOL    HW112179   1.507   1.495   4.903
 3760SOL    HW212180   1.547   1.651   4.873
 3761SOL     OW12181   0.879   1.375   4.974
 3761SOL    HW112182   0.952   1.343   5.034
 3761SOL    HW212183   0.858   1.471   4.994
 3762SOL     OW12184   1.425   4.976   1.164
 3762SOL    HW112185   1.506   5.028   1.194
 3762SOL    HW212186   1.342   5.026   1.190
 3763SOL     OW12187   6.864   3.733   0.887
 3763SOL    HW112188   6.832   3.742   0.982
 3763SOL    HW212189   6.959   3.764   0.881
 3764SOL     OW12190   1.921   0.209   2.716
 3764SOL    HW112191   1.922   0.181   2.620
 3764SOL    HW212192   1.828   0.232   2.743
 3765SOL     OW12193   5.363   1.490   1.086
 3765SOL    HW112194   5.346   1.535   1.174
 3765SOL    HW212195   5.354   1.556   1.012
 3766SOL     OW12196   2.406   1.929   4.142
 3766SOL    HW112197   2.355   1.979   4.071
 3766SOL    HW212198   2.487   1.886   4.101
 3767SOL     OW12199   2.253   4.744   6.771
 3767SOL    HW112200   2.318   4.732   6.696
 3767SOL    HW212201   2.238   4.841   6.787
 3768SOL     OW12202   1.034   6.584   4.150
 3768SOL    HW112203   1.078   6.585   4.060
 3768SOL    HW212204   0.985   6.498   4.163
 3769SOL     OW12205   5.935   5.770   4.372
 3769SOL    HW112206   5.966   5.767   4.467
 3769SOL    HW212207   5.837   5.790   4.369
 3770SOL     OW12208   1.346   0.948   6.305
 3770SOL    HW112209   1.409   0.873   6.289
 3770SOL    HW212210   1.274   0.918   6.368
 3771SOL     OW12211   5.105   2.810   0.258
 3771SOL    HW112212   5.051   2.813   0.342
 3771SOL    HW212213   5.108   2.901   0.217
 3772SOL     OW12214   0.396   0.989   0.424
 3772SOL    HW112215   0.317   0.975   0.482
 3772SOL    HW212216   0.479   0.986   0.479
 3773SOL     OW12217   6.054   3.742   5.381
 3773SOL    HW112218   6.033   3.662   5.325
 3773SOL    HW212219   5.971   3.771   5.430
 3774SOL     OW12220   6.110   5.881   1.448
 3774SOL    HW112221   6.169   5.959   1.431
 3774SOL    HW212222   6.165   5.804   1.482
 3775SOL     OW12223   4.568   4.857   2.816
 3775SOL    HW112224   4.575   4.757   2.808
 3775SOL    HW212225   4.615   4.900   2.740
 3776SOL     OW12226   4.188   1.643   6.996
 3776SOL    HW112227   4.190   1.655   6.897
 3776SOL    HW212228   4.094   1.632   7.027
 3777SOL     OW12229   3.349   5.638   3.513
 3777SOL    HW112230   3.333   5.736   3.519
 3777SOL    HW212231   3.402   5.618   3.430
 3778SOL     OW12232   3.033   5.276   2.461
 3778SOL    HW112233   3.114   5.334   2.470
 3778SOL    HW212234   3.048   5.208   2.390
 3779SOL     OW12235   0.841   5.032   0.255
 3779SOL    HW112236   0.933   5.006   0.225
 3779SOL    HW212237   0.775   5.005   0.185
 3780SOL     OW12238   5.604   5.136   4.606
 3780SOL    HW112239   5.624   5.041   4.628
 3780SOL    HW212240   5.629   5.155   4.511
 3781SOL     OW12241   0.474   6.507   4.315
 3781SOL    HW112242   0.409   6.466   4.378
 3781SOL    HW212243   0.455   6.605   4.306
 3782SOL     OW12244   2.215   6.978   3.197
 3782SOL    HW112245   2.208   0.048   3.179
 3782SOL    HW212246   2.141   6.930   3.151
 3783SOL     OW12247   5.794   5.308   4.357
 3783SOL    HW112248   5.857   5.338   4.285
 3783SOL    HW212249   5.833   5.329   4.447
 3784SOL     OW12250   4.916   2.286   2.863
 3784SOL    HW112251   4.818   2.269   2.874
 3784SOL    HW212252   4.932   2.333   2.776
 3785SOL     OW12253   1.916   3.700   5.428
 3785SOL    HW112254   1.862   3.763   5.483
 3785SOL    HW212255   2.004   3.683   5.473
 3786SOL     OW12256   2.474   5.129   3.276
 3786SOL    HW112257   2.424   5.215   3.267
 3786SOL    HW212258   2.549   5.140   3.341
 3787SOL     OW12259   6.198   1.442   2.926
 3787SOL    HW112260   6.125   1.402   2.871
 3787SOL    HW212261   6.185   1.416   3.022
 3788SOL     OW12262   6.987   4.719   4.948
 3788SOL    HW112263   6.921   4.771   5.001
 3788SOL    HW212264   6.948   4.630   4.924
 3789SOL     OW12265   0.302   2.774   4.386
 3789SOL    HW112266   0.283   2.859   4.434
 3789SOL    HW212267   0.216   2.726   4.366
 3790SOL     OW12268   1.251   4.243   5.857
 3790SOL    HW112269   1.168   4.273   5.811
 3790SOL    HW212270   1.314   4.203   5.790
 3791SOL     OW12271   4.683   1.025   6.236
 3791SOL    HW112272   4.749   1.078   6.182
 3791SOL    HW212273   4.725   0.997   6.323
 3792SOL     OW12274   1.137   2.087   4.142
 3792SOL    HW112275   1.154   1.989   4.145
 3792SOL    HW212276   1.194   2.129   4.072
 3793SOL     OW12277   4.903   6.210   2.151
 3793SOL    HW112278   4.929   6.113   2.150
 3793SOL    HW212279   4.982   6.266   2.127
 3794SOL     OW12280   2.126   2.485   1.017
 3794SOL    HW112281   2.144   2.540   0.935
 3794SOL    HW212282   2.061   2.534   1.076
 3795SOL     OW12283   4.451   6.157   0.811
 3795SOL    HW112284   4.497   6.071   0.788
 3795SOL    HW212285   4.517   6.218   0.855
 3796SOL     OW12286   3.386   2.076   2.399
 3796SOL    HW112287   3.308   2.067   2.337
 3796SOL    HW212288   3.355   2.113   2.486
 3797SOL     OW12289   0.634   3.367   2.128
 3797SOL    HW112290   0.659   3.345   2.222
 3797SOL    HW212291   0.649   3.465   2.111
 3798SOL     OW12292   2.608   5.195   3.502
 3798SOL    HW112293   2.597   5.293   3.491
 3798SOL    HW212294   2.639   5.175   3.595
 3799SOL     OW12295   6.102   2.140   3.743
 3799SOL    HW112296   6.129   2.048   3.716
 3799SOL    HW212297   6.046   2.181   3.671
 3800SOL     OW12298   5.573   2.568   4.053
 3800SOL    HW112299   5.615   2.603   4.137
 3800SOL    HW212300   5.606   2.621   3.975
 3801SOL     OW12301   5.998   6.598   1.841
 3801SOL    HW112302   5.955   6.680   1.879
 3801SOL    HW212303   5.952   6.516   1.877
 3802SOL     OW12304   1.363   2.228   1.699
 3802SOL    HW112305   1.420   2.146   1.699
 3802SOL    HW212306   1.343   2.255   1.605
 3803SOL     OW12307   4.149   3.360   2.304
 3803SOL    HW112308   4.203   3.397   2.228
 3803SOL    HW212309   4.061   3.327   2.270
 3804SOL     OW12310   4.399   1.236   4.034
 3804SOL    HW112311   4.314   1.265   4.077
 3804SOL    HW212312   4.403   1.136   4.031
 3805SOL     OW12313   1.990   2.674   1.349
 3805SOL    HW112314   1.931   2.611   1.298
 3805SOL    HW212315   2.040   2.732   1.284
 3806SOL     OW12316   3.824   3.581   5.817
 3806SOL    HW112317   3.875   3.569   5.903
 3806SOL    HW212318   3.790   3.675   5.812
 3807SOL     OW12319   1.607   5.734   2.772
 3807SOL    HW112320   1.654   5.726   2.859
 3807SOL    HW212321   1.509   5.718   2.785
 3808SOL     OW12322   4.540   1.081   0.706
 3808SOL    HW112323   4.474   1.115   0.639
 3808SOL    HW212324   4.629   1.069   0.661
 3809SOL     OW12325   5.785   2.645   1.806
 3809SOL    HW112326   5.875   2.664   1.844
 3809SOL    HW212327   5.794   2.624   1.708
 3810SOL     OW12328   4.527   2.485   3.567
 3810SOL    HW112329   4.550   2.563   3.625
 3810SOL    HW212330   4.474   2.419   3.620
 3811SOL     OW12331   0.849   5.320   4.871
 3811SOL    HW112332   0.891   5.348   4.957
 3811SOL    HW212333   0.751   5.341   4.874
 3812SOL     OW12334   4.629   4.961   5.458
 3812SOL    HW112335   4.667   5.047   5.491
 3812SOL    HW212336   4.678   4.885   5.502
 3813SOL     OW12337   4.051   3.180   0.412
 3813SOL    HW112338   3.958   3.184   0.375
 3813SOL    HW212339   4.047   3.160   0.510
 3814SOL     OW12340   6.889   6.665   6.185
 3814SOL    HW112341   6.795   6.696   6.176
 3814SOL    HW212342   6.919   6.675   6.280
 3815SOL     OW12343   3.988   2.372   0.880
 3815SOL    HW112344   4.055   2.423   0.827
 3815SOL    HW212345   3.896   2.395   0.848
 3816SOL     OW12346   1.160   5.931   6.294
 3816SOL    HW112347   1.063   5.943   6.310
 3816SOL    HW212348   1.211   5.948   6.379
 3817SOL     OW12349   4.886   3.281   2.921
 3817SOL    HW112350   4.909   3.263   3.016
 3817SOL    HW212351   4.878   3.380   2.907
 3818SOL     OW12352   6.317   0.721   6.618
 3818SOL    HW112353   6.283   0.771   6.538
 3818SOL    HW212354   6.380   0.779   6.669
 3819SOL     OW12355   5.052   5.477   1.774
 3819SOL    HW112356   5.150   5.465   1.765
 3819SOL    HW212357   5.005   5.433   1.698
 3820SOL     OW12358   5.297   7.011   3.638
 3820SOL    HW112359   5.208   0.017   3.608
 3820SOL    HW212360   5.358   7.003   3.560
 3821SOL     OW12361   2.420   1.748   1.595
 3821SOL    HW112362   2.330   1.720   1.629
 3821SOL    HW212363   2.491   1.700   1.646
 3822SOL     OW12364   2.265   0.665   1.242
 3822SOL    HW112365   2.359   0.668   1.210
 3822SOL    HW212366   2.262   0.621   1.332
 3823SOL     OW12367   3.499   3.569   6.073
 3823SOL    HW112368   3.401   3.550   6.073
 3823SOL    HW212369   3.515   3.666   6.088
 3824SOL     OW12370   0.152   3.378   0.221
 3824SOL    HW112371   0.159   3.347   0.316
 3824SOL    HW212372   0.153   3.299   0.160
 3825SOL     OW12373   0.192   5.516   0.686
 3825SOL    HW112374   0.120   5.486   0.748
 3825SOL    HW212375   0.261   5.567   0.736
 3826SOL     OW12376   1.004   3.411   6.726
 3826SOL    HW112377   0.928   3.475   6.739
 3826SOL    HW212378   1.083   3.460   6.690
 3827SOL     OW12379   1.460   1.284   1.859
 3827SOL    HW112380   1.552   1.250   1.837
 3827SOL    HW212381   1.450   1.377   1.823
 3828SOL     OW12382   3.647   3.629   2.909
 3828SOL    HW112383   3.653   3.727   2.889
 3828SOL    HW212384   3.623   3.579   2.825
 3829SOL     OW12385   1.313   5.176   2.834
 3829SOL    HW112386   1.341   5.084   2.806
 3829SOL    HW212387   1.394   5.227   2.865
 3830SOL     OW12388   0.725   0.941   5.335
 3830SOL    HW112389   0.783   1.014   5.370
 3830SOL    HW212390   0.734   0.936   5.235
 3831SOL     OW12391   4.707   2.516   2.210
 3831SOL    HW112392   4.678   2.532   2.304
 3831SOL    HW212393   4.637   2.461   2.163
 3832SOL     OW12394   5.934   0.981   2.938
 3832SOL    HW112395   5.843   1.022   2.936
 3832SOL    HW212396   5.959   0.951   2.846
 3833SOL     OW12397   0.220   6.640   6.317
 3833SOL    HW112398   0.210   6.572   6.244
 3833SOL    HW212399   0.140   6.636   6.377
 3834SOL     OW12400   4.107   4.527   1.239
 3834SOL    HW112401   4.094   4.428   1.242
 3834SOL    HW212402   4.029   4.572   1.283
 3835SOL     OW12403   3.586   5.598   4.698
 3835SOL    HW112404   3.604   5.506   4.733
 3835SOL    HW212405   3.634   5.665   4.755
 3836SOL     OW12406   1.512   3.978   6.065
 3836SOL    HW112407   1.497   4.076   6.046
 3836SOL    HW212408   1.429   3.939   6.105
 3837SOL     OW12409   4.533   4.737   6.219
 3837SOL    HW112410   4.520   4.699   6.311
 3837SOL    HW212411   4.462   4.805   6.202
 3838SOL     OW12412   0.781   3.684   4.277
 3838SOL    HW112413   0.840   3.673   4.357
 3838SOL    HW212414   0.827   3.740   4.209
 3839SOL     OW12415   5.346   0.923   3.839
 3839SOL    HW112416   5.433   0.894   3.880
 3839SOL    HW212417   5.274   0.858   3.864
 3840SOL     OW12418   2.664   0.775   6.172
 3840SOL    HW112419   2.742   0.762   6.233
 3840SOL    HW212420   2.584   0.799   6.227
 3841SOL     OW12421   7.014   3.228   4.260
 3841SOL    HW112422   7.000   3.322   4.292
 3841SOL    HW212423   0.076   3.219   4.218
 3842SOL     OW12424   2.119   2.911   1.164
 3842SOL    HW112425   2.203   2.862   1.140
 3842SOL    HW212426   2.138   2.975   1.239
 3843SOL     OW12427   5.701   4.749   2.227
 3843SOL    HW112428   5.764   4.671   2.230
 3843SOL    HW212429   5.608   4.715   2.213
 3844SOL     OW12430   0.831   3.160   6.081
 3844SOL    HW112431   0.876   3.146   6.169
 3844SOL    HW212432   0.888   3.121   6.008
 3845SOL     OW12433   2.839   3.520   5.500
 3845SOL    HW112434   2.820   3.490   5.406
 3845SOL    HW212435   2.798   3.609   5.516
 3846SOL     OW12436   0.597   5.375   3.808
 3846SOL    HW112437   0.538   5.325   3.746
 3846SOL    HW212438   0.573   5.472   3.806
 3847SOL     OW12439   5.330   1.437   4.638
 3847SOL    HW112440   5.420   1.478   4.652
 3847SOL    HW212441   5.278   1.495   4.574
 3848SOL     OW12442   4.590   5.307   3.012
 3848SOL    HW112443   4.502   5.303   3.059
 3848SOL    HW212444   4.587   5.378   2.942
 3849SOL     OW12445   1.716   0.980   5.973
 3849SOL    HW112446   1.623   0.960   6.004
 3849SOL    HW212447   1.727   1.078   5.960
 3850SOL     OW12448   2.393   3.526   1.178
 3850SOL    HW112449   2.411   3.623   1.166
 3850SOL    HW212450   2.419   3.499   1.271
 3851SOL     OW12451   0.879   4.611   1.921
 3851SOL    HW112452   0.815   4.681   1.889
 3851SOL    HW212453   0.972   4.636   1.894
 3852SOL     OW12454   4.441   6.385   3.741
 3852SOL    HW112455   4.424   6.303   3.796
 3852SOL    HW212456   4.539   6.394   3.724
 3853SOL     OW12457   1.071   4.342   3.143
 3853SOL    HW112458   0.993   4.326   3.203
 3853SOL    HW212459   1.065   4.281   3.063
 3854SOL     OW12460   1.668   3.234   2.728
 3854SOL    HW112461   1.736   3.190   2.668
 3854SOL    HW212462   1.619   3.163   2.779
 3855SOL     OW12463   5.057   6.371   6.212
 3855SOL    HW112464   5.126   6.332   6.273
 3855SOL    HW212465   5.062   6.326   6.123
 3856SOL     OW12466   0.532   1.114   6.076
 3856SOL    HW112467   0.490   1.023   6.084
 3856SOL    HW212468   0.485   1.177   6.138
 3857SOL     OW12469   0.143   6.193   6.863
 3857SOL    HW112470   0.086   6.126   6.910
 3857SOL    HW212471   0.228   6.150   6.834
 3858SOL     OW12472   1.842   0.666   5.430
 3858SOL    HW112473   1.848   0.592   5.497
 3858SOL    HW212474   1.850   0.754   5.476
 3859SOL     OW12475   5.941   1.262   2.619
 3859SOL    HW112476   5.882   1.285   2.541
 3859SOL    HW212477   6.029   1.307   2.609
 3860SOL     OW12478   3.096   0.483   5.532
 3860SOL    HW112479   3.083   0.459   5.628
 3860SOL    HW212480   3.139   0.573   5.526
 3861SOL     OW12481   4.817   4.634   3.420
 3861SOL    HW112482   4.825   4.534   3.429
 3861SOL    HW212483   4.760   4.655   3.341
 3862SOL     OW12484   1.355   0.380   5.225
 3862SOL    HW112485   1.370   0.385   5.126
 3862SOL    HW212486   1.426   0.434   5.271
 3863SOL     OW12487   4.630   2.800   6.706
 3863SOL    HW112488   4.714   2.833   6.662
 3863SOL    HW212489   4.592   2.872   6.764
 3864SOL     OW12490   2.685   0.248   5.242
 3864SOL    HW112491   2.774   0.270   5.282
 3864SOL    HW212492   2.652   0.325   5.188
 3865SOL     OW12493   3.687   0.054   0.058
 3865SOL    HW112494   3.715   7.027   0.136
 3865SOL    HW212495   3.723   0.147   0.068
 3866SOL     OW12496   3.950   0.987   1.160
 3866SOL    HW112497   4.028   1.050   1.163
 3866SOL    HW212498   3.877   1.021   1.220
 3867SOL     OW12499   1.497   3.990   3.322
 3867SOL    HW112500   1.572   3.932   3.355
 3867SOL    HW212501   1.418   3.933   3.301
 3868SOL     OW12502   3.322   6.754   0.456
 3868SOL    HW112503   3.345   6.851   0.466
 3868SOL    HW212504   3.406   6.701   0.444
 3869SOL     OW12505   5.575   4.254   5.023
 3869SOL    HW112506   5.618   4.175   4.978
 3869SOL    HW212507   5.519   4.303   4.956
 3870SOL     OW12508   4.852   5.301   6.798
 3870SOL    HW112509   4.920   5.232   6.824
 3870SOL    HW212510   4.840   5.366   6.873
 3871SOL     OW12511   3.568   0.374   2.725
 3871SOL    HW112512   3.540   0.468   2.707
 3871SOL    HW212513   3.666   0.371   2.745
 3872SOL     OW12514   3.667   3.057   3.192
 3872SOL    HW112515   3.599   2.984   3.188
 3872SOL    HW212516   3.728   3.042   3.270
 3873SOL     OW12517   6.056   2.851   2.121
 3873SOL    HW112518   6.067   2.869   2.219
 3873SOL    HW212519   5.971   2.893   2.090
 3874SOL     OW12520   4.076   5.741   6.800
 3874SOL    HW112521   4.105   5.755   6.894
 3874SOL    HW212522   4.023   5.656   6.794
 3875SOL     OW12523   1.660   2.904   1.617
 3875SOL    HW112524   1.588   2.846   1.655
 3875SOL    HW212525   1.646   2.998   1.648
 3876SOL     OW12526   4.563   4.855   0.501
 3876SOL    HW112527   4.552   4.888   0.407
 3876SOL    HW212528   4.531   4.760   0.506
 3877SOL     OW12529   6.684   2.729   0.552
 3877SOL    HW112530   6.745   2.664   0.507
 3877SOL    HW212531   6.708   2.736   0.649
 3878SOL     OW12532   3.264   6.803   4.490
 3878SOL    HW112533   3.360   6.817   4.468
 3878SOL    HW212534   3.231   6.879   4.546
 3879SOL     OW12535   4.842   6.331   1.485
 3879SOL    HW112536   4.762   6.363   1.538
 3879SOL    HW212537   4.883   6.409   1.438
 3880SOL     OW12538   6.306   4.767   3.661
 3880SOL    HW112539   6.332   4.761   3.757
 3880SOL    HW212540   6.313   4.861   3.629
 3881SOL     OW12541   1.181   4.440   1.176
 3881SOL    HW112542   1.137   4.380   1.242
 3881SOL    HW212543   1.111   4.479   1.116
 3882SOL     OW12544   0.927   2.078   5.344
 3882SOL    HW112545   0.945   2.108   5.438
 3882SOL    HW212546   0.831   2.097   5.321
 3883SOL     OW12547   4.111   1.054   3.873
 3883SOL    HW112548   4.187   1.035   3.935
 3883SOL    HW212549   4.034   1.090   3.925
 3884SOL     OW12550   0.445   5.103   3.221
 3884SOL    HW112551   0.524   5.157   3.193
 3884SOL    HW212552   0.364   5.161   3.226
 3885SOL     OW12553   6.139   0.517   2.534
 3885SOL    HW112554   6.208   0.564   2.590
 3885SOL    HW212555   6.150   0.543   2.438
 3886SOL     OW12556   6.416   5.727   4.563
 3886SOL    HW112557   6.366   5.668   4.500
 3886SOL    HW212558   6.365   5.736   4.649
 3887SOL     OW12559   0.181   0.809   6.196
 3887SOL    HW112560   0.255   0.748   6.166
 3887SOL    HW212561   0.205   0.849   6.285
 3888SOL     OW12562   0.264   0.157   6.587
 3888SOL    HW112563   0.301   0.072   6.552
 3888SOL    HW212564   0.164   0.152   6.588
 3889SOL     OW12565   6.655   3.685   5.809
 3889SOL    HW112566   6.559   3.666   5.786
 3889SOL    HW212567   6.689   3.614   5.871
 3890SOL     OW12568   5.718   5.480   2.773
 3890SOL    HW112569   5.718   5.398   2.715
 3890SOL    HW212570   5.624   5.502   2.800
 3891SOL     OW12571   5.592   4.454   4.022
 3891SOL    HW112572   5.631   4.367   4.053
 3891SOL    HW212573   5.527   4.437   3.948
 3892SOL     OW12574   0.360   2.327   1.293
 3892SOL    HW112575   0.368   2.238   1.248
 3892SOL    HW212576   0.275   2.331   1.346
 3893SOL     OW12577   3.562   5.403   0.831
 3893SOL    HW112578   3.497   5.467   0.789
 3893SOL    HW212579   3.568   5.320   0.776
 3894SOL     OW12580   2.787   2.036   1.071
 3894SOL    HW112581   2.705   2.092   1.063
 3894SOL    HW212582   2.792   1.997   1.163
 3895SOL     OW12583   1.732   0.483   4.995
 3895SOL    HW112584   1.778   0.522   5.075
 3895SOL    HW212585   1.791   0.414   4.953
 3896SOL     OW12586   0.536   1.877   6.660
 3896SOL    HW112587   0.569   1.838   6.574
 3896SOL    HW212588   0.447   1.838   6.683
 3897SOL     OW12589   3.586   6.447   2.178
 3897SOL    HW112590   3.565   6.482   2.269
 3897SOL    HW212591   3.685   6.433   2.171
 3898SOL     OW12592   3.628   3.365   4.074
 3898SOL    HW112593   3.581   3.431   4.014
 3898SOL    HW212594   3.575   3.354   4.158
 3899SOL     OW12595   4.989   0.800   4.625
 3899SOL    HW112596   4.904   0.752   4.646
 3899SOL    HW212597   5.065   0.755   4.671
 3900SOL     OW12598   4.983   2.719   4.046
 3900SOL    HW112599   5.079   2.705   4.069
 3900SOL    HW212600   4.926   2.687   4.122
 3901SOL     OW12601   3.129   6.342   5.232
 3901SOL    HW112602   3.099   6.431   5.199
 3901SOL    HW212603   3.224   6.348   5.262
 3902SOL     OW12604   6.075   3.720   1.706
 3902SOL    HW112605   6.096   3.789   1.637
 3902SOL    HW212606   5.981   3.689   1.695
 3903SOL     OW12607   5.091   4.759   7.004
 3903SOL    HW112608   5.067   4.666   6.976
 3903SOL    HW212609   5.009   4.816   7.007
 3904SOL     OW12610   2.227   6.624   5.677
 3904SOL    HW112611   2.175   6.540   5.694
 3904SOL    HW212612   2.222   6.683   5.757
 3905SOL     OW12613   5.916   6.930   5.799
 3905SOL    HW112614   5.967   6.845   5.793
 3905SOL    HW212615   5.937   6.976   5.886
 3906SOL     OW12616   2.529   5.656   5.323
 3906SOL    HW112617   2.495   5.747   5.343
 3906SOL    HW212618   2.629   5.656   5.328
 3907SOL     OW12619   6.711   6.672   5.224
 3907SOL    HW112620   6.732   6.751   5.167
 3907SOL    HW212621   6.617   6.643   5.207
 3908SOL     OW12622   1.721   1.108   6.925
 3908SOL    HW112623   1.812   1.148   6.923
 3908SOL    HW212624   1.652   1.180   6.926
 3909SOL     OW12625   0.235   5.005   6.208
 3909SOL    HW112626   0.289   4.941   6.154
 3909SOL    HW212627   0.162   4.955   6.256
 3910SOL     OW12628   3.557   4.181   1.707
 3910SOL    HW112629   3.521   4.139   1.624
 3910SOL    HW212630   3.532   4.126   1.786
 3911SOL     OW12631   4.471   1.693   0.195
 3911SOL    HW112632   4.437   1.783   0.165
 3911SOL    HW212633   4.396   1.628   0.197
 3912SOL     OW12634   3.598   1.496   6.385
 3912SOL    HW112635   3.527   1.430   6.359
 3912SOL    HW212636   3.634   1.473   6.475
 3913SOL     OW12637   2.815   6.064   6.616
 3913SOL    HW112638   2.720   6.095   6.617
 3913SOL    HW212639   2.864   6.110   6.542
 3914SOL     OW12640   5.326   0.979   1.152
 3914SOL    HW112641   5.271   0.934   1.082
 3914SOL    HW212642   5.392   1.040   1.108
 3915SOL     OW12643   4.171   6.038   0.836
 3915SOL    HW112644   4.104   6.086   0.778
 3915SOL    HW212645   4.263   6.066   0.810
 3916SOL     OW12646   1.865   6.579   2.337
 3916SOL    HW112647   1.845   6.674   2.365
 3916SOL    HW212648   1.900   6.528   2.416
 3917SOL     OW12649   1.270   4.916   0.333
 3917SOL    HW112650   1.351   4.859   0.328
 3917SOL    HW212651   1.297   5.012   0.339
 3918SOL     OW12652   4.339   6.331   2.141
 3918SOL    HW112653   4.247   6.331   2.101
 3918SOL    HW212654   4.353   6.415   2.193
 3919SOL     OW12655   3.376   6.945   6.852
 3919SOL    HW112656   3.325   6.899   6.780
 3919SOL    HW212657   3.312   6.983   6.919
 3920SOL     OW12658   2.667   2.075   6.500
 3920SOL    HW112659   2.753   2.040   6.539
 3920SOL    HW212660   2.656   2.171   6.525
 3921SOL     OW12661   0.528   3.342   0.006
 3921SOL    HW112662   0.466   3.329   0.084
 3921SOL    HW212663   0.622   3.343   0.038
 3922SOL     OW12664   4.568   5.116   0.605
 3922SOL    HW112665   4.607   5.042   0.550
 3922SOL    HW212666   4.632   5.194   0.605
 3923SOL     OW12667   6.216   1.891   0.024
 3923SOL    HW112668   6.207   1.991   0.020
 3923SOL    HW212669   6.219   1.862   0.119
 3924SOL     OW12670   0.508   4.932   3.037
 3924SOL    HW112671   0.478   5.016   3.084
 3924SOL    HW212672   0.433   4.865   3.039
 3925SOL     OW12673   4.146   4.215   0.713
 3925SOL    HW112674   4.190   4.135   0.755
 3925SOL    HW212675   4.148   4.291   0.778
 3926SOL     OW12676   6.929   6.597   4.131
 3926SOL    HW112677   7.027   6.600   4.150
 3926SOL    HW212678   6.884   6.538   4.198
 3927SOL     OW12679   0.163   2.982   4.510
 3927SOL    HW112680   0.065   2.982   4.487
 3927SOL    HW212681   0.198   3.075   4.506
 3928SOL     OW12682   3.945   5.570   4.802
 3928SOL    HW112683   3.963   5.509   4.879
 3928SOL    HW212684   3.918   5.517   4.722
 3929SOL     OW12685   0.251   1.985   6.911
 3929SOL    HW112686   0.182   2.024   6.849
 3929SOL    HW212687   0.327   2.049   6.919
 3930SOL     OW12688   1.464   2.001   3.620
 3930SOL    HW112689   1.472   1.906   3.588
 3930SOL    HW212690   1.508   2.062   3.555
 3931SOL     OW12691   2.061   1.661   1.930
 3931SOL    HW112692   2.016   1.679   2.018
 3931SOL    HW212693   2.098   1.747   1.894
 3932SOL     OW12694   1.936   4.147   3.625
 3932SOL    HW112695   1.982   4.098   3.699
 3932SOL    HW212696   1.856   4.196   3.661
 3933SOL     OW12697   1.837   0.076   0.091
 3933SOL    HW112698   1.815   0.170   0.065
 3933SOL    HW212699   1.752   0.025   0.103
 3934SOL     OW12700   0.626   0.972   2.010
 3934SOL    HW112701   0.661   0.881   2.033
 3934SOL    HW212702   0.581   1.012   2.090
 3935SOL     OW12703   1.841   0.932   5.479
 3935SOL    HW112704   1.797   0.968   5.561
 3935SOL    HW212705   1.790   0.960   5.398
 3936SOL     OW12706   6.844   6.410   5.231
 3936SOL    HW112707   6.759   6.360   5.213
 3936SOL    HW212708   6.823   6.506   5.249
 3937SOL     OW12709   0.283   6.743   2.811
 3937SOL    HW112710   0.319   6.704   2.727
 3937SOL    HW212711   0.224   6.676   2.856
 3938SOL     OW12712   5.925   2.775   3.521
 3938SOL    HW112713   5.994   2.775   3.593
 3938SOL    HW212714   5.834   2.765   3.561
 3939SOL     OW12715   2.749   2.019   3.185
 3939SOL    HW112716   2.652   2.007   3.204
 3939SOL    HW212717   2.766   2.114   3.158
 3940SOL     OW12718   3.703   4.907   2.148
 3940SOL    HW112719   3.629   4.870   2.092
 3940SOL    HW212720   3.671   4.918   2.242
 3941SOL     OW12721   6.402   0.658   5.066
 3941SOL    HW112722   6.351   0.655   4.980
 3941SOL    HW212723   6.477   0.724   5.058
 3942SOL     OW12724   0.633   6.330   5.810
 3942SOL    HW112725   0.701   6.386   5.763
 3942SOL    HW212726   0.550   6.384   5.827
 3943SOL     OW12727   0.711   3.278   2.365
 3943SOL    HW112728   0.688   3.280   2.462
 3943SOL    HW212729   0.762   3.194   2.345
 3944SOL     OW12730   5.840   3.846   5.515
 3944SOL    HW112731   5.851   3.846   5.615
 3944SOL    HW212732   5.756   3.799   5.491
 3945SOL     OW12733   1.080   2.495   2.698
 3945SOL    HW112734   0.993   2.537   2.672
 3945SOL    HW212735   1.062   2.413   2.753
 3946SOL     OW12736   6.399   4.012   6.041
 3946SOL    HW112737   6.395   3.915   6.067
 3946SOL    HW212738   6.395   4.069   6.123
 3947SOL     OW12739   5.426   5.635   1.337
 3947SOL    HW112740   5.450   5.685   1.420
 3947SOL    HW212741   5.472   5.547   1.336
 3948SOL     OW12742   0.320   5.048   0.739
 3948SOL    HW112743   0.333   5.123   0.675
 3948SOL    HW212744   0.351   5.076   0.830
 3949SOL     OW12745   6.225   6.603   3.057
 3949SOL    HW112746   6.211   6.688   3.005
 3949SOL    HW212747   6.136   6.568   3.088
 3950SOL     OW12748   3.323   4.136   1.183
 3950SOL    HW112749   3.338   4.040   1.161
 3950SOL    HW212750   3.354   4.193   1.107
 3951SOL     OW12751   0.376   0.404   6.872
 3951SOL    HW112752   0.311   0.474   6.842
 3951SOL    HW212753   0.432   0.375   6.795
 3952SOL     OW12754   5.924   3.313   4.716
 3952SOL    HW112755   5.934   3.244   4.645
 3952SOL    HW212756   5.994   3.384   4.704
 3953SOL     OW12757   3.530   4.797   0.121
 3953SOL    HW112758   3.576   4.873   0.168
 3953SOL    HW212759   3.451   4.833   0.071
 3954SOL     OW12760   5.802   5.573   5.466
 3954SOL    HW112761   5.872   5.559   5.535
 3954SOL    HW212762   5.796   5.492   5.407
 3955SOL     OW12763   4.596   6.934   6.854
 3955SOL    HW112764   4.563   6.859   6.911
 3955SOL    HW212765   4.518   6.990   6.824
 3956SOL     OW12766   1.519   2.025   4.466
 3956SOL    HW112767   1.602   2.023   4.522
 3956SOL    HW212768   1.454   2.090   4.506
 3957SOL     OW12769   4.298   6.879   3.653
 3957SOL    HW112770   4.320   6.786   3.683
 3957SOL    HW212771   4.318   6.944   3.727
 3958SOL     OW12772   5.683   0.435   6.248
 3958SOL    HW112773   5.768   0.474   6.283
 3958SOL    HW212774   5.694   0.337   6.233
 3959SOL     OW12775   3.595   6.484   0.703
 3959SOL    HW112776   3.615   6.563   0.760
 3959SOL    HW212777   3.517   6.435   0.740
 3960SOL     OW12778   5.891   1.974   6.015
 3960SOL    HW112779   5.821   1.919   6.058
 3960SOL    HW212780   5.952   1.916   5.961
 3961SOL     OW12781   5.319   2.783   2.518
 3961SOL    HW112782   5.312   2.780   2.418
 3961SOL    HW212783   5.231   2.811   2.556
 3962SOL     OW12784   1.461   5.760   6.547
 3962SOL    HW112785   1.373   5.754   6.594
 3962SOL    HW212786   1.463   5.695   6.472
 3963SOL     OW12787   4.907   5.010   3.880
 3963SOL    HW112788   4.832   4.967   3.830
 3963SOL    HW212789   4.944   4.947   3.948
 3964SOL     OW12790   4.243   4.845   4.985
 3964SOL    HW112791   4.196   4.852   4.897
 3964SOL    HW212792   4.273   4.750   4.999
 3965SOL     OW12793   4.079   3.861   6.645
 3965SOL    HW112794   4.164   3.906   6.617
 3965SOL    HW212795   4.098   3.798   6.720
 3966SOL     OW12796   6.836   4.968   7.012
 3966SOL    HW112797   6.794   4.886   6.973
 3966SOL    HW212798   6.773   5.012   0.047
 3967SOL     OW12799   1.275   4.713   2.587
 3967SOL    HW112800   1.222   4.631   2.608
 3967SOL    HW212801   1.318   4.703   2.497
 3968SOL     OW12802   6.747   0.476   1.023
 3968SOL    HW112803   6.825   0.516   1.073
 3968SOL    HW212804   6.780   0.404   0.962
 3969SOL     OW12805   0.416   3.962   3.022
 3969SOL    HW112806   0.346   3.969   3.093
 3969SOL    HW212807   0.377   3.991   2.934
 3970SOL     OW12808   4.382   5.313   4.000
 3970SOL    HW112809   4.290   5.350   3.988
 3970SOL    HW212810   4.399   5.243   3.931
 3971SOL     OW12811   2.167   4.611   2.299
 3971SOL    HW112812   2.236   4.559   2.349
 3971SOL    HW212813   2.114   4.666   2.363
 3972SOL     OW12814   1.953   5.266   1.686
 3972SOL    HW112815   1.857   5.254   1.713
 3972SOL    HW212816   1.994   5.339   1.741
 3973SOL     OW12817   2.445   4.392   5.525
 3973SOL    HW112818   2.484   4.482   5.544
 3973SOL    HW212819   2.365   4.377   5.583
 3974SOL     OW12820   2.130   0.684   5.709
 3974SOL    HW112821   2.208   0.732   5.749
 3974SOL    HW212822   2.046   0.736   5.726
 3975SOL     OW12823   5.886   0.152   6.474
 3975SOL    HW112824   5.886   0.223   6.544
 3975SOL    HW212825   5.894   0.062   6.516
 3976SOL     OW12826   2.204   4.546   0.999
 3976SOL    HW112827   2.115   4.533   1.042
 3976SOL    HW212828   2.250   4.626   1.038
 3977SOL     OW12829   2.906   4.644   5.492
 3977SOL    HW112830   2.956   4.614   5.574
 3977SOL    HW212831   2.836   4.576   5.470
 3978SOL     OW12832   5.676   0.603   4.485
 3978SOL    HW112833   5.609   0.602   4.560
 3978SOL    HW212834   5.766   0.578   4.522
 3979SOL     OW12835   2.399   6.370   1.371
 3979SOL    HW112836   2.409   6.286   1.424
 3979SOL    HW212837   2.372   6.348   1.277
 3980SOL     OW12838   0.063   4.492   6.240
 3980SOL    HW112839   0.043   4.567   6.303
 3980SOL    HW212840   0.082   4.409   6.293
 3981SOL     OW12841   1.709   1.704   6.773
 3981SOL    HW112842   1.660   1.642   6.711
 3981SOL    HW212843   1.711   1.796   6.733
 3982SOL     OW12844   2.266   0.434   4.297
 3982SOL    HW112845   2.189   0.393   4.345
 3982SOL    HW212846   2.246   0.440   4.199
 3983SOL     OW12847   4.043   5.850   4.355
 3983SOL    HW112848   4.059   5.751   4.352
 3983SOL    HW212849   3.955   5.867   4.399
 3984SOL     OW12850   2.208   0.319   2.699
 3984SOL    HW112851   2.117   0.283   2.719
 3984SOL    HW212852   2.207   0.368   2.612
 3985SOL     OW12853   2.606   4.609   6.822
 3985SOL    HW112854   2.525   4.577   6.773
 3985SOL    HW212855   2.604   4.708   6.831
 3986SOL     OW12856   6.799   1.561   3.158
 3986SOL    HW112857   6.734   1.594   3.089
 3986SOL    HW212858   6.829   1.469   3.133
 3987SOL     OW12859   1.695   5.875   4.862
 3987SOL    HW112860   1.616   5.855   4.805
 3987SOL    HW212861   1.669   5.868   4.958
 3988SOL     OW12862   3.925   2.691   5.548
 3988SOL    HW112863   3.970   2.732   5.468
 3988SOL    HW212864   3.915   2.592   5.533
 3989SOL     OW12865   6.334   1.349   0.232
 3989SOL    HW112866   6.357   1.445   0.216
 3989SOL    HW212867   6.358   1.324   0.326
 3990SOL     OW12868   5.918   1.553   4.175
 3990SOL    HW112869   5.908   1.616   4.099
 3990SOL    HW212870   5.989   1.486   4.154
 3991SOL     OW12871   5.825   1.481   1.950
 3991SOL    HW112872   5.757   1.466   1.879
 3991SOL    HW212873   5.779   1.512   2.034
 3992SOL     OW12874   3.740   2.185   6.458
 3992SOL    HW112875   3.710   2.230   6.374
 3992SOL    HW212876   3.825   2.226   6.490
 3993SOL     OW12877   1.083   1.978   3.383
 3993SOL    HW112878   1.141   2.009   3.459
 3993SOL    HW212879   1.028   2.054   3.350
 3994SOL     OW12880   1.419   2.930   5.825
 3994SOL    HW112881   1.443   2.868   5.899
 3994SOL    HW212882   1.449   3.023   5.847
 3995SOL     OW12883   2.208   4.221   4.561
 3995SOL    HW112884   2.255   4.182   4.640
 3995SOL    HW212885   2.110   4.201   4.568
 3996SOL     OW12886   1.385   0.916   4.517
 3996SOL    HW112887   1.329   0.941   4.595
 3996SOL    HW212888   1.388   0.992   4.452
 3997SOL     OW12889   4.734   2.705   2.856
 3997SOL    HW112890   4.723   2.633   2.925
 3997SOL    HW212891   4.697   2.791   2.892
 3998SOL     OW12892   5.037   1.595   2.443
 3998SOL    HW112893   5.084   1.524   2.497
 3998SOL    HW212894   4.952   1.557   2.406
 3999SOL     OW12895   5.189   3.360   3.648
 3999SOL    HW112896   5.254   3.299   3.603
 3999SOL    HW212897   5.238   3.417   3.714
 4000SOL     OW12898   3.687   5.571   2.945
 4000SOL    HW112899   3.606   5.564   2.888
 4000SOL    HW212900   3.748   5.494   2.927
 4001SOL     OW12901   1.456   2.723   4.281
 4001SOL    HW112902   1.460   2.663   4.361
 4001SOL    HW212903   1.362   2.756   4.269
 4002SOL     OW12904   2.610   2.955   0.252
 4002SOL    HW112905   2.610   2.898   0.170
 4002SOL    HW212906   2.564   3.042   0.232
 4003SOL     OW12907   2.859   6.858   5.885
 4003SOL    HW112908   2.904   6.875   5.973
 4003SOL    HW212909   2.885   6.930   5.821
 4004SOL     OW12910   6.048   2.570   3.930
 4004SOL    HW112911   6.035   2.471   3.932
 4004SOL    HW212912   6.082   2.602   4.018
 4005SOL     OW12913   5.068   5.349   1.196
 4005SOL    HW112914   5.070   5.449   1.197
 4005SOL    HW212915   5.155   5.313   1.163
 4006SOL     OW12916   4.417   4.701   1.739
 4006SOL    HW112917   4.336   4.645   1.722
 4006SOL    HW212918   4.395   4.773   1.804
 4007SOL     OW12919   0.673   3.015   1.940
 4007SOL    HW112920   0.680   3.112   1.917
 4007SOL    HW212921   0.739   2.963   1.886
 4008SOL     OW12922   3.476   1.824   4.636
 4008SOL    HW112923   3.418   1.823   4.718
 4008SOL    HW212924   3.470   1.913   4.591
 4009SOL     OW12925   4.969   2.419   0.584
 4009SOL    HW112926   4.972   2.416   0.484
 4009SOL    HW212927   4.878   2.393   0.616
 4010SOL     OW12928   1.929   3.590   1.280
 4010SOL    HW112929   2.008   3.530   1.271
 4010SOL    HW212930   1.902   3.596   1.376
 4011SOL     OW12931   0.999   7.017   2.019
 4011SOL    HW112932   1.053   0.010   2.100
 4011SOL    HW212933   0.925   0.056   2.010
 4012SOL     OW12934   4.335   4.551   1.069
 4012SOL    HW112935   4.268   4.566   1.141
 4012SOL    HW212936   4.383   4.637   1.049
 4013SOL     OW12937   2.888   0.406   1.057
 4013SOL    HW112938   2.869   0.308   1.060
 4013SOL    HW212939   2.897   0.442   1.150
 4014SOL     OW12940   4.149   5.545   3.636
 4014SOL    HW112941   4.188   5.587   3.553
 4014SOL    HW212942   4.147   5.445   3.624
 4015SOL     OW12943   4.005   5.223   6.048
 4015SOL    HW112944   4.070   5.298   6.035
 4015SOL    HW212945   3.917   5.260   6.079
 4016SOL     OW12946   1.068   5.390   6.491
 4016SOL    HW112947   1.060   5.487   6.516
 4016SOL    HW212948   1.143   5.349   6.542
 4017SOL     OW12949   0.080   6.781   0.268
 4017SOL    HW112950   0.146   6.722   0.222
 4017SOL    HW212951   0.020   6.824   0.201
 4018SOL     OW12952   5.808   6.408   1.894
 4018SOL    HW112953   5.722   6.460   1.900
 4018SOL    HW212954   5.806   6.334   1.961
 4019SOL     OW12955   5.867   3.416   2.154
 4019SOL    HW112956   5.852   3.354   2.230
 4019SOL    HW212957   5.964   3.415   2.128
 4020SOL     OW12958   6.295   2.559   5.802
 4020SOL    HW112959   6.212   2.602   5.767
 4020SOL    HW212960   6.271   2.484   5.863
 4021SOL     OW12961   3.078   3.887   5.945
 4021SOL    HW112962   3.162   3.840   5.971
 4021SOL    HW212963   3.023   3.905   6.026
 4022SOL     OW12964   4.228   0.179   6.692
 4022SOL    HW112965   4.149   0.166   6.633
 4022SOL    HW212966   4.210   0.140   6.783
 4023SOL     OW12967   0.033   0.953   4.168
 4023SOL    HW112968   0.047   0.877   4.105
 4023SOL    HW212969   6.980   1.005   4.139
 4024SOL     OW12970   2.810   5.089   4.245
 4024SOL    HW112971   2.720   5.088   4.287
 4024SOL    HW212972   2.876   5.131   4.308
 4025SOL     OW12973   0.141   5.924   4.989
 4025SOL    HW112974   0.109   5.961   5.076
 4025SOL    HW212975   0.160   5.827   4.999
 4026SOL     OW12976   6.896   6.936   3.327
 4026SOL    HW112977   6.834   6.882   3.383
 4026SOL    HW212978   6.935   7.011   3.382
 4027SOL     OW12979   2.709   2.871   0.983
 4027SOL    HW112980   2.712   2.777   1.016
 4027SOL    HW212981   2.626   2.916   1.015
 4028SOL     OW12982   2.649   2.369   2.898
 4028SOL    HW112983   2.554   2.393   2.918
 4028SOL    HW212984   2.695   2.343   2.983
 4029SOL     OW12985   3.104   4.711   5.991
 4029SOL    HW112986   3.030   4.749   6.046
 4029SOL    HW212987   3.184   4.693   6.048
 4030SOL     OW12988   0.819   2.057   0.314
 4030SOL    HW112989   0.889   2.105   0.366
 4030SOL    HW212990   0.753   2.015   0.377
 4031SOL     OW12991   5.053   6.560   3.537
 4031SOL    HW112992   5.043   6.615   3.454
 4031SOL    HW212993   5.118   6.486   3.520
 4032SOL     OW12994   6.451   0.399   2.429
 4032SOL    HW112995   6.540   0.422   2.390
 4032SOL    HW212996   6.427   0.466   2.499
 4033SOL     OW12997   2.956   3.593   2.115
 4033SOL    HW112998   2.972   3.675   2.170
 4033SOL    HW212999   2.920   3.619   2.026
 4034SOL     OW13000   0.322   1.399   4.952
 4034SOL    HW113001   0.335   1.489   4.995
 4034SOL    HW213002   0.234   1.399   4.904
 4035SOL     OW13003   6.903   2.625   0.817
 4035SOL    HW113004   6.833   2.696   0.827
 4035SOL    HW213005   6.860   2.536   0.804
 4036SOL     OW13006   5.115   6.554   2.498
 4036SOL    HW113007   5.027   6.591   2.470
 4036SOL    HW213008   5.155   6.612   2.568
 4037SOL     OW13009   2.165   1.048   0.988
 4037SOL    HW113010   2.200   1.132   1.031
 4037SOL    HW213011   2.098   1.072   0.918
 4038SOL     OW13012   4.234   4.227   1.658
 4038SOL    HW113013   4.261   4.169   1.581
 4038SOL    HW213014   4.314   4.250   1.713
 4039SOL     OW13015   4.581   4.431   1.521
 4039SOL    HW113016   4.562   4.428   1.619
 4039SOL    HW213017   4.574   4.339   1.483
 4040SOL     OW13018   3.646   0.426   5.921
 4040SOL    HW113019   3.576   0.463   5.982
 4040SOL    HW213020   3.719   0.494   5.909
 4041SOL     OW13021   2.177   5.081   1.304
 4041SOL    HW113022   2.194   4.982   1.309
 4041SOL    HW213023   2.188   5.111   1.209
 4042SOL     OW13024   5.900   5.436   2.470
 4042SOL    HW113025   5.928   5.402   2.560
 4042SOL    HW213026   5.854   5.364   2.419
 4043SOL     OW13027   5.000   2.390   4.810
 4043SOL    HW113028   4.936   2.432   4.746
 4043SOL    HW213029   5.023   2.297   4.779
 4044SOL     OW13030   4.650   0.286   3.456
 4044SOL    HW113031   4.641   0.303   3.554
 4044SOL    HW213032   4.580   0.220   3.426
 4045SOL     OW13033   2.850   5.161   6.082
 4045SOL    HW113034   2.884   5.093   6.018
 4045SOL    HW213035   2.797   5.230   6.032
 4046SOL     OW13036   0.795   1.315   3.655
 4046SOL    HW113037   0.707   1.284   3.619
 4046SOL    HW213038   0.790   1.317   3.755
 4047SOL     OW13039   1.660   2.393   0.585
 4047SOL    HW113040   1.639   2.343   0.669
 4047SOL    HW213041   1.615   2.482   0.587
 4048SOL     OW13042   5.210   2.377   2.181
 4048SOL    HW113043   5.195   2.359   2.083
 4048SOL    HW213044   5.123   2.368   2.229
 4049SOL     OW13045   6.298   6.004   6.762
 4049SOL    HW113046   6.276   6.092   6.720
 4049SOL    HW213047   6.362   5.955   6.703
 4050SOL     OW13048   1.477   6.472   0.544
 4050SOL    HW113049   1.550   6.471   0.613
 4050SOL    HW213050   1.442   6.565   0.534
 4051SOL     OW13051   3.506   2.990   6.953
 4051SOL    HW113052   3.425   2.932   6.955
 4051SOL    HW213053   3.588   2.933   6.963
 4052SOL     OW13054   0.197   0.860   2.154
 4052SOL    HW113055   0.157   0.840   2.065
 4052SOL    HW213056   0.264   0.933   2.145
 4053SOL     OW13057   2.733   5.333   4.147
 4053SOL    HW113058   2.779   5.247   4.171
 4053SOL    HW213059   2.772   5.407   4.202
 4054SOL     OW13060   0.093   3.258   1.960
 4054SOL    HW113061   0.045   3.336   1.920
 4054SOL    HW213062   0.189   3.282   1.973
 4055SOL     OW13063   4.226   3.472   6.277
 4055SOL    HW113064   4.223   3.571   6.260
 4055SOL    HW213065   4.137   3.432   6.254
 4056SOL     OW13066   4.133   3.574   0.699
 4056SOL    HW113067   4.127   3.666   0.658
 4056SOL    HW213068   4.205   3.522   0.653
 4057SOL     OW13069   5.364   2.196   1.562
 4057SOL    HW113070   5.293   2.130   1.584
 4057SOL    HW213071   5.325   2.288   1.557
 4058SOL     OW13072   1.845   0.302   3.920
 4058SOL    HW113073   1.772   0.249   3.962
 4058SOL    HW213074   1.860   0.387   3.972
 4059SOL     OW13075   0.945   2.760   3.666
 4059SOL    HW113076   0.852   2.788   3.690
 4059SOL    HW213077   0.943   2.666   3.633
 4060SOL     OW13078   4.762   5.358   4.732
 4060SOL    HW113079   4.796   5.377   4.640
 4060SOL    HW213080   4.786   5.434   4.793
 4061SOL     OW13081   3.275   5.100   1.695
 4061SOL    HW113082   3.239   5.165   1.761
 4061SOL    HW213083   3.368   5.073   1.722
 4062SOL     OW13084   2.985   1.589   3.052
 4062SOL    HW113085   2.967   1.673   3.104
 4062SOL    HW213086   2.947   1.511   3.101
 4063SOL     OW13087   6.178   6.707   5.169
 4063SOL    HW113088   6.152   6.755   5.086
 4063SOL    HW213089   6.117   6.733   5.243
 4064SOL     OW13090   1.993   6.281   3.565
 4064SOL    HW113091   2.009   6.379   3.560
 4064SOL    HW213092   1.917   6.257   3.503
 4065SOL     OW13093   0.123   6.489   0.809
 4065SOL    HW113094   0.129   6.577   0.855
 4065SOL    HW213095   0.091   6.502   0.715
 4066SOL     OW13096   4.848   5.203   2.706
 4066SOL    HW113097   4.937   5.162   2.685
 4066SOL    HW213098   4.781   5.131   2.722
 4067SOL     OW13099   5.708   3.076   3.075
 4067SOL    HW113100   5.621   3.052   3.031
 4067SOL    HW213101   5.781   3.019   3.038
 4068SOL     OW13102   3.505   0.394   4.435
 4068SOL    HW113103   3.458   0.338   4.367
 4068SOL    HW213104   3.578   0.446   4.391
 4069SOL     OW13105   4.151   4.526   6.042
 4069SOL    HW113106   4.143   4.561   6.136
 4069SOL    HW213107   4.087   4.449   6.030
 4070SOL     OW13108   0.469   3.742   1.885
 4070SOL    HW113109   0.387   3.787   1.919
 4070SOL    HW213110   0.457   3.717   1.789
 4071SOL     OW13111   1.467   0.944   5.417
 4071SOL    HW113112   1.460   0.844   5.418
 4071SOL    HW213113   1.495   0.977   5.508
 4072SOL     OW13114   1.018   6.038   4.101
 4072SOL    HW113115   0.933   6.067   4.056
 4072SOL    HW213116   1.090   6.030   4.032
 4073SOL     OW13117   2.629   5.740   5.974
 4073SOL    HW113118   2.614   5.779   5.883
 4073SOL    HW213119   2.672   5.809   6.033
 4074SOL     OW13120   0.766   2.717   2.105
 4074SOL    HW113121   0.845   2.709   2.165
 4074SOL    HW213122   0.777   2.797   2.046
 4075SOL     OW13123   3.571   2.031   2.707
 4075SOL    HW113124   3.535   2.053   2.798
 4075SOL    HW213125   3.502   2.054   2.638
 4076SOL     OW13126   2.447   3.784   5.638
 4076SOL    HW113127   2.490   3.750   5.555
 4076SOL    HW213128   2.372   3.846   5.613
 4077SOL     OW13129   3.579   6.802   0.202
 4077SOL    HW113130   3.586   6.833   0.108
 4077SOL    HW213131   3.589   6.703   0.206
 4078SOL     OW13132   6.079   5.444   2.094
 4078SOL    HW113133   6.100   5.512   2.024
 4078SOL    HW213134   6.110   5.478   2.183
 4079SOL     OW13135   0.232   1.843   3.355
 4079SOL    HW113136   0.146   1.793   3.346
 4079SOL    HW213137   0.242   1.877   3.448
 4080SOL     OW13138   2.534   3.535   0.451
 4080SOL    HW113139   2.536   3.498   0.358
 4080SOL    HW213140   2.448   3.584   0.466
 4081SOL     OW13141   1.533   1.992   3.899
 4081SOL    HW113142   1.520   2.019   3.803
 4081SOL    HW213143   1.516   1.894   3.908
 4082SOL     OW13144   1.839   2.505   1.206
 4082SOL    HW113145   1.758   2.518   1.264
 4082SOL    HW213146   1.862   2.408   1.203
 4083SOL     OW13147   6.000   4.423   2.216
 4083SOL    HW113148   5.930   4.404   2.146
 4083SOL    HW213149   5.984   4.513   2.256
 4084SOL     OW13150   4.648   2.182   3.237
 4084SOL    HW113151   4.650   2.087   3.204
 4084SOL    HW213152   4.554   2.208   3.257
 4085SOL     OW13153   2.366   5.648   0.924
 4085SOL    HW113154   2.281   5.687   0.888
 4085SOL    HW213155   2.381   5.558   0.884
 4086SOL     OW13156   0.050   4.572   1.330
 4086SOL    HW113157   0.101   4.621   1.260
 4086SOL    HW213158   0.095   4.582   1.418
 4087SOL     OW13159   1.817   1.497   2.785
 4087SOL    HW113160   1.767   1.575   2.823
 4087SOL    HW213161   1.914   1.507   2.806
 4088SOL     OW13162   6.364   1.009   6.706
 4088SOL    HW113163   6.291   1.006   6.637
 4088SOL    HW213164   6.440   1.063   6.671
 4089SOL     OW13165   6.239   4.680   4.376
 4089SOL    HW113166   6.293   4.658   4.295
 4089SOL    HW213167   6.287   4.649   4.458
 4090SOL     OW13168   1.803   5.845   5.579
 4090SOL    HW113169   1.860   5.771   5.617
 4090SOL    HW213170   1.754   5.812   5.499
 4091SOL     OW13171   0.442   6.129   0.239
 4091SOL    HW113172   0.388   6.155   0.159
 4091SOL    HW213173   0.387   6.070   0.298
 4092SOL     OW13174   5.682   2.797   3.667
 4092SOL    HW113175   5.610   2.736   3.633
 4092SOL    HW213176   5.716   2.762   3.755
 4093SOL     OW13177   5.233   6.539   1.657
 4093SOL    HW113178   5.268   6.445   1.664
 4093SOL    HW213179   5.174   6.558   1.736
 4094SOL     OW13180   1.123   4.779   6.068
 4094SOL    HW113181   1.085   4.712   6.132
 4094SOL    HW213182   1.054   4.802   6.000
 4095SOL     OW13183   0.141   3.880   0.430
 4095SOL    HW113184   0.065   3.844   0.377
 4095SOL    HW213185   0.198   3.804   0.463
 4096SOL     OW13186   4.356   0.411   6.647
 4096SOL    HW113187   4.312   0.491   6.688
 4096SOL    HW213188   4.298   0.331   6.660
 4097SOL     OW13189   4.755   4.655   4.652
 4097SOL    HW113190   4.710   4.579   4.699
 4097SOL    HW213191   4.849   4.630   4.631
 4098SOL     OW13192   0.932   2.180   1.564
 4098SOL    HW113193   0.951   2.163   1.661
 4098SOL    HW213194   0.876   2.107   1.528
 4099SOL     OW13195   3.910   5.395   1.042
 4099SOL    HW113196   3.876   5.488   1.036
 4099SOL    HW213197   3.985   5.382   0.977
 4100SOL     OW13198   0.551   6.935   4.391
 4100SOL    HW113199   0.471   6.916   4.447
 4100SOL    HW213200   0.524   6.939   4.295
 4101SOL     OW13201   0.351   1.000   0.161
 4101SOL    HW113202   0.260   0.970   0.134
 4101SOL    HW213203   0.371   0.968   0.254
 4102SOL     OW13204   1.363   0.896   0.974
 4102SOL    HW113205   1.435   0.964   0.960
 4102SOL    HW213206   1.396   0.824   1.035
 4103SOL     OW13207   0.550   6.651   1.297
 4103SOL    HW113208   0.582   6.634   1.203
 4103SOL    HW213209   0.451   6.639   1.300
 4104SOL     OW13210   0.253   4.487   3.220
 4104SOL    HW113211   0.295   4.421   3.158
 4104SOL    HW213212   0.321   4.556   3.245
 4105SOL     OW13213   6.049   0.245   2.945
 4105SOL    HW113214   6.063   0.338   2.910
 4105SOL    HW213215   5.952   0.224   2.946
 4106SOL     OW13216   0.011   3.138   3.413
 4106SOL    HW113217   0.052   3.211   3.468
 4106SOL    HW213218   6.940   3.152   3.408
 4107SOL     OW13219   1.052   5.927   0.562
 4107SOL    HW113220   1.017   6.005   0.510
 4107SOL    HW213221   1.046   5.844   0.507
 4108SOL     OW13222   6.567   4.979   4.405
 4108SOL    HW113223   6.621   5.060   4.380
 4108SOL    HW213224   6.628   4.910   4.444
 4109SOL     OW13225   6.612   0.276   4.870
 4109SOL    HW113226   6.583   0.234   4.956
 4109SOL    HW213227   6.548   0.250   4.797
 4110SOL     OW13228   4.150   3.732   6.169
 4110SOL    HW113229   4.209   3.810   6.144
 4110SOL    HW213230   4.056   3.764   6.178
 4111SOL     OW13231   5.730   4.726   6.296
 4111SOL    HW113232   5.827   4.724   6.272
 4111SOL    HW213233   5.699   4.633   6.319
 4112SOL     OW13234   4.681   5.972   4.477
 4112SOL    HW113235   4.625   6.051   4.501
 4112SOL    HW213236   4.715   5.983   4.384
 4113SOL     OW13237   5.440   5.535   5.060
 4113SOL    HW113238   5.415   5.627   5.091
 4113SOL    HW213239   5.396   5.467   5.120
 4114SOL     OW13240   4.120   2.093   3.839
 4114SOL    HW113241   4.080   2.061   3.925
 4114SOL    HW213242   4.200   2.149   3.859
 4115SOL     OW13243   3.319   4.872   2.310
 4115SOL    HW113244   3.291   4.779   2.286
 4115SOL    HW213245   3.241   4.934   2.300
 4116SOL     OW13246   4.231   1.591   3.137
 4116SOL    HW113247   4.317   1.593   3.188
 4116SOL    HW213248   4.174   1.669   3.163
 4117SOL     OW13249   0.813   3.533   2.635
 4117SOL    HW113250   0.722   3.562   2.605
 4117SOL    HW213251   0.883   3.583   2.584
 4118SOL     OW13252   5.294   6.567   0.381
 4118SOL    HW113253   5.363   6.498   0.360
 4118SOL    HW213254   5.209   6.544   0.333
 4119SOL     OW13255   2.930   1.356   3.950
 4119SOL    HW113256   2.925   1.280   3.886
 4119SOL    HW213257   2.838   1.379   3.982
 4120SOL     OW13258   3.431   1.119   5.515
 4120SOL    HW113259   3.392   1.172   5.439
 4120SOL    HW213260   3.506   1.062   5.481
 4121SOL     OW13261   6.883   0.298   3.864
 4121SOL    HW113262   6.919   0.298   3.957
 4121SOL    HW213263   6.956   0.273   3.800
 4122SOL     OW13264   1.643   6.592   4.513
 4122SOL    HW113265   1.635   6.669   4.576
 4122SOL    HW213266   1.561   6.536   4.518
 4123SOL     OW13267   4.164   4.591   5.356
 4123SOL    HW113268   4.105   4.544   5.422
 4123SOL    HW213269   4.184   4.530   5.280
 4124SOL     OW13270   6.598   6.358   0.514
 4124SOL    HW113271   6.636   6.420   0.445
 4124SOL    HW213272   6.514   6.397   0.551
 4125SOL     OW13273   4.103   2.178   2.695
 4125SOL    HW113274   4.051   2.216   2.618
 4125SOL    HW213275   4.199   2.169   2.669
 4126SOL     OW13276   1.690   3.295   3.218
 4126SOL    HW113277   1.759   3.224   3.225
 4126SOL    HW213278   1.716   3.373   3.276
 4127SOL     OW13279   5.906   3.512   5.311
 4127SOL    HW113280   5.990   3.466   5.280
 4127SOL    HW213281   5.880   3.478   5.401
 4128SOL     OW13282   0.884   3.171   1.369
 4128SOL    HW113283   0.945   3.250   1.380
 4128SOL    HW213284   0.789   3.202   1.369
 4129SOL     OW13285   3.303   0.974   6.747
 4129SOL    HW113286   3.300   0.881   6.783
 4129SOL    HW213287   3.270   0.974   6.653
 4130SOL     OW13288   6.312   2.433   0.861
 4130SOL    HW113289   6.322   2.532   0.875
 4130SOL    HW213290   6.369   2.404   0.785
 4131SOL     OW13291   0.334   1.301   2.943
 4131SOL    HW113292   0.355   1.341   3.031
 4131SOL    HW213293   0.417   1.297   2.887
 4132SOL     OW13294   4.943   4.138   3.658
 4132SOL    HW113295   4.949   4.039   3.648
 4132SOL    HW213296   4.850   4.164   3.684
 4133SOL     OW13297   3.562   6.050   1.579
 4133SOL    HW113298   3.552   6.073   1.675
 4133SOL    HW213299   3.488   6.092   1.526
 4134SOL     OW13300   2.024   3.837   1.256
 4134SOL    HW113301   2.110   3.839   1.307
 4134SOL    HW213302   1.978   3.749   1.270
 4135SOL     OW13303   0.562   2.303   2.075
 4135SOL    HW113304   0.594   2.343   2.160
 4135SOL    HW213305   0.588   2.362   1.998
 4136SOL     OW13306   1.257   3.386   3.017
 4136SOL    HW113307   1.346   3.414   3.053
 4136SOL    HW213308   1.237   3.293   3.045
 4137SOL     OW13309   1.632   3.376   1.179
 4137SOL    HW113310   1.669   3.398   1.269
 4137SOL    HW213311   1.676   3.435   1.110
 4138SOL     OW13312   4.096   5.609   2.514
 4138SOL    HW113313   4.117   5.706   2.502
 4138SOL    HW213314   4.181   5.559   2.536
 4139SOL     OW13315   1.603   1.347   5.457
 4139SOL    HW113316   1.629   1.444   5.465
 4139SOL    HW213317   1.516   1.340   5.408
 4140SOL     OW13318   3.614   0.840   5.302
 4140SOL    HW113319   3.706   0.816   5.272
 4140SOL    HW213320   3.594   0.934   5.275
 4141SOL     OW13321   4.811   6.243   1.219
 4141SOL    HW113322   4.829   6.244   1.318
 4141SOL    HW213323   4.879   6.300   1.173
 4142SOL     OW13324   6.428   4.991   1.099
 4142SOL    HW113325   6.434   4.892   1.103
 4142SOL    HW213326   6.480   5.024   1.020
 4143SOL     OW13327   5.591   2.531   1.280
 4143SOL    HW113328   5.498   2.568   1.271
 4143SOL    HW213329   5.588   2.450   1.339
 4144SOL     OW13330   5.062   1.826   0.230
 4144SOL    HW113331   5.045   1.835   0.328
 4144SOL    HW213332   5.156   1.797   0.215
 4145SOL     OW13333   0.290   6.614   1.612
 4145SOL    HW113334   0.373   6.646   1.658
 4145SOL    HW213335   0.216   6.606   1.679
 4146SOL     OW13336   6.561   0.282   3.550
 4146SOL    HW113337   6.520   0.273   3.460
 4146SOL    HW213338   6.557   0.195   3.598
 4147SOL     OW13339   4.516   5.095   5.927
 4147SOL    HW113340   4.565   5.015   5.892
 4147SOL    HW213341   4.439   5.116   5.867
 4148SOL     OW13342   2.296   0.201   4.515
 4148SOL    HW113343   2.224   0.159   4.461
 4148SOL    HW213344   2.379   0.208   4.461
 4149SOL     OW13345   0.242   4.281   1.325
 4149SOL    HW113346   0.300   4.199   1.317
 4149SOL    HW213347   0.183   4.272   1.405
 4150SOL     OW13348   1.287   0.845   5.797
 4150SOL    HW113349   1.259   0.794   5.878
 4150SOL    HW213350   1.225   0.825   5.721
 4151SOL     OW13351   3.275   6.293   5.725
 4151SOL    HW113352   3.244   6.291   5.820
 4151SOL    HW213353   3.213   6.350   5.671
 4152SOL     OW13354   4.339   5.933   1.563
 4152SOL    HW113355   4.298   5.845   1.586
 4152SOL    HW213356   4.383   5.972   1.644
 4153SOL     OW13357   5.598   5.413   1.346
 4153SOL    HW113358   5.666   5.341   1.330
 4153SOL    HW213359   5.605   5.444   1.441
 4154SOL     OW13360   7.001   5.191   4.232
 4154SOL    HW113361   7.012   5.181   4.331
 4154SOL    HW213362   7.022   5.286   4.206
 4155SOL     OW13363   0.022   0.894   1.259
 4155SOL    HW113364   0.114   0.877   1.224
 4155SOL    HW213365   0.014   0.989   1.289
 4156SOL     OW13366   5.874   5.862   4.937
 4156SOL    HW113367   5.841   5.870   5.031
 4156SOL    HW213368   5.800   5.884   4.874
 4157SOL     OW13369   5.193   5.859   4.511
 4157SOL    HW113370   5.097   5.832   4.504
 4157SOL    HW213371   5.224   5.896   4.424
 4158SOL     OW13372   0.888   2.865   1.884
 4158SOL    HW113373   0.951   2.788   1.896
 4158SOL    HW213374   0.902   2.906   1.794
 4159SOL     OW13375   1.646   3.042   2.946
 4159SOL    HW113376   1.744   3.021   2.952
 4159SOL    HW213377   1.604   3.033   3.037
 4160SOL     OW13378   5.365   0.622   0.184
 4160SOL    HW113379   5.395   0.714   0.211
 4160SOL    HW213380   5.402   0.555   0.249
 4161SOL     OW13381   0.949   2.204   0.765
 4161SOL    HW113382   0.973   2.267   0.839
 4161SOL    HW213383   1.013   2.127   0.766
 4162SOL     OW13384   6.467   5.824   0.435
 4162SOL    HW113385   6.503   5.796   0.345
 4162SOL    HW213386   6.505   5.913   0.460
 4163SOL     OW13387   5.239   0.298   3.607
 4163SOL    HW113388   5.194   0.261   3.526
 4163SOL    HW213389   5.258   0.223   3.671
 4164SOL     OW13390   1.913   6.757   5.617
 4164SOL    HW113391   1.980   6.727   5.549
 4164SOL    HW213392   1.947   6.736   5.709
 4165SOL     OW13393   4.667   0.335   6.138
 4165SOL    HW113394   4.652   0.287   6.051
 4165SOL    HW213395   4.764   0.347   6.154
 4166SOL     OW13396   5.706   1.694   0.251
 4166SOL    HW113397   5.665   1.603   0.255
 4166SOL    HW213398   5.702   1.728   0.157
 4167SOL     OW13399   2.419   4.719   6.543
 4167SOL    HW113400   2.434   4.621   6.554
 4167SOL    HW213401   2.508   4.765   6.537
 4168SOL     OW13402   0.289   4.226   1.045
 4168SOL    HW113403   0.261   4.262   1.135
 4168SOL    HW213404   0.357   4.287   1.005
 4169SOL     OW13405   5.557   5.413   4.636
 4169SOL    HW113406   5.541   5.323   4.596
 4169SOL    HW213407   5.475   5.441   4.687
 4170SOL     OW13408   4.689   3.147   6.595
 4170SOL    HW113409   4.609   3.133   6.537
 4170SOL    HW213410   4.672   3.109   6.685
 4171SOL     OW13411   6.398   5.724   0.675
 4171SOL    HW113412   6.392   5.800   0.740
 4171SOL    HW213413   6.435   5.756   0.588
 4172SOL     OW13414   1.840   2.024   6.190
 4172SOL    HW113415   1.767   2.026   6.122
 4172SOL    HW213416   1.841   2.111   6.241
 4173SOL     OW13417   5.167   3.702   4.796
 4173SOL    HW113418   5.094   3.641   4.766
 4173SOL    HW213419   5.235   3.650   4.847
 4174SOL     OW13420   4.623   1.318   2.664
 4174SOL    HW113421   4.633   1.381   2.742
 4174SOL    HW213422   4.545   1.347   2.608
 4175SOL     OW13423   2.012   5.299   4.546
 4175SOL    HW113424   2.092   5.254   4.585
 4175SOL    HW213425   2.027   5.314   4.448
 4176SOL     OW13426   3.456   6.248   2.066
 4176SOL    HW113427   3.370   6.248   2.117
 4176SOL    HW213428   3.502   6.336   2.080
 4177SOL     OW13429   6.060   5.482   5.578
 4177SOL    HW113430   6.019   5.406   5.528
 4177SOL    HW213431   6.146   5.508   5.533
 4178SOL     OW13432   3.976   6.492   4.206
 4178SOL    HW113433   3.936   6.402   4.193
 4178SOL    HW213434   3.931   6.558   4.145
 4179SOL     OW13435   5.482   3.329   3.016
 4179SOL    HW113436   5.401   3.344   2.960
 4179SOL    HW213437   5.488   3.232   3.041
 4180SOL     OW13438   4.263   3.886   0.457
 4180SOL    HW113439   4.289   3.959   0.520
 4180SOL    HW213440   4.344   3.857   0.405
 4181SOL     OW13441   3.605   0.787   0.057
 4181SOL    HW113442   3.663   0.836   7.020
 4181SOL    HW213443   3.559   0.853   0.117
 4182SOL     OW13444   0.743   6.365   3.376
 4182SOL    HW113445   0.729   6.336   3.281
 4182SOL    HW213446   0.824   6.319   3.413
 4183SOL     OW13447   2.944   1.447   0.159
 4183SOL    HW113448   2.942   1.516   0.087
 4183SOL    HW213449   2.868   1.463   0.222
 4184SOL     OW13450   3.846   6.461   2.275
 4184SOL    HW113451   3.894   6.375   2.259
 4184SOL    HW213452   3.896   6.536   2.231
 4185SOL     OW13453   1.014   4.856   3.203
 4185SOL    HW113454   1.110   4.863   3.177
 4185SOL    HW213455   1.004   4.790   3.277
 4186SOL     OW13456   2.893   4.868   0.217
 4186SOL    HW113457   2.956   4.800   0.180
 4186SOL    HW213458   2.810   4.823   0.249
 4187SOL     OW13459   3.945   3.599   5.243
 4187SOL    HW113460   3.959   3.586   5.341
 4187SOL    HW213461   3.884   3.677   5.228
 4188SOL     OW13462   5.638   0.731   5.041
 4188SOL    HW113463   5.697   0.797   5.087
 4188SOL    HW213464   5.694   0.669   4.987
 4189SOL     OW13465   3.516   4.998   5.236
 4189SOL    HW113466   3.577   4.928   5.275
 4189SOL    HW213467   3.448   4.954   5.178
 4190SOL     OW13468   0.993   0.416   0.708
 4190SOL    HW113469   0.908   0.365   0.720
 4190SOL    HW213470   1.071   0.353   0.711
 4191SOL     OW13471   4.951   4.446   3.755
 4191SOL    HW113472   4.956   4.414   3.660
 4191SOL    HW213473   4.945   4.546   3.756
 4192SOL     OW13474   0.704   1.075   3.933
 4192SOL    HW113475   0.725   1.173   3.924
 4192SOL    HW213476   0.609   1.059   3.907
 4193SOL     OW13477   6.960   1.450   1.367
 4193SOL    HW113478   6.939   1.483   1.275
 4193SOL    HW213479   6.884   1.469   1.428
 4194SOL     OW13480   6.024   0.161   4.272
 4194SOL    HW113481   6.096   0.106   4.228
 4194SOL    HW213482   5.968   0.103   4.331
 4195SOL     OW13483   3.785   6.631   1.560
 4195SOL    HW113484   3.789   6.730   1.577
 4195SOL    HW213485   3.764   6.615   1.463
 4196SOL     OW13486   6.179   2.124   2.303
 4196SOL    HW113487   6.111   2.132   2.376
 4196SOL    HW213488   6.173   2.033   2.262
 4197SOL     OW13489   4.951   5.399   5.809
 4197SOL    HW113490   5.005   5.404   5.893
 4197SOL    HW213491   4.860   5.363   5.829
 4198SOL     OW13492   6.121   2.211   6.788
 4198SOL    HW113493   6.161   2.207   6.879
 4198SOL    HW213494   6.026   2.181   6.792
 4199SOL     OW13495   1.914   2.589   6.204
 4199SOL    HW113496   1.857   2.654   6.256
 4199SOL    HW213497   1.986   2.554   6.263
 4200SOL     OW13498   3.449   0.577   6.044
 4200SOL    HW113499   3.405   0.612   6.127
 4200SOL    HW213500   3.464   0.652   5.980
 4201SOL     OW13501   6.643   0.149   3.907
 4201SOL    HW113502   6.602   0.110   3.825
 4201SOL    HW213503   6.735   0.183   3.885
 4202SOL     OW13504   3.653   5.802   4.971
 4202SOL    HW113505   3.583   5.873   4.967
 4202SOL    HW213506   3.734   5.832   4.921
 4203SOL     OW13507   3.774   5.091   6.789
 4203SOL    HW113508   3.753   4.999   6.756
 4203SOL    HW213509   3.746   5.100   6.885
 4204SOL     OW13510   4.099   3.634   3.231
 4204SOL    HW113511   4.176   3.643   3.169
 4204SOL    HW213512   4.022   3.688   3.197
 4205SOL     OW13513   4.050   5.816   3.138
 4205SOL    HW113514   4.011   5.769   3.218
 4205SOL    HW213515   3.978   5.832   3.071
 4206SOL     OW13516   6.848   0.737   5.900
 4206SOL    HW113517   6.796   0.751   5.816
 4206SOL    HW213518   6.946   0.741   5.880
 4207SOL     OW13519   1.834   2.160   1.286
 4207SOL    HW113520   1.821   2.195   1.194
 4207SOL    HW213521   1.858   2.235   1.348
 4208SOL     OW13522   6.890   2.668   5.538
 4208SOL    HW113523   6.986   2.691   5.521
 4208SOL    HW213524   6.886   2.593   5.604
 4209SOL     OW13525   0.316   0.064   3.764
 4209SOL    HW113526   0.318   0.015   3.677
 4209SOL    HW213527   0.234   0.038   3.815
 4210SOL     OW13528   3.545   3.226   2.276
 4210SOL    HW113529   3.567   3.199   2.182
 4210SOL    HW213530   3.592   3.312   2.297
 4211SOL     OW13531   4.661   6.224   6.579
 4211SOL    HW113532   4.672   6.153   6.649
 4211SOL    HW213533   4.752   6.255   6.549
 4212SOL     OW13534   6.235   1.816   2.588
 4212SOL    HW113535   6.204   1.744   2.526
 4212SOL    HW213536   6.155   1.859   2.632
 4213SOL     OW13537   1.664   0.916   1.412
 4213SOL    HW113538   1.564   0.926   1.413
 4213SOL    HW213539   1.702   0.963   1.333
 4214SOL     OW13540   0.728   5.185   5.134
 4214SOL    HW113541   0.712   5.124   5.056
 4214SOL    HW213542   0.803   5.247   5.111
 4215SOL     OW13543   5.649   7.012   5.850
 4215SOL    HW113544   5.733   6.963   5.827
 4215SOL    HW213545   5.638   7.014   5.949
 4216SOL     OW13546   1.230   1.557   2.570
 4216SOL    HW113547   1.131   1.540   2.567
 4216SOL    HW213548   1.246   1.655   2.573
 4217SOL     OW13549   0.938   0.204   2.385
 4217SOL    HW113550   0.977   0.229   2.473
 4217SOL    HW213551   0.856   0.258   2.367
 4218SOL     OW13552   4.258   0.963   1.155
 4218SOL    HW113553   4.301   1.053   1.161
 4218SOL    HW213554   4.240   0.929   1.247
 4219SOL     OW13555   3.778   5.550   3.802
 4219SOL    HW113556   3.813   5.463   3.765
 4219SOL    HW213557   3.703   5.531   3.865
 4220SOL     OW13558   6.102   2.708   3.709
 4220SOL    HW113559   6.081   2.662   3.795
 4220SOL    HW213560   6.136   2.640   3.643
 4221SOL     OW13561   5.655   4.764   6.612
 4221SOL    HW113562   5.581   4.699   6.629
 4221SOL    HW213563   5.632   4.821   6.533
 4222SOL     OW13564   7.013   2.070   2.787
 4222SOL    HW113565   7.019   2.166   2.813
 4222SOL    HW213566   6.917   2.044   2.777
 4223SOL     OW13567   3.757   3.279   6.363
 4223SOL    HW113568   3.706   3.195   6.380
 4223SOL    HW213569   3.847   3.272   6.406
 4224SOL     OW13570   5.451   3.714   4.128
 4224SOL    HW113571   5.382   3.763   4.074
 4224SOL    HW213572   5.406   3.656   4.195
 4225SOL     OW13573   3.969   1.158   5.549
 4225SOL    HW113574   4.068   1.161   5.538
 4225SOL    HW213575   3.944   1.180   5.643
 4226SOL     OW13576   1.064   0.346   2.143
 4226SOL    HW113577   1.088   0.250   2.161
 4226SOL    HW213578   1.045   0.393   2.229
 4227SOL     OW13579   3.945   4.907   1.064
 4227SOL    HW113580   4.014   4.883   0.996
 4227SOL    HW213581   3.921   5.004   1.053
 4228SOL     OW13582   0.740   4.220   4.683
 4228SOL    HW113583   0.820   4.183   4.729
 4228SOL    HW213584   0.758   4.315   4.657
 4229SOL     OW13585   5.047   5.433   5.510
 4229SOL    HW113586   5.138   5.417   5.548
 4229SOL    HW213587   4.979   5.425   5.582
 4230SOL     OW13588   1.715   6.368   2.491
 4230SOL    HW113589   1.814   6.360   2.479
 4230SOL    HW213590   1.694   6.379   2.589
 4231SOL     OW13591   5.820   6.923   5.537
 4231SOL    HW113592   5.879   6.921   5.617
 4231SOL    HW213593   5.725   6.909   5.565
 4232SOL     OW13594   6.929   4.937   2.518
 4232SOL    HW113595   6.868   5.014   2.501
 4232SOL    HW213596   6.879   4.864   2.566
 4233SOL     OW13597   6.895   1.033   6.494
 4233SOL    HW113598   6.912   1.034   6.592
 4233SOL    HW213599   6.802   0.999   6.476
 4234SOL     OW13600   2.553   6.612   5.371
 4234SOL    HW113601   2.588   6.530   5.415
 4234SOL    HW213602   2.519   6.589   5.280
 4235SOL     OW13603   5.576   3.781   5.783
 4235SOL    HW113604   5.566   3.773   5.684
 4235SOL    HW213605   5.486   3.791   5.825
 4236SOL     OW13606   5.878   3.857   2.853
 4236SOL    HW113607   5.865   3.760   2.871
 4236SOL    HW213608   5.811   3.888   2.786
 4237SOL     OW13609   5.754   5.980   2.206
 4237SOL    HW113610   5.722   5.889   2.179
 4237SOL    HW213611   5.818   5.971   2.282
 4238SOL     OW13612   2.879   5.757   3.197
 4238SOL    HW113613   2.824   5.789   3.274
 4238SOL    HW213614   2.821   5.707   3.132
 4239SOL     OW13615   5.730   1.537   3.161
 4239SOL    HW113616   5.639   1.537   3.203
 4239SOL    HW213617   5.798   1.519   3.232
 4240SOL     OW13618   2.288   6.448   6.928
 4240SOL    HW113619   2.301   6.545   6.907
 4240SOL    HW213620   2.347   6.423   7.005
 4241SOL     OW13621   6.056   1.097   0.073
 4241SOL    HW113622   6.091   1.092   7.007
 4241SOL    HW213623   6.112   1.040   0.133
 4242SOL     OW13624   2.950   1.073   3.817
 4242SOL    HW113625   3.001   0.987   3.822
 4242SOL    HW213626   2.852   1.053   3.819
 4243SOL     OW13627   6.445   3.037   3.265
 4243SOL    HW113628   6.528   3.051   3.210
 4243SOL    HW213629   6.393   2.960   3.228
 4244SOL     OW13630   4.250   4.136   1.391
 4244SOL    HW113631   4.274   4.048   1.348
 4244SOL    HW213632   4.189   4.187   1.331
 4245SOL     OW13633   0.488   1.597   6.350
 4245SOL    HW113634   0.397   1.638   6.336
 4245SOL    HW213635   0.551   1.631   6.280
 4246SOL     OW13636   6.824   3.905   3.378
 4246SOL    HW113637   6.799   3.988   3.328
 4246SOL    HW213638   6.882   3.929   3.456
 4247SOL     OW13639   2.912   5.307   3.316
 4247SOL    HW113640   2.940   5.392   3.360
 4247SOL    HW213641   2.992   5.247   3.306
 4248SOL     OW13642   2.313   1.989   3.649
 4248SOL    HW113643   2.291   1.893   3.635
 4248SOL    HW213644   2.412   2.002   3.644
 4249SOL     OW13645   5.345   2.434   3.979
 4249SOL    HW113646   5.430   2.482   4.000
 4249SOL    HW213647   5.299   2.478   3.902
 4250SOL     OW13648   6.338   5.347   2.708
 4250SOL    HW113649   6.296   5.322   2.621
 4250SOL    HW213650   6.301   5.288   2.781
 4251SOL     OW13651   5.669   4.362   1.636
 4251SOL    HW113652   5.731   4.299   1.588
 4251SOL    HW213653   5.676   4.347   1.735
 4252SOL     OW13654   5.489   0.200   6.393
 4252SOL    HW113655   5.402   0.166   6.357
 4252SOL    HW213656   5.564   0.164   6.337
 4253SOL     OW13657   2.977   6.910   1.235
 4253SOL    HW113658   3.044   6.974   1.197
 4253SOL    HW213659   2.971   6.829   1.177
 4254SOL     OW13660   1.339   3.781   1.608
 4254SOL    HW113661   1.406   3.731   1.663
 4254SOL    HW213662   1.310   3.863   1.657
 4255SOL     OW13663   0.139   4.245   4.296
 4255SOL    HW113664   0.207   4.186   4.339
 4255SOL    HW213665   0.047   4.212   4.317
 4256SOL     OW13666   1.883   6.115   0.602
 4256SOL    HW113667   1.872   6.026   0.560
 4256SOL    HW213668   1.911   6.104   0.698
 4257SOL     OW13669   2.642   0.669   3.930
 4257SOL    HW113670   2.711   0.720   3.981
 4257SOL    HW213671   2.568   0.643   3.991
 4258SOL     OW13672   4.005   5.856   0.906
 4258SOL    HW113673   3.948   5.841   0.826
 4258SOL    HW213674   4.078   5.921   0.884
 4259SOL     OW13675   2.532   0.703   1.150
 4259SOL    HW113676   2.582   0.736   1.230
 4259SOL    HW213677   2.567   0.749   1.068
 4260SOL     OW13678   5.462   0.356   1.547
 4260SOL    HW113679   5.465   0.262   1.514
 4260SOL    HW213680   5.367   0.380   1.569
 4261SOL     OW13681   2.471   0.044   2.951
 4261SOL    HW113682   2.477   0.116   3.020
 4261SOL    HW213683   2.461   0.085   2.861
 4262SOL     OW13684   0.720   4.437   6.483
 4262SOL    HW113685   0.727   4.495   6.402
 4262SOL    HW213686   0.631   4.451   6.527
 4263SOL     OW13687   3.149   0.473   3.493
 4263SOL    HW113688   3.131   0.417   3.574
 4263SOL    HW213689   3.066   0.522   3.467
 4264SOL     OW13690   6.469   2.088   2.592
 4264SOL    HW113691   6.381   2.096   2.638
 4264SOL    HW213692   6.529   2.164   2.620
 4265SOL     OW13693   4.338   1.558   1.184
 4265SOL    HW113694   4.275   1.603   1.247
 4265SOL    HW213695   4.288   1.490   1.130
 4266SOL     OW13696   1.866   5.368   6.594
 4266SOL    HW113697   1.854   5.380   6.693
 4266SOL    HW213698   1.813   5.437   6.545
 4267SOL     OW13699   1.846   3.161   3.556
 4267SOL    HW113700   1.795   3.237   3.597
 4267SOL    HW213701   1.909   3.123   3.623
 4268SOL     OW13702   1.258   5.986   6.562
 4268SOL    HW113703   1.354   6.012   6.550
 4268SOL    HW213704   1.253   5.905   6.620
 4269SOL     OW13705   3.011   0.579   2.410
 4269SOL    HW113706   3.048   0.568   2.318
 4269SOL    HW213707   2.920   0.537   2.414
 4270SOL     OW13708   4.118   3.384   3.116
 4270SOL    HW113709   4.127   3.471   3.165
 4270SOL    HW213710   4.121   3.402   3.017
 4271SOL     OW13711   6.516   0.933   6.992
 4271SOL    HW113712   6.469   1.020   7.008
 4271SOL    HW213713   6.559   0.935   6.902
 4272SOL     OW13714   6.778   2.279   4.127
 4272SOL    HW113715   6.865   2.282   4.078
 4272SOL    HW213716   6.746   2.372   4.144
 4273SOL     OW13717   4.878   6.669   4.683
 4273SOL    HW113718   4.876   6.642   4.780
 4273SOL    HW213719   4.793   6.716   4.660
 4274SOL     OW13720   0.874   6.635   1.653
 4274SOL    HW113721   0.855   6.612   1.557
 4274SOL    HW213722   0.972   6.634   1.669
 4275SOL     OW13723   6.785   1.996   4.402
 4275SOL    HW113724   6.705   1.989   4.342
 4275SOL    HW213725   6.795   2.090   4.434
 4276SOL     OW13726   1.501   5.415   3.736
 4276SOL    HW113727   1.441   5.351   3.687
 4276SOL    HW213728   1.559   5.463   3.669
 4277SOL     OW13729   6.258   4.623   3.025
 4277SOL    HW113730   6.204   4.694   2.979
 4277SOL    HW213731   6.342   4.607   2.974
 4278SOL     OW13732   6.713   7.011   5.418
 4278SOL    HW113733   6.735   7.002   5.320
 4278SOL    HW213734   6.691   0.078   5.439
 4279SOL     OW13735   3.308   0.539   4.029
 4279SOL    HW113736   3.353   0.449   4.027
 4279SOL    HW213737   3.375   0.609   4.053
 4280SOL     OW13738   4.826   0.700   5.601
 4280SOL    HW113739   4.815   0.688   5.503
 4280SOL    HW213740   4.917   0.670   5.629
 4281SOL     OW13741   0.034   4.407   3.359
 4281SOL    HW113742   0.109   4.438   3.299
 4281SOL    HW213743   0.068   4.401   3.453
 4282SOL     OW13744   3.500   4.195   6.082
 4282SOL    HW113745   3.426   4.263   6.087
 4282SOL    HW213746   3.473   4.121   6.022
 4283SOL     OW13747   1.342   0.516   3.262
 4283SOL    HW113748   1.386   0.428   3.284
 4283SOL    HW213749   1.391   0.559   3.187
 4284SOL     OW13750   3.985   4.796   1.307
 4284SOL    HW113751   3.981   4.849   1.222
 4284SOL    HW213752   4.078   4.800   1.344
 4285SOL     OW13753   1.792   0.459   5.694
 4285SOL    HW113754   1.711   0.485   5.747
 4285SOL    HW213755   1.862   0.424   5.756
 4286SOL     OW13756   4.838   6.491   5.849
 4286SOL    HW113757   4.872   6.546   5.773
 4286SOL    HW213758   4.805   6.403   5.814
 4287SOL     OW13759   5.622   1.204   6.107
 4287SOL    HW113760   5.598   1.107   6.118
 4287SOL    HW213761   5.591   1.255   6.187
 4288SOL     OW13762   0.203   5.413   3.797
 4288SOL    HW113763   0.294   5.372   3.808
 4288SOL    HW213764   0.193   5.447   3.704
 4289SOL     OW13765   6.918   2.955   6.360
 4289SOL    HW113766   6.922   2.928   6.456
 4289SOL    HW213767   6.822   2.958   6.331
 4290SOL     OW13768   1.425   6.452   3.817
 4290SOL    HW113769   1.443   6.503   3.901
 4290SOL    HW213770   1.364   6.505   3.758
 4291SOL     OW13771   4.729   3.468   0.402
 4291SOL    HW113772   4.738   3.547   0.461
 4291SOL    HW213773   4.819   3.443   0.365
 4292SOL     OW13774   5.636   2.992   0.390
 4292SOL    HW113775   5.547   2.985   0.346
 4292SOL    HW213776   5.632   3.060   0.463
 4293SOL     OW13777   2.708   2.682   0.407
 4293SOL    HW113778   2.699   2.672   0.308
 4293SOL    HW213779   2.646   2.754   0.439
 4294SOL     OW13780   1.951   2.103   0.059
 4294SOL    HW113781   1.937   2.199   0.036
 4294SOL    HW213782   1.974   2.095   0.156
 4295SOL     OW13783   3.822   5.822   4.759
 4295SOL    HW113784   3.815   5.867   4.671
 4295SOL    HW213785   3.874   5.737   4.749
 4296SOL     OW13786   2.695   6.905   1.010
 4296SOL    HW113787   2.670   6.886   0.915
 4296SOL    HW213788   2.622   6.956   1.055
 4297SOL     OW13789   4.857   0.491   6.528
 4297SOL    HW113790   4.932   0.501   6.462
 4297SOL    HW213791   4.890   0.441   6.608
 4298SOL     OW13792   3.891   4.884   0.156
 4298SOL    HW113793   3.867   4.975   0.121
 4298SOL    HW213794   3.909   4.823   0.080
 4299SOL     OW13795   1.530   3.440   0.072
 4299SOL    HW113796   1.535   3.433   0.172
 4299SOL    HW213797   1.600   3.381   0.031
 4300SOL     OW13798   3.502   6.560   0.469
 4300SOL    HW113799   3.558   6.533   0.547
 4300SOL    HW213800   3.456   6.480   0.431
 4301SOL     OW13801   3.996   1.390   1.490
 4301SOL    HW113802   4.037   1.299   1.500
 4301SOL    HW213803   3.938   1.409   1.570
 4302SOL     OW13804   0.957   0.241   6.387
 4302SOL    HW113805   0.939   0.191   6.302
 4302SOL    HW213806   0.950   0.179   6.465
 4303SOL     OW13807   6.880   4.412   3.776
 4303SOL    HW113808   6.797   4.438   3.826
 4303SOL    HW213809   6.891   4.313   3.779
 4304SOL     OW13810   3.012   3.938   2.599
 4304SOL    HW113811   3.006   4.038   2.597
 4304SOL    HW213812   3.022   3.907   2.693
 4305SOL     OW13813   6.956   0.620   5.415
 4305SOL    HW113814   6.929   0.687   5.345
 4305SOL    HW213815   0.004   0.565   5.381
 4306SOL     OW13816   5.207   4.595   6.115
 4306SOL    HW113817   5.299   4.556   6.106
 4306SOL    HW213818   5.170   4.614   6.024
 4307SOL     OW13819   5.500   4.085   6.040
 4307SOL    HW113820   5.466   4.080   5.946
 4307SOL    HW213821   5.554   4.169   6.052
 4308SOL     OW13822   5.860   4.757   1.317
 4308SOL    HW113823   5.957   4.740   1.332
 4308SOL    HW213824   5.820   4.683   1.264
 4309SOL     OW13825   1.020   0.973   6.868
 4309SOL    HW113826   0.940   1.009   6.918
 4309SOL    HW213827   1.102   0.989   6.922
 4310SOL     OW13828   1.883   2.725   1.674
 4310SOL    HW113829   1.918   2.725   1.767
 4310SOL    HW213830   1.803   2.785   1.668
 4311SOL     OW13831   2.096   6.066   2.598
 4311SOL    HW113832   2.136   6.091   2.686
 4311SOL    HW213833   2.138   6.121   2.525
 4312SOL     OW13834   2.193   5.459   1.748
 4312SOL    HW113835   2.244   5.441   1.833
 4312SOL    HW213836   2.199   5.379   1.689
 4313SOL     OW13837   4.430   1.655   1.667
 4313SOL    HW113838   4.486   1.623   1.590
 4313SOL    HW213839   4.389   1.743   1.643
 4314SOL     OW13840   6.160   1.009   4.235
 4314SOL    HW113841   6.082   1.071   4.228
 4314SOL    HW213842   6.152   0.938   4.164
 4315SOL     OW13843   2.703   5.855   1.903
 4315SOL    HW113844   2.619   5.879   1.952
 4315SOL    HW213845   2.776   5.919   1.928
 4316SOL     OW13846   5.435   0.874   1.971
 4316SOL    HW113847   5.528   0.902   1.945
 4316SOL    HW213848   5.412   0.788   1.925
 4317SOL     OW13849   5.151   2.571   4.927
 4317SOL    HW113850   5.105   2.500   4.874
 4317SOL    HW213851   5.249   2.569   4.907
 4318SOL     OW13852   0.594   2.970   4.857
 4318SOL    HW113853   0.603   2.928   4.767
 4318SOL    HW213854   0.634   3.062   4.855
 4319SOL     OW13855   2.114   1.718   1.108
 4319SOL    HW113856   2.207   1.710   1.145
 4319SOL    HW213857   2.088   1.814   1.106
 4320SOL     OW13858   5.180   5.295   0.333
 4320SOL    HW113859   5.125   5.229   0.385
 4320SOL    HW213860   5.248   5.246   0.278
 4321SOL     OW13861   0.055   6.544   5.176
 4321SOL    HW113862   0.058   6.579   5.083
 4321SOL    HW213863   7.005   6.481   5.186
 4322SOL     OW13864   6.352   2.801   6.933
 4322SOL    HW113865   6.378   2.876   6.872
 4322SOL    HW213866   6.412   2.723   6.918
 4323SOL     OW13867   4.496   3.885   0.639
 4323SOL    HW113868   4.478   3.795   0.601
 4323SOL    HW213869   4.595   3.903   0.638
 4324SOL     OW13870   5.771   3.866   6.349
 4324SOL    HW113871   5.692   3.920   6.321
 4324SOL    HW213872   5.820   3.834   6.268
 4325SOL     OW13873   2.165   1.319   1.572
 4325SOL    HW113874   2.205   1.281   1.489
 4325SOL    HW213875   2.075   1.358   1.552
 4326SOL     OW13876   4.502   4.858   3.808
 4326SOL    HW113877   4.597   4.858   3.776
 4326SOL    HW213878   4.484   4.773   3.858
 4327SOL     OW13879   5.682   6.207   1.541
 4327SOL    HW113880   5.702   6.110   1.550
 4327SOL    HW213881   5.763   6.260   1.567
 4328SOL     OW13882   4.540   3.430   5.648
 4328SOL    HW113883   4.458   3.416   5.592
 4328SOL    HW213884   4.552   3.351   5.709
 4329SOL     OW13885   4.450   1.836   5.791
 4329SOL    HW113886   4.424   1.856   5.885
 4329SOL    HW213887   4.540   1.793   5.789
 4330SOL     OW13888   1.909   6.102   4.642
 4330SOL    HW113889   1.867   6.151   4.718
 4330SOL    HW213890   2.006   6.088   4.662
 4331SOL     OW13891   5.375   1.860   1.840
 4331SOL    HW113892   5.454   1.838   1.781
 4331SOL    HW213893   5.399   1.840   1.935
 4332SOL     OW13894   5.118   3.622   1.726
 4332SOL    HW113895   5.161   3.666   1.804
 4332SOL    HW213896   5.187   3.576   1.671
 4333SOL     OW13897   3.806   1.025   5.907
 4333SOL    HW113898   3.742   1.017   5.983
 4333SOL    HW213899   3.888   0.970   5.925
 4334SOL     OW13900   1.762   2.429   2.814
 4334SOL    HW113901   1.709   2.376   2.879
 4334SOL    HW213902   1.842   2.469   2.860
 4335SOL     OW13903   3.622   3.885   2.796
 4335SOL    HW113904   3.535   3.836   2.797
 4335SOL    HW213905   3.645   3.908   2.701
 4336SOL     OW13906   3.312   6.841   6.419
 4336SOL    HW113907   3.290   6.927   6.374
 4336SOL    HW213908   3.409   6.840   6.442
 4337SOL     OW13909   0.774   4.484   0.910
 4337SOL    HW113910   0.837   4.537   0.854
 4337SOL    HW213911   0.793   4.501   1.007
 4338SOL     OW13912   6.267   0.108   5.758
 4338SOL    HW113913   6.193   0.165   5.721
 4338SOL    HW213914   6.344   0.108   5.695
 4339SOL     OW13915   5.460   3.280   5.783
 4339SOL    HW113916   5.519   3.204   5.757
 4339SOL    HW213917   5.425   3.324   5.701
 4340SOL     OW13918   6.247   3.166   1.766
 4340SOL    HW113919   6.260   3.085   1.824
 4340SOL    HW213920   6.334   3.191   1.724
 4341SOL     OW13921   0.757   5.495   1.774
 4341SOL    HW113922   0.716   5.434   1.841
 4341SOL    HW213923   0.771   5.585   1.814
 4342SOL     OW13924   5.818   3.651   3.908
 4342SOL    HW113925   5.724   3.684   3.916
 4342SOL    HW213926   5.823   3.557   3.944
 4343SOL     OW13927   2.685   6.354   5.476
 4343SOL    HW113928   2.646   6.362   5.568
 4343SOL    HW213929   2.784   6.343   5.482
 4344SOL     OW13930   0.065   4.237   1.971
 4344SOL    HW113931   7.026   4.163   1.977
 4344SOL    HW213932   0.017   4.325   1.967
 4345SOL     OW13933   3.498   3.947   5.093
 4345SOL    HW113934   3.500   4.043   5.068
 4345SOL    HW213935   3.522   3.891   5.014
 4346SOL     OW13936   2.039   3.361   2.704
 4346SOL    HW113937   1.980   3.299   2.651
 4346SOL    HW213938   2.060   3.442   2.649
 4347SOL     OW13939   6.591   6.629   2.766
 4347SOL    HW113940   6.674   6.684   2.778
 4347SOL    HW213941   6.543   6.659   2.684
 4348SOL     OW13942   6.629   5.083   4.015
 4348SOL    HW113943   6.553   5.040   4.064
 4348SOL    HW213944   6.716   5.046   4.049
 4349SOL     OW13945   5.533   1.740   2.909
 4349SOL    HW113946   5.459   1.808   2.912
 4349SOL    HW213947   5.618   1.783   2.938
 4350SOL     OW13948   3.463   1.460   4.014
 4350SOL    HW113949   3.453   1.366   3.983
 4350SOL    HW213950   3.420   1.522   3.948
 4351SOL     OW13951   2.017   5.239   0.981
 4351SOL    HW113952   2.112   5.216   1.004
 4351SOL    HW213953   2.016   5.298   0.900
 4352SOL     OW13954   6.385   3.807   2.485
 4352SOL    HW113955   6.478   3.800   2.448
 4352SOL    HW213956   6.342   3.890   2.450
 4353SOL     OW13957   4.186   2.846   6.467
 4353SOL    HW113958   4.217   2.856   6.372
 4353SOL    HW213959   4.094   2.884   6.476
 4354SOL     OW13960   2.088   0.391   5.819
 4354SOL    HW113961   2.127   0.473   5.776
 4354SOL    HW213962   2.110   0.391   5.916
 4355SOL     OW13963   2.319   6.800   2.470
 4355SOL    HW113964   2.375   6.726   2.433
 4355SOL    HW213965   2.369   6.848   2.541
 4356SOL     OW13966   4.856   4.021   0.279
 4356SOL    HW113967   4.933   4.049   0.223
 4356SOL    HW213968   4.821   4.099   0.330
 4357SOL     OW13969   6.325   1.614   1.015
 4357SOL    HW113970   6.226   1.601   1.011
 4357SOL    HW213971   6.349   1.695   0.962
 4358SOL     OW13972   0.134   0.396   0.738
 4358SOL    HW113973   0.179   0.469   0.789
 4358SOL    HW213974   0.142   0.415   0.640
 4359SOL     OW13975   2.218   1.626   6.280
 4359SOL    HW113976   2.259   1.535   6.287
 4359SOL    HW213977   2.287   1.691   6.248
 4360SOL     OW13978   1.310   3.353   3.358
 4360SOL    HW113979   1.353   3.396   3.278
 4360SOL    HW213980   1.295   3.256   3.339
 4361SOL     OW13981   2.625   3.269   1.506
 4361SOL    HW113982   2.638   3.232   1.598
 4361SOL    HW213983   2.679   3.352   1.496
 4362SOL     OW13984   6.031   5.190   3.220
 4362SOL    HW113985   6.077   5.277   3.203
 4362SOL    HW213986   6.081   5.138   3.290
 4363SOL     OW13987   5.828   2.012   1.192
 4363SOL    HW113988   5.809   2.079   1.120
 4363SOL    HW213989   5.787   2.043   1.278
 4364SOL     OW13990   2.977   3.686   4.231
 4364SOL    HW113991   2.923   3.623   4.176
 4364SOL    HW213992   2.942   3.686   4.325
 4365SOL     OW13993   2.693   0.766   2.119
 4365SOL    HW113994   2.742   0.843   2.161
 4365SOL    HW213995   2.729   0.749   2.027
 4366SOL     OW13996   5.736   0.323   0.546
 4366SOL    HW113997   5.825   0.281   0.530
 4366SOL    HW213998   5.702   0.365   0.462
 4367SOL     OW13999   2.451   4.551   4.730
 4367SOL    HW114000   2.423   4.562   4.635
 4367SOL    HW214001   2.422   4.461   4.763
 4368SOL     OW14002   3.540   5.145   0.317
 4368SOL    HW114003   3.480   5.178   0.390
 4368SOL    HW214004   3.592   5.066   0.348
 4369SOL     OW14005   4.579   5.436   2.654
 4369SOL    HW114006   4.660   5.495   2.654
 4369SOL    HW214007   4.594   5.359   2.592
 4370SOL     OW14008   3.730   5.068   1.723
 4370SOL    HW114009   3.817   5.114   1.742
 4370SOL    HW214010   3.746   4.971   1.706
 4371SOL     OW14011   1.023   2.361   2.397
 4371SOL    HW114012   1.065   2.366   2.306
 4371SOL    HW214013   1.076   2.298   2.454
 4372SOL     OW14014   2.834   1.958   2.708
 4372SOL    HW114015   2.876   1.919   2.626
 4372SOL    HW214016   2.830   2.057   2.700
 4373SOL     OW14017   5.792   1.889   0.590
 4373SOL    HW114018   5.851   1.822   0.544
 4373SOL    HW214019   5.699   1.854   0.596
 4374SOL     OW14020   0.630   1.911   0.501
 4374SOL    HW114021   0.563   1.932   0.573
 4374SOL    HW214022   0.595   1.838   0.444
 4375SOL     OW14023   4.536   0.023   3.190
 4375SOL    HW114024   4.472   0.082   3.240
 4375SOL    HW214025   4.535   0.047   3.093
 4376SOL     OW14026   6.879   6.728   2.419
 4376SOL    HW114027   6.842   6.637   2.403
 4376SOL    HW214028   6.972   6.720   2.454
 4377SOL     OW14029   5.627   4.791   0.120
 4377SOL    HW114030   5.620   4.695   0.148
 4377SOL    HW214031   5.618   4.850   0.199
 4378SOL     OW14032   2.008   2.274   2.513
 4378SOL    HW114033   2.023   2.220   2.596
 4378SOL    HW214034   1.959   2.358   2.538
 4379SOL     OW14035   1.580   2.458   2.589
 4379SOL    HW114036   1.640   2.470   2.668
 4379SOL    HW214037   1.491   2.425   2.620
 4380SOL     OW14038   1.319   0.200   2.953
 4380SOL    HW114039   1.411   0.177   2.984
 4380SOL    HW214040   1.264   0.232   3.030
 4381SOL     OW14041   1.736   4.276   5.329
 4381SOL    HW114042   1.810   4.209   5.332
 4381SOL    HW214043   1.721   4.305   5.234
 4382SOL     OW14044   6.343   3.251   5.279
 4382SOL    HW114045   6.335   3.210   5.370
 4382SOL    HW214046   6.431   3.298   5.272
 4383SOL     OW14047   0.859   2.452   5.872
 4383SOL    HW114048   0.801   2.437   5.952
 4383SOL    HW214049   0.939   2.392   5.878
 4384SOL     OW14050   6.681   1.848   5.691
 4384SOL    HW114051   6.589   1.880   5.668
 4384SOL    HW214052   6.744   1.872   5.618
 4385SOL     OW14053   6.134   2.512   4.972
 4385SOL    HW114054   6.172   2.435   4.921
 4385SOL    HW214055   6.062   2.480   5.034
 4386SOL     OW14056   2.221   3.051   6.756
 4386SOL    HW114057   2.224   3.030   6.854
 4386SOL    HW214058   2.161   3.130   6.740
 4387SOL     OW14059   6.820   1.514   1.125
 4387SOL    HW114060   6.741   1.476   1.077
 4387SOL    HW214061   6.824   1.613   1.111
 4388SOL     OW14062   5.139   2.042   6.439
 4388SOL    HW114063   5.072   2.116   6.444
 4388SOL    HW214064   5.231   2.080   6.435
 4389SOL     OW14065   0.047   3.319   0.858
 4389SOL    HW114066   0.118   3.346   0.793
 4389SOL    HW214067   7.013   3.253   0.814
 4390SOL     OW14068   3.740   1.063   1.297
 4390SOL    HW114069   3.734   1.058   1.397
 4390SOL    HW214070   3.747   1.159   1.269
 4391SOL     OW14071   2.050   5.724   0.108
 4391SOL    HW114072   1.957   5.691   0.124
 4391SOL    HW214073   2.054   5.772   0.020
 4392SOL     OW14074   6.833   2.990   5.117
 4392SOL    HW114075   6.875   3.016   5.030
 4392SOL    HW214076   6.905   2.978   5.186
 4393SOL     OW14077   6.289   0.261   2.257
 4393SOL    HW114078   6.358   0.309   2.311
 4393SOL    HW214079   6.286   0.300   2.165
 4394SOL     OW14080   6.172   6.080   2.500
 4394SOL    HW114081   6.238   6.016   2.540
 4394SOL    HW214082   6.099   6.028   2.454
 4395SOL     OW14083   2.884   6.277   1.900
 4395SOL    HW114084   2.971   6.282   1.851
 4395SOL    HW214085   2.809   6.278   1.833
 4396SOL     OW14086   1.907   2.216   3.936
 4396SOL    HW114087   1.874   2.149   4.003
 4396SOL    HW214088   1.861   2.303   3.951
 4397SOL     OW14089   0.328   1.217   4.736
 4397SOL    HW114090   0.341   1.249   4.830
 4397SOL    HW214091   0.414   1.225   4.685
 4398SOL     OW14092   0.337   4.125   5.846
 4398SOL    HW114093   0.413   4.179   5.880
 4398SOL    HW214094   0.350   4.106   5.748
 4399SOL     OW14095   2.398   0.291   2.093
 4399SOL    HW114096   2.417   0.389   2.096
 4399SOL    HW214097   2.413   0.258   2.000
 4400SOL     OW14098   3.354   6.791   5.492
 4400SOL    HW114099   3.263   6.811   5.528
 4400SOL    HW214100   3.405   6.736   5.558
 4401SOL     OW14101   4.198   7.008   6.392
 4401SOL    HW114102   4.174   6.973   6.302
 4401SOL    HW214103   4.298   7.010   6.401
 4402SOL     OW14104   2.793   0.443   2.095
 4402SOL    HW114105   2.890   0.452   2.116
 4402SOL    HW214106   2.739   0.476   2.173
 4403SOL     OW14107   0.869   6.863   2.511
 4403SOL    HW114108   0.917   6.912   2.583
 4403SOL    HW214109   0.934   6.803   2.463
 4404SOL     OW14110   0.517   5.255   5.818
 4404SOL    HW114111   0.470   5.282   5.734
 4404SOL    HW214112   0.451   5.240   5.891
 4405SOL     OW14113   1.802   4.007   0.688
 4405SOL    HW114114   1.756   4.091   0.716
 4405SOL    HW214115   1.900   4.023   0.678
 4406SOL     OW14116   0.313   3.347   0.768
 4406SOL    HW114117   0.318   3.434   0.817
 4406SOL    HW214118   0.360   3.356   0.680
 4407SOL     OW14119   6.075   4.953   0.714
 4407SOL    HW114120   6.033   5.004   0.790
 4407SOL    HW214121   6.153   5.004   0.679
 4408SOL     OW14122   3.569   0.923   1.140
 4408SOL    HW114123   3.652   0.942   1.192
 4408SOL    HW214124   3.556   0.824   1.133
 4409SOL     OW14125   5.029   0.637   2.435
 4409SOL    HW114126   5.007   0.718   2.381
 4409SOL    HW214127   5.068   0.566   2.376
 4410SOL     OW14128   1.244   5.029   6.500
 4410SOL    HW114129   1.322   5.014   6.439
 4410SOL    HW214130   1.276   5.072   6.585
 4411SOL     OW14131   3.891   4.037   4.427
 4411SOL    HW114132   3.972   4.030   4.486
 4411SOL    HW214133   3.917   4.017   4.332
 4412SOL     OW14134   4.231   6.127   4.660
 4412SOL    HW114135   4.306   6.138   4.725
 4412SOL    HW214136   4.163   6.063   4.698
 4413SOL     OW14137   6.446   4.932   4.150
 4413SOL    HW114138   6.484   4.951   4.240
 4413SOL    HW214139   6.408   4.839   4.149
 4414SOL     OW14140   3.482   4.566   0.999
 4414SOL    HW114141   3.540   4.532   1.073
 4414SOL    HW214142   3.426   4.642   1.032
 4415SOL     OW14143   4.037   2.855   0.405
 4415SOL    HW114144   4.066   2.929   0.345
 4415SOL    HW214145   4.004   2.778   0.350
 4416SOL     OW14146   3.055   0.610   4.012
 4416SOL    HW114147   3.151   0.584   4.016
 4416SOL    HW214148   3.037   0.684   4.077
 4417SOL     OW14149   5.662   4.107   3.385
 4417SOL    HW114150   5.660   4.009   3.367
 4417SOL    HW214151   5.635   4.157   3.303
 4418SOL     OW14152   5.844   1.870   2.306
 4418SOL    HW114153   5.819   1.853   2.211
 4418SOL    HW214154   5.940   1.897   2.311
 4419SOL     OW14155   6.022   6.276   6.890
 4419SOL    HW114156   5.962   6.224   6.951
 4419SOL    HW214157   5.971   6.351   6.849
 4420SOL     OW14158   5.238   1.048   1.885
 4420SOL    HW114159   5.281   0.982   1.947
 4420SOL    HW214160   5.165   1.003   1.834
 4421SOL     OW14161   2.062   1.146   4.751
 4421SOL    HW114162   2.145   1.148   4.805
 4421SOL    HW214163   2.011   1.231   4.764
 4422SOL     OW14164   2.534   4.253   0.052
 4422SOL    HW114165   2.608   4.302   0.005
 4422SOL    HW214166   2.526   4.286   0.146
 4423SOL     OW14167   6.986   2.793   5.818
 4423SOL    HW114168   6.940   2.801   5.907
 4423SOL    HW214169   6.937   2.728   5.760
 4424SOL     OW14170   5.940   1.225   4.592
 4424SOL    HW114171   5.993   1.228   4.508
 4424SOL    HW214172   5.981   1.286   4.660
 4425SOL     OW14173   3.380   4.199   0.308
 4425SOL    HW114174   3.412   4.123   0.252
 4425SOL    HW214175   3.427   4.283   0.280
 4426SOL     OW14176   6.949   1.509   3.660
 4426SOL    HW114177   6.935   1.569   3.738
 4426SOL    HW214178   6.880   1.527   3.590
 4427SOL     OW14179   0.420   6.604   2.627
 4427SOL    HW114180   0.504   6.632   2.580
 4427SOL    HW214181   0.386   6.519   2.586
 4428SOL     OW14182   2.941   7.008   2.602
 4428SOL    HW114183   3.040   6.992   2.601
 4428SOL    HW214184   2.897   6.935   2.655
 4429SOL     OW14185   2.592   5.899   2.442
 4429SOL    HW114186   2.622   5.827   2.504
 4429SOL    HW214187   2.589   5.986   2.490
 4430SOL     OW14188   4.792   3.957   4.704
 4430SOL    HW114189   4.833   3.925   4.789
 4430SOL    HW214190   4.786   3.880   4.640
 4431SOL     OW14191   2.096   1.338   2.144
 4431SOL    HW114192   2.070   1.270   2.076
 4431SOL    HW214193   2.022   1.352   2.209
 4432SOL     OW14194   2.867   3.607   6.159
 4432SOL    HW114195   2.900   3.596   6.253
 4432SOL    HW214196   2.827   3.521   6.127
 4433SOL     OW14197   4.857   2.022   4.753
 4433SOL    HW114198   4.922   1.954   4.719
 4433SOL    HW214199   4.835   2.086   4.679
 4434SOL     OW14200   4.919   1.623   3.729
 4434SOL    HW114201   4.838   1.594   3.679
 4434SOL    HW214202   4.892   1.676   3.810
 4435SOL     OW14203   4.924   3.491   1.467
 4435SOL    HW114204   4.831   3.516   1.495
 4435SOL    HW214205   4.975   3.573   1.442
 4436SOL     OW14206   4.132   1.226   1.270
 4436SOL    HW114207   4.059   1.236   1.338
 4436SOL    HW214208   4.220   1.246   1.312
 4437SOL     OW14209   6.262   2.125   2.776
 4437SOL    HW114210   6.242   2.032   2.808
 4437SOL    HW214211   6.176   2.176   2.767
 4438SOL     OW14212   5.239   0.350   7.010
 4438SOL    HW114213   5.280   0.408   6.939
 4438SOL    HW214214   5.167   0.401   0.029
 4439SOL     OW14215   0.642   4.479   1.578
 4439SOL    HW114216   0.584   4.529   1.642
 4439SOL    HW214217   0.617   4.382   1.578
 4440SOL     OW14218   2.529   4.883   0.647
 4440SOL    HW114219   2.622   4.918   0.640
 4440SOL    HW214220   2.503   4.877   0.744
 4441SOL     OW14221   0.067   1.705   2.568
 4441SOL    HW114222   0.154   1.691   2.520
 4441SOL    HW214223   0.009   1.625   2.554
 4442SOL     OW14224   2.113   5.228   4.278
 4442SOL    HW114225   2.040   5.192   4.220
 4442SOL    HW214226   2.168   5.153   4.313
 4443SOL     OW14227   1.018   3.043   0.157
 4443SOL    HW114228   0.966   3.072   0.237
 4443SOL    HW214229   1.049   3.123   0.106
 4444SOL     OW14230   3.066   4.355   5.324
 4444SOL    HW114231   2.997   4.402   5.269
 4444SOL    HW214232   3.150   4.409   5.325
 4445SOL     OW14233   1.100   6.602   0.569
 4445SOL    HW114234   1.044   6.519   0.567
 4445SOL    HW214235   1.041   6.682   0.557
 4446SOL     OW14236   5.582   0.472   2.046
 4446SOL    HW114237   5.659   0.526   2.015
 4446SOL    HW214238   5.497   0.512   2.012
 4447SOL     OW14239   5.856   4.069   5.986
 4447SOL    HW114240   5.875   3.991   6.046
 4447SOL    HW214241   5.896   4.151   6.026
 4448SOL     OW14242   2.801   3.921   1.655
 4448SOL    HW114243   2.779   3.824   1.655
 4448SOL    HW214244   2.716   3.975   1.655
 4449SOL     OW14245   5.193   0.462   6.081
 4449SOL    HW114246   5.171   0.524   6.006
 4449SOL    HW214247   5.281   0.489   6.122
 4450SOL     OW14248   3.169   3.409   5.156
 4450SOL    HW114249   3.235   3.360   5.100
 4450SOL    HW214250   3.210   3.495   5.187
 4451SOL     OW14251   6.373   4.972   3.053
 4451SOL    HW114252   6.361   4.948   2.957
 4451SOL    HW214253   6.360   4.891   3.110
 4452SOL     OW14254   4.996   6.153   4.419
 4452SOL    HW114255   5.048   6.119   4.498
 4452SOL    HW214256   4.955   6.076   4.371
 4453SOL     OW14257   0.839   2.610   1.308
 4453SOL    HW114258   0.778   2.560   1.247
 4453SOL    HW214259   0.880   2.547   1.374
 4454SOL     OW14260   1.760   2.058   0.654
 4454SOL    HW114261   1.736   2.035   0.560
 4454SOL    HW214262   1.702   2.134   0.685
 4455SOL     OW14263   4.329   6.457   5.968
 4455SOL    HW114264   4.249   6.500   5.926
 4455SOL    HW214265   4.361   6.514   6.044
 4456SOL     OW14266   3.532   6.040   2.247
 4456SOL    HW114267   3.517   6.102   2.170
 4456SOL    HW214268   3.493   5.951   2.226
 4457SOL     OW14269   4.419   1.350   2.508
 4457SOL    HW114270   4.429   1.334   2.410
 4457SOL    HW214271   4.341   1.410   2.525
 4458SOL     OW14272   1.898   3.036   0.683
 4458SOL    HW114273   1.916   3.076   0.773
 4458SOL    HW214274   1.960   2.959   0.667
 4459SOL     OW14275   4.003   0.985   4.852
 4459SOL    HW114276   3.950   1.067   4.830
 4459SOL    HW214277   3.950   0.903   4.830
 4460SOL     OW14278   2.912   3.005   6.036
 4460SOL    HW114279   2.924   3.097   6.074
 4460SOL    HW214280   2.929   3.007   5.938
 4461SOL     OW14281   1.265   0.156   1.165
 4461SOL    HW114282   1.228   0.179   1.255
 4461SOL    HW214283   1.356   0.196   1.156
 4462SOL     OW14284   5.929   5.320   1.391
 4462SOL    HW114285   5.928   5.335   1.292
 4462SOL    HW214286   5.928   5.222   1.410
 4463SOL     OW14287   5.514   1.814   0.374
 4463SOL    HW114288   5.595   1.783   0.325
 4463SOL    HW214289   5.500   1.911   0.358
 4464SOL     OW14290   6.721   5.435   0.884
 4464SOL    HW114291   6.690   5.455   0.792
 4464SOL    HW214292   6.816   5.464   0.894
 4465SOL     OW14293   2.850   5.346   1.700
 4465SOL    HW114294   2.853   5.282   1.623
 4465SOL    HW214295   2.926   5.326   1.763
 4466SOL     OW14296   1.812   1.462   3.319
 4466SOL    HW114297   1.730   1.431   3.271
 4466SOL    HW214298   1.856   1.384   3.364
 4467SOL     OW14299   1.913   5.982   2.347
 4467SOL    HW114300   1.909   5.956   2.444
 4467SOL    HW214301   1.957   5.909   2.295
 4468SOL     OW14302   1.969   3.799   0.164
 4468SOL    HW114303   2.064   3.830   0.173
 4468SOL    HW214304   1.954   3.719   0.221
 4469SOL     OW14305   3.131   0.658   1.810
 4469SOL    HW114306   3.038   0.630   1.785
 4469SOL    HW214307   3.138   0.758   1.804
 4470SOL     OW14308   6.518   2.249   1.982
 4470SOL    HW114309   6.525   2.160   2.028
 4470SOL    HW214310   6.481   2.316   2.047
 4471SOL     OW14311   1.099   2.421   6.388
 4471SOL    HW114312   1.155   2.363   6.447
 4471SOL    HW214313   1.035   2.474   6.444
 4472SOL     OW14314   1.212   3.757   2.003
 4472SOL    HW114315   1.191   3.718   2.093
 4472SOL    HW214316   1.129   3.758   1.947
 4473SOL     OW14317   6.163   2.895   4.475
 4473SOL    HW114318   6.236   2.917   4.410
 4473SOL    HW214319   6.202   2.845   4.553
 4474SOL     OW14320   2.620   1.016   2.309
 4474SOL    HW114321   2.537   0.985   2.356
 4474SOL    HW214322   2.697   0.957   2.334
 4475SOL     OW14323   1.702   4.117   2.599
 4475SOL    HW114324   1.719   4.030   2.552
 4475SOL    HW214325   1.720   4.107   2.696
 4476SOL     OW14326   4.533   0.315   3.042
 4476SOL    HW114327   4.632   0.323   3.052
 4476SOL    HW214328   4.509   0.308   2.946
 4477SOL     OW14329   2.200   0.124   5.184
 4477SOL    HW114330   2.164   0.117   5.091
 4477SOL    HW214331   2.259   0.045   5.202
 4478SOL     OW14332   3.747   6.723   2.899
 4478SOL    HW114333   3.709   6.636   2.929
 4478SOL    HW214334   3.786   6.772   2.976
 4479SOL     OW14335   0.659   1.706   1.669
 4479SOL    HW114336   0.680   1.795   1.708
 4479SOL    HW214337   0.561   1.689   1.673
 4480SOL     OW14338   1.247   4.024   4.721
 4480SOL    HW114339   1.322   4.088   4.738
 4480SOL    HW214340   1.284   3.939   4.684
 4481SOL     OW14341   3.367   6.227   4.800
 4481SOL    HW114342   3.329   6.300   4.857
 4481SOL    HW214343   3.295   6.187   4.744
 4482SOL     OW14344   1.344   2.813   4.995
 4482SOL    HW114345   1.432   2.838   5.036
 4482SOL    HW214346   1.272   2.870   5.034
 4483SOL     OW14347   5.735   2.858   2.487
 4483SOL    HW114348   5.719   2.762   2.463
 4483SOL    HW214349   5.666   2.889   2.552
 4484SOL     OW14350   2.780   2.326   6.665
 4484SOL    HW114351   2.814   2.409   6.621
 4484SOL    HW214352   2.857   2.272   6.699
 4485SOL     OW14353   5.639   1.898   4.829
 4485SOL    HW114354   5.616   1.846   4.747
 4485SOL    HW214355   5.557   1.913   4.884
 4486SOL     OW14356   5.637   4.956   5.367
 4486SOL    HW114357   5.541   4.930   5.368
 4486SOL    HW214358   5.669   4.963   5.272
 4487SOL     OW14359   2.533   2.506   6.809
 4487SOL    HW114360   2.473   2.555   6.746
 4487SOL    HW214361   2.629   2.526   6.787
 4488SOL     OW14362   0.136   3.622   6.194
 4488SOL    HW114363   0.168   3.557   6.263
 4488SOL    HW214364   0.043   3.652   6.218
 4489SOL     OW14365   5.273   4.800   4.785
 4489SOL    HW114366   5.296   4.896   4.802
 4489SOL    HW214367   5.199   4.772   4.847
 4490SOL     OW14368   6.488   2.820   2.237
 4490SOL    HW114369   6.436   2.784   2.159
 4490SOL    HW214370   6.434   2.811   2.321
 4491SOL     OW14371   6.370   2.586   4.035
 4491SOL    HW114372   6.368   2.532   4.119
 4491SOL    HW214373   6.420   2.536   3.964
 4492SOL     OW14374   5.913   4.776   1.767
 4492SOL    HW114375   5.888   4.695   1.712
 4492SOL    HW214376   5.835   4.838   1.771
 4493SOL     OW14377   4.996   5.164   4.767
 4493SOL    HW114378   5.047   5.243   4.799
 4493SOL    HW214379   4.899   5.186   4.760
 4494SOL     OW14380   0.608   1.056   6.742
 4494SOL    HW114381   0.577   1.033   6.834
 4494SOL    HW214382   0.658   0.979   6.703
 4495SOL     OW14383   3.660   6.569   4.387
 4495SOL    HW114384   3.647   6.568   4.288
 4495SOL    HW214385   3.659   6.475   4.422
 4496SOL     OW14386   5.233   6.206   1.035
 4496SOL    HW114387   5.136   6.229   1.036
 4496SOL    HW214388   5.282   6.271   0.977
 4497SOL     OW14389   5.670   1.989   0.122
 4497SOL    HW114390   5.613   1.962   0.045
 4497SOL    HW214391   5.613   2.024   0.196
 4498SOL     OW14392   0.401   3.558   0.432
 4498SOL    HW114393   0.301   3.551   0.438
 4498SOL    HW214394   0.426   3.592   0.342
 4499SOL     OW14395   6.173   3.774   4.415
 4499SOL    HW114396   6.105   3.800   4.346
 4499SOL    HW214397   6.146   3.811   4.504
 4500SOL     OW14398   3.280   3.270   4.964
 4500SOL    HW114399   3.365   3.255   4.913
 4500SOL    HW214400   3.234   3.183   4.980
 4501SOL     OW14401   0.204   3.503   3.243
 4501SOL    HW114402   0.295   3.531   3.275
 4501SOL    HW214403   0.146   3.584   3.233
 4502SOL     OW14404   0.476   2.793   6.321
 4502SOL    HW114405   0.546   2.858   6.353
 4502SOL    HW214406   0.386   2.834   6.328
 4503SOL     OW14407   3.296   6.967   1.795
 4503SOL    HW114408   3.349   6.904   1.852
 4503SOL    HW214409   3.235   6.915   1.735
 4504SOL     OW14410   6.855   1.064   5.229
 4504SOL    HW114411   6.791   1.128   5.186
 4504SOL    HW214412   6.810   0.977   5.245
 4505SOL     OW14413   5.549   5.515   1.605
 4505SOL    HW114414   5.545   5.611   1.635
 4505SOL    HW214415   5.536   5.456   1.685
 4506SOL     OW14416   4.706   2.825   3.380
 4506SOL    HW114417   4.730   2.746   3.435
 4506SOL    HW214418   4.728   2.909   3.430
 4507SOL     OW14419   5.499   4.618   2.569
 4507SOL    HW114420   5.416   4.589   2.616
 4507SOL    HW214421   5.495   4.717   2.553
 4508SOL     OW14422   1.270   5.417   6.707
 4508SOL    HW114423   1.239   5.475   6.783
 4508SOL    HW214424   1.339   5.465   6.654
 4509SOL     OW14425   4.292   2.224   2.317
 4509SOL    HW114426   4.358   2.296   2.339
 4509SOL    HW214427   4.296   2.204   2.219
 4510SOL     OW14428   3.710   1.582   4.230
 4510SOL    HW114429   3.741   1.661   4.284
 4510SOL    HW214430   3.611   1.585   4.219
 4511SOL     OW14431   6.326   3.234   7.008
 4511SOL    HW114432   6.346   3.331   6.991
 4511SOL    HW214433   6.229   3.223   0.002
 4512SOL     OW14434   2.762   1.679   5.340
 4512SOL    HW114435   2.722   1.658   5.250
 4512SOL    HW214436   2.708   1.635   5.412
 4513SOL     OW14437   6.877   5.238   6.867
 4513SOL    HW114438   6.873   5.314   6.933
 4513SOL    HW214439   6.840   5.155   6.909
 4514SOL     OW14440   3.913   1.991   6.321
 4514SOL    HW114441   3.835   2.021   6.376
 4514SOL    HW214442   3.996   2.033   6.355
 4515SOL     OW14443   0.170   2.018   5.889
 4515SOL    HW114444   0.141   1.932   5.931
 4515SOL    HW214445   0.234   1.999   5.814
 4516SOL     OW14446   2.027   0.163   0.290
 4516SOL    HW114447   1.970   0.124   0.217
 4516SOL    HW214448   2.032   0.262   0.278
 4517SOL     OW14449   4.283   0.998   6.910
 4517SOL    HW114450   4.371   1.007   6.958
 4517SOL    HW214451   4.218   0.953   6.971
 4518SOL     OW14452   6.890   0.452   2.699
 4518SOL    HW114453   6.878   0.443   2.798
 4518SOL    HW214454   6.919   0.364   2.661
 4519SOL     OW14455   0.155   0.124   1.532
 4519SOL    HW114456   0.066   0.093   1.498
 4519SOL    HW214457   0.156   0.120   1.632
 4520SOL     OW14458   4.634   6.346   4.623
 4520SOL    HW114459   4.583   6.422   4.584
 4520SOL    HW214460   4.727   6.346   4.587
 4521SOL     OW14461   6.939   1.696   4.748
 4521SOL    HW114462   6.955   1.768   4.680
 4521SOL    HW214463   6.983   1.722   4.834
 4522SOL     OW14464   5.219   6.056   3.444
 4522SOL    HW114465   5.304   6.007   3.463
 4522SOL    HW214466   5.144   5.991   3.439
 4523SOL     OW14467   0.842   4.744   6.717
 4523SOL    HW114468   0.896   4.666   6.748
 4523SOL    HW214469   0.902   4.817   6.686
 4524SOL     OW14470   6.525   2.633   2.855
 4524SOL    HW114471   6.491   2.680   2.774
 4524SOL    HW214472   6.473   2.548   2.868
 4525SOL     OW14473   5.038   1.971   5.829
 4525SOL    HW114474   4.938   1.970   5.842
 4525SOL    HW214475   5.076   2.053   5.870
 4526SOL     OW14476   6.844   0.252   0.555
 4526SOL    HW114477   6.910   0.197   0.504
 4526SOL    HW214478   6.759   0.201   0.566
 4527SOL     OW14479   5.573   1.354   3.833
 4527SOL    HW114480   5.621   1.266   3.828
 4527SOL    HW214481   5.484   1.347   3.788
 4528SOL     OW14482   4.885   0.829   0.560
 4528SOL    HW114483   4.860   0.739   0.524
 4528SOL    HW214484   4.830   0.899   0.515
 4529SOL     OW14485   2.402   0.722   5.191
 4529SOL    HW114486   2.371   0.657   5.261
 4529SOL    HW214487   2.389   0.815   5.225
 4530SOL     OW14488   2.201   5.202   4.678
 4530SOL    HW114489   2.243   5.113   4.695
 4530SOL    HW214490   2.215   5.261   4.758
 4531SOL     OW14491   0.590   2.666   5.429
 4531SOL    HW114492   0.615   2.666   5.525
 4531SOL    HW214493   0.491   2.656   5.421
 4532SOL     OW14494   6.211   1.363   2.605
 4532SOL    HW114495   6.288   1.329   2.658
 4532SOL    HW214496   6.233   1.361   2.507
 4533SOL     OW14497   0.961   1.801   1.855
 4533SOL    HW114498   1.028   1.748   1.803
 4533SOL    HW214499   0.876   1.748   1.864
 4534SOL     OW14500   4.887   4.154   4.277
 4534SOL    HW114501   4.806   4.180   4.329
 4534SOL    HW214502   4.946   4.097   4.334
 4535SOL     OW14503   3.578   0.883   2.617
 4535SOL    HW114504   3.593   0.924   2.707
 4535SOL    HW214505   3.622   0.940   2.547
 4536SOL     OW14506   3.761   1.855   4.413
 4536SOL    HW114507   3.688   1.902   4.363
 4536SOL    HW214508   3.832   1.921   4.438
 4537SOL     OW14509   3.934   3.322   0.686
 4537SOL    HW114510   3.946   3.329   0.587
 4537SOL    HW214511   3.994   3.389   0.731
 4538SOL     OW14512   1.689   0.438   3.004
 4538SOL    HW114513   1.722   0.414   3.095
 4538SOL    HW214514   1.742   0.389   2.935
 4539SOL     OW14515   2.973   6.554   5.127
 4539SOL    HW114516   2.923   6.602   5.055
 4539SOL    HW214517   3.019   6.620   5.186
 4540SOL     OW14518   2.743   2.624   6.081
 4540SOL    HW114519   2.796   2.544   6.053
 4540SOL    HW214520   2.730   2.684   6.002
 4541SOL     OW14521   6.499   2.030   0.473
 4541SOL    HW114522   6.436   1.959   0.506
 4541SOL    HW214523   6.526   2.088   0.550
 4542SOL     OW14524   6.968   1.627   1.712
 4542SOL    HW114525   6.936   1.539   1.677
 4542SOL    HW214526   6.909   1.657   1.787
 4543SOL     OW14527   4.632   2.140   2.166
 4543SOL    HW114528   4.642   2.096   2.256
 4543SOL    HW214529   4.613   2.070   2.097
 4544SOL     OW14530   3.407   6.051   6.200
 4544SOL    HW114531   3.364   5.982   6.258
 4544SOL    HW214532   3.390   6.030   6.104
 4545SOL     OW14533   5.729   3.460   4.373
 4545SOL    HW114534   5.677   3.407   4.440
 4545SOL    HW214535   5.802   3.510   4.419
 4546SOL     OW14536   1.931   0.991   5.064
 4546SOL    HW114537   1.885   1.074   5.032
 4546SOL    HW214538   1.972   1.008   5.154
 4547SOL     OW14539   6.218   2.437   2.007
 4547SOL    HW114540   6.248   2.355   2.055
 4547SOL    HW214541   6.206   2.416   1.909
 4548SOL     OW14542   1.347   3.122   4.126
 4548SOL    HW114543   1.379   3.179   4.051
 4548SOL    HW214544   1.341   3.027   4.096
 4549SOL     OW14545   6.790   4.199   1.713
 4549SOL    HW114546   6.722   4.248   1.767
 4549SOL    HW214547   6.758   4.192   1.618
 4550SOL     OW14548   0.864   5.074   3.180
 4550SOL    HW114549   0.831   5.124   3.259
 4550SOL    HW214550   0.904   4.987   3.210
 4551SOL     OW14551   6.787   2.653   4.599
 4551SOL    HW114552   6.768   2.572   4.654
 4551SOL    HW214553   6.885   2.657   4.578
 4552SOL     OW14554   6.342   3.228   2.098
 4552SOL    HW114555   6.430   3.228   2.052
 4552SOL    HW214556   6.355   3.208   2.195
 4553SOL     OW14557   3.115   4.802   6.428
 4553SOL    HW114558   3.102   4.829   6.523
 4553SOL    HW214559   3.086   4.876   6.368
 4554SOL     OW14560   6.339   6.907   1.429
 4554SOL    HW114561   6.277   6.975   1.468
 4554SOL    HW214562   6.428   6.949   1.414
 4555SOL     OW14563   2.196   2.713   6.143
 4555SOL    HW114564   2.133   2.790   6.144
 4555SOL    HW214565   2.153   2.633   6.185
 4556SOL     OW14566   5.468   2.921   4.160
 4556SOL    HW114567   5.471   2.961   4.069
 4556SOL    HW214568   5.557   2.880   4.182
 4557SOL     OW14569   5.202   6.554   5.311
 4557SOL    HW114570   5.249   6.528   5.227
 4557SOL    HW214571   5.142   6.479   5.341
 4558SOL     OW14572   0.531   3.935   5.192
 4558SOL    HW114573   0.441   3.894   5.206
 4558SOL    HW214574   0.561   3.977   5.278
 4559SOL     OW14575   0.522   3.717   1.621
 4559SOL    HW114576   0.602   3.754   1.573
 4559SOL    HW214577   0.486   3.639   1.569
 4560SOL     OW14578   5.399   3.952   1.565
 4560SOL    HW114579   5.425   4.009   1.488
 4560SOL    HW214580   5.301   3.933   1.560
 4561SOL     OW14581   2.320   1.753   3.119
 4561SOL    HW114582   2.303   1.850   3.138
 4561SOL    HW214583   2.309   1.736   3.021
 4562SOL     OW14584   2.371   6.462   5.904
 4562SOL    HW114585   2.409   6.430   5.817
 4562SOL    HW214586   2.291   6.407   5.928
 4563SOL     OW14587   6.838   2.455   1.386
 4563SOL    HW114588   6.860   2.508   1.305
 4563SOL    HW214589   6.815   2.361   1.360
 4564SOL     OW14590   6.753   5.855   1.675
 4564SOL    HW114591   6.661   5.848   1.636
 4564SOL    HW214592   6.820   5.833   1.605
 4565SOL     OW14593   1.191   1.513   4.660
 4565SOL    HW114594   1.191   1.584   4.730
 4565SOL    HW214595   1.285   1.499   4.627
 4566SOL     OW14596   6.596   2.426   0.100
 4566SOL    HW114597   6.640   2.514   0.083
 4566SOL    HW214598   6.537   2.432   0.180
 4567SOL     OW14599   6.173   0.912   6.024
 4567SOL    HW114600   6.145   0.989   5.966
 4567SOL    HW214601   6.099   0.888   6.086
 4568SOL     OW14602   2.191   3.487   6.313
 4568SOL    HW114603   2.187   3.387   6.324
 4568SOL    HW214604   2.113   3.517   6.256
 4569SOL     OW14605   2.053   1.700   2.574
 4569SOL    HW114606   1.994   1.721   2.496
 4569SOL    HW214607   2.079   1.603   2.570
 4570SOL     OW14608   0.114   6.550   2.917
 4570SOL    HW114609   0.020   6.544   2.949
 4570SOL    HW214610   0.173   6.581   2.991
 4571SOL     OW14611   4.224   4.489   6.346
 4571SOL    HW114612   4.239   4.585   6.371
 4571SOL    HW214613   4.204   4.436   6.429
 4572SOL     OW14614   2.329   0.620   6.952
 4572SOL    HW114615   2.246   0.613   7.007
 4572SOL    HW214616   2.406   0.646   7.011
 4573SOL     OW14617   6.239   0.391   0.766
 4573SOL    HW114618   6.284   0.448   0.834
 4573SOL    HW214619   6.142   0.415   0.761
 4574SOL     OW14620   5.477   4.202   0.638
 4574SOL    HW114621   5.553   4.258   0.608
 4574SOL    HW214622   5.498   4.105   0.623
 4575SOL     OW14623   5.760   1.119   6.366
 4575SOL    HW114624   5.709   1.070   6.295
 4575SOL    HW214625   5.734   1.085   6.456
 4576SOL     OW14626   2.641   6.404   5.762
 4576SOL    HW114627   2.673   6.498   5.773
 4576SOL    HW214628   2.714   6.341   5.786
 4577SOL     OW14629   1.540   1.912   5.223
 4577SOL    HW114630   1.534   1.952   5.315
 4577SOL    HW214631   1.634   1.885   5.205
 4578SOL     OW14632   0.308   2.814   4.990
 4578SOL    HW114633   0.352   2.893   5.033
 4578SOL    HW214634   0.265   2.842   4.905
 4579SOL     OW14635   4.122   0.883   3.656
 4579SOL    HW114636   4.105   0.944   3.734
 4579SOL    HW214637   4.100   0.789   3.682
 4580SOL     OW14638   5.779   4.611   0.422
 4580SOL    HW114639   5.682   4.621   0.441
 4580SOL    HW214640   5.829   4.689   0.462
 4581SOL     OW14641   2.418   5.297   2.843
 4581SOL    HW114642   2.462   5.311   2.754
 4581SOL    HW214643   2.480   5.247   2.904
 4582SOL     OW14644   5.431   7.013   5.348
 4582SOL    HW114645   5.391   7.009   5.440
 4582SOL    HW214646   5.513   0.042   5.350
 4583SOL     OW14647   2.545   2.380   6.500
 4583SOL    HW114648   2.462   2.340   6.540
 4583SOL    HW214649   2.610   2.401   6.573
 4584SOL     OW14650   0.132   4.426   5.441
 4584SOL    HW114651   0.226   4.401   5.419
 4584SOL    HW214652   0.120   4.524   5.426
 4585SOL     OW14653   2.804   5.987   3.626
 4585SOL    HW114654   2.886   6.018   3.675
 4585SOL    HW214655   2.761   5.912   3.677
 4586SOL     OW14656   3.807   4.909   0.720
 4586SOL    HW114657   3.743   4.875   0.790
 4586SOL    HW214658   3.773   4.885   0.629
 4587SOL     OW14659   3.656   4.114   3.111
 4587SOL    HW114660   3.623   4.036   3.164
 4587SOL    HW214661   3.641   4.198   3.162
 4588SOL     OW14662   2.500   3.555   5.394
 4588SOL    HW114663   2.588   3.575   5.352
 4588SOL    HW214664   2.503   3.466   5.439
 4589SOL     OW14665   5.987   0.983   2.664
 4589SOL    HW114666   5.973   1.078   2.693
 4589SOL    HW214667   6.018   0.981   2.569
 4590SOL     OW14668   4.902   5.907   1.460
 4590SOL    HW114669   4.806   5.929   1.478
 4590SOL    HW214670   4.921   5.814   1.492
 4591SOL     OW14671   1.419   0.104   4.538
 4591SOL    HW114672   1.497   0.059   4.495
 4591SOL    HW214673   1.368   0.155   4.469
 4592SOL     OW14674   2.482   1.743   2.500
 4592SOL    HW114675   2.433   1.665   2.539
 4592SOL    HW214676   2.510   1.805   2.573
 4593SOL     OW14677   4.952   5.404   2.874
 4593SOL    HW114678   4.954   5.464   2.795
 4593SOL    HW214679   4.922   5.312   2.846
 4594SOL     OW14680   2.851   1.133   3.089
 4594SOL    HW114681   2.885   1.222   3.121
 4594SOL    HW214682   2.754   1.141   3.066
 4595SOL     OW14683   3.927   3.472   5.600
 4595SOL    HW114684   3.948   3.375   5.588
 4595SOL    HW214685   3.905   3.491   5.695
 4596SOL     OW14686   5.851   6.793   1.955
 4596SOL    HW114687   5.777   6.829   1.899
 4596SOL    HW214688   5.839   6.824   2.050
 4597SOL     OW14689   3.690   5.724   5.997
 4597SOL    HW114690   3.692   5.823   5.987
 4597SOL    HW214691   3.783   5.687   5.985
 4598SOL     OW14692   1.754   6.285   6.705
 4598SOL    HW114693   1.797   6.297   6.616
 4598SOL    HW214694   1.753   6.373   6.754
 4599SOL     OW14695   1.395   5.011   0.744
 4599SOL    HW114696   1.313   4.986   0.795
 4599SOL    HW214697   1.370   5.065   0.664
 4600SOL     OW14698   1.443   5.356   5.684
 4600SOL    HW114699   1.364   5.296   5.691
 4600SOL    HW214700   1.522   5.313   5.728
 4601SOL     OW14701   2.282   1.114   5.476
 4601SOL    HW114702   2.208   1.068   5.525
 4601SOL    HW214703   2.263   1.212   5.471
 4602SOL     OW14704   2.764   6.481   1.193
 4602SOL    HW114705   2.827   6.407   1.169
 4602SOL    HW214706   2.783   6.561   1.136
 4603SOL     OW14707   2.965   5.971   0.793
 4603SOL    HW114708   2.937   5.928   0.707
 4603SOL    HW214709   3.036   6.039   0.774
 4604SOL     OW14710   4.828   0.491   0.612
 4604SOL    HW114711   4.763   0.415   0.618
 4604SOL    HW214712   4.833   0.538   0.700
 4605SOL     OW14713   2.661   6.955   2.375
 4605SOL    HW114714   2.600   6.982   2.301
 4605SOL    HW214715   2.722   0.003   2.397
 4606SOL     OW14716   0.725   5.975   2.462
 4606SOL    HW114717   0.751   6.065   2.428
 4606SOL    HW214718   0.759   5.904   2.400
 4607SOL     OW14719   1.568   3.588   1.545
 4607SOL    HW114720   1.491   3.638   1.505
 4607SOL    HW214721   1.591   3.628   1.633
 4608SOL     OW14722   0.563   5.941   3.707
 4608SOL    HW114723   0.660   5.932   3.730
 4608SOL    HW214724   0.547   5.902   3.617
 4609SOL     OW14725   4.181   5.145   6.253
 4609SOL    HW114726   4.109   5.162   6.185
 4609SOL    HW214727   4.190   5.225   6.313
 4610SOL     OW14728   4.794   2.215   0.900
 4610SOL    HW114729   4.779   2.312   0.920
 4610SOL    HW214730   4.726   2.160   0.950
 4611SOL     OW14731   1.063   6.374   6.840
 4611SOL    HW114732   1.112   6.315   6.775
 4611SOL    HW214733   0.965   6.360   6.829
 4612SOL     OW14734   1.265   6.085   0.312
 4612SOL    HW114735   1.322   6.085   0.393
 4612SOL    HW214736   1.294   6.157   0.250
 4613SOL     OW14737   2.175   5.708   1.632
 4613SOL    HW114738   2.263   5.755   1.631
 4613SOL    HW214739   2.188   5.614   1.664
 4614SOL     OW14740   6.173   3.439   3.485
 4614SOL    HW114741   6.198   3.427   3.581
 4614SOL    HW214742   6.171   3.537   3.463
 4615SOL     OW14743   1.830   0.622   0.066
 4615SOL    HW114744   1.779   0.614   0.152
 4615SOL    HW214745   1.806   0.708   0.022
 4616SOL     OW14746   6.698   1.370   4.547
 4616SOL    HW114747   6.619   1.430   4.565
 4616SOL    HW214748   6.676   1.308   4.471
 4617SOL     OW14749   0.773   2.315   2.558
 4617SOL    HW114750   0.862   2.304   2.515
 4617SOL    HW214751   0.785   2.352   2.650
 4618SOL     OW14752   2.229   3.038   4.817
 4618SOL    HW114753   2.290   3.009   4.890
 4618SOL    HW214754   2.145   3.077   4.857
 4619SOL     OW14755   3.218   6.215   3.591
 4619SOL    HW114756   3.152   6.174   3.527
 4619SOL    HW214757   3.307   6.222   3.547
 4620SOL     OW14758   2.848   5.053   0.875
 4620SOL    HW114759   2.833   5.030   0.971
 4620SOL    HW214760   2.805   5.141   0.854
 4621SOL     OW14761   5.048   0.294   2.442
 4621SOL    HW114762   5.041   0.371   2.505
 4621SOL    HW214763   5.132   0.243   2.461
 4622SOL     OW14764   2.686   4.559   0.688
 4622SOL    HW114765   2.763   4.571   0.626
 4622SOL    HW214766   2.671   4.461   0.703
 4623SOL     OW14767   5.593   6.457   0.748
 4623SOL    HW114768   5.566   6.550   0.724
 4623SOL    HW214769   5.629   6.411   0.667
 4624SOL     OW14770   4.075   6.805   3.027
 4624SOL    HW114771   3.994   6.859   3.050
 4624SOL    HW214772   4.154   6.866   3.016
 4625SOL     OW14773   2.121   4.306   1.225
 4625SOL    HW114774   2.105   4.228   1.284
 4625SOL    HW214775   2.052   4.307   1.152
 4626SOL     OW14776   5.523   4.042   1.907
 4626SOL    HW114777   5.554   4.056   1.813
 4626SOL    HW214778   5.456   4.112   1.930
 4627SOL     OW14779   1.830   4.587   4.894
 4627SOL    HW114780   1.892   4.525   4.846
 4627SOL    HW214781   1.862   4.681   4.883
 4628SOL     OW14782   6.003   4.012   3.645
 4628SOL    HW114783   6.040   4.078   3.711
 4628SOL    HW214784   5.976   4.060   3.562
 4629SOL     OW14785   2.533   5.345   5.736
 4629SOL    HW114786   2.503   5.372   5.828
 4629SOL    HW214787   2.556   5.248   5.736
 4630SOL     OW14788   3.122   6.051   2.194
 4630SOL    HW114789   3.125   6.021   2.289
 4630SOL    HW214790   3.129   5.971   2.134
 4631SOL     OW14791   1.742   5.702   3.352
 4631SOL    HW114792   1.793   5.688   3.267
 4631SOL    HW214793   1.644   5.692   3.334
 4632SOL     OW14794   3.088   5.068   2.291
 4632SOL    HW114795   3.106   5.042   2.196
 4632SOL    HW214796   3.037   4.994   2.335
 4633SOL     OW14797   5.880   0.849   4.780
 4633SOL    HW114798   5.856   0.926   4.838
 4633SOL    HW214799   5.833   0.767   4.812
 4634SOL     OW14800   3.147   4.517   5.650
 4634SOL    HW114801   3.102   4.481   5.731
 4634SOL    HW214802   3.136   4.453   5.573
 4635SOL     OW14803   4.686   3.971   1.307
 4635SOL    HW114804   4.769   4.022   1.286
 4635SOL    HW214805   4.688   3.883   1.258
 4636SOL     OW14806   1.190   4.649   6.986
 4636SOL    HW114807   1.126   4.690   0.023
 4636SOL    HW214808   1.271   4.617   0.007
 4637SOL     OW14809   0.812   5.938   1.128
 4637SOL    HW114810   0.895   5.884   1.117
 4637SOL    HW214811   0.833   6.022   1.178
 4638SOL     OW14812   4.301   4.575   6.668
 4638SOL    HW114813   4.340   4.544   6.755
 4638SOL    HW214814   4.201   4.570   6.672
 4639SOL     OW14815   3.736   3.620   5.483
 4639SOL    HW114816   3.713   3.664   5.569
 4639SOL    HW214817   3.804   3.548   5.500
 4640SOL     OW14818   5.167   3.786   3.994
 4640SOL    HW114819   5.112   3.741   3.924
 4640SOL    HW214820   5.117   3.787   4.081
 4641SOL     OW14821   2.309   0.173   4.798
 4641SOL    HW114822   2.256   0.090   4.818
 4641SOL    HW214823   2.328   0.178   4.700
 4642SOL     OW14824   1.247   5.958   4.260
 4642SOL    HW114825   1.246   6.029   4.331
 4642SOL    HW214826   1.165   5.967   4.204
 4643SOL     OW14827   6.554   2.553   1.092
 4643SOL    HW114828   6.459   2.583   1.101
 4643SOL    HW214829   6.587   2.519   1.180
 4644SOL     OW14830   6.679   4.817   5.524
 4644SOL    HW114831   6.771   4.826   5.563
 4644SOL    HW214832   6.634   4.737   5.563
 4645SOL     OW14833   0.792   6.931   4.147
 4645SOL    HW114834   0.870   6.873   4.172
 4645SOL    HW214835   0.821   7.027   4.145
 4646SOL     OW14836   2.012   5.831   3.821
 4646SOL    HW114837   1.969   5.917   3.850
 4646SOL    HW214838   2.053   5.787   3.901
 4647SOL     OW14839   1.636   6.841   3.012
 4647SOL    HW114840   1.704   6.796   2.954
 4647SOL    HW214841   1.676   6.862   3.101
 4648SOL     OW14842   3.321   0.934   2.562
 4648SOL    HW114843   3.406   0.921   2.612
 4648SOL    HW214844   3.247   0.953   2.627
 4649SOL     OW14845   5.320   0.883   0.084
 4649SOL    HW114846   5.387   0.951   0.113
 4649SOL    HW214847   5.240   0.886   0.145
 4650SOL     OW14848   5.008   5.256   2.448
 4650SOL    HW114849   5.050   5.335   2.403
 4650SOL    HW214850   4.922   5.283   2.490
 4651SOL     OW14851   6.329   3.117   0.412
 4651SOL    HW114852   6.373   3.032   0.382
 4651SOL    HW214853   6.374   3.195   0.370
 4652SOL     OW14854   6.612   6.688   4.276
 4652SOL    HW114855   6.554   6.606   4.282
 4652SOL    HW214856   6.678   6.687   4.351
 4653SOL     OW14857   5.301   5.469   0.972
 4653SOL    HW114858   5.272   5.378   1.002
 4653SOL    HW214859   5.253   5.539   1.025
 4654SOL     OW14860   0.507   6.891   0.280
 4654SOL    HW114861   0.465   6.804   0.304
 4654SOL    HW214862   0.570   6.876   0.203
 4655SOL     OW14863   5.708   4.263   1.337
 4655SOL    HW114864   5.745   4.193   1.276
 4655SOL    HW214865   5.731   4.241   1.431
 4656SOL     OW14866   1.495   0.042   2.510
 4656SOL    HW114867   1.528   0.035   2.604
 4656SOL    HW214868   1.464   0.136   2.493
 4657SOL     OW14869   4.346   6.617   2.214
 4657SOL    HW114870   4.400   6.699   2.195
 4657SOL    HW214871   4.275   6.607   2.144
 4658SOL     OW14872   3.907   1.054   3.101
 4658SOL    HW114873   3.844   1.132   3.101
 4658SOL    HW214874   3.988   1.076   3.156
 4659SOL     OW14875   3.283   4.514   5.307
 4659SOL    HW114876   3.331   4.529   5.394
 4659SOL    HW214877   3.255   4.602   5.269
 4660SOL     OW14878   0.968   4.198   5.258
 4660SOL    HW114879   1.058   4.224   5.221
 4660SOL    HW214880   0.932   4.273   5.314
 4661SOL     OW14881   2.797   4.349   5.927
 4661SOL    HW114882   2.760   4.361   5.835
 4661SOL    HW214883   2.724   4.362   5.994
 4662SOL     OW14884   3.411   0.262   5.358
 4662SOL    HW114885   3.446   0.173   5.388
 4662SOL    HW214886   3.466   0.335   5.399
 4663SOL     OW14887   0.539   1.750   1.203
 4663SOL    HW114888   0.578   1.831   1.246
 4663SOL    HW214889   0.440   1.761   1.193
 4664SOL     OW14890   1.212   1.100   1.227
 4664SOL    HW114891   1.134   1.126   1.284
 4664SOL    HW214892   1.259   1.182   1.196
 4665SOL     OW14893   3.548   6.754   6.729
 4665SOL    HW114894   3.521   6.823   6.796
 4665SOL    HW214895   3.529   6.663   6.764
 4666SOL     OW14896   1.736   3.249   0.447
 4666SOL    HW114897   1.831   3.265   0.476
 4666SOL    HW214898   1.680   3.230   0.527
 4667SOL     OW14899   0.250   3.426   2.560
 4667SOL    HW114900   0.323   3.363   2.533
 4667SOL    HW214901   0.162   3.389   2.530
 4668SOL     OW14902   4.030   2.234   2.965
 4668SOL    HW114903   4.120   2.253   3.006
 4668SOL    HW214904   4.038   2.237   2.865
 4669SOL     OW14905   4.742   6.570   6.550
 4669SOL    HW114906   4.674   6.550   6.620
 4669SOL    HW214907   4.709   6.644   6.491
 4670SOL     OW14908   1.975   2.544   5.925
 4670SOL    HW114909   1.901   2.584   5.871
 4670SOL    HW214910   1.965   2.571   6.020
 4671SOL     OW14911   0.127   2.805   0.487
 4671SOL    HW114912   0.209   2.748   0.495
 4671SOL    HW214913   0.086   2.818   0.577
 4672SOL     OW14914   2.550   5.065   5.742
 4672SOL    HW114915   2.582   5.023   5.657
 4672SOL    HW214916   2.575   5.007   5.820
 4673SOL     OW14917   5.101   6.907   2.055
 4673SOL    HW114918   5.077   6.821   2.100
 4673SOL    HW214919   5.122   6.890   1.959
 4674SOL     OW14920   5.277   0.784   6.475
 4674SOL    HW114921   5.224   0.768   6.392
 4674SOL    HW214922   5.375   0.786   6.453
 4675SOL     OW14923   2.467   0.896   6.362
 4675SOL    HW114924   2.411   0.828   6.409
 4675SOL    HW214925   2.408   0.952   6.303
 4676SOL     OW14926   6.812   6.426   4.305
 4676SOL    HW114927   6.737   6.428   4.370
 4676SOL    HW214928   6.810   6.340   4.254
 4677SOL     OW14929   2.533   1.477   6.659
 4677SOL    HW114930   2.437   1.487   6.683
 4677SOL    HW214931   2.556   1.541   6.586
 4678SOL     OW14932   1.453   4.224   3.089
 4678SOL    HW114933   1.420   4.257   3.177
 4678SOL    HW214934   1.529   4.161   3.103
 4679SOL     OW14935   3.687   0.925   0.392
 4679SOL    HW114936   3.770   0.978   0.410
 4679SOL    HW214937   3.650   0.950   0.303
 4680SOL     OW14938   2.757   1.476   0.367
 4680SOL    HW114939   2.841   1.436   0.402
 4680SOL    HW214940   2.682   1.457   0.431
 4681SOL     OW14941   5.240   6.002   6.213
 4681SOL    HW114942   5.142   6.004   6.190
 4681SOL    HW214943   5.253   6.033   6.307
 4682SOL     OW14944   4.529   4.167   5.687
 4682SOL    HW114945   4.449   4.210   5.644
 4682SOL    HW214946   4.611   4.192   5.636
 4683SOL     OW14947   4.367   4.993   2.956
 4683SOL    HW114948   4.453   4.949   2.932
 4683SOL    HW214949   4.346   5.064   2.889
 4684SOL     OW14950   6.906   1.679   5.455
 4684SOL    HW114951   6.964   1.644   5.382
 4684SOL    HW214952   6.960   1.693   5.538
 4685SOL     OW14953   0.735   6.100   5.690
 4685SOL    HW114954   0.734   6.019   5.749
 4685SOL    HW214955   0.652   6.154   5.705
 4686SOL     OW14956   4.485   4.997   0.261
 4686SOL    HW114957   4.420   5.072   0.257
 4686SOL    HW214958   4.476   4.941   0.178
 4687SOL     OW14959   6.230   3.959   4.665
 4687SOL    HW114960   6.298   3.927   4.730
 4687SOL    HW214961   6.273   4.018   4.597
 4688SOL     OW14962   6.119   4.375   4.554
 4688SOL    HW114963   6.096   4.405   4.462
 4688SOL    HW214964   6.037   4.377   4.611
 4689SOL     OW14965   5.970   0.511   0.688
 4689SOL    HW114966   5.883   0.560   0.675
 4689SOL    HW214967   6.003   0.477   0.600
 4690SOL     OW14968   1.457   0.268   6.895
 4690SOL    HW114969   1.357   0.268   6.888
 4690SOL    HW214970   1.488   0.352   6.939
 4691SOL     OW14971   2.963   5.072   1.611
 4691SOL    HW114972   2.972   5.045   1.515
 4691SOL    HW214973   2.868   5.098   1.629
 4692SOL     OW14974   5.685   5.735   2.101
 4692SOL    HW114975   5.688   5.657   2.163
 4692SOL    HW214976   5.706   5.704   2.008
 4693SOL     OW14977   1.002   1.275   2.986
 4693SOL    HW114978   0.988   1.266   3.084
 4693SOL    HW214979   1.095   1.309   2.969
 4694SOL     OW14980   2.242   0.525   0.473
 4694SOL    HW114981   2.316   0.592   0.475
 4694SOL    HW214982   2.257   0.457   0.545
 4695SOL     OW14983   1.796   3.601   1.875
 4695SOL    HW114984   1.766   3.569   1.965
 4695SOL    HW214985   1.874   3.546   1.844
 4696SOL     OW14986   0.318   4.052   0.035
 4696SOL    HW114987   0.404   4.036   7.014
 4696SOL    HW214988   0.333   4.038   0.133
 4697SOL     OW14989   2.150   3.384   1.267
 4697SOL    HW114990   2.164   3.286   1.281
 4697SOL    HW214991   2.237   3.427   1.245
 4698SOL     OW14992   4.367   5.193   2.766
 4698SOL    HW114993   4.393   5.279   2.811
 4698SOL    HW214994   4.272   5.200   2.735
 4699SOL     OW14995   2.024   6.652   1.944
 4699SOL    HW114996   1.950   6.707   1.984
 4699SOL    HW214997   2.008   6.640   1.846
 4700SOL     OW14998   6.518   1.876   2.792
 4700SOL    HW114999   6.467   1.790   2.792
 4700SOL    HW215000   6.489   1.932   2.715
 4701SOL     OW15001   2.344   2.183   0.159
 4701SOL    HW115002   2.357   2.260   0.096
 4701SOL    HW215003   2.405   2.108   0.132
 4702SOL     OW15004   4.249   5.259   6.817
 4702SOL    HW115005   4.236   5.173   6.867
 4702SOL    HW215006   4.276   5.238   6.723
 4703SOL     OW15007   0.762   1.112   1.508
 4703SOL    HW115008   0.744   1.082   1.601
 4703SOL    HW215009   0.679   1.153   1.469
 4704SOL     OW15010   0.704   6.662   0.334
 4704SOL    HW115011   0.615   6.639   0.297
 4704SOL    HW215012   0.760   6.704   0.263
 4705SOL     OW15013   3.536   3.138   2.023
 4705SOL    HW115014   3.467   3.113   1.955
 4705SOL    HW215015   3.577   3.056   2.061
 4706SOL     OW15016   3.415   0.189   6.673
 4706SOL    HW115017   3.481   0.182   6.747
 4706SOL    HW215018   3.323   0.178   6.709
 4707SOL     OW15019   1.607   6.491   1.167
 4707SOL    HW115020   1.689   6.536   1.201
 4707SOL    HW215021   1.615   6.476   1.068
 4708SOL     OW15022   1.241   1.774   6.444
 4708SOL    HW115023   1.148   1.740   6.456
 4708SOL    HW215024   1.306   1.702   6.469
 4709SOL     OW15025   4.195   5.894   5.835
 4709SOL    HW115026   4.158   5.927   5.749
 4709SOL    HW215027   4.295   5.893   5.830
 4710SOL     OW15028   3.838   1.221   5.303
 4710SOL    HW115029   3.859   1.231   5.401
 4710SOL    HW215030   3.915   1.178   5.257
 4711SOL     OW15031   5.777   0.877   1.599
 4711SOL    HW115032   5.687   0.913   1.573
 4711SOL    HW215033   5.788   0.786   1.561
 4712SOL     OW15034   3.026   4.478   6.972
 4712SOL    HW115035   2.933   4.463   7.004
 4712SOL    HW215036   3.047   4.414   6.898
 4713SOL     OW15037   3.135   3.473   0.255
 4713SOL    HW115038   3.051   3.505   0.298
 4713SOL    HW215039   3.133   3.373   0.247
 4714SOL     OW15040   1.151   2.443   6.971
 4714SOL    HW115041   1.247   2.470   6.979
 4714SOL    HW215042   1.093   2.523   6.989
 4715SOL     OW15043   6.015   2.268   2.729
 4715SOL    HW115044   6.055   2.306   2.813
 4715SOL    HW215045   5.915   2.270   2.737
 4716SOL     OW15046   5.083   5.513   6.679
 4716SOL    HW115047   5.119   5.606   6.680
 4716SOL    HW215048   5.121   5.461   6.755
 4717SOL     OW15049   0.282   6.947   3.538
 4717SOL    HW115050   0.317   6.897   3.459
 4717SOL    HW215051   0.225   6.887   3.594
 4718SOL     OW15052   5.714   2.637   1.518
 4718SOL    HW115053   5.664   2.723   1.508
 4718SOL    HW215054   5.743   2.605   1.428
 4719SOL     OW15055   5.287   3.140   2.046
 4719SOL    HW115056   5.250   3.105   1.960
 4719SOL    HW215057   5.252   3.233   2.062
 4720SOL     OW15058   2.487   5.486   6.010
 4720SOL    HW115059   2.518   5.580   5.999
 4720SOL    HW215060   2.472   5.466   6.106
 4721SOL     OW15061   7.012   2.284   1.670
 4721SOL    HW115062   0.041   2.266   1.750
 4721SOL    HW215063   6.940   2.349   1.694
 4722SOL     OW15064   1.209   6.249   6.633
 4722SOL    HW115065   1.221   6.152   6.617
 4722SOL    HW215066   1.296   6.296   6.623
 4723SOL     OW15067   2.000   3.783   5.800
 4723SOL    HW115068   2.053   3.730   5.733
 4723SOL    HW215069   2.061   3.843   5.851
 4724SOL     OW15070   5.829   5.968   3.019
 4724SOL    HW115071   5.878   5.949   3.104
 4724SOL    HW215072   5.876   6.041   2.969
 4725SOL     OW15073   6.050   5.698   2.760
 4725SOL    HW115074   6.149   5.710   2.757
 4725SOL    HW215075   6.026   5.639   2.838
 4726SOL     OW15076   1.798   2.678   5.771
 4726SOL    HW115077   1.808   2.701   5.674
 4726SOL    HW215078   1.701   2.682   5.796
 4727SOL     OW15079   0.763   5.987   0.522
 4727SOL    HW115080   0.716   5.955   0.440
 4727SOL    HW215081   0.726   6.076   0.550
 4728SOL     OW15082   5.774   0.659   2.050
 4728SOL    HW115083   5.741   0.742   2.096
 4728SOL    HW215084   5.851   0.683   1.991
 4729SOL     OW15085   2.664   1.646   1.100
 4729SOL    HW115086   2.656   1.596   1.186
 4729SOL    HW215087   2.748   1.618   1.054
 4730SOL     OW15088   3.250   5.781   5.055
 4730SOL    HW115089   3.172   5.815   5.002
 4730SOL    HW215090   3.279   5.851   5.120
 4731SOL     OW15091   4.432   0.236   0.216
 4731SOL    HW115092   4.424   0.248   0.117
 4731SOL    HW215093   4.501   0.299   0.251
 4732SOL     OW15094   1.102   3.403   6.281
 4732SOL    HW115095   1.027   3.362   6.333
 4732SOL    HW215096   1.189   3.383   6.326
 4733SOL     OW15097   1.282   3.874   3.533
 4733SOL    HW115098   1.260   3.968   3.507
 4733SOL    HW215099   1.210   3.812   3.499
 4734SOL     OW15100   4.650   2.571   0.495
 4734SOL    HW115101   4.650   2.490   0.437
 4734SOL    HW215102   4.587   2.559   0.571
 4735SOL     OW15103   6.894   5.957   4.968
 4735SOL    HW115104   6.873   5.878   5.026
 4735SOL    HW215105   6.993   5.970   4.964
 4736SOL     OW15106   0.098   2.484   6.305
 4736SOL    HW115107   0.069   2.543   6.230
 4736SOL    HW215108   0.078   2.388   6.282
 4737SOL     OW15109   2.381   4.361   2.341
 4737SOL    HW115110   2.411   4.267   2.324
 4737SOL    HW215111   2.452   4.409   2.392
 4738SOL     OW15112   0.257   6.506   3.382
 4738SOL    HW115113   0.225   6.592   3.422
 4738SOL    HW215114   0.335   6.472   3.435
 4739SOL     OW15115   4.081   6.450   3.419
 4739SOL    HW115116   4.033   6.502   3.489
 4739SOL    HW215117   4.174   6.428   3.450
 4740SOL     OW15118   0.855   1.434   1.303
 4740SOL    HW115119   0.848   1.421   1.401
 4740SOL    HW215120   0.838   1.347   1.256
 4741SOL     OW15121   3.960   3.303   1.338
 4741SOL    HW115122   4.019   3.379   1.368
 4741SOL    HW215123   4.014   3.219   1.334
 4742SOL     OW15124   3.427   0.055   5.667
 4742SOL    HW115125   3.436   0.142   5.715
 4742SOL    HW215126   3.339   0.013   5.692
 4743SOL     OW15127   1.787   3.368   2.955
 4743SOL    HW115128   1.728   3.356   2.875
 4743SOL    HW215129   1.734   3.350   3.038
 4744SOL     OW15130   1.461   4.474   0.753
 4744SOL    HW115131   1.517   4.548   0.716
 4744SOL    HW215132   1.432   4.496   0.846
 4745SOL     OW15133   3.137   3.764   5.641
 4745SOL    HW115134   3.091   3.833   5.697
 4745SOL    HW215135   3.157   3.684   5.698
 4746SOL     OW15136   5.563   6.109   2.637
 4746SOL    HW115137   5.520   6.046   2.571
 4746SOL    HW215138   5.571   6.064   2.726
 4747SOL     OW15139   1.496   3.953   0.018
 4747SOL    HW115140   1.585   3.996   7.028
 4747SOL    HW215141   1.482   3.878   6.982
 4748SOL     OW15142   2.649   5.193   1.185
 4748SOL    HW115143   2.639   5.138   1.267
 4748SOL    HW215144   2.609   5.283   1.200
 4749SOL     OW15145   1.960   6.085   5.695
 4749SOL    HW115146   1.903   6.005   5.674
 4749SOL    HW215147   2.056   6.059   5.694
 4750SOL     OW15148   0.199   3.562   4.872
 4750SOL    HW115149   0.260   3.483   4.869
 4750SOL    HW215150   0.232   3.628   4.940
 4751SOL     OW15151   3.738   2.135   2.483
 4751SOL    HW115152   3.805   2.205   2.506
 4751SOL    HW215153   3.685   2.111   2.565
 4752SOL     OW15154   4.191   1.417   6.565
 4752SOL    HW115155   4.283   1.381   6.581
 4752SOL    HW215156   4.197   1.512   6.536
 4753SOL     OW15157   6.490   0.410   3.947
 4753SOL    HW115158   6.507   0.452   3.857
 4753SOL    HW215159   6.530   0.319   3.949
 4754SOL     OW15160   5.627   4.841   4.631
 4754SOL    HW115161   5.684   4.790   4.695
 4754SOL    HW215162   5.594   4.779   4.560
 4755SOL     OW15163   3.219   0.698   0.433
 4755SOL    HW115164   3.315   0.722   0.418
 4755SOL    HW215165   3.161   0.759   0.379
 4756SOL     OW15166   6.039   2.679   6.767
 4756SOL    HW115167   6.119   2.728   6.731
 4756SOL    HW215168   6.011   2.609   6.701
 4757SOL     OW15169   2.308   1.607   1.328
 4757SOL    HW115170   2.303   1.508   1.324
 4757SOL    HW215171   2.330   1.635   1.422
 4758SOL     OW15172   1.596   6.484   3.605
 4758SOL    HW115173   1.567   6.531   3.522
 4758SOL    HW215174   1.516   6.462   3.661
 4759SOL     OW15175   6.547   4.613   5.252
 4759SOL    HW115176   6.598   4.548   5.195
 4759SOL    HW215177   6.553   4.704   5.211
 4760SOL     OW15178   2.217   1.903   0.321
 4760SOL    HW115179   2.152   1.979   0.332
 4760SOL    HW215180   2.263   1.911   0.233
 4761SOL     OW15181   0.844   6.502   0.714
 4761SOL    HW115182   0.794   6.422   0.680
 4761SOL    HW215183   0.834   6.577   0.650
 4762SOL     OW15184   1.595   5.630   1.708
 4762SOL    HW115185   1.625   5.623   1.803
 4762SOL    HW215186   1.604   5.725   1.677
 4763SOL     OW15187   6.396   0.187   2.620
 4763SOL    HW115188   6.416   0.252   2.547
 4763SOL    HW215189   6.393   0.234   2.708
 4764SOL     OW15190   4.925   3.868   4.929
 4764SOL    HW115191   5.011   3.843   4.884
 4764SOL    HW215192   4.890   3.790   4.981
 4765SOL     OW15193   4.527   0.871   4.819
 4765SOL    HW115194   4.583   0.816   4.757
 4765SOL    HW215195   4.580   0.947   4.855
 4766SOL     OW15196   5.782   5.943   3.690
 4766SOL    HW115197   5.726   5.980   3.764
 4766SOL    HW215198   5.826   5.859   3.721
 4767SOL     OW15199   2.819   5.680   5.298
 4767SOL    HW115200   2.852   5.590   5.271
 4767SOL    HW215201   2.788   5.730   5.217
 4768SOL     OW15202   4.610   2.028   6.374
 4768SOL    HW115203   4.693   2.021   6.319
 4768SOL    HW215204   4.541   1.964   6.339
 4769SOL     OW15205   4.743   5.014   6.980
 4769SOL    HW115206   4.656   5.052   6.948
 4769SOL    HW215207   4.788   4.966   6.904
 4770SOL     OW15208   0.018   1.670   4.277
 4770SOL    HW115209   0.015   1.735   4.201
 4770SOL    HW215210   0.036   1.578   4.241
 4771SOL     OW15211   2.856   5.892   5.534
 4771SOL    HW115212   2.862   5.808   5.480
 4771SOL    HW215213   2.791   5.879   5.610
 4772SOL     OW15214   4.331   5.142   0.881
 4772SOL    HW115215   4.364   5.076   0.814
 4772SOL    HW215216   4.402   5.209   0.901
 4773SOL     OW15217   6.718   5.339   4.568
 4773SOL    HW115218   6.636   5.372   4.614
 4773SOL    HW215219   6.796   5.395   4.595
 4774SOL     OW15220   1.876   3.326   1.631
 4774SOL    HW115221   1.894   3.233   1.597
 4774SOL    HW215222   1.940   3.347   1.705
 4775SOL     OW15223   6.108   6.927   3.123
 4775SOL    HW115224   6.182   6.901   3.185
 4775SOL    HW215225   6.057   7.003   3.163
 4776SOL     OW15226   1.208   6.442   5.401
 4776SOL    HW115227   1.218   6.367   5.465
 4776SOL    HW215228   1.256   6.523   5.436
 4777SOL     OW15229   1.558   5.280   1.061
 4777SOL    HW115230   1.526   5.325   1.144
 4777SOL    HW215231   1.637   5.329   1.024
 4778SOL     OW15232   6.409   2.952   3.843
 4778SOL    HW115233   6.347   3.002   3.783
 4778SOL    HW215234   6.469   3.017   3.890
 4779SOL     OW15235   5.861   5.975   2.493
 4779SOL    HW115236   5.882   6.060   2.540
 4779SOL    HW215237   5.804   5.917   2.552
 4780SOL     OW15238   5.858   2.154   6.870
 4780SOL    HW115239   5.763   2.186   6.857
 4780SOL    HW215240   5.882   2.161   6.967
 4781SOL     OW15241   2.679   5.707   2.610
 4781SOL    HW115242   2.723   5.736   2.694
 4781SOL    HW215243   2.583   5.685   2.629
 4782SOL     OW15244   5.905   5.342   6.877
 4782SOL    HW115245   5.819   5.387   6.900
 4782SOL    HW215246   5.889   5.265   6.816
 4783SOL     OW15247   4.902   3.576   6.880
 4783SOL    HW115248   4.826   3.632   6.914
 4783SOL    HW215249   4.867   3.487   6.850
 4784SOL     OW15250   6.307   3.118   6.102
 4784SOL    HW115251   6.271   3.026   6.117
 4784SOL    HW215252   6.406   3.113   6.085
 4785SOL     OW15253   1.279   6.247   2.745
 4785SOL    HW115254   1.326   6.241   2.656
 4785SOL    HW215255   1.341   6.217   2.817
 4786SOL     OW15256   2.684   0.236   0.373
 4786SOL    HW115257   2.738   0.314   0.404
 4786SOL    HW215258   2.589   0.249   0.401
 4787SOL     OW15259   4.135   1.171   2.905
 4787SOL    HW115260   4.060   1.221   2.948
 4787SOL    HW215261   4.159   1.214   2.818
 4788SOL     OW15262   6.584   6.086   7.002
 4788SOL    HW115263   6.608   5.992   7.025
 4788SOL    HW215264   6.513   6.085   6.931
 4789SOL     OW15265   4.861   1.515   1.681
 4789SOL    HW115266   4.949   1.485   1.643
 4789SOL    HW215267   4.872   1.604   1.725
 4790SOL     OW15268   5.828   1.574   5.559
 4790SOL    HW115269   5.731   1.557   5.542
 4790SOL    HW215270   5.844   1.672   5.565
 4791SOL     OW15271   0.136   3.157   1.359
 4791SOL    HW115272   0.168   3.174   1.452
 4791SOL    HW215273   0.150   3.061   1.335
 4792SOL     OW15274   2.375   4.802   3.875
 4792SOL    HW115275   2.304   4.867   3.845
 4792SOL    HW215276   2.355   4.773   3.968
 4793SOL     OW15277   2.284   2.795   5.212
 4793SOL    HW115278   2.299   2.847   5.128
 4793SOL    HW215279   2.371   2.786   5.261
 4794SOL     OW15280   5.615   6.984   4.951
 4794SOL    HW115281   5.529   0.006   4.935
 4794SOL    HW215282   5.619   6.903   4.893
 4795SOL     OW15283   6.355   2.143   4.075
 4795SOL    HW115284   6.288   2.083   4.032
 4795SOL    HW215285   6.364   2.119   4.172
 4796SOL     OW15286   4.850   1.341   4.874
 4796SOL    HW115287   4.800   1.389   4.946
 4796SOL    HW215288   4.897   1.408   4.817
 4797SOL     OW15289   0.543   6.644   5.555
 4797SOL    HW115290   0.594   6.584   5.494
 4797SOL    HW215291   0.447   6.647   5.528
 4798SOL     OW15292   0.366   4.030   5.593
 4798SOL    HW115293   0.462   4.001   5.586
 4798SOL    HW215294   0.309   3.970   5.538
 4799SOL     OW15295   4.024   1.682   0.704
 4799SOL    HW115296   3.989   1.589   0.695
 4799SOL    HW215297   4.103   1.694   0.644
 4800SOL     OW15298   2.954   2.869   6.931
 4800SOL    HW115299   2.856   2.847   6.925
 4800SOL    HW215300   2.984   2.908   6.844
 4801SOL     OW15301   3.344   2.258   6.847
 4801SOL    HW115302   3.366   2.160   6.850
 4801SOL    HW215303   3.380   2.297   6.762
 4802SOL     OW15304   0.535   6.384   1.932
 4802SOL    HW115305   0.630   6.411   1.946
 4802SOL    HW215306   0.478   6.465   1.922
 4803SOL     OW15307   0.103   4.660   6.792
 4803SOL    HW115308   0.196   4.639   6.762
 4803SOL    HW215309   0.093   4.760   6.801
 4804SOL     OW15310   0.003   6.594   1.707
 4804SOL    HW115311   7.016   6.511   1.760
 4804SOL    HW215312   7.025   6.674   1.767
 4805SOL     OW15313   5.544   1.354   1.996
 4805SOL    HW115314   5.456   1.317   2.026
 4805SOL    HW215315   5.587   1.290   1.933
 4806SOL     OW15316   0.904   4.540   2.378
 4806SOL    HW115317   0.858   4.479   2.442
 4806SOL    HW215318   0.840   4.567   2.306
 4807SOL     OW15319   0.441   4.936   0.244
 4807SOL    HW115320   0.459   5.022   0.195
 4807SOL    HW215321   0.357   4.945   0.296
 4808SOL     OW15322   4.479   5.362   0.886
 4808SOL    HW115323   4.482   5.406   0.797
 4808SOL    HW215324   4.482   5.431   0.959
 4809SOL     OW15325   3.706   4.927   0.357
 4809SOL    HW115326   3.771   4.901   0.286
 4809SOL    HW215327   3.715   4.864   0.435
 4810SOL     OW15328   1.733   4.387   2.586
 4810SOL    HW115329   1.647   4.438   2.600
 4810SOL    HW215330   1.716   4.289   2.599
 4811SOL     OW15331   2.820   4.224   1.753
 4811SOL    HW115332   2.908   4.178   1.748
 4811SOL    HW215333   2.828   4.306   1.811
 4812SOL     OW15334   0.771   5.765   2.284
 4812SOL    HW115335   0.695   5.765   2.219
 4812SOL    HW215336   0.848   5.714   2.245
 4813SOL     OW15337   5.863   1.919   6.751
 4813SOL    HW115338   5.806   1.918   6.668
 4813SOL    HW215339   5.864   2.011   6.790
 4814SOL     OW15340   0.019   3.131   1.071
 4814SOL    HW115341   0.009   3.211   1.011
 4814SOL    HW215342   0.009   3.159   1.166
 4815SOL     OW15343   5.212   3.620   2.795
 4815SOL    HW115344   5.246   3.690   2.858
 4815SOL    HW215345   5.287   3.588   2.737
 4816SOL     OW15346   2.317   4.781   1.064
 4816SOL    HW115347   2.408   4.814   1.042
 4816SOL    HW215348   2.296   4.803   1.160
 4817SOL     OW15349   2.115   1.507   0.305
 4817SOL    HW115350   2.198   1.553   0.272
 4817SOL    HW215351   2.141   1.441   0.376
 4818SOL     OW15352   0.690   0.350   4.450
 4818SOL    HW115353   0.687   0.250   4.442
 4818SOL    HW215354   0.603   0.388   4.419
 4819SOL     OW15355   2.439   2.050   1.204
 4819SOL    HW115356   2.447   1.951   1.191
 4819SOL    HW215357   2.346   2.079   1.181
 4820SOL     OW15358   6.465   2.403   2.195
 4820SOL    HW115359   6.555   2.445   2.204
 4820SOL    HW215360   6.427   2.387   2.285
 4821SOL     OW15361   0.688   6.666   2.493
 4821SOL    HW115362   0.737   6.582   2.516
 4821SOL    HW215363   0.744   6.745   2.518
 4822SOL     OW15364   2.111   3.462   4.504
 4822SOL    HW115365   2.111   3.498   4.597
 4822SOL    HW215366   2.141   3.366   4.505
 4823SOL     OW15367   1.121   0.643   4.245
 4823SOL    HW115368   1.184   0.639   4.167
 4823SOL    HW215369   1.108   0.738   4.272
 4824SOL     OW15370   5.055   2.091   4.453
 4824SOL    HW115371   4.979   2.143   4.491
 4824SOL    HW215372   5.045   2.083   4.354
 4825SOL     OW15373   1.611   2.312   4.758
 4825SOL    HW115374   1.647   2.340   4.847
 4825SOL    HW215375   1.522   2.356   4.743
 4826SOL     OW15376   0.232   1.651   6.267
 4826SOL    HW115377   0.168   1.624   6.194
 4826SOL    HW215378   0.186   1.644   6.356
 4827SOL     OW15379   6.274   1.224   1.444
 4827SOL    HW115380   6.209   1.168   1.495
 4827SOL    HW215381   6.290   1.183   1.354
 4828SOL     OW15382   5.311   3.211   1.113
 4828SOL    HW115383   5.405   3.236   1.133
 4828SOL    HW215384   5.297   3.114   1.131
 4829SOL     OW15385   4.506   0.138   6.709
 4829SOL    HW115386   4.418   0.131   6.661
 4829SOL    HW215387   4.580   0.148   6.643
 4830SOL     OW15388   4.564   6.752   3.984
 4830SOL    HW115389   4.641   6.723   4.041
 4830SOL    HW215390   4.507   6.816   4.035
 4831SOL     OW15391   0.314   4.566   6.102
 4831SOL    HW115392   0.337   4.648   6.154
 4831SOL    HW215393   0.225   4.532   6.131
 4832SOL     OW15394   2.981   3.220   4.718
 4832SOL    HW115395   2.996   3.316   4.742
 4832SOL    HW215396   2.972   3.166   4.801
 4833SOL     OW15397   4.887   1.933   3.174
 4833SOL    HW115398   4.930   1.971   3.092
 4833SOL    HW215399   4.788   1.930   3.161
 4834SOL     OW15400   4.265   6.344   1.059
 4834SOL    HW115401   4.190   6.320   0.998
 4834SOL    HW215402   4.289   6.264   1.115
 4835SOL     OW15403   0.059   1.365   6.322
 4835SOL    HW115404   0.152   1.346   6.352
 4835SOL    HW215405   7.025   1.360   6.400
 4836SOL     OW15406   5.039   2.672   4.415
 4836SOL    HW115407   5.030   2.699   4.511
 4836SOL    HW215408   5.084   2.745   4.364
 4837SOL     OW15409   5.749   3.794   2.454
 4837SOL    HW115410   5.757   3.708   2.503
 4837SOL    HW215411   5.666   3.793   2.398
 4838SOL     OW15412   0.829   5.283   0.657
 4838SOL    HW115413   0.876   5.272   0.569
 4838SOL    HW215414   0.894   5.268   0.731
 4839SOL     OW15415   1.976   2.867   6.708
 4839SOL    HW115416   2.048   2.935   6.694
 4839SOL    HW215417   2.018   2.777   6.722
 4840SOL     OW15418   6.666   5.405   6.114
 4840SOL    HW115419   6.707   5.343   6.047
 4840SOL    HW215420   6.727   5.415   6.192
 4841SOL     OW15421   3.163   5.819   2.064
 4841SOL    HW115422   3.145   5.723   2.085
 4841SOL    HW215423   3.150   5.835   1.966
 4842SOL     OW15424   3.644   4.869   2.727
 4842SOL    HW115425   3.637   4.774   2.755
 4842SOL    HW215426   3.737   4.888   2.694
 4843SOL     OW15427   6.383   2.852   0.788
 4843SOL    HW115428   6.377   2.845   0.888
 4843SOL    HW215429   6.374   2.948   0.761
 4844SOL     OW15430   7.014   3.039   5.560
 4844SOL    HW115431   0.050   3.103   5.602
 4844SOL    HW215432   6.935   3.027   5.619
 4845SOL     OW15433   5.448   5.412   5.924
 4845SOL    HW115434   5.486   5.351   5.854
 4845SOL    HW215435   5.464   5.507   5.897
 4846SOL     OW15436   6.780   3.127   3.532
 4846SOL    HW115437   6.822   3.082   3.611
 4846SOL    HW215438   6.681   3.113   3.535
 4847SOL     OW15439   2.725   1.026   6.063
 4847SOL    HW115440   2.707   1.108   6.118
 4847SOL    HW215441   2.681   0.947   6.105
 4848SOL     OW15442   1.867   0.628   3.859
 4848SOL    HW115443   1.867   0.686   3.941
 4848SOL    HW215444   1.793   0.656   3.799
 4849SOL     OW15445   1.357   6.699   6.434
 4849SOL    HW115446   1.379   6.759   6.510
 4849SOL    HW215447   1.312   6.752   6.362
 4850SOL     OW15448   3.854   1.884   2.390
 4850SOL    HW115449   3.797   1.966   2.386
 4850SOL    HW215450   3.811   1.817   2.451
 4851SOL     OW15451   4.701   6.248   5.721
 4851SOL    HW115452   4.627   6.262   5.786
 4851SOL    HW215453   4.748   6.163   5.741
 4852SOL     OW15454   1.512   6.113   5.072
 4852SOL    HW115455   1.544   6.206   5.088
 4852SOL    HW215456   1.572   6.048   5.119
 4853SOL     OW15457   3.118   1.197   3.348
 4853SOL    HW115458   3.112   1.097   3.348
 4853SOL    HW215459   3.211   1.225   3.326
 4854SOL     OW15460   4.607   7.018   1.557
 4854SOL    HW115461   4.641   0.058   1.492
 4854SOL    HW215462   4.507   7.015   1.554
 4855SOL     OW15463   6.180   2.526   2.904
 4855SOL    HW115464   6.181   2.527   3.004
 4855SOL    HW215465   6.259   2.475   2.870
 4856SOL     OW15466   1.712   3.606   2.564
 4856SOL    HW115467   1.703   3.512   2.532
 4856SOL    HW215468   1.670   3.614   2.655
 4857SOL     OW15469   2.037   2.093   4.876
 4857SOL    HW115470   1.993   2.115   4.963
 4857SOL    HW215471   1.984   2.022   4.829
 4858SOL     OW15472   0.685   0.720   4.207
 4858SOL    HW115473   0.745   0.702   4.285
 4858SOL    HW215474   0.634   0.804   4.223
 4859SOL     OW15475   0.508   0.688   4.898
 4859SOL    HW115476   0.467   0.774   4.868
 4859SOL    HW215477   0.444   0.613   4.880
 4860SOL     OW15478   4.185   4.500   1.546
 4860SOL    HW115479   4.273   4.536   1.514
 4860SOL    HW215480   4.187   4.400   1.541
 4861SOL     OW15481   5.644   4.462   0.206
 4861SOL    HW115482   5.622   4.396   0.278
 4861SOL    HW215483   5.734   4.442   0.167
 4862SOL     OW15484   2.713   4.946   4.558
 4862SOL    HW115485   2.740   4.894   4.639
 4862SOL    HW215486   2.706   4.885   4.479
 4863SOL     OW15487   5.806   3.694   1.949
 4863SOL    HW115488   5.809   3.673   1.852
 4863SOL    HW215489   5.806   3.609   2.001
 4864SOL     OW15490   4.039   1.491   2.800
 4864SOL    HW115491   4.008   1.449   2.886
 4864SOL    HW215492   3.961   1.501   2.739
 4865SOL     OW15493   2.349   6.928   4.653
 4865SOL    HW115494   2.422   6.928   4.585
 4865SOL    HW215495   2.264   6.897   4.611
 4866SOL     OW15496   6.264   2.967   1.949
 4866SOL    HW115497   6.274   2.871   1.977
 4866SOL    HW215498   6.265   3.025   2.030
 4867SOL     OW15499   3.428   5.197   2.009
 4867SOL    HW115500   3.477   5.212   1.923
 4867SOL    HW215501   3.450   5.107   2.044
 4868SOL     OW15502   6.810   4.768   2.700
 4868SOL    HW115503   6.742   4.706   2.661
 4868SOL    HW215504   6.782   4.795   2.792
 4869SOL     OW15505   1.120   1.314   1.912
 4869SOL    HW115506   1.100   1.288   1.818
 4869SOL    HW215507   1.201   1.265   1.944
 4870SOL     OW15508   0.125   5.766   2.423
 4870SOL    HW115509   0.058   5.697   2.451
 4870SOL    HW215510   0.217   5.728   2.430
 4871SOL     OW15511   1.720   1.234   3.672
 4871SOL    HW115512   1.684   1.216   3.580
 4871SOL    HW215513   1.807   1.187   3.684
 4872SOL     OW15514   6.009   6.275   3.641
 4872SOL    HW115515   6.077   6.206   3.614
 4872SOL    HW215516   5.983   6.260   3.737
 4873SOL     OW15517   0.102   4.920   3.335
 4873SOL    HW115518   0.085   4.848   3.402
 4873SOL    HW215519   0.173   4.981   3.368
 4874SOL     OW15520   6.145   3.460   2.976
 4874SOL    HW115521   6.138   3.469   2.877
 4874SOL    HW215522   6.101   3.375   3.005
 4875SOL     OW15523   6.018   2.524   1.569
 4875SOL    HW115524   6.066   2.571   1.644
 4875SOL    HW215525   5.992   2.592   1.499
 4876SOL     OW15526   5.727   1.311   4.136
 4876SOL    HW115527   5.649   1.371   4.122
 4876SOL    HW215528   5.804   1.365   4.172
 4877SOL     OW15529   1.682   2.065   6.740
 4877SOL    HW115530   1.584   2.049   6.752
 4877SOL    HW215531   1.696   2.138   6.673
 4878SOL     OW15532   6.554   0.413   3.016
 4878SOL    HW115533   6.575   0.362   3.098
 4878SOL    HW215534   6.637   0.425   2.961
 4879SOL     OW15535   4.472   6.576   2.516
 4879SOL    HW115536   4.481   6.558   2.614
 4879SOL    HW215537   4.378   6.560   2.488
 4880SOL     OW15538   5.506   3.188   0.135
 4880SOL    HW115539   5.487   3.091   0.153
 4880SOL    HW215540   5.561   3.196   0.052
 4881SOL     OW15541   1.587   1.016   6.680
 4881SOL    HW115542   1.667   1.030   6.738
 4881SOL    HW215543   1.534   1.100   6.675
 4882SOL     OW15544   5.210   1.473   5.091
 4882SOL    HW115545   5.143   1.518   5.150
 4882SOL    HW215546   5.232   1.533   5.014
 4883SOL     OW15547   5.141   4.733   2.013
 4883SOL    HW115548   5.061   4.756   1.957
 4883SOL    HW215549   5.117   4.659   2.076
 4884SOL     OW15550   2.919   6.738   1.687
 4884SOL    HW115551   2.961   6.663   1.635
 4884SOL    HW215552   2.823   6.715   1.707
 4885SOL     OW15553   2.343   4.869   1.925
 4885SOL    HW115554   2.292   4.784   1.941
 4885SOL    HW215555   2.352   4.919   2.011
 4886SOL     OW15556   1.183   5.669   1.285
 4886SOL    HW115557   1.097   5.703   1.323
 4886SOL    HW215558   1.258   5.726   1.319
 4887SOL     OW15559   0.841   0.195   2.765
 4887SOL    HW115560   0.862   0.244   2.849
 4887SOL    HW215561   0.742   0.196   2.749
 4888SOL     OW15562   2.406   6.620   4.043
 4888SOL    HW115563   2.465   6.543   4.020
 4888SOL    HW215564   2.325   6.588   4.092
 4889SOL     OW15565   6.711   1.449   6.167
 4889SOL    HW115566   6.686   1.507   6.244
 4889SOL    HW215567   6.674   1.487   6.082
 4890SOL     OW15568   0.939   1.354   6.802
 4890SOL    HW115569   0.969   1.441   6.840
 4890SOL    HW215570   0.879   1.307   6.867
 4891SOL     OW15571   1.452   4.729   6.801
 4891SOL    HW115572   1.354   4.711   6.800
 4891SOL    HW215573   1.490   4.712   6.710
 4892SOL     OW15574   3.172   5.994   1.775
 4892SOL    HW115575   3.257   6.044   1.759
 4892SOL    HW215576   3.187   5.896   1.759
 4893SOL     OW15577   6.420   3.460   1.657
 4893SOL    HW115578   6.425   3.496   1.750
 4893SOL    HW215579   6.324   3.453   1.630
 4894SOL     OW15580   2.380   1.316   2.932
 4894SOL    HW115581   2.445   1.377   2.887
 4894SOL    HW215582   2.384   1.331   3.031
 4895SOL     OW15583   0.610   4.917   3.888
 4895SOL    HW115584   0.598   4.955   3.980
 4895SOL    HW215585   0.521   4.902   3.846
 4896SOL     OW15586   1.632   5.118   2.175
 4896SOL    HW115587   1.617   5.026   2.137
 4896SOL    HW215588   1.724   5.124   2.212
 4897SOL     OW15589   2.404   4.107   5.816
 4897SOL    HW115590   2.449   4.107   5.726
 4897SOL    HW215591   2.467   4.072   5.885
 4898SOL     OW15592   4.005   0.823   4.366
 4898SOL    HW115593   4.055   0.806   4.451
 4898SOL    HW215594   3.996   0.738   4.315
 4899SOL     OW15595   5.535   5.269   3.170
 4899SOL    HW115596   5.532   5.368   3.188
 4899SOL    HW215597   5.594   5.225   3.238
 4900SOL     OW15598   2.208   6.167   4.674
 4900SOL    HW115599   2.157   6.253   4.665
 4900SOL    HW215600   2.294   6.173   4.623
 4901SOL     OW15601   3.752   0.302   5.708
 4901SOL    HW115602   3.824   0.255   5.657
 4901SOL    HW215603   3.766   0.287   5.806
 4902SOL     OW15604   2.358   1.909   4.409
 4902SOL    HW115605   2.374   1.909   4.311
 4902SOL    HW215606   2.299   1.987   4.433
 4903SOL     OW15607   3.725   6.347   6.590
 4903SOL    HW115608   3.704   6.442   6.564
 4903SOL    HW215609   3.752   6.296   6.509
 4904SOL     OW15610   2.188   6.539   4.170
 4904SOL    HW115611   2.170   6.446   4.202
 4904SOL    HW215612   2.117   6.567   4.106
 4905SOL     OW15613   4.632   6.999   2.810
 4905SOL    HW115614   4.674   7.007   2.719
 4905SOL    HW215615   4.703   7.006   2.880
 4906SOL     OW15616   5.010   2.318   6.125
 4906SOL    HW115617   4.917   2.281   6.119
 4906SOL    HW215618   5.071   2.265   6.067
 4907SOL     OW15619   4.442   6.038   1.805
 4907SOL    HW115620   4.437   6.133   1.775
 4907SOL    HW215621   4.538   6.012   1.819
 4908SOL     OW15622   5.403   4.653   6.577
 4908SOL    HW115623   5.353   4.576   6.617
 4908SOL    HW215624   5.348   4.695   6.505
 4909SOL     OW15625   6.886   0.367   4.164
 4909SOL    HW115626   6.973   0.352   4.117
 4909SOL    HW215627   6.874   0.297   4.235
 4910SOL     OW15628   5.780   0.614   4.850
 4910SOL    HW115629   5.750   0.546   4.782
 4910SOL    HW215630   5.864   0.583   4.893
 4911SOL     OW15631   1.599   3.552   4.338
 4911SOL    HW115632   1.510   3.509   4.352
 4911SOL    HW215633   1.651   3.500   4.269
 4912SOL     OW15634   5.065   1.806   6.819
 4912SOL    HW115635   4.971   1.773   6.808
 4912SOL    HW215636   5.074   1.896   6.777
 4913SOL     OW15637   3.708   2.598   5.303
 4913SOL    HW115638   3.666   2.668   5.246
 4913SOL    HW215639   3.802   2.624   5.325
 4914SOL     OW15640   4.116   0.638   5.095
 4914SOL    HW115641   4.091   0.644   5.192
 4914SOL    HW215642   4.039   0.600   5.043
 4915SOL     OW15643   4.737   6.825   5.052
 4915SOL    HW115644   4.777   6.869   5.133
 4915SOL    HW215645   4.637   6.832   5.056
 4916SOL     OW15646   1.308   6.944   4.035
 4916SOL    HW115647   1.315   6.848   4.009
 4916SOL    HW215648   1.377   6.965   4.105
 4917SOL     OW15649   2.709   4.735   1.167
 4917SOL    HW115650   2.752   4.735   1.257
 4917SOL    HW215651   2.778   4.712   1.098
 4918SOL     OW15652   4.771   5.642   2.316
 4918SOL    HW115653   4.834   5.659   2.241
 4918SOL    HW215654   4.699   5.712   2.316
 4919SOL     OW15655   2.972   2.438   0.165
 4919SOL    HW115656   2.958   2.404   0.072
 4919SOL    HW215657   3.010   2.531   0.161
 4920SOL     OW15658   6.259   0.880   3.875
 4920SOL    HW115659   6.320   0.826   3.932
 4920SOL    HW215660   6.215   0.821   3.807
 4921SOL     OW15661   1.105   4.816   0.563
 4921SOL    HW115662   1.164   4.874   0.507
 4921SOL    HW215663   1.127   4.720   0.546
 4922SOL     OW15664   1.959   2.162   5.166
 4922SOL    HW115665   2.049   2.156   5.208
 4922SOL    HW215666   1.901   2.222   5.221
 4923SOL     OW15667   4.138   1.897   2.351
 4923SOL    HW115668   4.040   1.885   2.369
 4923SOL    HW215669   4.150   1.953   2.269
 4924SOL     OW15670   2.944   1.891   4.960
 4924SOL    HW115671   2.951   1.990   4.947
 4924SOL    HW215672   2.990   1.866   5.045
 4925SOL     OW15673   6.888   6.442   2.467
 4925SOL    HW115674   6.867   6.355   2.424
 4925SOL    HW215675   6.871   6.436   2.565
 4926SOL     OW15676   5.492   1.446   0.209
 4926SOL    HW115677   5.578   1.424   0.164
 4926SOL    HW215678   5.427   1.371   0.195
 4927SOL     OW15679   3.419   3.886   4.191
 4927SOL    HW115680   3.351   3.908   4.261
 4927SOL    HW215681   3.472   3.968   4.169
 4928SOL     OW15682   1.530   0.245   0.194
 4928SOL    HW115683   1.434   0.219   0.187
 4928SOL    HW215684   1.565   0.267   0.103
 4929SOL     OW15685   0.390   5.669   4.981
 4929SOL    HW115686   0.408   5.641   5.075
 4929SOL    HW215687   0.292   5.658   4.962
 4930SOL     OW15688   4.813   1.007   3.260
 4930SOL    HW115689   4.852   1.099   3.254
 4930SOL    HW215690   4.879   0.941   3.225
 4931SOL     OW15691   6.956   6.950   0.756
 4931SOL    HW115692   7.018   7.027   0.744
 4931SOL    HW215693   6.985   6.874   0.698
 4932SOL     OW15694   2.702   3.118   1.718
 4932SOL    HW115695   2.673   3.023   1.708
 4932SOL    HW215696   2.798   3.122   1.744
 4933SOL     OW15697   2.279   0.155   3.407
 4933SOL    HW115698   2.234   0.068   3.391
 4933SOL    HW215699   2.339   0.147   3.486
 4934SOL     OW15700   2.879   5.672   2.368
 4934SOL    HW115701   2.853   5.735   2.441
 4934SOL    HW215702   2.798   5.649   2.313
 4935SOL     OW15703   1.620   1.285   6.303
 4935SOL    HW115704   1.593   1.320   6.392
 4935SOL    HW215705   1.704   1.330   6.273
 4936SOL     OW15706   2.564   4.532   1.857
 4936SOL    HW115707   2.649   4.550   1.907
 4936SOL    HW215708   2.491   4.509   1.921
 4937SOL     OW15709   6.453   3.041   5.715
 4937SOL    HW115710   6.384   3.086   5.772
 4937SOL    HW215711   6.419   2.953   5.683
 4938SOL     OW15712   2.197   5.486   5.641
 4938SOL    HW115713   2.216   5.431   5.560
 4938SOL    HW215714   2.276   5.543   5.662
 4939SOL     OW15715   6.561   1.966   4.231
 4939SOL    HW115716   6.477   1.927   4.193
 4939SOL    HW215717   6.581   2.054   4.187
 4940SOL     OW15718   0.230   0.966   5.347
 4940SOL    HW115719   0.172   0.979   5.267
 4940SOL    HW215720   0.175   0.931   5.423
 4941SOL     OW15721   5.302   2.433   5.371
 4941SOL    HW115722   5.297   2.346   5.322
 4941SOL    HW215723   5.344   2.502   5.312
 4942SOL     OW15724   5.155   2.974   6.155
 4942SOL    HW115725   5.068   2.953   6.109
 4942SOL    HW215726   5.137   2.992   6.252
 4943SOL     OW15727   4.428   3.750   6.321
 4943SOL    HW115728   4.475   3.798   6.396
 4943SOL    HW215729   4.356   3.808   6.284
 4944SOL     OW15730   1.986   4.462   1.935
 4944SOL    HW115731   1.922   4.385   1.936
 4944SOL    HW215732   2.034   4.464   1.848
 4945SOL     OW15733   0.982   0.220   4.489
 4945SOL    HW115734   0.886   0.238   4.469
 4945SOL    HW215735   0.989   0.142   4.551
 4946SOL     OW15736   1.540   4.978   0.180
 4946SOL    HW115737   1.548   4.909   0.252
 4946SOL    HW215738   1.514   4.934   0.095
 4947SOL     OW15739   2.086   0.902   1.203
 4947SOL    HW115740   2.131   0.950   1.127
 4947SOL    HW215741   2.130   0.813   1.217
 4948SOL     OW15742   1.483   2.733   2.615
 4948SOL    HW115743   1.425   2.680   2.553
 4948SOL    HW215744   1.573   2.746   2.573
 4949SOL     OW15745   5.686   6.006   6.125
 4949SOL    HW115746   5.662   5.998   6.222
 4949SOL    HW215747   5.781   5.978   6.112
 4950SOL     OW15748   2.397   5.377   4.569
 4950SOL    HW115749   2.471   5.384   4.635
 4950SOL    HW215750   2.330   5.309   4.601
 4951SOL     OW15751   6.477   1.564   5.196
 4951SOL    HW115752   6.416   1.493   5.232
 4951SOL    HW215753   6.465   1.648   5.249
 4952SOL     OW15754   0.826   1.113   5.924
 4952SOL    HW115755   0.818   1.100   6.023
 4952SOL    HW215756   0.735   1.126   5.885
 4953SOL     OW15757   2.212   5.839   2.531
 4953SOL    HW115758   2.262   5.877   2.453
 4953SOL    HW215759   2.155   5.911   2.571
 4954SOL     OW15760   3.693   3.231   0.087
 4954SOL    HW115761   3.605   3.206   0.046
 4954SOL    HW215762   3.681   3.310   0.147
 4955SOL     OW15763   2.977   6.729   6.599
 4955SOL    HW115764   2.953   6.758   6.506
 4955SOL    HW215765   2.988   6.630   6.601
 4956SOL     OW15766   2.300   0.033   5.464
 4956SOL    HW115767   2.369   0.104   5.470
 4956SOL    HW215768   2.316   7.004   5.384
 4957SOL     OW15769   6.139   2.098   2.035
 4957SOL    HW115770   6.177   2.115   2.126
 4957SOL    HW215771   6.150   2.001   2.012
 4958SOL     OW15772   0.058   5.059   5.410
 4958SOL    HW115773   0.089   5.037   5.318
 4958SOL    HW215774   0.000   5.141   5.407
 4959SOL     OW15775   6.477   1.585   0.150
 4959SOL    HW115776   6.551   1.563   0.215
 4959SOL    HW215777   6.502   1.668   0.100
 4960SOL     OW15778   3.218   5.180   3.594
 4960SOL    HW115779   3.151   5.127   3.645
 4960SOL    HW215780   3.277   5.230   3.658
 4961SOL     OW15781   4.135   1.341   6.161
 4961SOL    HW115782   4.044   1.376   6.183
 4961SOL    HW215783   4.169   1.287   6.238
 4962SOL     OW15784   6.482   2.258   0.299
 4962SOL    HW115785   6.389   2.294   0.293
 4962SOL    HW215786   6.478   2.162   0.327
 4963SOL     OW15787   6.140   5.498   0.486
 4963SOL    HW115788   6.168   5.572   0.425
 4963SOL    HW215789   6.095   5.426   0.433
 4964SOL     OW15790   3.089   0.139   3.636
 4964SOL    HW115791   3.026   0.063   3.629
 4964SOL    HW215792   3.042   0.224   3.611
 4965SOL     OW15793   0.390   0.737   2.328
 4965SOL    HW115794   0.413   0.810   2.263
 4965SOL    HW215795   0.294   0.745   2.355
 4966SOL     OW15796   2.358   6.918   5.244
 4966SOL    HW115797   2.349   6.882   5.151
 4966SOL    HW215798   2.333   6.847   5.310
 4967SOL     OW15799   3.831   5.422   5.756
 4967SOL    HW115800   3.830   5.324   5.773
 4967SOL    HW215801   3.830   5.471   5.843
 4968SOL     OW15802   6.567   1.798   3.731
 4968SOL    HW115803   6.513   1.770   3.651
 4968SOL    HW215804   6.573   1.898   3.734
 4969SOL     OW15805   2.705   6.611   2.980
 4969SOL    HW115806   2.660   6.543   2.923
 4969SOL    HW215807   2.656   6.698   2.973
 4970SOL     OW15808   1.737   2.691   2.931
 4970SOL    HW115809   1.676   2.707   3.008
 4970SOL    HW215810   1.683   2.673   2.849
 4971SOL     OW15811   6.077   5.642   3.661
 4971SOL    HW115812   6.070   5.551   3.620
 4971SOL    HW215813   6.162   5.686   3.631
 4972SOL     OW15814   1.457   3.710   0.611
 4972SOL    HW115815   1.496   3.651   0.682
 4972SOL    HW215816   1.364   3.737   0.637
 4973SOL     OW15817   1.549   7.026   2.192
 4973SOL    HW115818   1.505   6.940   2.163
 4973SOL    HW215819   1.591   7.014   2.282
 4974SOL     OW15820   5.964   4.428   1.014
 4974SOL    HW115821   5.960   4.392   0.921
 4974SOL    HW215822   5.955   4.527   1.012
 4975SOL     OW15823   5.654   4.277   5.516
 4975SOL    HW115824   5.689   4.212   5.584
 4975SOL    HW215825   5.729   4.335   5.483
 4976SOL     OW15826   2.167   0.623   3.137
 4976SOL    HW115827   2.186   0.565   3.058
 4976SOL    HW215828   2.203   0.714   3.120
 4977SOL     OW15829   3.903   4.675   6.992
 4977SOL    HW115830   3.803   4.668   6.983
 4977SOL    HW215831   3.933   4.618   0.041
 4978SOL     OW15832   6.938   3.676   4.947
 4978SOL    HW115833   6.904   3.660   4.854
 4978SOL    HW215834   7.011   3.611   4.967
 4979SOL     OW15835   0.436   0.274   6.227
 4979SOL    HW115836   0.391   0.258   6.140
 4979SOL    HW215837   0.442   0.187   6.277
 4980SOL     OW15838   5.106   6.617   3.117
 4980SOL    HW115839   5.031   6.570   3.165
 4980SOL    HW215840   5.068   6.685   3.054
 4981SOL     OW15841   4.980   6.168   6.751
 4981SOL    HW115842   4.962   6.099   6.680
 4981SOL    HW215843   4.972   6.126   6.841
 4982SOL     OW15844   2.615   1.305   6.113
 4982SOL    HW115845   2.611   1.296   6.212
 4982SOL    HW215846   2.525   1.283   6.074
 4983SOL     OW15847   6.018   2.792   4.881
 4983SOL    HW115848   6.039   2.704   4.924
 4983SOL    HW215849   5.953   2.778   4.806
 4984SOL     OW15850   5.558   4.154   3.640
 4984SOL    HW115851   5.572   4.241   3.687
 4984SOL    HW215852   5.615   4.151   3.557
 4985SOL     OW15853   6.396   6.366   3.653
 4985SOL    HW115854   6.355   6.382   3.742
 4985SOL    HW215855   6.328   6.324   3.592
 4986SOL     OW15856   6.185   4.020   1.874
 4986SOL    HW115857   6.107   3.960   1.891
 4986SOL    HW215858   6.232   4.040   1.960
 4987SOL     OW15859   1.123   0.190   1.393
 4987SOL    HW115860   1.088   0.099   1.414
 4987SOL    HW215861   1.050   0.245   1.353
 4988SOL     OW15862   5.109   0.638   3.447
 4988SOL    HW115863   5.076   0.589   3.528
 4988SOL    HW215864   5.033   0.651   3.383
 4989SOL     OW15865   4.936   0.157   1.863
 4989SOL    HW115866   4.939   0.190   1.958
 4989SOL    HW215867   4.861   0.091   1.854
 4990SOL     OW15868   1.871   2.330   5.375
 4990SOL    HW115869   1.771   2.323   5.369
 4990SOL    HW215870   1.903   2.408   5.322
 4991SOL     OW15871   6.448   4.754   4.570
 4991SOL    HW115872   6.493   4.835   4.531
 4991SOL    HW215873   6.400   4.780   4.654
 4992SOL     OW15874   5.142   1.052   4.469
 4992SOL    HW115875   5.207   1.042   4.395
 4992SOL    HW215876   5.171   1.125   4.530
 4993SOL     OW15877   2.887   5.749   4.053
 4993SOL    HW115878   2.974   5.794   4.034
 4993SOL    HW215879   2.883   5.725   4.150
 4994SOL     OW15880   1.943   6.878   3.121
 4994SOL    HW115881   1.869   6.917   3.175
 4994SOL    HW215882   1.946   6.923   3.031
 4995SOL     OW15883   6.926   2.491   5.730
 4995SOL    HW115884   6.993   2.459   5.797
 4995SOL    HW215885   6.878   2.412   5.691
 4996SOL     OW15886   1.444   1.543   2.740
 4996SOL    HW115887   1.393   1.596   2.808
 4996SOL    HW215888   1.384   1.522   2.663
 4997SOL     OW15889   5.203   2.102   3.179
 4997SOL    HW115890   5.300   2.125   3.172
 4997SOL    HW215891   5.158   2.166   3.241
 4998SOL     OW15892   2.061   4.133   5.097
 4998SOL    HW115893   2.023   4.101   5.184
 4998SOL    HW215894   2.160   4.121   5.099
 4999SOL     OW15895   6.225   4.414   0.231
 4999SOL    HW115896   6.298   4.354   0.198
 4999SOL    HW215897   6.174   4.367   0.304
 5000SOL     OW15898   2.605   6.769   3.470
 5000SOL    HW115899   2.565   6.719   3.394
 5000SOL    HW215900   2.685   6.819   3.439
 5001SOL     OW15901   0.161   4.242   0.660
 5001SOL    HW115902   0.167   4.334   0.698
 5001SOL    HW215903   0.247   4.193   0.679
 5002SOL     OW15904   0.886   3.111   3.464
 5002SOL    HW115905   0.939   3.031   3.492
 5002SOL    HW215906   0.820   3.084   3.393
 5003SOL     OW15907   2.708   6.327   2.482
 5003SOL    HW115908   2.702   6.236   2.523
 5003SOL    HW215909   2.762   6.387   2.541
 5004SOL     OW15910   3.736   5.057   5.882
 5004SOL    HW115911   3.813   5.054   5.818
 5004SOL    HW215912   3.761   5.009   5.966
 5005SOL     OW15913   3.176   2.421   0.623
 5005SOL    HW115914   3.228   2.470   0.553
 5005SOL    HW215915   3.111   2.360   0.579
 5006SOL     OW15916   5.557   0.639   0.565
 5006SOL    HW115917   5.627   0.669   0.631
 5006SOL    HW215918   5.588   0.662   0.473
 5007SOL     OW15919   1.525   7.011   6.841
 5007SOL    HW115920   1.558   6.981   6.931
 5007SOL    HW215921   1.497   0.079   6.846
 5008SOL     OW15922   6.873   6.578   3.461
 5008SOL    HW115923   6.779   6.569   3.426
 5008SOL    HW215924   6.900   6.492   3.504
 5009SOL     OW15925   1.361   6.469   0.930
 5009SOL    HW115926   1.456   6.493   0.912
 5009SOL    HW215927   1.304   6.550   0.920
 5010SOL     OW15928   3.241   3.543   2.668
 5010SOL    HW115929   3.207   3.505   2.583
 5010SOL    HW215930   3.291   3.628   2.649
 5011SOL     OW15931   1.821   3.729   2.913
 5011SOL    HW115932   1.847   3.800   2.847
 5011SOL    HW215933   1.882   3.650   2.902
 5012SOL     OW15934   5.134   4.253   6.514
 5012SOL    HW115935   5.170   4.160   6.517
 5012SOL    HW215936   5.035   4.250   6.499
 5013SOL     OW15937   4.607   1.848   7.014
 5013SOL    HW115938   4.695   1.800   7.013
 5013SOL    HW215939   4.543   1.798   0.046
 5014SOL     OW15940   5.291   4.675   0.995
 5014SOL    HW115941   5.369   4.683   1.057
 5014SOL    HW215942   5.324   4.664   0.901
 5015SOL     OW15943   4.617   2.134   4.366
 5015SOL    HW115944   4.667   2.194   4.303
 5015SOL    HW215945   4.562   2.069   4.314
 5016SOL     OW15946   2.343   2.375   0.877
 5016SOL    HW115947   2.293   2.451   0.920
 5016SOL    HW215948   2.283   2.327   0.814
 5017SOL     OW15949   2.053   2.123   0.309
 5017SOL    HW115950   2.101   2.211   0.314
 5017SOL    HW215951   1.955   2.137   0.326
 5018SOL     OW15952   6.892   4.474   2.220
 5018SOL    HW115953   6.920   4.563   2.254
 5018SOL    HW215954   6.915   4.466   2.123
 5019SOL     OW15955   1.151   4.730   6.719
 5019SOL    HW115956   1.153   4.719   6.818
 5019SOL    HW215957   1.143   4.828   6.697
 5020SOL     OW15958   4.932   0.083   6.137
 5020SOL    HW115959   4.884   0.008   6.183
 5020SOL    HW215960   4.986   0.046   6.061
 5021SOL     OW15961   1.567   2.034   6.107
 5021SOL    HW115962   1.484   2.090   6.111
 5021SOL    HW215963   1.583   1.992   6.196
 5022SOL     OW15964   1.215   1.038   0.084
 5022SOL    HW115965   1.181   1.111   0.143
 5022SOL    HW215966   1.282   0.983   0.134
 5023SOL     OW15967   6.350   3.099   1.110
 5023SOL    HW115968   6.267   3.054   1.144
 5023SOL    HW215969   6.343   3.197   1.125
 5024SOL     OW15970   5.643   5.748   2.565
 5024SOL    HW115971   5.567   5.811   2.584
 5024SOL    HW215972   5.697   5.736   2.648
 5025SOL     OW15973   3.899   2.130   1.825
 5025SOL    HW115974   3.807   2.132   1.863
 5025SOL    HW215975   3.962   2.094   1.894
 5026SOL     OW15976   6.102   6.215   6.359
 5026SOL    HW115977   6.018   6.233   6.307
 5026SOL    HW215978   6.179   6.260   6.314
 5027SOL     OW15979   1.093   6.181   2.371
 5027SOL    HW115980   1.113   6.083   2.360
 5027SOL    HW215981   0.996   6.197   2.353
 5028SOL     OW15982   0.680   0.188   3.368
 5028SOL    HW115983   0.765   0.207   3.417
 5028SOL    HW215984   0.604   0.237   3.412
 5029SOL     OW15985   0.232   2.561   3.022
 5029SOL    HW115986   0.209   2.467   2.998
 5029SOL    HW215987   0.291   2.562   3.103
 5030SOL     OW15988   6.623   0.112   6.643
 5030SOL    HW115989   6.577   0.084   6.559
 5030SOL    HW215990   6.613   0.040   6.712
 5031SOL     OW15991   6.158   0.864   4.710
 5031SOL    HW115992   6.166   0.944   4.650
 5031SOL    HW215993   6.064   0.857   4.743
 5032SOL     OW15994   1.294   3.732   0.994
 5032SOL    HW115995   1.380   3.779   0.973
 5032SOL    HW215996   1.313   3.650   1.047
 5033SOL     OW15997   3.237   6.308   6.431
 5033SOL    HW115998   3.244   6.308   6.331
 5033SOL    HW215999   3.310   6.251   6.469
 5034SOL     OW16000   5.665   0.983   2.857
 5034SOL    HW116001   5.631   1.029   2.775
 5034SOL    HW216002   5.590   0.966   2.920
 5035SOL     OW16003   0.176   4.266   0.380
 5035SOL    HW116004   0.161   4.251   0.477
 5035SOL    HW216005   0.194   4.178   0.335
 5036SOL     OW16006   0.095   5.079   6.951
 5036SOL    HW116007   0.028   5.148   6.923
 5036SOL    HW216008   0.125   5.097   0.017
 5037SOL     OW16009   5.270   2.594   2.948
 5037SOL    HW116010   5.273   2.650   3.032
 5037SOL    HW216011   5.180   2.603   2.906
 5038SOL     OW16012   2.048   4.119   6.647
 5038SOL    HW116013   2.020   4.074   6.562
 5038SOL    HW216014   2.092   4.052   6.708
 5039SOL     OW16015   2.911   4.155   5.502
 5039SOL    HW116016   2.961   4.238   5.477
 5039SOL    HW216017   2.963   4.075   5.473
 5040SOL     OW16018   2.273   5.099   5.865
 5040SOL    HW116019   2.363   5.100   5.821
 5040SOL    HW216020   2.231   5.189   5.858
 5041SOL     OW16021   1.562   1.953   1.434
 5041SOL    HW116022   1.581   1.996   1.522
 5041SOL    HW216023   1.647   1.935   1.386
 5042SOL     OW16024   6.070   3.116   0.706
 5042SOL    HW116025   6.073   3.211   0.674
 5042SOL    HW216026   6.017   3.061   0.642
 5043SOL     OW16027   2.867   1.040   5.847
 5043SOL    HW116028   2.930   0.963   5.854
 5043SOL    HW216029   2.818   1.051   5.933
 5044SOL     OW16030   6.977   6.297   2.214
 5044SOL    HW116031   0.041   6.327   2.240
 5044SOL    HW216032   6.978   6.200   2.190
 5045SOL     OW16033   6.001   2.366   0.401
 5045SOL    HW116034   6.040   2.387   0.491
 5045SOL    HW216035   5.981   2.451   0.352
 5046SOL     OW16036   3.475   4.182   3.579
 5046SOL    HW116037   3.448   4.136   3.664
 5046SOL    HW216038   3.500   4.277   3.599
 5047SOL     OW16039   0.398   3.208   2.622
 5047SOL    HW116040   0.498   3.199   2.620
 5047SOL    HW216041   0.359   3.133   2.676
 5048SOL     OW16042   0.719   1.104   1.775
 5048SOL    HW116043   0.683   1.073   1.863
 5048SOL    HW216044   0.816   1.082   1.769
 5049SOL     OW16045   6.565   1.940   5.144
 5049SOL    HW116046   6.637   1.883   5.103
 5049SOL    HW216047   6.554   2.023   5.090
 5050SOL     OW16048   1.236   0.289   1.917
 5050SOL    HW116049   1.186   0.320   1.998
 5050SOL    HW216050   1.265   0.194   1.931
 5051SOL     OW16051   4.330   3.627   1.256
 5051SOL    HW116052   4.415   3.579   1.279
 5051SOL    HW216053   4.284   3.579   1.181
 5052SOL     OW16054   2.167   6.018   5.960
 5052SOL    HW116055   2.118   6.082   6.019
 5052SOL    HW216056   2.248   6.062   5.922
 5053SOL     OW16057   2.136   3.907   3.497
 5053SOL    HW116058   2.108   3.977   3.564
 5053SOL    HW216059   2.221   3.935   3.453
 5054SOL     OW16060   3.871   6.183   5.114
 5054SOL    HW116061   3.860   6.241   5.194
 5054SOL    HW216062   3.818   6.221   5.038
 5055SOL     OW16063   2.209   6.962   5.703
 5055SOL    HW116064   2.223   6.980   5.606
 5055SOL    HW216065   2.218   6.863   5.720
 5056SOL     OW16066   6.242   4.066   0.490
 5056SOL    HW116067   6.197   3.993   0.438
 5056SOL    HW216068   6.323   4.097   0.442
 5057SOL     OW16069   6.679   5.902   5.398
 5057SOL    HW116070   6.630   5.957   5.467
 5057SOL    HW216071   6.616   5.835   5.359
 5058SOL     OW16072   2.652   3.057   5.420
 5058SOL    HW116073   2.590   3.013   5.354
 5058SOL    HW216074   2.746   3.042   5.391
 5059SOL     OW16075   5.495   2.697   3.270
 5059SOL    HW116076   5.560   2.699   3.193
 5059SOL    HW216077   5.512   2.615   3.325
 5060SOL     OW16078   0.405   2.393   5.787
 5060SOL    HW116079   0.326   2.365   5.842
 5060SOL    HW216080   0.477   2.323   5.793
 5061SOL     OW16081   3.604   3.155   2.925
 5061SOL    HW116082   3.643   3.153   3.017
 5061SOL    HW216083   3.667   3.202   2.863
 5062SOL     OW16084   5.685   0.159   3.209
 5062SOL    HW116085   5.691   0.229   3.137
 5062SOL    HW216086   5.674   0.203   3.298
 5063SOL     OW16087   1.295   6.921   2.425
 5063SOL    HW116088   1.276   6.854   2.497
 5063SOL    HW216089   1.349   6.996   2.463
 5064SOL     OW16090   4.405   3.903   1.712
 5064SOL    HW116091   4.469   3.980   1.711
 5064SOL    HW216092   4.313   3.936   1.732
 5065SOL     OW16093   1.473   1.518   3.473
 5065SOL    HW116094   1.520   1.548   3.556
 5065SOL    HW216095   1.417   1.593   3.438
 5066SOL     OW16096   3.593   4.396   0.789
 5066SOL    HW116097   3.564   4.459   0.861
 5066SOL    HW216098   3.693   4.390   0.789
 5067SOL     OW16099   3.271   0.973   2.271
 5067SOL    HW116100   3.347   0.917   2.239
 5067SOL    HW216101   3.255   0.954   2.368
 5068SOL     OW16102   2.880   4.877   6.959
 5068SOL    HW116103   2.896   4.818   0.010
 5068SOL    HW216104   2.909   4.970   6.981
 5069SOL     OW16105   2.029   2.947   6.143
 5069SOL    HW116106   2.057   3.043   6.134
 5069SOL    HW216107   1.947   2.931   6.088
 5070SOL     OW16108   5.240   4.599   3.984
 5070SOL    HW116109   5.281   4.618   4.073
 5070SOL    HW216110   5.311   4.598   3.914
 5071SOL     OW16111   3.944   1.189   4.027
 5071SOL    HW116112   3.880   1.126   4.070
 5071SOL    HW216113   3.904   1.281   4.026
 5072SOL     OW16114   1.086   0.655   1.734
 5072SOL    HW116115   1.185   0.661   1.734
 5072SOL    HW216116   1.057   0.576   1.679
 5073SOL     OW16117   1.726   4.244   0.802
 5073SOL    HW116118   1.652   4.254   0.868
 5073SOL    HW216119   1.740   4.330   0.753
 5074SOL     OW16120   3.154   2.024   1.742
 5074SOL    HW116121   3.246   2.008   1.778
 5074SOL    HW216122   3.148   2.118   1.708
 5075SOL     OW16123   1.589   2.261   5.921
 5075SOL    HW116124   1.586   2.184   5.985
 5075SOL    HW216125   1.632   2.340   5.964
 5076SOL     OW16126   5.246   0.596   1.047
 5076SOL    HW116127   5.336   0.639   1.046
 5076SOL    HW216128   5.228   0.554   0.959
 5077SOL     OW16129   1.646   4.430   5.746
 5077SOL    HW116130   1.727   4.490   5.751
 5077SOL    HW216131   1.587   4.448   5.825
 5078SOL     OW16132   0.653   0.699   3.925
 5078SOL    HW116133   0.640   0.732   4.018
 5078SOL    HW216134   0.646   0.775   3.861
 5079SOL     OW16135   2.204   3.210   4.547
 5079SOL    HW116136   2.160   3.208   4.637
 5079SOL    HW216137   2.254   3.124   4.533
 5080SOL     OW16138   6.106   6.475   6.082
 5080SOL    HW116139   6.067   6.519   6.001
 5080SOL    HW216140   6.177   6.534   6.121
 5081SOL     OW16141   2.715   3.789   5.525
 5081SOL    HW116142   2.726   3.835   5.613
 5081SOL    HW216143   2.682   3.854   5.457
 5082SOL     OW16144   5.154   5.911   1.289
 5082SOL    HW116145   5.090   5.985   1.272
 5082SOL    HW216146   5.229   5.945   1.346
 5083SOL     OW16147   2.426   0.770   2.908
 5083SOL    HW116148   2.483   0.825   2.846
 5083SOL    HW216149   2.340   0.747   2.863
 5084SOL     OW16150   0.796   4.194   4.055
 5084SOL    HW116151   0.799   4.123   4.125
 5084SOL    HW216152   0.740   4.270   4.088
 5085SOL     OW16153   6.512   2.415   6.027
 5085SOL    HW116154   6.520   2.485   5.957
 5085SOL    HW216155   6.592   2.418   6.087
 5086SOL     OW16156   1.395   4.931   2.693
 5086SOL    HW116157   1.383   4.837   2.724
 5086SOL    HW216158   1.411   4.932   2.595
 5087SOL     OW16159   1.036   5.271   2.188
 5087SOL    HW116160   1.075   5.322   2.111
 5087SOL    HW216161   1.007   5.180   2.156
 5088SOL     OW16162   6.100   0.257   3.760
 5088SOL    HW116163   6.134   0.325   3.695
 5088SOL    HW216164   6.144   0.169   3.741
 5089SOL     OW16165   6.291   4.082   4.145
 5089SOL    HW116166   6.266   3.997   4.100
 5089SOL    HW216167   6.218   4.149   4.133
 5090SOL     OW16168   1.998   3.644   2.627
 5090SOL    HW116169   2.072   3.704   2.656
 5090SOL    HW216170   1.915   3.697   2.611
 5091SOL     OW16171   6.762   1.417   1.604
 5091SOL    HW116172   6.758   1.317   1.599
 5091SOL    HW216173   6.671   1.454   1.622
 5092SOL     OW16174   3.610   3.813   3.168
 5092SOL    HW116175   3.559   3.880   3.222
 5092SOL    HW216176   3.585   3.721   3.198
 5093SOL     OW16177   3.228   0.876   0.688
 5093SOL    HW116178   3.138   0.917   0.680
 5093SOL    HW216179   3.233   0.793   0.632
 5094SOL     OW16180   2.399   5.750   6.137
 5094SOL    HW116181   2.478   5.751   6.076
 5094SOL    HW216182   2.389   5.659   6.177
 5095SOL     OW16183   6.440   2.116   3.023
 5095SOL    HW116184   6.458   2.020   3.001
 5095SOL    HW216185   6.520   2.171   3.000
 5096SOL     OW16186   3.989   5.459   6.274
 5096SOL    HW116187   4.061   5.438   6.340
 5096SOL    HW216188   3.937   5.539   6.305
 5097SOL     OW16189   0.780   0.109   6.201
 5097SOL    HW116190   0.693   0.073   6.234
 5097SOL    HW216191   0.777   0.121   6.102
 5098SOL     OW16192   3.054   0.828   2.109
 5098SOL    HW116193   3.011   0.838   2.199
 5098SOL    HW216194   3.045   0.913   2.058
 5099SOL     OW16195   0.530   0.157   0.944
 5099SOL    HW116196   0.536   0.090   1.018
 5099SOL    HW216197   0.603   0.225   0.954
 5100SOL     OW16198   2.954   5.762   4.567
 5100SOL    HW116199   2.904   5.846   4.588
 5100SOL    HW216200   3.015   5.779   4.489
 5101SOL     OW16201   4.366   0.281   6.952
 5101SOL    HW116202   4.417   0.218   6.894
 5101SOL    HW216203   4.303   0.335   6.895
 5102SOL     OW16204   5.592   6.771   4.223
 5102SOL    HW116205   5.676   6.750   4.172
 5102SOL    HW216206   5.543   6.846   4.178
 5103SOL     OW16207   0.361   0.637   4.100
 5103SOL    HW116208   0.417   0.554   4.093
 5103SOL    HW216209   0.386   0.686   4.184
 5104SOL     OW16210   1.887   5.971   1.976
 5104SOL    HW116211   1.968   5.935   1.931
 5104SOL    HW216212   1.914   6.028   2.054
 5105SOL     OW16213   2.464   2.222   0.389
 5105SOL    HW116214   2.407   2.208   0.308
 5105SOL    HW216215   2.554   2.182   0.374
 5106SOL     OW16216   4.297   2.154   0.462
 5106SOL    HW116217   4.330   2.067   0.424
 5106SOL    HW216218   4.366   2.190   0.526
 5107SOL     OW16219   4.041   1.880   1.473
 5107SOL    HW116220   4.101   1.956   1.449
 5107SOL    HW216221   3.947   1.902   1.446
 5108SOL     OW16222   3.986   3.887   5.047
 5108SOL    HW116223   3.988   3.814   4.978
 5108SOL    HW216224   4.030   3.854   5.131
 5109SOL     OW16225   0.877   1.986   6.669
 5109SOL    HW116226   0.847   1.978   6.574
 5109SOL    HW216227   0.831   2.062   6.713
 5110SOL     OW16228   0.552   0.496   5.969
 5110SOL    HW116229   0.640   0.542   5.979
 5110SOL    HW216230   0.532   0.483   5.872
 5111SOL     OW16231   1.351   0.481   4.393
 5111SOL    HW116232   1.303   0.542   4.330
 5111SOL    HW216233   1.376   0.532   4.476
 5112SOL     OW16234   1.614   0.099   3.028
 5112SOL    HW116235   1.595   0.003   3.009
 5112SOL    HW216236   1.645   0.109   3.123
 5113SOL     OW16237   1.740   6.715   0.790
 5113SOL    HW116238   1.642   6.702   0.803
 5113SOL    HW216239   1.756   6.761   0.703
 5114SOL     OW16240   4.001   0.556   6.863
 5114SOL    HW116241   3.920   0.548   6.804
 5114SOL    HW216242   4.030   0.465   6.892
 5115SOL     OW16243   1.323   4.715   3.966
 5115SOL    HW116244   1.270   4.634   3.991
 5115SOL    HW216245   1.349   4.764   4.049
 5116SOL     OW16246   0.901   6.884   6.569
 5116SOL    HW116247   0.834   6.833   6.623
 5116SOL    HW216248   0.904   6.979   6.601
 5117SOL     OW16249   2.159   4.100   4.818
 5117SOL    HW116250   2.180   4.091   4.915
 5117SOL    HW216251   2.140   4.009   4.780
 5118SOL     OW16252   5.072   1.114   6.735
 5118SOL    HW116253   5.153   1.152   6.689
 5118SOL    HW216254   4.991   1.130   6.678
 5119SOL     OW16255   5.195   0.492   2.224
 5119SOL    HW116256   5.178   0.543   2.140
 5119SOL    HW216257   5.231   0.401   2.200
 5120SOL     OW16258   3.682   0.532   4.018
 5120SOL    HW116259   3.773   0.492   4.033
 5120SOL    HW216260   3.614   0.459   4.018
 5121SOL     OW16261   3.190   1.952   6.876
 5121SOL    HW116262   3.181   1.853   6.865
 5121SOL    HW216263   3.117   1.987   6.935
 5122SOL     OW16264   3.452   6.278   3.483
 5122SOL    HW116265   3.552   6.288   3.474
 5122SOL    HW216266   3.408   6.366   3.465
 5123SOL     OW16267   4.179   2.287   4.084
 5123SOL    HW116268   4.193   2.344   4.165
 5123SOL    HW216269   4.081   2.266   4.076
 5124SOL     OW16270   2.330   5.637   4.831
 5124SOL    HW116271   2.307   5.730   4.801
 5124SOL    HW216272   2.256   5.575   4.807
 5125SOL     OW16273   6.242   3.072   3.684
 5125SOL    HW116274   6.222   3.134   3.609
 5125SOL    HW216275   6.160   3.020   3.707
 5126SOL     OW16276   5.817   5.522   5.873
 5126SOL    HW116277   5.887   5.593   5.867
 5126SOL    HW216278   5.729   5.563   5.896
 5127SOL     OW16279   0.854   4.453   0.047
 5127SOL    HW116280   0.905   4.529   0.086
 5127SOL    HW216281   0.867   4.451   6.976
 5128SOL     OW16282   0.005   0.504   6.401
 5128SOL    HW116283   0.021   0.449   6.318
 5128SOL    HW216284   0.072   0.478   6.471
 5129SOL     OW16285   6.555   7.017   2.510
 5129SOL    HW116286   6.528   6.988   2.418
 5129SOL    HW216287   6.479   0.037   2.554
 5130SOL     OW16288   0.112   5.683   3.901
 5130SOL    HW116289   0.161   5.606   3.861
 5130SOL    HW216290   0.176   5.737   3.957
 5131SOL     OW16291   1.893   5.225   4.124
 5131SOL    HW116292   1.849   5.142   4.089
 5131SOL    HW216293   1.926   5.280   4.047
 5132SOL     OW16294   3.577   2.703   6.497
 5132SOL    HW116295   3.651   2.738   6.555
 5132SOL    HW216296   3.490   2.744   6.525
 5133SOL     OW16297   1.762   5.620   6.527
 5133SOL    HW116298   1.724   5.707   6.559
 5133SOL    HW216299   1.860   5.630   6.511
 5134SOL     OW16300   0.509   2.854   2.750
 5134SOL    HW116301   0.412   2.873   2.760
 5134SOL    HW216302   0.562   2.935   2.775
 5135SOL     OW16303   5.608   3.067   4.657
 5135SOL    HW116304   5.652   3.061   4.747
 5135SOL    HW216305   5.509   3.058   4.669
 5136SOL     OW16306   4.654   0.795   6.060
 5136SOL    HW116307   4.567   0.779   6.014
 5136SOL    HW216308   4.650   0.881   6.111
 5137SOL     OW16309   5.172   3.488   5.630
 5137SOL    HW116310   5.156   3.411   5.691
 5137SOL    HW216311   5.163   3.459   5.535
 5138SOL     OW16312   3.692   3.284   5.108
 5138SOL    HW116313   3.790   3.297   5.116
 5138SOL    HW216314   3.659   3.320   5.021
 5139SOL     OW16315   1.683   1.086   2.829
 5139SOL    HW116316   1.645   1.178   2.839
 5139SOL    HW216317   1.758   1.088   2.763
 5140SOL     OW16318   3.939   3.027   6.416
 5140SOL    HW116319   3.935   3.103   6.480
 5140SOL    HW216320   3.846   2.996   6.395
 5141SOL     OW16321   6.491   3.747   0.835
 5141SOL    HW116322   6.584   3.733   0.803
 5141SOL    HW216323   6.428   3.751   0.757
 5142SOL     OW16324   6.465   6.951   3.447
 5142SOL    HW116325   6.405   6.877   3.418
 5142SOL    HW216326   6.559   6.919   3.450
 5143SOL     OW16327   6.335   4.414   4.045
 5143SOL    HW116328   6.264   4.426   3.975
 5143SOL    HW216329   6.386   4.330   4.027
 5144SOL     OW16330   0.503   4.528   5.626
 5144SOL    HW116331   0.454   4.580   5.555
 5144SOL    HW216332   0.587   4.490   5.587
 5145SOL     OW16333   3.118   5.372   5.929
 5145SOL    HW116334   3.076   5.282   5.942
 5145SOL    HW216335   3.095   5.431   6.006
 5146SOL     OW16336   3.673   3.908   5.485
 5146SOL    HW116337   3.695   3.847   5.409
 5146SOL    HW216338   3.575   3.900   5.506
 5147SOL     OW16339   0.118   5.363   2.542
 5147SOL    HW116340   0.103   5.361   2.641
 5147SOL    HW216341   0.200   5.310   2.520
 5148SOL     OW16342   6.723   6.596   1.695
 5148SOL    HW116343   6.820   6.590   1.670
 5148SOL    HW216344   6.713   6.649   1.778
 5149SOL     OW16345   6.369   5.203   3.151
 5149SOL    HW116346   6.455   5.247   3.125
 5149SOL    HW216347   6.368   5.109   3.117
 5150SOL     OW16348   2.218   5.415   3.029
 5150SOL    HW116349   2.303   5.405   2.977
 5150SOL    HW216350   2.239   5.416   3.127
 5151SOL     OW16351   6.196   2.727   1.666
 5151SOL    HW116352   6.263   2.779   1.613
 5151SOL    HW216353   6.237   2.700   1.754
 5152SOL     OW16354   1.882   4.548   6.850
 5152SOL    HW116355   1.786   4.536   6.823
 5152SOL    HW216356   1.887   4.566   6.949
 5153SOL     OW16357   2.143   0.908   0.139
 5153SOL    HW116358   2.121   0.811   0.127
 5153SOL    HW216359   2.224   0.931   0.085
 5154SOL     OW16360   0.989   2.723   5.918
 5154SOL    HW116361   0.924   2.647   5.921
 5154SOL    HW216362   0.999   2.754   5.824
 5155SOL     OW16363   4.472   0.210   2.192
 5155SOL    HW116364   4.554   0.156   2.213
 5155SOL    HW216365   4.466   0.288   2.253
 5156SOL     OW16366   5.361   3.741   5.963
 5156SOL    HW116367   5.344   3.650   6.000
 5156SOL    HW216368   5.290   3.804   5.996
 5157SOL     OW16369   3.896   1.981   3.248
 5157SOL    HW116370   3.856   2.006   3.160
 5157SOL    HW216371   3.873   2.051   3.315
 5158SOL     OW16372   3.665   1.581   1.891
 5158SOL    HW116373   3.581   1.539   1.925
 5158SOL    HW216374   3.647   1.677   1.866
 5159SOL     OW16375   6.958   3.445   4.523
 5159SOL    HW116376   6.915   3.510   4.586
 5159SOL    HW216377   6.911   3.449   4.434
 5160SOL     OW16378   0.024   5.372   2.781
 5160SOL    HW116379   0.056   5.307   2.851
 5160SOL    HW216380   6.973   5.422   2.816
 5161SOL     OW16381   1.782   3.843   5.615
 5161SOL    HW116382   1.840   3.820   5.693
 5161SOL    HW216383   1.723   3.920   5.638
 5162SOL     OW16384   1.257   4.928   3.059
 5162SOL    HW116385   1.226   4.952   2.967
 5162SOL    HW216386   1.354   4.907   3.057
 5163SOL     OW16387   3.772   6.374   0.281
 5163SOL    HW116388   3.710   6.416   0.215
 5163SOL    HW216389   3.806   6.444   0.345
 5164SOL     OW16390   3.837   2.743   6.981
 5164SOL    HW116391   3.787   2.797   0.021
 5164SOL    HW216392   3.837   2.791   6.893
 5165SOL     OW16393   6.220   4.440   5.718
 5165SOL    HW116394   6.215   4.536   5.690
 5165SOL    HW216395   6.224   4.381   5.637
 5166SOL     OW16396   0.707   5.280   2.644
 5166SOL    HW116397   0.626   5.226   2.618
 5166SOL    HW216398   0.786   5.219   2.655
 5167SOL     OW16399   6.788   6.473   6.397
 5167SOL    HW116400   6.729   6.454   6.319
 5167SOL    HW216401   6.870   6.521   6.365
 5168SOL     OW16402   5.289   3.763   1.880
 5168SOL    HW116403   5.379   3.749   1.839
 5168SOL    HW216404   5.293   3.741   1.978
 5169SOL     OW16405   4.083   2.160   4.599
 5169SOL    HW116406   4.158   2.095   4.586
 5169SOL    HW216407   4.095   2.207   4.687
 5170SOL     OW16408   0.618   4.004   5.443
 5170SOL    HW116409   0.682   3.929   5.428
 5170SOL    HW216410   0.657   4.069   5.508
 5171SOL     OW16411   0.776   5.498   4.664
 5171SOL    HW116412   0.699   5.534   4.716
 5171SOL    HW216413   0.828   5.434   4.721
 5172SOL     OW16414   1.263   2.602   2.469
 5172SOL    HW116415   1.207   2.569   2.545
 5172SOL    HW216416   1.275   2.528   2.402
 5173SOL     OW16417   5.004   4.683   6.282
 5173SOL    HW116418   5.072   4.646   6.219
 5173SOL    HW216419   4.946   4.748   6.234
 5174SOL     OW16420   2.286   4.993   3.424
 5174SOL    HW116421   2.254   5.050   3.500
 5174SOL    HW216422   2.348   5.045   3.366
 5175SOL     OW16423   2.742   3.393   6.985
 5175SOL    HW116424   2.812   3.354   0.017
 5175SOL    HW216425   2.777   3.396   6.891
 5176SOL     OW16426   4.636   3.042   6.848
 5176SOL    HW116427   4.701   3.010   6.918
 5176SOL    HW216428   4.550   3.066   6.892
 5177SOL     OW16429   4.935   0.728   0.218
 5177SOL    HW116430   4.989   0.806   0.251
 5177SOL    HW216431   4.865   0.705   0.285
 5178SOL     OW16432   1.250   4.419   2.237
 5178SOL    HW116433   1.222   4.450   2.328
 5178SOL    HW216434   1.211   4.329   2.219
 5179SOL     OW16435   4.067   5.872   3.630
 5179SOL    HW116436   4.074   5.919   3.543
 5179SOL    HW216437   4.122   5.788   3.628
 5180SOL     OW16438   2.524   2.306   1.307
 5180SOL    HW116439   2.615   2.335   1.281
 5180SOL    HW216440   2.508   2.213   1.276
 5181SOL     OW16441   5.808   1.344   2.393
 5181SOL    HW116442   5.842   1.425   2.346
 5181SOL    HW216443   5.708   1.345   2.392
 5182SOL     OW16444   3.914   4.308   1.490
 5182SOL    HW116445   3.909   4.274   1.583
 5182SOL    HW216446   3.877   4.401   1.486
 5183SOL     OW16447   4.499   1.595   3.232
 5183SOL    HW116448   4.464   1.559   3.318
 5183SOL    HW216449   4.598   1.579   3.227
 5184SOL     OW16450   0.838   1.848   4.285
 5184SOL    HW116451   0.792   1.766   4.320
 5184SOL    HW216452   0.770   1.914   4.253
 5185SOL     OW16453   5.496   0.811   2.260
 5185SOL    HW116454   5.563   0.869   2.307
 5185SOL    HW216455   5.499   0.829   2.162
 5186SOL     OW16456   6.700   2.797   0.815
 5186SOL    HW116457   6.735   2.857   0.886
 5186SOL    HW216458   6.602   2.815   0.801
 5187SOL     OW16459   0.993   6.941   4.422
 5187SOL    HW116460   0.951   6.854   4.448
 5187SOL    HW216461   1.041   6.930   4.335
 5188SOL     OW16462   0.622   5.815   0.712
 5188SOL    HW116463   0.696   5.862   0.664
 5188SOL    HW216464   0.629   5.832   0.810
 5189SOL     OW16465   3.875   4.514   0.696
 5189SOL    HW116466   3.934   4.433   0.703
 5189SOL    HW216467   3.864   4.556   0.786
 5190SOL     OW16468   0.602   2.002   4.214
 5190SOL    HW116469   0.615   2.087   4.162
 5190SOL    HW216470   0.571   1.930   4.152
 5191SOL     OW16471   4.149   0.350   1.605
 5191SOL    HW116472   4.110   0.438   1.576
 5191SOL    HW216473   4.102   0.275   1.559
 5192SOL     OW16474   2.859   5.765   2.813
 5192SOL    HW116475   2.831   5.716   2.896
 5192SOL    HW216476   2.938   5.823   2.833
 5193SOL     OW16477   4.970   4.512   4.577
 5193SOL    HW116478   4.974   4.457   4.660
 5193SOL    HW216479   5.055   4.565   4.568
 5194SOL     OW16480   4.534   2.254   0.595
 5194SOL    HW116481   4.626   2.235   0.630
 5194SOL    HW216482   4.469   2.253   0.671
 5195SOL     OW16483   5.859   6.341   4.266
 5195SOL    HW116484   5.939   6.292   4.231
 5195SOL    HW216485   5.836   6.417   4.205
 5196SOL     OW16486   3.482   4.837   0.568
 5196SOL    HW116487   3.410   4.896   0.531
 5196SOL    HW216488   3.480   4.840   0.668
 5197SOL     OW16489   1.912   5.488   5.245
 5197SOL    HW116490   1.823   5.521   5.276
 5197SOL    HW216491   1.970   5.566   5.220
 5198SOL     OW16492   4.356   6.650   3.300
 5198SOL    HW116493   4.437   6.621   3.352
 5198SOL    HW216494   4.276   6.649   3.359
 5199SOL     OW16495   1.578   5.732   0.460
 5199SOL    HW116496   1.574   5.748   0.558
 5199SOL    HW216497   1.619   5.811   0.414
 5200SOL     OW16498   1.181   2.606   4.932
 5200SOL    HW116499   1.092   2.625   4.891
 5200SOL    HW216500   1.232   2.691   4.943
 5201SOL     OW16501   0.168   6.578   4.108
 5201SOL    HW116502   0.239   6.539   4.050
 5201SOL    HW216503   0.193   6.671   4.134
 5202SOL     OW16504   6.025   4.080   5.428
 5202SOL    HW116505   5.965   4.030   5.491
 5202SOL    HW216506   6.117   4.041   5.433
 5203SOL     OW16507   2.637   1.239   6.759
 5203SOL    HW116508   2.645   1.298   6.679
 5203SOL    HW216509   2.543   1.238   6.792
 5204SOL     OW16510   4.682   5.994   6.772
 5204SOL    HW116511   4.632   5.908   6.778
 5204SOL    HW216512   4.659   6.051   6.851
 5205SOL     OW16513   0.512   6.337   0.861
 5205SOL    HW116514   0.496   6.407   0.792
 5205SOL    HW216515   0.429   6.325   0.916
 5206SOL     OW16516   0.693   5.181   6.852
 5206SOL    HW116517   0.785   5.141   6.860
 5206SOL    HW216518   0.643   5.165   6.937
 5207SOL     OW16519   1.254   6.293   4.154
 5207SOL    HW116520   1.160   6.284   4.185
 5207SOL    HW216521   1.259   6.272   4.056
 5208SOL     OW16522   5.053   2.362   6.733
 5208SOL    HW116523   5.068   2.379   6.830
 5208SOL    HW216524   4.955   2.347   6.717
 5209SOL     OW16525   5.819   6.913   2.198
 5209SOL    HW116526   5.737   6.874   2.240
 5209SOL    HW216527   5.890   6.926   2.267
 5210SOL     OW16528   4.741   2.780   0.258
 5210SOL    HW116529   4.802   2.818   0.328
 5210SOL    HW216530   4.732   2.682   0.271
 5211SOL     OW16531   3.761   2.462   6.040
 5211SOL    HW116532   3.807   2.469   5.952
 5211SOL    HW216533   3.720   2.550   6.063
 5212SOL     OW16534   0.132   2.572   0.680
 5212SOL    HW116535   0.037   2.595   0.700
 5212SOL    HW216536   0.137   2.523   0.593
 5213SOL     OW16537   4.695   3.954   0.064
 5213SOL    HW116538   4.740   4.021   0.005
 5213SOL    HW216539   4.738   3.956   0.155
 5214SOL     OW16540   5.325   2.262   6.116
 5214SOL    HW116541   5.280   2.350   6.105
 5214SOL    HW216542   5.392   2.268   6.190
 5215SOL     OW16543   1.049   4.306   4.021
 5215SOL    HW116544   0.955   4.275   4.037
 5215SOL    HW216545   1.076   4.281   3.928
 5216SOL     OW16546   4.506   5.059   1.558
 5216SOL    HW116547   4.509   4.970   1.514
 5216SOL    HW216548   4.595   5.081   1.599
 5217SOL     OW16549   3.571   5.470   3.964
 5217SOL    HW116550   3.497   5.534   3.946
 5217SOL    HW216551   3.582   5.458   4.062
 5218SOL     OW16552   0.955   0.765   1.974
 5218SOL    HW116553   0.983   0.711   1.895
 5218SOL    HW216554   1.026   0.761   2.044
 5219SOL     OW16555   4.131   1.313   5.210
 5219SOL    HW116556   4.111   1.370   5.290
 5219SOL    HW216557   4.171   1.369   5.138
 5220SOL     OW16558   1.319   6.329   2.377
 5220SOL    HW116559   1.398   6.306   2.319
 5220SOL    HW216560   1.247   6.262   2.362
 5221SOL     OW16561   6.125   1.368   3.808
 5221SOL    HW116562   6.114   1.368   3.908
 5221SOL    HW216563   6.051   1.315   3.767
 5222SOL     OW16564   4.370   6.529   3.055
 5222SOL    HW116565   4.359   6.563   3.148
 5222SOL    HW216566   4.283   6.492   3.023
 5223SOL     OW16567   6.235   2.684   0.651
 5223SOL    HW116568   6.273   2.758   0.707
 5223SOL    HW216569   6.193   2.722   0.569
 5224SOL     OW16570   6.367   2.724   4.692
 5224SOL    HW116571   6.393   2.632   4.720
 5224SOL    HW216572   6.362   2.784   4.772
 5225SOL     OW16573   0.177   0.653   3.862
 5225SOL    HW116574   0.219   0.609   3.783
 5225SOL    HW216575   0.244   0.661   3.935
 5226SOL     OW16576   0.051   0.055   4.967
 5226SOL    HW116577   0.134   0.072   5.021
 5226SOL    HW216578   7.021   0.136   4.969
 5227SOL     OW16579   0.423   3.377   5.208
 5227SOL    HW116580   0.382   3.336   5.127
 5227SOL    HW216581   0.356   3.437   5.253
 5228SOL     OW16582   6.134   2.348   1.040
 5228SOL    HW116583   6.203   2.379   0.974
 5228SOL    HW216584   6.112   2.422   1.103
 5229SOL     OW16585   2.462   6.292   0.328
 5229SOL    HW116586   2.426   6.234   0.401
 5229SOL    HW216587   2.404   6.373   0.318
 5230SOL     OW16588   0.817   5.732   1.902
 5230SOL    HW116589   0.786   5.827   1.895
 5230SOL    HW216590   0.888   5.725   1.972
 5231SOL     OW16591   4.778   2.502   4.693
 5231SOL    HW116592   4.775   2.567   4.617
 5231SOL    HW216593   4.685   2.475   4.718
 5232SOL     OW16594   1.986   3.842   6.154
 5232SOL    HW116595   1.988   3.742   6.155
 5232SOL    HW216596   1.921   3.873   6.085
 5233SOL     OW16597   4.428   1.268   2.244
 5233SOL    HW116598   4.449   1.171   2.256
 5233SOL    HW216599   4.492   1.309   2.179
 5234SOL     OW16600   2.793   1.702   6.077
 5234SOL    HW116601   2.892   1.695   6.065
 5234SOL    HW216602   2.773   1.764   6.152
 5235SOL     OW16603   1.908   2.490   0.758
 5235SOL    HW116604   1.855   2.515   0.677
 5235SOL    HW216605   1.992   2.443   0.730
 5236SOL     OW16606   4.754   5.185   1.699
 5236SOL    HW116607   4.782   5.268   1.651
 5236SOL    HW216608   4.715   5.209   1.788
 5237SOL     OW16609   1.786   1.226   5.044
 5237SOL    HW116610   1.784   1.279   4.960
 5237SOL    HW216611   1.695   1.185   5.060
 5238SOL     OW16612   0.453   4.513   0.282
 5238SOL    HW116613   0.505   4.598   0.268
 5238SOL    HW216614   0.474   4.476   0.373
 5239SOL     OW16615   3.402   2.898   4.413
 5239SOL    HW116616   3.397   2.822   4.348
 5239SOL    HW216617   3.309   2.930   4.433
 5240SOL     OW16618   3.159   2.554   5.567
 5240SOL    HW116619   3.132   2.641   5.608
 5240SOL    HW216620   3.227   2.570   5.496
 5241SOL     OW16621   0.220   5.145   4.606
 5241SOL    HW116622   0.218   5.120   4.703
 5241SOL    HW216623   0.267   5.074   4.554
 5242SOL     OW16624   6.574   6.722   6.931
 5242SOL    HW116625   6.573   6.623   6.947
 5242SOL    HW216626   6.669   6.754   6.929
 5243SOL     OW16627   1.616   5.390   1.600
 5243SOL    HW116628   1.533   5.360   1.554
 5243SOL    HW216629   1.599   5.477   1.646
 5244SOL     OW16630   3.107   5.482   6.860
 5244SOL    HW116631   3.051   5.431   6.796
 5244SOL    HW216632   3.186   5.427   6.888
 5245SOL     OW16633   4.183   4.721   6.966
 5245SOL    HW116634   4.086   4.717   6.941
 5245SOL    HW216635   4.210   4.634   7.006
 5246SOL     OW16636   5.593   3.433   1.730
 5246SOL    HW116637   5.575   3.340   1.697
 5246SOL    HW216638   5.628   3.428   1.824
 5247SOL     OW16639   1.741   0.841   6.964
 5247SOL    HW116640   1.720   0.936   6.938
 5247SOL    HW216641   1.808   0.803   6.899
 5248SOL     OW16642   5.653   1.630   3.643
 5248SOL    HW116643   5.677   1.548   3.592
 5248SOL    HW216644   5.555   1.631   3.661
 5249SOL     OW16645   0.198   5.325   6.246
 5249SOL    HW116646   0.272   5.263   6.274
 5249SOL    HW216647   0.154   5.289   6.164
 5250SOL     OW16648   2.054   5.810   6.274
 5250SOL    HW116649   2.111   5.814   6.192
 5250SOL    HW216650   2.043   5.903   6.311
 5251SOL     OW16651   0.390   3.708   0.164
 5251SOL    HW116652   0.384   3.794   0.215
 5251SOL    HW216653   0.463   3.713   0.097
 5252SOL     OW16654   1.634   6.395   0.324
 5252SOL    HW116655   1.578   6.367   0.246
 5252SOL    HW216656   1.576   6.439   0.392
 5253SOL     OW16657   6.278   4.823   4.784
 5253SOL    HW116658   6.231   4.896   4.735
 5253SOL    HW216659   6.241   4.815   4.877
 5254SOL     OW16660   4.588   0.912   2.916
 5254SOL    HW116661   4.526   0.837   2.936
 5254SOL    HW216662   4.542   0.979   2.856
 5255SOL     OW16663   5.935   1.675   5.156
 5255SOL    HW116664   5.867   1.734   5.200
 5255SOL    HW216665   5.913   1.666   5.059
 5256SOL     OW16666   4.052   1.633   3.643
 5256SOL    HW116667   4.033   1.553   3.699
 5256SOL    HW216668   4.061   1.606   3.547
 5257SOL     OW16669   5.462   6.784   1.994
 5257SOL    HW116670   5.455   6.878   1.959
 5257SOL    HW216671   5.531   6.735   1.941
 5258SOL     OW16672   5.765   3.158   1.627
 5258SOL    HW116673   5.859   3.192   1.632
 5258SOL    HW216674   5.740   3.117   1.714
 5259SOL     OW16675   5.114   6.379   2.147
 5259SOL    HW116676   5.154   6.363   2.237
 5259SOL    HW216677   5.176   6.434   2.091
 5260SOL     OW16678   5.015   3.620   0.475
 5260SOL    HW116679   5.076   3.676   0.531
 5260SOL    HW216680   5.011   3.657   0.382
 5261SOL     OW16681   0.256   3.872   6.746
 5261SOL    HW116682   0.323   3.882   6.673
 5261SOL    HW216683   0.236   3.962   6.785
 5262SOL     OW16684   2.860   1.000   3.565
 5262SOL    HW116685   2.866   0.929   3.635
 5262SOL    HW216686   2.897   1.086   3.600
 5263SOL     OW16687   2.023   1.655   3.877
 5263SOL    HW116688   1.983   1.677   3.788
 5263SOL    HW216689   1.975   1.576   3.917
 5264SOL     OW16690   6.801   2.346   2.691
 5264SOL    HW116691   6.810   2.410   2.768
 5264SOL    HW216692   6.715   2.362   2.644
 5265SOL     OW16693   6.692   3.906   4.216
 5265SOL    HW116694   6.686   3.995   4.260
 5265SOL    HW216695   6.618   3.897   4.149
 5266SOL     OW16696   3.072   5.313   0.656
 5266SOL    HW116697   2.998   5.306   0.722
 5266SOL    HW216698   3.067   5.402   0.610
 5267SOL     OW16699   5.628   3.598   5.291
 5267SOL    HW116700   5.714   3.558   5.260
 5267SOL    HW216701   5.571   3.620   5.212
 5268SOL     OW16702   5.549   0.716   6.391
 5268SOL    HW116703   5.527   0.643   6.327
 5268SOL    HW216704   5.599   0.678   6.469
 5269SOL     OW16705   1.563   6.573   3.339
 5269SOL    HW116706   1.541   6.508   3.267
 5269SOL    HW216707   1.660   6.598   3.333
 5270SOL     OW16708   6.075   0.729   1.144
 5270SOL    HW116709   6.049   0.820   1.111
 5270SOL    HW216710   6.027   0.659   1.090
 5271SOL     OW16711   6.040   5.665   5.002
 5271SOL    HW116712   6.000   5.574   5.014
 5271SOL    HW216713   5.967   5.732   4.987
 5272SOL     OW16714   3.071   5.558   2.128
 5272SOL    HW116715   3.118   5.471   2.144
 5272SOL    HW216716   2.976   5.550   2.159
 5273SOL     OW16717   6.508   3.165   3.560
 5273SOL    HW116718   6.467   3.135   3.646
 5273SOL    HW216719   6.438   3.166   3.489
 5274SOL     OW16720   6.816   6.772   2.715
 5274SOL    HW116721   6.902   6.807   2.752
 5274SOL    HW216722   6.833   6.730   2.626
 5275SOL     OW16723   3.543   2.265   1.244
 5275SOL    HW116724   3.505   2.264   1.152
 5275SOL    HW216725   3.563   2.172   1.273
 5276SOL     OW16726   2.141   0.437   1.179
 5276SOL    HW116727   2.118   0.401   1.089
 5276SOL    HW216728   2.165   0.534   1.171
 5277SOL     OW16729   1.600   1.790   2.712
 5277SOL    HW116730   1.542   1.716   2.680
 5277SOL    HW216731   1.582   1.873   2.660
 5278SOL     OW16732   6.484   0.037   3.705
 5278SOL    HW116733   6.395   0.062   3.743
 5278SOL    HW216734   6.472   6.996   3.634
 5279SOL     OW16735   2.000   4.775   6.294
 5279SOL    HW116736   2.085   4.793   6.344
 5279SOL    HW216737   2.021   4.758   6.198
 5280SOL     OW16738   2.398   6.242   5.356
 5280SOL    HW116739   2.492   6.248   5.388
 5280SOL    HW216740   2.395   6.260   5.257
 5281SOL     OW16741   0.232   1.971   3.043
 5281SOL    HW116742   0.330   1.973   3.062
 5281SOL    HW216743   0.216   1.933   2.952
 5282SOL     OW16744   2.523   1.742   3.299
 5282SOL    HW116745   2.486   1.686   3.373
 5282SOL    HW216746   2.459   1.741   3.222
 5283SOL     OW16747   4.063   6.614   0.795
 5283SOL    HW116748   4.117   6.677   0.740
 5283SOL    HW216749   4.033   6.538   0.738
 5284SOL     OW16750   4.984   3.879   3.586
 5284SOL    HW116751   5.072   3.863   3.542
 5284SOL    HW216752   4.945   3.792   3.616
 5285SOL     OW16753   2.691   5.114   3.839
 5285SOL    HW116754   2.718   5.207   3.864
 5285SOL    HW216755   2.745   5.049   3.892
 5286SOL     OW16756   1.128   4.552   0.447
 5286SOL    HW116757   1.169   4.475   0.496
 5286SOL    HW216758   1.165   4.554   0.354
 5287SOL     OW16759   2.574   6.650   0.762
 5287SOL    HW116760   2.664   6.616   0.790
 5287SOL    HW216761   2.505   6.581   0.783
 5288SOL     OW16762   3.252   0.030   1.426
 5288SOL    HW116763   3.242   0.126   1.451
 5288SOL    HW216764   3.185   7.003   1.476
 5289SOL     OW16765   1.168   4.603   5.802
 5289SOL    HW116766   1.239   4.634   5.864
 5289SOL    HW216767   1.082   4.648   5.823
 5290SOL     OW16768   1.328   5.051   5.122
 5290SOL    HW116769   1.328   5.103   5.037
 5290SOL    HW216770   1.422   5.038   5.154
 5291SOL     OW16771   2.637   4.927   6.195
 5291SOL    HW116772   2.627   4.930   6.294
 5291SOL    HW216773   2.555   4.965   6.152
 5292SOL     OW16774   6.409   3.042   6.822
 5292SOL    HW116775   6.319   3.036   6.780
 5292SOL    HW216776   6.404   3.097   6.906
 5293SOL     OW16777   0.765   0.693   4.858
 5293SOL    HW116778   0.798   0.601   4.837
 5293SOL    HW216779   0.673   0.688   4.895
 5294SOL     OW16780   4.806   3.469   5.636
 5294SOL    HW116781   4.853   3.382   5.651
 5294SOL    HW216782   4.707   3.456   5.649
 5295SOL     OW16783   5.706   0.725   2.910
 5295SOL    HW116784   5.736   0.661   2.840
 5295SOL    HW216785   5.694   0.816   2.869
 5296SOL     OW16786   2.453   5.301   0.236
 5296SOL    HW116787   2.356   5.321   0.221
 5296SOL    HW216788   2.470   5.293   0.334
 5297SOL     OW16789   2.418   2.184   1.675
 5297SOL    HW116790   2.379   2.130   1.749
 5297SOL    HW216791   2.426   2.128   1.593
 5298SOL     OW16792   0.826   5.713   0.399
 5298SOL    HW116793   0.912   5.663   0.411
 5298SOL    HW216794   0.750   5.655   0.426
 5299SOL     OW16795   2.777   2.464   0.559
 5299SOL    HW116796   2.747   2.543   0.505
 5299SOL    HW216797   2.697   2.419   0.598
 5300SOL     OW16798   0.481   5.886   2.541
 5300SOL    HW116799   0.505   5.850   2.631
 5300SOL    HW216800   0.560   5.931   2.500
 5301SOL     OW16801   4.441   1.893   0.452
 5301SOL    HW116802   4.422   1.908   0.356
 5301SOL    HW216803   4.539   1.873   0.464
 5302SOL     OW16804   5.780   4.245   3.042
 5302SOL    HW116805   5.803   4.296   2.959
 5302SOL    HW216806   5.863   4.225   3.094
 5303SOL     OW16807   6.661   6.226   3.535
 5303SOL    HW116808   6.580   6.177   3.504
 5303SOL    HW216809   6.675   6.208   3.633
 5304SOL     OW16810   0.060   1.794   5.973
 5304SOL    HW116811   0.093   1.700   5.986
 5304SOL    HW216812   6.990   1.792   5.954
 5305SOL     OW16813   1.494   6.884   4.915
 5305SOL    HW116814   1.514   6.788   4.895
 5305SOL    HW216815   1.469   6.893   5.011
 5306SOL     OW16816   6.887   5.764   5.153
 5306SOL    HW116817   6.912   5.803   5.241
 5306SOL    HW216818   6.851   5.671   5.166
 5307SOL     OW16819   4.364   6.983   0.158
 5307SOL    HW116820   4.446   6.927   0.159
 5307SOL    HW216821   4.385   0.046   0.193
 5308SOL     OW16822   0.653   6.832   4.943
 5308SOL    HW116823   0.706   6.826   4.858
 5308SOL    HW216824   0.579   6.765   4.940
 5309SOL     OW16825   3.287   3.633   2.327
 5309SOL    HW116826   3.208   3.691   2.345
 5309SOL    HW216827   3.297   3.620   2.228
 5310SOL     OW16828   5.167   2.916   2.156
 5310SOL    HW116829   5.099   2.892   2.087
 5310SOL    HW216830   5.210   3.003   2.132
 5311SOL     OW16831   0.548   5.530   0.974
 5311SOL    HW116832   0.637   5.523   1.020
 5311SOL    HW216833   0.522   5.626   0.966
 5312SOL     OW16834   0.256   4.222   2.448
 5312SOL    HW116835   0.161   4.251   2.441
 5312SOL    HW216836   0.283   4.176   2.364
 5313SOL     OW16837   0.900   5.391   0.248
 5313SOL    HW116838   0.836   5.427   0.317
 5313SOL    HW216839   0.896   5.448   0.166
 5314SOL     OW16840   3.295   5.083   0.511
 5314SOL    HW116841   3.232   5.038   0.448
 5314SOL    HW216842   3.245   5.114   0.592
 5315SOL     OW16843   3.638   3.831   1.063
 5315SOL    HW116844   3.595   3.889   0.993
 5315SOL    HW216845   3.704   3.885   1.115
 5316SOL     OW16846   6.765   5.133   5.244
 5316SOL    HW116847   6.746   5.169   5.153
 5316SOL    HW216848   6.792   5.037   5.238
 5317SOL     OW16849   6.863   1.139   4.703
 5317SOL    HW116850   6.932   1.161   4.634
 5317SOL    HW216851   6.905   1.147   4.794
 5318SOL     OW16852   0.714   1.964   6.047
 5318SOL    HW116853   0.629   1.981   6.097
 5318SOL    HW216854   0.699   1.979   5.950
 5319SOL     OW16855   4.811   6.786   0.137
 5319SOL    HW116856   4.820   6.703   0.081
 5319SOL    HW216857   4.714   6.806   0.150
 5320SOL     OW16858   5.677   4.929   6.858
 5320SOL    HW116859   5.618   5.004   6.890
 5320SOL    HW216860   5.651   4.904   6.765
 5321SOL     OW16861   0.907   4.468   2.797
 5321SOL    HW116862   0.940   4.379   2.828
 5321SOL    HW216863   0.973   4.538   2.823
 5322SOL     OW16864   3.754   6.445   5.943
 5322SOL    HW116865   3.841   6.399   5.962
 5322SOL    HW216866   3.773   6.540   5.915
 5323SOL     OW16867   3.764   3.162   0.796
 5323SOL    HW116868   3.828   3.237   0.780
 5323SOL    HW216869   3.754   3.147   0.894
 5324SOL     OW16870   3.641   2.646   1.783
 5324SOL    HW116871   3.629   2.689   1.872
 5324SOL    HW216872   3.659   2.548   1.795
 5325SOL     OW16873   5.996   6.509   3.157
 5325SOL    HW116874   5.949   6.422   3.144
 5325SOL    HW216875   6.038   6.510   3.248
 5326SOL     OW16876   6.757   5.255   2.628
 5326SOL    HW116877   6.730   5.181   2.567
 5326SOL    HW216878   6.856   5.254   2.641
 5327SOL     OW16879   0.198   5.153   5.622
 5327SOL    HW116880   0.285   5.200   5.609
 5327SOL    HW216881   0.152   5.141   5.533
 5328SOL     OW16882   4.170   2.927   5.786
 5328SOL    HW116883   4.215   2.998   5.731
 5328SOL    HW216884   4.076   2.915   5.754
 5329SOL     OW16885   6.970   3.913   6.664
 5329SOL    HW116886   0.003   3.905   6.584
 5329SOL    HW216887   7.024   3.906   6.748
 5330SOL     OW16888   3.188   4.912   6.697
 5330SOL    HW116889   3.171   4.985   6.764
 5330SOL    HW216890   3.183   4.824   6.743
 5331SOL     OW16891   5.226   1.550   1.342
 5331SOL    HW116892   5.283   1.499   1.405
 5331SOL    HW216893   5.176   1.621   1.391
 5332SOL     OW16894   6.577   4.459   0.364
 5332SOL    HW116895   6.603   4.465   0.267
 5332SOL    HW216896   6.505   4.525   0.383
 5333SOL     OW16897   0.920   0.231   3.485
 5333SOL    HW116898   1.007   0.281   3.490
 5333SOL    HW216899   0.937   0.134   3.498
 5334SOL     OW16900   3.684   5.216   5.363
 5334SOL    HW116901   3.643   5.135   5.322
 5334SOL    HW216902   3.652   5.297   5.314
 5335SOL     OW16903   0.505   5.163   2.221
 5335SOL    HW116904   0.506   5.243   2.282
 5335SOL    HW216905   0.594   5.117   2.225
 5336SOL     OW16906   1.877   2.140   3.580
 5336SOL    HW116907   1.904   2.215   3.640
 5336SOL    HW216908   1.871   2.056   3.633
 5337SOL     OW16909   5.896   4.572   1.607
 5337SOL    HW116910   5.931   4.482   1.632
 5337SOL    HW216911   5.865   4.571   1.511
 5338SOL     OW16912   5.285   1.027   6.169
 5338SOL    HW116913   5.224   0.949   6.185
 5338SOL    HW216914   5.298   1.039   6.071
 5339SOL     OW16915   5.603   1.108   3.238
 5339SOL    HW116916   5.602   1.154   3.149
 5339SOL    HW216917   5.646   1.018   3.229
 5340SOL     OW16918   5.831   4.038   0.829
 5340SOL    HW116919   5.760   4.065   0.894
 5340SOL    HW216920   5.875   3.954   0.861
 5341SOL     OW16921   2.902   5.142   5.189
 5341SOL    HW116922   2.919   5.064   5.130
 5341SOL    HW216923   2.924   5.118   5.283
 5342SOL     OW16924   5.439   6.359   4.707
 5342SOL    HW116925   5.359   6.404   4.746
 5342SOL    HW216926   5.504   6.337   4.779
 5343SOL     OW16927   3.785   3.491   4.387
 5343SOL    HW116928   3.766   3.505   4.290
 5343SOL    HW216929   3.768   3.577   4.436
 5344SOL     OW16930   0.522   1.693   0.337
 5344SOL    HW116931   0.462   1.629   0.384
 5344SOL    HW216932   0.576   1.645   0.269
 5345SOL     OW16933   4.873   0.789   6.989
 5345SOL    HW116934   4.971   0.798   6.974
 5345SOL    HW216935   4.855   0.780   0.059
 5346SOL     OW16936   2.965   5.392   4.526
 5346SOL    HW116937   2.936   5.361   4.617
 5346SOL    HW216938   3.019   5.321   4.482
 5347SOL     OW16939   6.560   3.819   3.317
 5347SOL    HW116940   6.654   3.855   3.316
 5347SOL    HW216941   6.495   3.895   3.317
 5348SOL     OW16942   0.340   1.208   6.262
 5348SOL    HW116943   0.288   1.126   6.288
 5348SOL    HW216944   0.369   1.256   6.345
 5349SOL     OW16945   2.534   3.079   1.327
 5349SOL    HW116946   2.578   3.127   1.403
 5349SOL    HW216947   2.555   3.127   1.241
 5350SOL     OW16948   2.770   6.783   5.395
 5350SOL    HW116949   2.699   6.713   5.398
 5350SOL    HW216950   2.728   6.873   5.408
 5351SOL     OW16951   0.519   5.513   2.023
 5351SOL    HW116952   0.607   5.515   2.071
 5351SOL    HW216953   0.514   5.431   1.966
 5352SOL     OW16954   2.458   4.819   3.150
 5352SOL    HW116955   2.474   4.787   3.244
 5352SOL    HW216956   2.473   4.917   3.145
 5353SOL     OW16957   3.778   5.718   4.090
 5353SOL    HW116958   3.722   5.764   4.020
 5353SOL    HW216959   3.864   5.687   4.048
 5354SOL     OW16960   1.970   5.071   0.661
 5354SOL    HW116961   2.054   5.023   0.634
 5354SOL    HW216962   1.977   5.098   0.757
 5355SOL     OW16963   6.134   5.065   4.257
 5355SOL    HW116964   6.216   5.017   4.289
 5355SOL    HW216965   6.126   5.153   4.304
 5356SOL     OW16966   6.653   3.833   2.349
 5356SOL    HW116967   6.744   3.820   2.310
 5356SOL    HW216968   6.585   3.831   2.276
 5357SOL     OW16969   4.228   4.684   0.664
 5357SOL    HW116970   4.229   4.643   0.573
 5357SOL    HW216971   4.279   4.626   0.728
 5358SOL     OW16972   4.667   2.300   1.161
 5358SOL    HW116973   4.662   2.200   1.160
 5358SOL    HW216974   4.749   2.329   1.211
 5359SOL     OW16975   2.658   1.866   6.278
 5359SOL    HW116976   2.666   1.951   6.331
 5359SOL    HW216977   2.562   1.846   6.260
 5360SOL     OW16978   5.084   6.187   3.763
 5360SOL    HW116979   5.035   6.258   3.813
 5360SOL    HW216980   5.162   6.228   3.715
 5361SOL     OW16981   2.285   6.710   4.400
 5361SOL    HW116982   2.225   6.680   4.326
 5361SOL    HW216983   2.365   6.755   4.361
 5362SOL     OW16984   6.448   5.597   2.485
 5362SOL    HW116985   6.425   5.579   2.581
 5362SOL    HW216986   6.520   5.534   2.456
 5363SOL     OW16987   5.433   6.362   5.867
 5363SOL    HW116988   5.495   6.307   5.810
 5363SOL    HW216989   5.350   6.382   5.815
 5364SOL     OW16990   6.064   6.993   1.740
 5364SOL    HW116991   6.121   0.044   1.718
 5364SOL    HW216992   6.120   6.910   1.745
 5365SOL     OW16993   3.215   3.003   2.169
 5365SOL    HW116994   3.306   2.987   2.208
 5365SOL    HW216995   3.216   2.984   2.071
 5366SOL     OW16996   0.111   6.785   2.466
 5366SOL    HW116997   0.125   6.797   2.564
 5366SOL    HW216998   0.197   6.802   2.417
 5367SOL     OW16999   0.073   6.774   1.209
 5367SOL    HW117000   0.082   6.872   1.192
 5367SOL    HW217001   7.010   6.755   1.246
 5368SOL     OW17002   6.478   6.740   2.542
 5368SOL    HW117003   6.422   6.713   2.463
 5368SOL    HW217004   6.518   6.829   2.525
 5369SOL     OW17005   2.975   6.286   1.101
 5369SOL    HW117006   3.068   6.255   1.084
 5369SOL    HW217007   2.933   6.230   1.173
 5370SOL     OW17008   4.089   3.788   1.147
 5370SOL    HW117009   4.182   3.796   1.180
 5370SOL    HW217010   4.085   3.720   1.074
 5371SOL     OW17011   6.854   4.836   5.282
 5371SOL    HW117012   6.805   4.845   5.369
 5371SOL    HW217013   6.867   4.739   5.261
 5372SOL     OW17014   1.137   5.968   2.669
 5372SOL    HW117015   1.111   5.929   2.757
 5372SOL    HW217016   1.115   6.066   2.669
 5373SOL     OW17017   4.388   6.639   5.383
 5373SOL    HW117018   4.389   6.677   5.476
 5373SOL    HW217019   4.446   6.558   5.380
 5374SOL     OW17020   2.007   4.307   0.530
 5374SOL    HW117021   2.038   4.218   0.563
 5374SOL    HW217022   1.992   4.302   0.431
 5375SOL     OW17023   0.460   5.728   5.791
 5375SOL    HW117024   0.388   5.699   5.729
 5375SOL    HW217025   0.500   5.649   5.837
 5376SOL     OW17026   1.304   2.266   1.423
 5376SOL    HW117027   1.389   2.252   1.371
 5376SOL    HW217028   1.243   2.325   1.370
 5377SOL     OW17029   1.235   0.447   2.783
 5377SOL    HW117030   1.285   0.392   2.849
 5377SOL    HW217031   1.260   0.543   2.793
 5378SOL     OW17032   6.837   0.148   2.326
 5378SOL    HW117033   6.838   0.054   2.291
 5378SOL    HW217034   6.797   0.148   2.418
 5379SOL     OW17035   1.235   3.488   4.923
 5379SOL    HW117036   1.164   3.418   4.916
 5379SOL    HW217037   1.245   3.515   5.019
 5380SOL     OW17038   2.529   6.962   1.276
 5380SOL    HW117039   2.494   0.026   1.292
 5380SOL    HW217040   2.455   6.903   1.244
 5381SOL     OW17041   6.686   6.085   2.167
 5381SOL    HW117042   6.740   6.135   2.235
 5381SOL    HW217043   6.747   6.027   2.113
 5382SOL     OW17044   2.795   2.315   2.657
 5382SOL    HW117045   2.739   2.347   2.581
 5382SOL    HW217046   2.762   2.355   2.742
 5383SOL     OW17047   1.127   2.513   4.577
 5383SOL    HW117048   1.032   2.543   4.576
 5383SOL    HW217049   1.188   2.592   4.573
 5384SOL     OW17050   4.519   5.711   4.795
 5384SOL    HW117051   4.583   5.775   4.751
 5384SOL    HW217052   4.452   5.762   4.849
 5385SOL     OW17053   5.197   2.854   5.298
 5385SOL    HW117054   5.290   2.870   5.333
 5385SOL    HW217055   5.165   2.937   5.252
 5386SOL     OW17056   5.942   1.158   4.257
 5386SOL    HW117057   5.941   1.215   4.175
 5386SOL    HW217058   5.849   1.145   4.291
 5387SOL     OW17059   2.454   6.346   3.254
 5387SOL    HW117060   2.479   6.293   3.335
 5387SOL    HW217061   2.378   6.408   3.277
 5388SOL     OW17062   1.268   6.729   2.668
 5388SOL    HW117063   1.366   6.749   2.667
 5388SOL    HW217064   1.222   6.795   2.727
 5389SOL     OW17065   3.902   1.854   4.687
 5389SOL    HW117066   3.843   1.782   4.649
 5389SOL    HW217067   3.846   1.933   4.711
 5390SOL     OW17068   5.411   4.483   3.548
 5390SOL    HW117069   5.476   4.406   3.553
 5390SOL    HW217070   5.449   4.554   3.489
 5391SOL     OW17071   2.562   1.800   6.888
 5391SOL    HW117072   2.579   1.704   6.913
 5391SOL    HW217073   2.560   1.809   6.789
 5392SOL     OW17074   5.644   4.109   1.033
 5392SOL    HW117075   5.670   4.048   1.108
 5392SOL    HW217076   5.571   4.067   0.979
 5393SOL     OW17077   5.045   0.851   5.024
 5393SOL    HW117078   5.129   0.880   4.978
 5393SOL    HW217079   5.038   0.895   5.114
 5394SOL     OW17080   0.987   5.732   1.083
 5394SOL    HW117081   1.074   5.695   1.114
 5394SOL    HW217082   0.988   5.740   0.983
 5395SOL     OW17083   5.267   0.738   1.595
 5395SOL    HW117084   5.310   0.805   1.535
 5395SOL    HW217085   5.278   0.647   1.556
 5396SOL     OW17086   5.526   5.248   1.747
 5396SOL    HW117087   5.594   5.229   1.818
 5396SOL    HW217088   5.435   5.255   1.787
 5397SOL     OW17089   0.354   2.159   2.097
 5397SOL    HW117090   0.328   2.155   2.193
 5397SOL    HW217091   0.436   2.215   2.086
 5398SOL     OW17092   2.566   2.079   3.613
 5398SOL    HW117093   2.592   2.021   3.690
 5398SOL    HW217094   2.553   2.173   3.646
 5399SOL     OW17095   2.828   0.001   6.500
 5399SOL    HW117096   2.831   7.026   6.600
 5399SOL    HW217097   2.837   6.937   6.464
 5400SOL     OW17098   2.915   3.434   0.411
 5400SOL    HW117099   2.830   3.392   0.380
 5400SOL    HW217100   2.949   3.384   0.491
 5401SOL     OW17101   5.547   4.065   2.297
 5401SOL    HW117102   5.587   3.990   2.245
 5401SOL    HW217103   5.595   4.150   2.275
 5402SOL     OW17104   2.393   6.997   0.982
 5402SOL    HW117105   2.327   0.037   0.950
 5402SOL    HW217106   2.354   6.905   0.974
 5403SOL     OW17107   5.253   3.516   6.158
 5403SOL    HW117108   5.170   3.469   6.130
 5403SOL    HW217109   5.231   3.585   6.226
 5404SOL     OW17110   0.784   6.864   1.507
 5404SOL    HW117111   0.796   6.806   1.588
 5404SOL    HW217112   0.686   6.880   1.492
 5405SOL     OW17113   6.164   4.782   0.181
 5405SOL    HW117114   6.209   4.729   0.253
 5405SOL    HW217115   6.233   4.815   0.116
 5406SOL     OW17116   2.252   1.036   4.961
 5406SOL    HW117117   2.225   1.021   5.056
 5406SOL    HW217118   2.333   1.095   4.958
 5407SOL     OW17119   3.437   1.639   1.118
 5407SOL    HW117120   3.365   1.599   1.060
 5407SOL    HW217121   3.425   1.606   1.212
 5408SOL     OW17122   4.096   1.039   5.127
 5408SOL    HW117123   4.111   1.136   5.144
 5408SOL    HW217124   4.049   1.027   5.039
 5409SOL     OW17125   6.238   1.042   2.393
 5409SOL    HW117126   6.278   1.064   2.482
 5409SOL    HW217127   6.140   1.028   2.402
 5410SOL     OW17128   1.022   2.443   6.715
 5410SOL    HW117129   1.056   2.421   6.806
 5410SOL    HW217130   1.039   2.540   6.695
 5411SOL     OW17131   4.720   4.902   6.416
 5411SOL    HW117132   4.810   4.922   6.455
 5411SOL    HW217133   4.701   4.966   6.341
 5412SOL     OW17134   2.643   1.114   6.398
 5412SOL    HW117135   2.597   1.031   6.430
 5412SOL    HW217136   2.586   1.193   6.421
 5413SOL     OW17137   0.483   6.949   6.810
 5413SOL    HW117138   0.419   6.985   6.878
 5413SOL    HW217139   0.441   6.950   6.720
 5414SOL     OW17140   6.233   4.628   5.097
 5414SOL    HW117141   6.303   4.694   5.124
 5414SOL    HW217142   6.271   4.564   5.031
 5415SOL     OW17143   2.697   6.237   0.850
 5415SOL    HW117144   2.772   6.170   0.847
 5415SOL    HW217145   2.644   6.231   0.765
 5416SOL     OW17146   2.541   4.682   5.110
 5416SOL    HW117147   2.467   4.617   5.091
 5416SOL    HW217148   2.624   4.651   5.064
 5417SOL     OW17149   3.620   0.172   5.180
 5417SOL    HW117150   3.663   0.203   5.096
 5417SOL    HW217151   3.558   0.242   5.215
 5418SOL     OW17152   5.376   5.747   5.214
 5418SOL    HW117153   5.476   5.744   5.219
 5418SOL    HW217154   5.338   5.762   5.305
 5419SOL     OW17155   3.839   5.862   0.672
 5419SOL    HW117156   3.889   5.781   0.641
 5419SOL    HW217157   3.827   5.925   0.595
 5420SOL     OW17158   1.947   2.260   1.046
 5420SOL    HW117159   2.020   2.326   1.033
 5420SOL    HW217160   1.945   2.197   0.968
 5421SOL     OW17161   3.317   5.150   1.234
 5421SOL    HW117162   3.285   5.072   1.288
 5421SOL    HW217163   3.378   5.118   1.162
 5422SOL     OW17164   1.350   5.182   4.878
 5422SOL    HW117165   1.397   5.251   4.823
 5422SOL    HW217166   1.298   5.121   4.819
 5423SOL     OW17167   5.466   5.005   0.567
 5423SOL    HW117168   5.392   4.964   0.619
 5423SOL    HW217169   5.553   4.986   0.612
 5424SOL     OW17170   5.281   4.003   4.417
 5424SOL    HW117171   5.230   4.024   4.333
 5424SOL    HW217172   5.379   4.008   4.398
 5425SOL     OW17173   6.347   2.539   4.419
 5425SOL    HW117174   6.309   2.473   4.355
 5425SOL    HW217175   6.357   2.628   4.375
 5426SOL     OW17176   4.925   5.713   2.092
 5426SOL    HW117177   4.875   5.681   2.012
 5426SOL    HW217178   5.023   5.694   2.079
 5427SOL     OW17179   5.409   2.943   0.278
 5427SOL    HW117180   5.384   2.854   0.317
 5427SOL    HW217181   5.352   2.961   0.198
 5428SOL     OW17182   5.273   6.586   2.022
 5428SOL    HW117183   5.341   6.660   2.021
 5428SOL    HW217184   5.195   6.612   1.966
 5429SOL     OW17185   1.855   0.202   5.188
 5429SOL    HW117186   1.771   0.192   5.241
 5429SOL    HW217187   1.930   0.228   5.248
 5430SOL     OW17188   1.892   3.051   4.656
 5430SOL    HW117189   1.810   3.052   4.713
 5430SOL    HW217190   1.964   3.104   4.701
 5431SOL     OW17191   3.280   3.878   6.519
 5431SOL    HW117192   3.299   3.781   6.530
 5431SOL    HW217193   3.314   3.928   6.598
 5432SOL     OW17194   4.214   5.405   6.440
 5432SOL    HW117195   4.269   5.487   6.456
 5432SOL    HW217196   4.230   5.338   6.513
 5433SOL     OW17197   0.831   0.054   1.301
 5433SOL    HW117198   0.810   0.011   1.388
 5433SOL    HW217199   0.855   7.012   1.234
 5434SOL     OW17200   4.216   1.260   4.920
 5434SOL    HW117201   4.118   1.262   4.900
 5434SOL    HW217202   4.253   1.170   4.895
 5435SOL     OW17203   6.364   3.805   0.606
 5435SOL    HW117204   6.318   3.876   0.659
 5435SOL    HW217205   6.419   3.847   0.534
 5436SOL     OW17206   6.529   4.202   4.062
 5436SOL    HW117207   6.476   4.174   4.142
 5436SOL    HW217208   6.551   4.122   4.006
 5437SOL     OW17209   3.077   5.119   5.399
 5437SOL    HW117210   3.108   5.191   5.462
 5437SOL    HW217211   3.112   5.139   5.307
 5438SOL     OW17212   5.327   4.538   1.908
 5438SOL    HW117213   5.268   4.619   1.908
 5438SOL    HW217214   5.359   4.521   1.815
 5439SOL     OW17215   0.301   3.628   6.876
 5439SOL    HW117216   0.290   3.628   6.975
 5439SOL    HW217217   0.274   3.717   6.840
 5440SOL     OW17218   6.600   6.697   3.978
 5440SOL    HW117219   6.578   6.732   4.069
 5440SOL    HW217220   6.612   6.598   3.983
 5441SOL     OW17221   5.129   3.544   3.384
 5441SOL    HW117222   5.124   3.521   3.481
 5441SOL    HW217223   5.183   3.475   3.336
 5442SOL     OW17224   4.173   0.022   3.944
 5442SOL    HW117225   4.178   0.033   3.845
 5442SOL    HW217226   4.230   0.091   3.989
 5443SOL     OW17227   4.896   5.843   3.951
 5443SOL    HW117228   4.855   5.819   4.039
 5443SOL    HW217229   4.965   5.914   3.965
 5444SOL     OW17230   0.212   0.934   3.841
 5444SOL    HW117231   0.167   0.996   3.777
 5444SOL    HW217232   0.178   0.841   3.828
 5445SOL     OW17233   5.887   4.483   3.620
 5445SOL    HW117234   5.851   4.476   3.526
 5445SOL    HW217235   5.986   4.494   3.616
 5446SOL     OW17236   5.953   5.143   4.535
 5446SOL    HW117237   5.886   5.117   4.465
 5446SOL    HW217238   5.925   5.228   4.578
 5447SOL     OW17239   1.706   1.389   0.895
 5447SOL    HW117240   1.622   1.443   0.903
 5447SOL    HW217241   1.727   1.374   0.798
 5448SOL     OW17242   4.383   4.907   4.096
 5448SOL    HW117243   4.410   5.000   4.120
 5448SOL    HW217244   4.462   4.846   4.105
 5449SOL     OW17245   1.845   1.104   0.944
 5449SOL    HW117246   1.901   1.185   0.957
 5449SOL    HW217247   1.882   1.049   0.869
 5450SOL     OW17248   3.295   6.906   1.067
 5450SOL    HW117249   3.327   6.969   0.997
 5450SOL    HW217250   3.231   6.840   1.027
 5451SOL     OW17251   1.863   5.667   3.609
 5451SOL    HW117252   1.932   5.697   3.674
 5451SOL    HW217253   1.829   5.746   3.558
 5452SOL     OW17254   2.504   4.494   1.122
 5452SOL    HW117255   2.499   4.527   1.027
 5452SOL    HW217256   2.464   4.562   1.183
 5453SOL     OW17257   5.264   3.690   2.166
 5453SOL    HW117258   5.217   3.755   2.226
 5453SOL    HW217259   5.236   3.597   2.189
 5454SOL     OW17260   5.563   5.863   1.134
 5454SOL    HW117261   5.501   5.878   1.057
 5454SOL    HW217262   5.529   5.787   1.189
 5455SOL     OW17263   0.308   2.001   3.589
 5455SOL    HW117264   0.277   1.977   3.680
 5455SOL    HW217265   0.321   2.100   3.584
 5456SOL     OW17266   3.324   1.678   6.549
 5456SOL    HW117267   3.302   1.638   6.459
 5456SOL    HW217268   3.348   1.774   6.537
 5457SOL     OW17269   6.829   2.176   1.243
 5457SOL    HW117270   6.782   2.093   1.215
 5457SOL    HW217271   6.926   2.157   1.258
 5458SOL     OW17272   6.824   4.963   0.829
 5458SOL    HW117273   6.809   5.026   0.905
 5458SOL    HW217274   6.768   4.881   0.843
 5459SOL     OW17275   1.991   4.874   5.232
 5459SOL    HW117276   2.011   4.776   5.221
 5459SOL    HW217277   2.077   4.926   5.227
 5460SOL     OW17278   2.808   0.137   2.438
 5460SOL    HW117279   2.815   0.235   2.457
 5460SOL    HW217280   2.848   0.086   2.514
 5461SOL     OW17281   0.908   0.966   4.488
 5461SOL    HW117282   0.942   0.935   4.577
 5461SOL    HW217283   0.936   0.901   4.418
 5462SOL     OW17284   5.485   6.017   6.447
 5462SOL    HW117285   5.440   5.989   6.531
 5462SOL    HW217286   5.547   5.944   6.416
 5463SOL     OW17287   0.152   1.979   0.375
 5463SOL    HW117288   0.136   1.914   0.450
 5463SOL    HW217289   0.243   1.962   0.336
 5464SOL     OW17290   6.126   5.900   4.841
 5464SOL    HW117291   6.035   5.863   4.860
 5464SOL    HW217292   6.193   5.850   4.896
 5465SOL     OW17293   6.303   0.468   3.142
 5465SOL    HW117294   6.315   0.370   3.123
 5465SOL    HW217295   6.335   0.521   3.064
 5466SOL     OW17296   5.519   2.785   5.876
 5466SOL    HW117297   5.473   2.836   5.949
 5466SOL    HW217298   5.571   2.709   5.917
 5467SOL     OW17299   5.852   3.761   3.365
 5467SOL    HW117300   5.917   3.811   3.309
 5467SOL    HW217301   5.840   3.669   3.329
 5468SOL     OW17302   0.052   2.257   4.296
 5468SOL    HW117303   6.998   2.268   4.352
 5468SOL    HW217304   0.034   2.291   4.204
 5469SOL     OW17305   3.189   5.741   5.609
 5469SOL    HW117306   3.272   5.753   5.555
 5469SOL    HW217307   3.109   5.755   5.552
 5470SOL     OW17308   3.762   5.203   4.010
 5470SOL    HW117309   3.732   5.264   3.937
 5470SOL    HW217310   3.861   5.192   4.005
 5471SOL     OW17311   6.050   0.243   2.401
 5471SOL    HW117312   6.119   0.296   2.352
 5471SOL    HW217313   6.094   0.188   2.472
 5472SOL     OW17314   3.053   3.588   6.782
 5472SOL    HW117315   3.110   3.551   6.855
 5472SOL    HW217316   3.096   3.670   6.744
 5473SOL     OW17317   1.255   3.565   0.382
 5473SOL    HW117318   1.286   3.496   0.447
 5473SOL    HW217319   1.252   3.654   0.426
 5474SOL     OW17320   0.577   5.289   4.578
 5474SOL    HW117321   0.600   5.380   4.613
 5474SOL    HW217322   0.485   5.291   4.540
 5475SOL     OW17323   1.792   2.142   0.346
 5475SOL    HW117324   1.723   2.101   0.286
 5475SOL    HW217325   1.759   2.230   0.380
 5476SOL     OW17326   2.013   4.381   4.857
 5476SOL    HW117327   2.107   4.404   4.880
 5476SOL    HW217328   1.996   4.284   4.875
 5477SOL     OW17329   2.066   4.001   3.036
 5477SOL    HW117330   2.075   3.902   3.036
 5477SOL    HW217331   2.098   4.038   3.123
 5478SOL     OW17332   4.767   6.691   5.492
 5478SOL    HW117333   4.808   6.721   5.406
 5478SOL    HW217334   4.753   6.592   5.490
 5479SOL     OW17335   4.912   1.957   5.013
 5479SOL    HW117336   4.888   1.944   4.917
 5479SOL    HW217337   4.968   2.039   5.022
 5480SOL     OW17338   5.334   5.283   4.922
 5480SOL    HW117339   5.316   5.208   4.858
 5480SOL    HW217340   5.361   5.365   4.872
 5481SOL     OW17341   4.669   1.676   4.656
 5481SOL    HW117342   4.720   1.656   4.740
 5481SOL    HW217343   4.724   1.732   4.595
 5482SOL     OW17344   3.620   3.615   2.000
 5482SOL    HW117345   3.541   3.672   2.020
 5482SOL    HW217346   3.672   3.598   2.083
 5483SOL     OW17347   0.573   2.314   5.006
 5483SOL    HW117348   0.519   2.308   5.091
 5483SOL    HW217349   0.523   2.369   4.939
 5484SOL     OW17350   5.165   0.494   4.307
 5484SOL    HW117351   5.132   0.471   4.398
 5484SOL    HW217352   5.170   0.593   4.297
 5485SOL     OW17353   3.087   6.883   5.059
 5485SOL    HW117354   3.038   6.953   5.111
 5485SOL    HW217355   3.164   6.925   5.011
 5486SOL     OW17356   1.674   5.564   4.628
 5486SOL    HW117357   1.751   5.627   4.617
 5486SOL    HW217358   1.600   5.610   4.678
 5487SOL     OW17359   5.007   2.996   6.823
 5487SOL    HW117360   4.946   3.019   6.748
 5487SOL    HW217361   5.028   2.898   6.819
 5488SOL     OW17362   5.230   1.022   0.696
 5488SOL    HW117363   5.220   1.002   0.793
 5488SOL    HW217364   5.256   1.118   0.684
 5489SOL     OW17365   1.163   5.490   0.757
 5489SOL    HW117366   1.183   5.409   0.812
 5489SOL    HW217367   1.064   5.504   0.753
 5490SOL     OW17368   3.628   0.250   0.675
 5490SOL    HW117369   3.634   0.300   0.761
 5490SOL    HW217370   3.537   0.209   0.666
 5491SOL     OW17371   1.852   4.289   6.735
 5491SOL    HW117372   1.925   4.233   6.694
 5491SOL    HW217373   1.889   4.377   6.764
 5492SOL     OW17374   0.832   2.063   6.411
 5492SOL    HW117375   0.912   2.018   6.372
 5492SOL    HW217376   0.844   2.163   6.406
 5493SOL     OW17377   4.107   3.633   3.821
 5493SOL    HW117378   4.202   3.661   3.812
 5493SOL    HW217379   4.065   3.626   3.730
 5494SOL     OW17380   6.924   2.774   6.656
 5494SOL    HW117381   6.951   2.826   6.737
 5494SOL    HW217382   6.890   2.684   6.684
 5495SOL     OW17383   3.683   2.332   1.576
 5495SOL    HW117384   3.600   2.339   1.520
 5495SOL    HW217385   3.663   2.363   1.669
 5496SOL     OW17386   2.407   0.571   3.505
 5496SOL    HW117387   2.465   0.540   3.580
 5496SOL    HW217388   2.339   0.501   3.484
 5497SOL     OW17389   0.341   2.092   3.904
 5497SOL    HW117390   0.417   2.083   3.840
 5497SOL    HW217391   0.375   2.082   3.998
 5498SOL     OW17392   5.246   6.580   1.380
 5498SOL    HW117393   5.291   6.498   1.345
 5498SOL    HW217394   5.241   6.574   1.480
 5499SOL     OW17395   6.871   1.259   3.697
 5499SOL    HW117396   6.800   1.259   3.767
 5499SOL    HW217397   6.917   1.348   3.695
 5500SOL     OW17398   1.625   7.016   0.609
 5500SOL    HW117399   1.664   6.943   0.554
 5500SOL    HW217400   1.588   0.059   0.549
 5501SOL     OW17401   4.193   6.809   0.587
 5501SOL    HW117402   4.173   6.795   0.491
 5501SOL    HW217403   4.140   6.887   0.621
 5502SOL     OW17404   5.800   3.695   6.859
 5502SOL    HW117405   5.810   3.596   6.868
 5502SOL    HW217406   5.731   3.728   6.923
 5503SOL     OW17407   6.576   5.339   3.046
 5503SOL    HW117408   6.609   5.343   2.952
 5503SOL    HW217409   6.511   5.414   3.062
 5504SOL     OW17410   4.292   1.514   4.814
 5504SOL    HW117411   4.273   1.418   4.835
 5504SOL    HW217412   4.293   1.528   4.715
 5505SOL     OW17413   1.837   5.780   4.572
 5505SOL    HW117414   1.802   5.838   4.498
 5505SOL    HW217415   1.874   5.837   4.645
 5506SOL     OW17416   1.038   1.488   6.278
 5506SOL    HW117417   1.039   1.515   6.375
 5506SOL    HW217418   1.124   1.515   6.235
 5507SOL     OW17419   2.590   0.093   3.891
 5507SOL    HW117420   2.601   7.021   3.889
 5507SOL    HW217421   2.539   0.118   3.974
 5508SOL     OW17422   2.263   0.745   6.459
 5508SOL    HW117423   2.182   0.775   6.509
 5508SOL    HW217424   2.239   0.669   6.399
 5509SOL     OW17425   0.401   6.437   0.620
 5509SOL    HW117426   0.422   6.389   0.535
 5509SOL    HW217427   0.465   6.514   0.630
 5510SOL     OW17428   4.751   6.092   0.798
 5510SOL    HW117429   4.717   6.180   0.766
 5510SOL    HW217430   4.850   6.098   0.813
 5511SOL     OW17431   2.477   0.522   4.445
 5511SOL    HW117432   2.447   0.559   4.533
 5511SOL    HW217433   2.397   0.489   4.394
 5512SOL     OW17434   5.865   2.085   1.954
 5512SOL    HW117435   5.963   2.105   1.964
 5512SOL    HW217436   5.819   2.165   1.915
 5513SOL     OW17437   4.241   4.743   6.431
 5513SOL    HW117438   4.148   4.781   6.426
 5513SOL    HW217439   4.305   4.815   6.458
 5514SOL     OW17440   4.654   6.498   3.079
 5514SOL    HW117441   4.687   6.558   3.006
 5514SOL    HW217442   4.563   6.526   3.108
 5515SOL     OW17443   0.178   4.581   1.602
 5515SOL    HW117444   0.255   4.572   1.540
 5515SOL    HW217445   0.203   4.545   1.692
 5516SOL     OW17446   1.252   3.623   6.196
 5516SOL    HW117447   1.227   3.697   6.258
 5516SOL    HW217448   1.192   3.545   6.211
 5517SOL     OW17449   2.099   3.300   2.212
 5517SOL    HW117450   2.155   3.345   2.142
 5517SOL    HW217451   2.080   3.365   2.285
 5518SOL     OW17452   5.879   6.935   6.659
 5518SOL    HW117453   5.891   6.837   6.644
 5518SOL    HW217454   5.782   6.958   6.651
 5519SOL     OW17455   5.224   3.174   3.039
 5519SOL    HW117456   5.192   3.088   2.999
 5519SOL    HW217457   5.205   3.249   2.976
 5520SOL     OW17458   6.678   6.023   1.875
 5520SOL    HW117459   6.711   5.970   1.798
 5520SOL    HW217460   6.585   5.994   1.899
 5521SOL     OW17461   4.776   6.819   1.461
 5521SOL    HW117462   4.846   6.888   1.475
 5521SOL    HW217463   4.687   6.863   1.453
 5522SOL     OW17464   6.615   5.200   1.192
 5522SOL    HW117465   6.532   5.147   1.176
 5522SOL    HW217466   6.680   5.184   1.117
 5523SOL     OW17467   4.004   0.151   2.140
 5523SOL    HW117468   4.011   0.200   2.227
 5523SOL    HW217469   3.967   0.212   2.070
 5524SOL     OW17470   5.303   5.079   5.086
 5524SOL    HW117471   5.320   5.136   5.006
 5524SOL    HW217472   5.214   5.034   5.076
 5525SOL     OW17473   0.165   2.896   0.220
 5525SOL    HW117474   0.248   2.846   0.193
 5525SOL    HW217475   0.159   2.899   0.319
 5526SOL     OW17476   4.898   4.678   4.361
 5526SOL    HW117477   4.890   4.773   4.392
 5526SOL    HW217478   4.894   4.617   4.440
 5527SOL     OW17479   6.506   3.641   4.598
 5527SOL    HW117480   6.458   3.637   4.686
 5527SOL    HW217481   6.439   3.646   4.524
 5528SOL     OW17482   1.414   1.835   6.727
 5528SOL    HW117483   1.414   1.927   6.766
 5528SOL    HW217484   1.381   1.839   6.633
 5529SOL     OW17485   2.147   0.208   3.886
 5529SOL    HW117486   2.156   0.287   3.826
 5529SOL    HW217487   2.051   0.198   3.912
 5530SOL     OW17488   6.568   2.081   2.318
 5530SOL    HW117489   6.577   1.984   2.294
 5530SOL    HW217490   6.518   2.089   2.404
 5531SOL     OW17491   3.945   2.999   2.322
 5531SOL    HW117492   3.965   2.902   2.312
 5531SOL    HW217493   3.880   3.012   2.398
 5532SOL     OW17494   1.476   2.604   0.513
 5532SOL    HW117495   1.491   2.686   0.457
 5532SOL    HW217496   1.464   2.631   0.609
 5533SOL     OW17497   3.418   0.994   3.188
 5533SOL    HW117498   3.324   0.960   3.195
 5533SOL    HW217499   3.470   0.965   3.268
 5534SOL     OW17500   1.199   1.935   6.008
 5534SOL    HW117501   1.270   1.956   5.941
 5534SOL    HW217502   1.117   1.902   5.961
 5535SOL     OW17503   0.503   3.443   3.659
 5535SOL    HW117504   0.580   3.463   3.598
 5535SOL    HW217505   0.531   3.372   3.724
 5536SOL     OW17506   2.594   0.969   4.135
 5536SOL    HW117507   2.688   0.947   4.108
 5536SOL    HW217508   2.563   0.903   4.204
 5537SOL     OW17509   2.871   0.551   3.142
 5537SOL    HW117510   2.877   0.651   3.153
 5537SOL    HW217511   2.854   0.509   3.231
 5538SOL     OW17512   3.034   0.086   5.219
 5538SOL    HW117513   2.969   0.157   5.194
 5538SOL    HW217514   3.071   0.104   5.310
 5539SOL     OW17515   1.305   3.385   0.622
 5539SOL    HW117516   1.389   3.332   0.612
 5539SOL    HW217517   1.268   3.372   0.714
 5540SOL     OW17518   5.742   3.326   3.755
 5540SOL    HW117519   5.786   3.396   3.698
 5540SOL    HW217520   5.772   3.235   3.727
 5541SOL     OW17521   5.862   0.831   6.147
 5541SOL    HW117522   5.779   0.867   6.188
 5541SOL    HW217523   5.849   0.820   6.048
 5542SOL     OW17524   6.261   5.224   6.168
 5542SOL    HW117525   6.280   5.321   6.149
 5542SOL    HW217526   6.172   5.215   6.212
 5543SOL     OW17527   3.463   5.395   5.838
 5543SOL    HW117528   3.381   5.420   5.788
 5543SOL    HW217529   3.530   5.356   5.775
 5544SOL     OW17530   5.618   6.968   6.128
 5544SOL    HW117531   5.528   6.937   6.157
 5544SOL    HW217532   5.679   6.889   6.117
 5545SOL     OW17533   4.084   1.896   2.682
 5545SOL    HW117534   4.021   1.885   2.604
 5545SOL    HW217535   4.093   1.994   2.703
 5546SOL     OW17536   0.745   6.459   4.550
 5546SOL    HW117537   0.744   6.393   4.626
 5546SOL    HW217538   0.667   6.521   4.559
 5547SOL     OW17539   3.746   0.257   4.939
 5547SOL    HW117540   3.667   0.296   4.893
 5547SOL    HW217541   3.829   0.280   4.889
 5548SOL     OW17542   5.799   3.453   5.585
 5548SOL    HW117543   5.797   3.355   5.568
 5548SOL    HW217544   5.750   3.474   5.670
 5549SOL     OW17545   4.963   3.943   1.083
 5549SOL    HW117546   4.878   3.919   1.035
 5549SOL    HW217547   4.946   4.022   1.143
 5550SOL     OW17548   1.977   4.341   2.244
 5550SOL    HW117549   1.886   4.370   2.274
 5550SOL    HW217550   1.988   4.362   2.147
 5551SOL     OW17551   1.870   6.141   2.910
 5551SOL    HW117552   1.823   6.093   2.983
 5551SOL    HW217553   1.826   6.120   2.822
 5552SOL     OW17554   6.449   0.319   0.034
 5552SOL    HW117555   6.389   0.245   0.065
 5552SOL    HW217556   6.468   0.381   0.111
 5553SOL     OW17557   5.337   6.250   0.120
 5553SOL    HW117558   5.269   6.179   0.140
 5553SOL    HW217559   5.427   6.208   0.112
 5554SOL     OW17560   4.912   1.447   5.950
 5554SOL    HW117561   4.879   1.451   5.856
 5554SOL    HW217562   4.963   1.530   5.971
 5555SOL     OW17563   2.076   3.939   3.829
 5555SOL    HW117564   1.997   3.983   3.870
 5555SOL    HW217565   2.077   3.842   3.852
 5556SOL     OW17566   6.930   1.197   3.290
 5556SOL    HW117567   6.964   1.271   3.231
 5556SOL    HW217568   6.847   1.227   3.336
 5557SOL     OW17569   3.502   6.766   3.152
 5557SOL    HW117570   3.507   6.846   3.091
 5557SOL    HW217571   3.519   6.683   3.098
 5558SOL     OW17572   4.763   3.724   5.990
 5558SOL    HW117573   4.856   3.690   5.999
 5558SOL    HW217574   4.700   3.647   5.986
 5559SOL     OW17575   1.610   0.365   2.158
 5559SOL    HW117576   1.515   0.338   2.168
 5559SOL    HW217577   1.664   0.330   2.235
 5560SOL     OW17578   1.488   6.483   2.559
 5560SOL    HW117579   1.408   6.428   2.534
 5560SOL    HW217580   1.555   6.479   2.486
 5561SOL     OW17581   1.345   1.865   4.190
 5561SOL    HW117582   1.337   1.766   4.177
 5561SOL    HW217583   1.438   1.894   4.167
 5562SOL     OW17584   3.459   2.019   6.844
 5562SOL    HW117585   3.386   1.962   6.881
 5562SOL    HW217586   3.544   1.966   6.840
 5563SOL     OW17587   4.329   5.496   2.511
 5563SOL    HW117588   4.351   5.435   2.434
 5563SOL    HW217589   4.401   5.489   2.580
 5564SOL     OW17590   4.370   0.735   1.633
 5564SOL    HW117591   4.427   0.653   1.623
 5564SOL    HW217592   4.391   0.779   1.721
 5565SOL     OW17593   4.820   1.818   6.244
 5565SOL    HW117594   4.765   1.737   6.266
 5565SOL    HW217595   4.784   1.861   6.162
 5566SOL     OW17596   1.547   5.364   6.926
 5566SOL    HW117597   1.530   5.266   6.909
 5566SOL    HW217598   1.533   5.415   6.841
 5567SOL     OW17599   6.862   3.453   1.696
 5567SOL    HW117600   6.788   3.461   1.629
 5567SOL    HW217601   6.839   3.381   1.762
 5568SOL     OW17602   4.241   1.856   4.233
 5568SOL    HW117603   4.282   1.767   4.213
 5568SOL    HW217604   4.189   1.850   4.319
 5569SOL     OW17605   1.518   1.711   2.287
 5569SOL    HW117606   1.560   1.622   2.269
 5569SOL    HW217607   1.483   1.713   2.380
 5570SOL     OW17608   6.288   4.545   4.728
 5570SOL    HW117609   6.236   4.503   4.654
 5570SOL    HW217610   6.264   4.642   4.734
 5571SOL     OW17611   6.995   5.517   0.913
 5571SOL    HW117612   6.982   5.608   0.875
 5571SOL    HW217613   0.001   5.524   1.007
 5572SOL     OW17614   1.358   2.470   5.100
 5572SOL    HW117615   1.347   2.377   5.066
 5572SOL    HW217616   1.309   2.533   5.040
 5573SOL     OW17617   2.361   4.556   6.133
 5573SOL    HW117618   2.361   4.653   6.154
 5573SOL    HW217619   2.326   4.504   6.212
 5574SOL     OW17620   6.372   1.633   2.746
 5574SOL    HW117621   6.310   1.609   2.821
 5574SOL    HW217622   6.325   1.694   2.682
 5575SOL     OW17623   6.709   1.153   1.233
 5575SOL    HW117624   6.788   1.176   1.290
 5575SOL    HW217625   6.655   1.236   1.217
 5576SOL     OW17626   1.244   5.549   2.305
 5576SOL    HW117627   1.327   5.497   2.284
 5576SOL    HW217628   1.246   5.576   2.402
 5577SOL     OW17629   2.832   2.865   5.553
 5577SOL    HW117630   2.879   2.915   5.480
 5577SOL    HW217631   2.763   2.805   5.512
 5578SOL     OW17632   3.851   3.953   6.960
 5578SOL    HW117633   3.786   3.886   6.994
 5578SOL    HW217634   3.930   3.956   7.020
 5579SOL     OW17635   0.950   3.435   6.067
 5579SOL    HW117636   0.941   3.344   6.026
 5579SOL    HW217637   1.006   3.428   6.149
 5580SOL     OW17638   5.196   2.708   6.210
 5580SOL    HW117639   5.219   2.699   6.307
 5580SOL    HW217640   5.185   2.805   6.187
 5581SOL     OW17641   2.421   0.893   2.120
 5581SOL    HW117642   2.378   0.900   2.030
 5581SOL    HW217643   2.520   0.898   2.110
 5582SOL     OW17644   3.535   3.622   4.514
 5582SOL    HW117645   3.527   3.628   4.415
 5582SOL    HW217646   3.605   3.685   4.546
 5583SOL     OW17647   4.159   0.832   2.602
 5583SOL    HW117648   4.060   0.819   2.607
 5583SOL    HW217649   4.187   0.904   2.666
 5584SOL     OW17650   5.689   4.370   3.748
 5584SOL    HW117651   5.676   4.443   3.816
 5584SOL    HW217652   5.769   4.391   3.692
 5585SOL     OW17653   4.883   6.378   4.515
 5585SOL    HW117654   4.917   6.284   4.505
 5585SOL    HW217655   4.935   6.439   4.456
 5586SOL     OW17656   0.198   2.484   0.185
 5586SOL    HW117657   0.100   2.492   0.171
 5586SOL    HW217658   0.219   2.395   0.226
 5587SOL     OW17659   4.023   6.064   2.488
 5587SOL    HW117660   3.927   6.037   2.479
 5587SOL    HW217661   4.044   6.135   2.421
 5588SOL     OW17662   1.912   6.405   2.786
 5588SOL    HW117663   1.838   6.341   2.803
 5588SOL    HW217664   1.994   6.375   2.835
 5589SOL     OW17665   5.779   3.909   5.254
 5589SOL    HW117666   5.770   4.008   5.259
 5589SOL    HW217667   5.800   3.873   5.345
 5590SOL     OW17668   6.601   5.169   3.750
 5590SOL    HW117669   6.670   5.134   3.687
 5590SOL    HW217670   6.627   5.146   3.844
 5591SOL     OW17671   5.553   1.353   6.743
 5591SOL    HW117672   5.615   1.431   6.734
 5591SOL    HW217673   5.600   1.278   6.789
 5592SOL     OW17674   6.980   4.758   2.979
 5592SOL    HW117675   7.016   4.841   2.937
 5592SOL    HW217676   0.016   4.682   2.962
 5593SOL     OW17677   6.909   2.569   6.124
 5593SOL    HW117678   6.849   2.633   6.075
 5593SOL    HW217679   6.947   2.504   6.059
 5594SOL     OW17680   3.516   1.250   6.346
 5594SOL    HW117681   3.602   1.218   6.307
 5594SOL    HW217682   3.522   1.248   6.446
 5595SOL     OW17683   6.551   0.328   5.453
 5595SOL    HW117684   6.647   0.344   5.478
 5595SOL    HW217685   6.517   0.407   5.402
 5596SOL     OW17686   4.820   0.389   2.771
 5596SOL    HW117687   4.897   0.328   2.756
 5596SOL    HW217688   4.769   0.360   2.852
 5597SOL     OW17689   6.427   1.790   5.342
 5597SOL    HW117690   6.335   1.752   5.336
 5597SOL    HW217691   6.429   1.880   5.299
 5598SOL     OW17692   6.073   3.187   3.980
 5598SOL    HW117693   6.086   3.158   4.075
 5598SOL    HW217694   6.002   3.257   3.976
 5599SOL     OW17695   0.711   2.506   1.929
 5599SOL    HW117696   0.775   2.512   1.852
 5599SOL    HW217697   0.726   2.584   1.990
 5600SOL     OW17698   2.456   0.199   2.715
 5600SOL    HW117699   2.531   0.257   2.683
 5600SOL    HW217700   2.369   0.243   2.694
 5601SOL     OW17701   2.917   1.017   6.433
 5601SOL    HW117702   2.824   1.052   6.419
 5601SOL    HW217703   2.946   1.040   6.526
 5602SOL     OW17704   0.766   0.206   2.025
 5602SOL    HW117705   0.797   0.299   2.042
 5602SOL    HW217706   0.744   0.194   1.928
 5603SOL     OW17707   5.344   2.197   6.982
 5603SOL    HW117708   5.270   2.261   6.961
 5603SOL    HW217709   5.308   2.123   0.011
 5604SOL     OW17710   6.585   2.547   5.248
 5604SOL    HW117711   6.533   2.594   5.177
 5604SOL    HW217712   6.546   2.568   5.338
 5605SOL     OW17713   1.042   0.548   4.582
 5605SOL    HW117714   1.080   0.464   4.622
 5605SOL    HW217715   1.105   0.584   4.514
 5606SOL     OW17716   5.975   0.570   0.971
 5606SOL    HW117717   5.982   0.569   0.871
 5606SOL    HW217718   5.960   0.477   1.005
 5607SOL     OW17719   5.699   1.089   3.922
 5607SOL    HW117720   5.676   1.129   4.010
 5607SOL    HW217721   5.716   0.991   3.933
 5608SOL     OW17722   6.326   0.837   3.310
 5608SOL    HW117723   6.387   0.917   3.311
 5608SOL    HW217724   6.275   0.833   3.396
 5609SOL     OW17725   4.583   5.862   2.254
 5609SOL    HW117726   4.527   5.787   2.218
 5609SOL    HW217727   4.553   5.949   2.215
 5610SOL     OW17728   5.140   4.218   1.484
 5610SOL    HW117729   5.107   4.254   1.571
 5610SOL    HW217730   5.162   4.293   1.422
 5611SOL     OW17731   1.042   4.979   3.511
 5611SOL    HW117732   1.129   5.020   3.485
 5611SOL    HW217733   1.047   4.880   3.497
 5612SOL     OW17734   4.384   3.260   0.083
 5612SOL    HW117735   4.391   3.184   0.018
 5612SOL    HW217736   4.352   3.225   0.171
 5613SOL     OW17737   5.098   5.371   5.023
 5613SOL    HW117738   5.061   5.328   5.106
 5613SOL    HW217739   5.194   5.345   5.012
 5614SOL     OW17740   5.426   3.390   5.180
 5614SOL    HW117741   5.386   3.416   5.092
 5614SOL    HW217742   5.382   3.443   5.253
 5615SOL     OW17743   6.833   1.441   3.977
 5615SOL    HW117744   6.810   1.536   3.956
 5615SOL    HW217745   6.765   1.381   3.935
 5616SOL     OW17746   2.020   2.380   4.791
 5616SOL    HW117747   2.077   2.398   4.711
 5616SOL    HW217748   2.019   2.281   4.810
 5617SOL     OW17749   1.725   4.831   5.325
 5617SOL    HW117750   1.817   4.859   5.297
 5617SOL    HW217751   1.675   4.799   5.244
 5618SOL     OW17752   6.871   4.999   4.061
 5618SOL    HW117753   6.923   5.076   4.100
 5618SOL    HW217754   6.935   4.932   4.023
 5619SOL     OW17755   3.414   3.569   3.921
 5619SOL    HW117756   3.360   3.652   3.930
 5619SOL    HW217757   3.493   3.587   3.861
 5620SOL     OW17758   4.186   3.739   7.014
 5620SOL    HW117759   4.230   3.649   7.018
 5620SOL    HW217760   4.107   3.741   0.046
 5621SOL     OW17761   1.831   2.993   0.395
 5621SOL    HW117762   1.851   2.985   0.492
 5621SOL    HW217763   1.767   3.068   0.380
 5622SOL     OW17764   4.692   0.134   5.661
 5622SOL    HW117765   4.593   0.125   5.648
 5622SOL    HW217766   4.737   0.050   5.632
 5623SOL     OW17767   4.680   6.252   4.866
 5623SOL    HW117768   4.777   6.265   4.885
 5623SOL    HW217769   4.663   6.268   4.768
 5624SOL     OW17770   0.332   4.593   3.944
 5624SOL    HW117771   0.365   4.656   4.014
 5624SOL    HW217772   0.383   4.508   3.949
 5625SOL     OW17773   0.252   6.967   5.533
 5625SOL    HW117774   0.260   6.879   5.579
 5625SOL    HW217775   0.164   6.973   5.486
 5626SOL     OW17776   2.675   5.794   3.766
 5626SOL    HW117777   2.579   5.781   3.741
 5626SOL    HW217778   2.691   5.758   3.858
 5627SOL     OW17779   0.252   4.966   6.524
 5627SOL    HW117780   0.166   5.016   6.530
 5627SOL    HW217781   0.287   4.949   6.617
 5628SOL     OW17782   1.624   3.189   1.690
 5628SOL    HW117783   1.708   3.242   1.683
 5628SOL    HW217784   1.557   3.224   1.625
 5629SOL     OW17785   4.650   3.282   1.702
 5629SOL    HW117786   4.748   3.284   1.682
 5629SOL    HW217787   4.631   3.210   1.769
 5630SOL     OW17788   1.608   4.485   6.868
 5630SOL    HW117789   1.536   4.423   6.902
 5630SOL    HW217790   1.567   4.574   6.846
 5631SOL     OW17791   4.844   1.909   1.984
 5631SOL    HW117792   4.746   1.914   1.964
 5631SOL    HW217793   4.858   1.870   2.075
 5632SOL     OW17794   3.253   2.228   5.393
 5632SOL    HW117795   3.238   2.288   5.471
 5632SOL    HW217796   3.210   2.266   5.311
 5633SOL     OW17797   5.804   5.011   4.347
 5633SOL    HW117798   5.722   4.957   4.328
 5633SOL    HW217799   5.882   4.950   4.357
 5634SOL     OW17800   1.958   4.978   4.545
 5634SOL    HW117801   1.926   4.950   4.455
 5634SOL    HW217802   1.957   5.077   4.552
 5635SOL     OW17803   1.514   6.581   6.706
 5635SOL    HW117804   1.509   6.678   6.684
 5635SOL    HW217805   1.476   6.528   6.630
 5636SOL     OW17806   6.328   6.946   5.072
 5636SOL    HW117807   6.241   6.985   5.040
 5636SOL    HW217808   6.359   6.877   5.006
 5637SOL     OW17809   4.307   6.622   3.766
 5637SOL    HW117810   4.287   6.626   3.863
 5637SOL    HW217811   4.357   6.537   3.746
 5638SOL     OW17812   6.533   3.936   1.025
 5638SOL    HW117813   6.507   3.859   0.968
 5638SOL    HW217814   6.589   3.904   1.102
 5639SOL     OW17815   2.776   0.419   2.517
 5639SOL    HW117816   2.745   0.488   2.451
 5639SOL    HW217817   2.704   0.404   2.585
 5640SOL     OW17818   3.919   0.949   2.257
 5640SOL    HW117819   3.861   0.974   2.334
 5640SOL    HW217820   4.003   1.005   2.259
 5641SOL     OW17821   0.701   4.419   5.475
 5641SOL    HW117822   0.639   4.390   5.403
 5641SOL    HW217823   0.785   4.454   5.435
 5642SOL     OW17824   0.259   5.953   5.386
 5642SOL    HW117825   0.165   5.920   5.387
 5642SOL    HW217826   0.262   6.045   5.348
 5643SOL     OW17827   3.789   1.110   4.609
 5643SOL    HW117828   3.851   1.115   4.531
 5643SOL    HW217829   3.817   1.176   4.678
 5644SOL     OW17830   3.566   6.781   4.735
 5644SOL    HW117831   3.629   6.748   4.664
 5644SOL    HW217832   3.618   6.807   4.816
 5645SOL     OW17833   5.311   4.757   2.777
 5645SOL    HW117834   5.265   4.692   2.837
 5645SOL    HW217835   5.351   4.830   2.832
 5646SOL     OW17836   0.683   5.399   3.380
 5646SOL    HW117837   0.755   5.352   3.430
 5646SOL    HW217838   0.663   5.350   3.295
 5647SOL     OW17839   4.942   0.200   0.619
 5647SOL    HW117840   4.930   0.107   0.584
 5647SOL    HW217841   5.015   0.246   0.569
 5648SOL     OW17842   1.573   0.069   3.607
 5648SOL    HW117843   1.605   7.002   3.610
 5648SOL    HW217844   1.534   0.094   3.696
 5649SOL     OW17845   0.604   0.375   4.723
 5649SOL    HW117846   0.662   0.336   4.652
 5649SOL    HW217847   0.577   0.468   4.697
 5650SOL     OW17848   1.385   5.419   0.561
 5650SOL    HW117849   1.385   5.496   0.497
 5650SOL    HW217850   1.355   5.451   0.651
 5651SOL     OW17851   1.012   1.081   1.407
 5651SOL    HW117852   1.058   0.997   1.434
 5651SOL    HW217853   0.916   1.078   1.435
 5652SOL     OW17854   6.803   6.913   2.232
 5652SOL    HW117855   6.856   6.859   2.297
 5652SOL    HW217856   6.805   6.870   2.142
 5653SOL     OW17857   7.026   6.444   6.632
 5653SOL    HW117858   0.017   6.491   6.718
 5653SOL    HW217859   7.025   6.345   6.648
 5654SOL     OW17860   6.561   0.313   5.791
 5654SOL    HW117861   6.659   0.294   5.795
 5654SOL    HW217862   6.522   0.306   5.883
 5655SOL     OW17863   1.576   3.687   4.752
 5655SOL    HW117864   1.651   3.748   4.726
 5655SOL    HW217865   1.497   3.703   4.693
 5656SOL     OW17866   0.021   3.851   0.006
 5656SOL    HW117867   0.096   3.785   0.016
 5656SOL    HW217868   0.052   3.927   6.975
 5657SOL     OW17869   5.756   1.453   0.524
 5657SOL    HW117870   5.831   1.504   0.481
 5657SOL    HW217871   5.777   1.355   0.522
 5658SOL     OW17872   3.678   4.465   6.191
 5658SOL    HW117873   3.733   4.399   6.139
 5658SOL    HW217874   3.733   4.547   6.210
 5659SOL     OW17875   3.839   3.098   4.221
 5659SOL    HW117876   3.779   3.029   4.262
 5659SOL    HW217877   3.909   3.124   4.287
 5660SOL     OW17878   5.751   0.688   0.751
 5660SOL    HW117879   5.734   0.612   0.814
 5660SOL    HW217880   5.734   0.774   0.798
 5661SOL     OW17881   1.596   5.084   5.213
 5661SOL    HW117882   1.634   5.169   5.176
 5661SOL    HW217883   1.655   5.051   5.286
 5662SOL     OW17884   2.735   5.876   3.392
 5662SOL    HW117885   2.756   5.941   3.465
 5662SOL    HW217886   2.647   5.833   3.409
 5663SOL     OW17887   2.501   3.180   0.412
 5663SOL    HW117888   2.473   3.242   0.486
 5663SOL    HW217889   2.421   3.154   0.359
 5664SOL     OW17890   6.712   4.146   4.730
 5664SOL    HW117891   6.705   4.160   4.828
 5664SOL    HW217892   6.626   4.173   4.686
 5665SOL     OW17893   1.787   1.414   0.083
 5665SOL    HW117894   1.736   1.339   0.124
 5665SOL    HW217895   1.776   1.497   0.139
 5666SOL     OW17896   6.247   6.281   1.809
 5666SOL    HW117897   6.218   6.233   1.892
 5666SOL    HW217898   6.286   6.370   1.833
 5667SOL     OW17899   0.815   5.172   4.493
 5667SOL    HW117900   0.727   5.197   4.534
 5667SOL    HW217901   0.890   5.211   4.548
 5668SOL     OW17902   5.459   2.035   4.419
 5668SOL    HW117903   5.467   2.096   4.339
 5668SOL    HW217904   5.393   2.073   4.483
 5669SOL     OW17905   0.143   3.062   6.796
 5669SOL    HW117906   0.174   2.982   6.744
 5669SOL    HW217907   0.192   3.143   6.765
 5670SOL     OW17908   6.789   2.838   3.615
 5670SOL    HW117909   6.762   2.830   3.711
 5670SOL    HW217910   6.709   2.832   3.556
 5671SOL     OW17911   6.907   6.462   0.130
 5671SOL    HW117912   6.901   6.519   0.048
 5671SOL    HW217913   6.999   6.424   0.138
 5672SOL     OW17914   3.443   4.561   6.522
 5672SOL    HW117915   3.465   4.472   6.482
 5672SOL    HW217916   3.432   4.628   6.449
 5673SOL     OW17917   0.653   7.025   2.422
 5673SOL    HW117918   0.652   7.017   2.322
 5673SOL    HW217919   0.715   6.956   2.459
 5674SOL     OW17920   0.190   4.962   4.829
 5674SOL    HW117921   0.277   4.912   4.829
 5674SOL    HW217922   0.126   4.916   4.767
 5675SOL     OW17923   3.750   2.521   6.380
 5675SOL    HW117924   3.690   2.590   6.420
 5675SOL    HW217925   3.808   2.482   6.451
 5676SOL     OW17926   1.921   2.959   2.243
 5676SOL    HW117927   1.962   2.879   2.199
 5676SOL    HW217928   1.854   3.000   2.181
 5677SOL     OW17929   0.790   1.208   1.154
 5677SOL    HW117930   0.717   1.205   1.085
 5677SOL    HW217931   0.781   1.130   1.215
 5678SOL     OW17932   4.063   6.167   2.932
 5678SOL    HW117933   4.068   6.267   2.922
 5678SOL    HW217934   3.972   6.141   2.964
 5679SOL     OW17935   0.587   1.163   3.529
 5679SOL    HW117936   0.531   1.232   3.576
 5679SOL    HW217937   0.533   1.120   3.457
 5680SOL     OW17938   1.140   5.229   6.029
 5680SOL    HW117939   1.174   5.137   6.051
 5680SOL    HW217940   1.071   5.256   6.096
 5681SOL     OW17941   6.790   4.549   0.691
 5681SOL    HW117942   6.803   4.477   0.623
 5681SOL    HW217943   6.835   4.522   0.776
 5682SOL     OW17944   2.289   4.742   5.563
 5682SOL    HW117945   2.320   4.776   5.652
 5682SOL    HW217946   2.367   4.735   5.501
 5683SOL     OW17947   4.030   0.890   5.994
 5683SOL    HW117948   4.127   0.891   5.969
 5683SOL    HW217949   4.001   0.797   6.013
 5684SOL     OW17950   2.514   3.003   5.811
 5684SOL    HW117951   2.488   2.971   5.720
 5684SOL    HW217952   2.442   2.981   5.877
 5685SOL     OW17953   1.789   3.078   2.545
 5685SOL    HW117954   1.798   3.106   2.450
 5685SOL    HW217955   1.723   3.003   2.552
 5686SOL     OW17956   3.365   1.485   5.743
 5686SOL    HW117957   3.407   1.394   5.733
 5686SOL    HW217958   3.329   1.514   5.654
 5687SOL     OW17959   0.682   5.089   6.603
 5687SOL    HW117960   0.671   5.122   6.696
 5687SOL    HW217961   0.618   5.014   6.586
 5688SOL     OW17962   0.530   2.536   0.876
 5688SOL    HW117963   0.582   2.538   0.961
 5688SOL    HW217964   0.554   2.454   0.824
 5689SOL     OW17965   4.153   1.052   0.585
 5689SOL    HW117966   4.217   1.091   0.519
 5689SOL    HW217967   4.196   0.975   0.632
 5690SOL     OW17968   2.137   6.244   0.355
 5690SOL    HW117969   2.039   6.258   0.364
 5690SOL    HW217970   2.185   6.331   0.370
 5691SOL     OW17971   3.066   0.452   2.157
 5691SOL    HW117972   3.104   0.454   2.064
 5691SOL    HW217973   3.126   0.398   2.216
 5692SOL     OW17974   6.094   3.358   0.583
 5692SOL    HW117975   6.015   3.414   0.608
 5692SOL    HW217976   6.174   3.417   0.571
 5693SOL     OW17977   5.732   2.203   2.236
 5693SOL    HW117978   5.644   2.179   2.195
 5693SOL    HW217979   5.776   2.119   2.270
 5694SOL     OW17980   0.850   1.489   3.302
 5694SOL    HW117981   0.904   1.554   3.355
 5694SOL    HW217982   0.901   1.404   3.292
 5695SOL     OW17983   1.352   2.562   3.113
 5695SOL    HW117984   1.348   2.573   3.013
 5695SOL    HW217985   1.260   2.575   3.151
 5696SOL     OW17986   1.265   1.322   2.885
 5696SOL    HW117987   1.317   1.285   2.961
 5696SOL    HW217988   1.284   1.269   2.802
 5697SOL     OW17989   5.843   2.320   1.604
 5697SOL    HW117990   5.795   2.331   1.691
 5697SOL    HW217991   5.904   2.398   1.590
 5698SOL     OW17992   0.876   3.653   3.698
 5698SOL    HW117993   0.801   3.662   3.763
 5698SOL    HW217994   0.936   3.733   3.704
 5699SOL     OW17995   0.557   2.197   3.174
 5699SOL    HW117996   0.574   2.295   3.179
 5699SOL    HW217997   0.480   2.173   3.233
 5700SOL     OW17998   0.145   6.793   3.717
 5700SOL    HW117999   0.092   6.818   3.798
 5700SOL    HW218000   0.225   6.739   3.744
 5701SOL     OW18001   1.271   0.907   2.112
 5701SOL    HW118002   1.282   0.907   2.013
 5701SOL    HW218003   1.206   0.835   2.138
 5702SOL     OW18004   2.727   6.099   5.072
 5702SOL    HW118005   2.650   6.161   5.069
 5702SOL    HW218006   2.730   6.054   5.162
 5703SOL     OW18007   6.695   4.638   1.649
 5703SOL    HW118008   6.676   4.670   1.742
 5703SOL    HW218009   6.772   4.576   1.650
 5704SOL     OW18010   4.747   4.666   2.154
 5704SOL    HW118011   4.833   4.645   2.200
 5704SOL    HW218012   4.673   4.613   2.195
 5705SOL     OW18013   5.138   0.765   0.594
 5705SOL    HW118014   5.040   0.787   0.584
 5705SOL    HW218015   5.180   0.828   0.659
 5706SOL     OW18016   6.742   3.967   0.704
 5706SOL    HW118017   6.829   4.001   0.670
 5706SOL    HW218018   6.759   3.906   0.783
 5707SOL     OW18019   0.150   6.477   0.499
 5707SOL    HW118020   0.243   6.472   0.536
 5707SOL    HW218021   0.094   6.405   0.540
 5708SOL     OW18022   5.323   5.951   1.802
 5708SOL    HW118023   5.325   6.047   1.776
 5708SOL    HW218024   5.399   5.931   1.864
 5709SOL     OW18025   1.507   0.502   2.412
 5709SOL    HW118026   1.530   0.563   2.488
 5709SOL    HW218027   1.569   0.520   2.336
 5710SOL     OW18028   2.862   3.226   0.575
 5710SOL    HW118029   2.931   3.213   0.647
 5710SOL    HW218030   2.862   3.147   0.515
 5711SOL     OW18031   5.258   1.226   2.343
 5711SOL    HW118032   5.240   1.298   2.410
 5711SOL    HW218033   5.173   1.179   2.320
 5712SOL     OW18034   6.780   6.651   6.708
 5712SOL    HW118035   6.699   6.596   6.685
 5712SOL    HW218036   6.793   6.722   6.639
 5713SOL     OW18037   3.168   2.568   1.526
 5713SOL    HW118038   3.091   2.582   1.589
 5713SOL    HW218039   3.251   2.606   1.566
 5714SOL     OW18040   0.156   5.699   0.132
 5714SOL    HW118041   0.224   5.772   0.140
 5714SOL    HW218042   0.200   5.611   0.143
 5715SOL     OW18043   1.173   6.972   3.145
 5715SOL    HW118044   1.120   6.901   3.098
 5715SOL    HW218045   1.207   0.010   3.077
 5716SOL     OW18046   1.352   4.072   0.215
 5716SOL    HW118047   1.355   4.027   0.304
 5716SOL    HW218048   1.406   4.020   0.149
 5717SOL     OW18049   2.050   5.378   0.756
 5717SOL    HW118050   2.129   5.378   0.695
 5717SOL    HW218051   1.971   5.416   0.708
 5718SOL     OW18052   0.378   2.643   5.624
 5718SOL    HW118053   0.422   2.726   5.659
 5718SOL    HW218054   0.402   2.566   5.683
 5719SOL     OW18055   2.550   1.834   6.614
 5719SOL    HW118056   2.547   1.766   6.541
 5719SOL    HW218057   2.577   1.922   6.576
 5720SOL     OW18058   1.776   5.303   4.653
 5720SOL    HW118059   1.751   5.400   4.654
 5720SOL    HW218060   1.870   5.294   4.619
 5721SOL     OW18061   0.147   3.719   1.102
 5721SOL    HW118062   0.093   3.636   1.085
 5721SOL    HW218063   0.147   3.739   1.200
 5722SOL     OW18064   6.682   1.579   5.018
 5722SOL    HW118065   6.738   1.661   5.030
 5722SOL    HW218066   6.590   1.596   5.054
 5723SOL     OW18067   4.430   3.458   0.772
 5723SOL    HW118068   4.408   3.553   0.748
 5723SOL    HW218069   4.460   3.409   0.690
 5724SOL     OW18070   5.717   3.019   5.220
 5724SOL    HW118071   5.782   2.971   5.161
 5724SOL    HW218072   5.697   3.109   5.182
 5725SOL     OW18073   4.971   5.293   4.171
 5725SOL    HW118074   4.970   5.310   4.072
 5725SOL    HW218075   5.014   5.205   4.190
 5726SOL     OW18076   0.426   4.799   4.793
 5726SOL    HW118077   0.497   4.752   4.847
 5726SOL    HW218078   0.459   4.813   4.700
 5727SOL     OW18079   6.675   1.230   3.900
 5727SOL    HW118080   6.616   1.298   3.943
 5727SOL    HW218081   6.621   1.171   3.841
 5728SOL     OW18082   3.753   0.417   6.709
 5728SOL    HW118083   3.678   0.408   6.644
 5728SOL    HW218084   3.825   0.351   6.685
 5729SOL     OW18085   1.175   1.363   0.474
 5729SOL    HW118086   1.125   1.353   0.560
 5729SOL    HW218087   1.206   1.458   0.465
 5730SOL     OW18088   4.608   5.100   6.206
 5730SOL    HW118089   4.527   5.048   6.232
 5730SOL    HW218090   4.626   5.085   6.108
 5731SOL     OW18091   0.617   6.763   3.858
 5731SOL    HW118092   0.716   6.748   3.849
 5731SOL    HW218093   0.597   6.860   3.843
 5732SOL     OW18094   6.565   5.536   4.280
 5732SOL    HW118095   6.507   5.563   4.202
 5732SOL    HW218096   6.559   5.438   4.293
 5733SOL     OW18097   3.980   6.833   5.155
 5733SOL    HW118098   3.949   6.847   5.061
 5733SOL    HW218099   4.065   6.884   5.170
 5734SOL     OW18100   1.236   6.675   5.575
 5734SOL    HW118101   1.304   6.653   5.645
 5734SOL    HW218102   1.228   6.774   5.565
 5735SOL     OW18103   4.120   2.304   2.002
 5735SOL    HW118104   4.086   2.233   2.064
 5735SOL    HW218105   4.122   2.392   2.050
 5736SOL     OW18106   5.907   4.356   0.155
 5736SOL    HW118107   5.942   4.291   0.223
 5736SOL    HW218108   5.959   4.441   0.161
 5737SOL     OW18109   5.150   6.687   0.590
 5737SOL    HW118110   5.234   6.651   0.551
 5737SOL    HW218111   5.081   6.698   0.518
 5738SOL     OW18112   2.781   3.382   6.013
 5738SOL    HW118113   2.785   3.413   5.918
 5738SOL    HW218114   2.874   3.361   6.045
 5739SOL     OW18115   1.361   0.758   5.187
 5739SOL    HW118116   1.370   0.843   5.136
 5739SOL    HW218117   1.396   0.682   5.131
 5740SOL     OW18118   4.450   3.681   1.535
 5740SOL    HW118119   4.394   3.686   1.452
 5740SOL    HW218120   4.465   3.774   1.571
 5741SOL     OW18121   0.539   3.489   4.389
 5741SOL    HW118122   0.461   3.470   4.330
 5741SOL    HW218123   0.591   3.566   4.352
 5742SOL     OW18124   5.417   6.676   2.482
 5742SOL    HW118125   5.345   6.691   2.550
 5742SOL    HW218126   5.393   6.597   2.426
 5743SOL     OW18127   2.564   5.167   5.376
 5743SOL    HW118128   2.561   5.144   5.278
 5743SOL    HW218129   2.606   5.092   5.427
 5744SOL     OW18130   4.883   0.873   1.961
 5744SOL    HW118131   4.936   0.866   1.876
 5744SOL    HW218132   4.844   0.965   1.968
 5745SOL     OW18133   1.966   0.523   4.184
 5745SOL    HW118134   1.872   0.550   4.169
 5745SOL    HW218135   2.019   0.601   4.216
 5746SOL     OW18136   5.548   6.813   1.671
 5746SOL    HW118137   5.629   6.871   1.676
 5746SOL    HW218138   5.523   6.800   1.575
 5747SOL     OW18139   6.947   4.017   3.087
 5747SOL    HW118140   6.853   4.024   3.119
 5747SOL    HW218141   7.008   4.064   3.151
 5748SOL     OW18142   1.360   5.607   0.359
 5748SOL    HW118143   1.382   5.548   0.281
 5748SOL    HW218144   1.441   5.659   0.386
 5749SOL     OW18145   1.596   6.612   4.869
 5749SOL    HW118146   1.626   6.634   4.961
 5749SOL    HW218147   1.656   6.542   4.830
 5750SOL     OW18148   6.090   6.267   4.551
 5750SOL    HW118149   5.995   6.250   4.526
 5750SOL    HW218150   6.116   6.360   4.525
 5751SOL     OW18151   3.000   2.214   4.190
 5751SOL    HW118152   2.938   2.292   4.197
 5751SOL    HW218153   3.029   2.203   4.094
 5752SOL     OW18154   6.394   0.778   0.670
 5752SOL    HW118155   6.348   0.733   0.593
 5752SOL    HW218156   6.439   0.709   0.727
 5753SOL     OW18157   3.906   3.414   4.862
 5753SOL    HW118158   3.813   3.409   4.824
 5753SOL    HW218159   3.969   3.369   4.799
 5754SOL     OW18160   6.885   4.425   0.940
 5754SOL    HW118161   6.907   4.457   1.032
 5754SOL    HW218162   6.844   4.334   0.945
 5755SOL     OW18163   2.101   3.222   6.114
 5755SOL    HW118164   2.054   3.286   6.053
 5755SOL    HW218165   2.191   3.199   6.076
 5756SOL     OW18166   6.181   0.000   3.731
 5756SOL    HW118167   6.100   6.991   3.685
 5756SOL    HW218168   6.248   6.956   3.744
 5757SOL     OW18169   6.649   6.186   2.977
 5757SOL    HW118170   6.559   6.142   2.971
 5757SOL    HW218171   6.664   6.241   2.895
 5758SOL     OW18172   2.630   0.838   5.061
 5758SOL    HW118173   2.546   0.820   5.113
 5758SOL    HW218174   2.706   0.851   5.124
 5759SOL     OW18175   4.704   1.223   6.703
 5759SOL    HW118176   4.764   1.197   6.627
 5759SOL    HW218177   4.679   1.141   6.755
 5760SOL     OW18178   0.515   4.398   0.970
 5760SOL    HW118179   0.555   4.373   1.059
 5760SOL    HW218180   0.588   4.433   0.911
 5761SOL     OW18181   5.687   6.904   6.909
 5761SOL    HW118182   5.652   6.873   6.820
 5761SOL    HW218183   5.781   6.873   6.920
 5762SOL     OW18184   4.811   5.992   0.075
 5762SOL    HW118185   4.803   6.031   0.167
 5762SOL    HW218186   4.728   5.941   0.054
 5763SOL     OW18187   7.010   0.294   0.008
 5763SOL    HW118188   6.955   0.292   0.091
 5763SOL    HW218189   0.075   0.324   0.031
 5764SOL     OW18190   4.916   4.873   5.809
 5764SOL    HW118191   4.940   4.936   5.735
 5764SOL    HW218192   4.900   4.925   5.893
 5765SOL     OW18193   6.419   3.473   6.934
 5765SOL    HW118194   6.357   3.542   6.971
 5765SOL    HW218195   6.510   3.511   6.923
 5766SOL     OW18196   2.353   2.388   7.005
 5766SOL    HW118197   2.324   2.471   0.024
 5766SOL    HW218198   2.421   2.411   6.935
 5767SOL     OW18199   1.839   0.374   0.492
 5767SOL    HW118200   1.780   0.454   0.503
 5767SOL    HW218201   1.891   0.359   0.576
 5768SOL     OW18202   0.194   6.370   3.153
 5768SOL    HW118203   0.190   6.396   3.250
 5768SOL    HW218204   0.123   6.301   3.134
 5769SOL     OW18205   2.300   5.894   4.650
 5769SOL    HW118206   2.263   5.987   4.646
 5769SOL    HW218207   2.262   5.840   4.575
 5770SOL     OW18208   5.645   0.031   0.488
 5770SOL    HW118209   5.619   0.113   0.540
 5770SOL    HW218210   5.726   7.018   0.530
 5771SOL     OW18211   1.520   6.207   3.468
 5771SOL    HW118212   1.554   6.139   3.534
 5771SOL    HW218213   1.510   6.295   3.514
 5772SOL     OW18214   5.959   2.259   0.840
 5772SOL    HW118215   5.881   2.221   0.889
 5772SOL    HW218216   6.031   2.283   0.904
 5773SOL     OW18217   4.366   1.364   3.773
 5773SOL    HW118218   4.397   1.355   3.868
 5773SOL    HW218219   4.386   1.279   3.724
 5774SOL     OW18220   2.800   5.560   3.659
 5774SOL    HW118221   2.897   5.584   3.645
 5774SOL    HW218222   2.750   5.643   3.685
 5775SOL     OW18223   1.675   0.996   2.022
 5775SOL    HW118224   1.712   0.913   1.980
 5775SOL    HW218225   1.601   0.971   2.085
 5776SOL     OW18226   6.677   0.547   6.028
 5776SOL    HW118227   6.598   0.538   5.968
 5776SOL    HW218228   6.726   0.632   6.006
 5777SOL     OW18229   6.656   0.534   4.829
 5777SOL    HW118230   6.637   0.440   4.854
 5777SOL    HW218231   6.754   0.544   4.811
 5778SOL     OW18232   1.906   0.207   1.534
 5778SOL    HW118233   1.869   0.163   1.615
 5778SOL    HW218234   2.001   0.178   1.520
 5779SOL     OW18235   4.213   1.734   0.515
 5779SOL    HW118236   4.132   1.740   0.456
 5779SOL    HW218237   4.283   1.797   0.481
 5780SOL     OW18238   6.210   5.199   2.911
 5780SOL    HW118239   6.265   5.205   2.994
 5780SOL    HW218240   6.116   5.174   2.935
 5781SOL     OW18241   0.532   4.034   4.665
 5781SOL    HW118242   0.582   3.964   4.614
 5781SOL    HW218243   0.596   4.104   4.698
 5782SOL     OW18244   1.234   0.938   0.683
 5782SOL    HW118245   1.267   0.913   0.775
 5782SOL    HW218246   1.310   0.931   0.618
 5783SOL     OW18247   1.876   0.479   1.633
 5783SOL    HW118248   1.829   0.555   1.588
 5783SOL    HW218249   1.876   0.399   1.573
 5784SOL     OW18250   6.561   6.686   0.204
 5784SOL    HW118251   6.626   6.759   0.183
 5784SOL    HW218252   6.484   6.724   0.255
 5785SOL     OW18253   1.672   1.709   0.854
 5785SOL    HW118254   1.714   1.723   0.944
 5785SOL    HW218255   1.744   1.703   0.785
 5786SOL     OW18256   0.525   3.878   0.482
 5786SOL    HW118257   0.446   3.871   0.543
 5786SOL    HW218258   0.581   3.795   0.490
 5787SOL     OW18259   4.586   2.689   5.271
 5787SOL    HW118260   4.491   2.693   5.302
 5787SOL    HW218261   4.646   2.670   5.349
 5788SOL     OW18262   3.131   1.186   1.487
 5788SOL    HW118263   3.075   1.130   1.426
 5788SOL    HW218264   3.223   1.196   1.449
 5789SOL     OW18265   3.394   3.976   6.300
 5789SOL    HW118266   3.337   4.052   6.267
 5789SOL    HW218267   3.340   3.919   6.362
 5790SOL     OW18268   0.383   4.588   5.066
 5790SOL    HW118269   0.330   4.547   4.992
 5790SOL    HW218270   0.480   4.574   5.050
 5791SOL     OW18271   3.019   2.187   2.581
 5791SOL    HW118272   2.947   2.241   2.626
 5791SOL    HW218273   3.018   2.206   2.483
 5792SOL     OW18274   5.654   2.783   2.085
 5792SOL    HW118275   5.678   2.690   2.114
 5792SOL    HW218276   5.616   2.780   1.993
 5793SOL     OW18277   6.003   0.707   4.090
 5793SOL    HW118278   6.099   0.734   4.104
 5793SOL    HW218279   5.990   0.612   4.120
 5794SOL     OW18280   2.888   0.300   6.587
 5794SOL    HW118281   2.936   0.218   6.554
 5794SOL    HW218282   2.794   0.298   6.553
 5795SOL     OW18283   6.939   0.043   1.440
 5795SOL    HW118284   6.870   0.100   1.394
 5795SOL    HW218285   6.910   6.975   1.437
 5796SOL     OW18286   4.295   1.040   6.645
 5796SOL    HW118287   4.283   1.013   6.740
 5796SOL    HW218288   4.341   1.129   6.641
 5797SOL     OW18289   5.230   1.811   0.451
 5797SOL    HW118290   5.324   1.796   0.421
 5797SOL    HW218291   5.217   1.907   0.477
 5798SOL     OW18292   6.940   5.154   4.877
 5798SOL    HW118293   7.007   5.225   4.861
 5798SOL    HW218294   6.966   5.071   4.826
 5799SOL     OW18295   0.365   0.745   4.388
 5799SOL    HW118296   0.347   0.844   4.389
 5799SOL    HW218297   0.287   0.697   4.428
 5800SOL     OW18298   0.842   6.632   2.141
 5800SOL    HW118299   0.922   6.637   2.200
 5800SOL    HW218300   0.865   6.581   2.058
 5801SOL     OW18301   1.840   2.381   3.408
 5801SOL    HW118302   1.782   2.441   3.464
 5801SOL    HW218303   1.842   2.290   3.449
 5802SOL     OW18304   6.515   2.902   2.722
 5802SOL    HW118305   6.431   2.908   2.777
 5802SOL    HW218306   6.502   2.950   2.636
 5803SOL     OW18307   1.827   6.088   2.647
 5803SOL    HW118308   1.920   6.072   2.613
 5803SOL    HW218309   1.767   6.016   2.612
 5804SOL     OW18310   6.903   5.877   3.461
 5804SOL    HW118311   6.954   5.877   3.375
 5804SOL    HW218312   6.807   5.855   3.443
 5805SOL     OW18313   1.545   3.188   0.642
 5805SOL    HW118314   1.609   3.221   0.711
 5805SOL    HW218315   1.548   3.088   0.639
 5806SOL     OW18316   6.984   4.945   4.649
 5806SOL    HW118317   7.022   4.957   4.557
 5806SOL    HW218318   6.900   4.891   4.644
 5807SOL     OW18319   0.904   5.868   0.210
 5807SOL    HW118320   0.860   5.798   0.267
 5807SOL    HW218321   0.997   5.839   0.188
 5808SOL     OW18322   0.032   6.490   4.509
 5808SOL    HW118323   0.122   6.457   4.538
 5808SOL    HW218324   0.005   6.442   4.425
 5809SOL     OW18325   6.683   1.524   5.473
 5809SOL    HW118326   6.754   1.592   5.488
 5809SOL    HW218327   6.701   1.475   5.387
 5810SOL     OW18328   4.978   0.969   5.551
 5810SOL    HW118329   5.057   0.930   5.504
 5810SOL    HW218330   4.896   0.916   5.528
 5811SOL     OW18331   3.731   1.458   4.965
 5811SOL    HW118332   3.635   1.443   4.987
 5811SOL    HW218333   3.770   1.523   5.031
 5812SOL     OW18334   5.009   3.279   6.212
 5812SOL    HW118335   5.050   3.193   6.244
 5812SOL    HW218336   4.910   3.274   6.224
 5813SOL     OW18337   2.891   0.614   0.815
 5813SOL    HW118338   2.924   0.614   0.720
 5813SOL    HW218339   2.929   0.535   0.863
 5814SOL     OW18340   7.007   3.157   2.210
 5814SOL    HW118341   0.058   3.169   2.151
 5814SOL    HW218342   6.924   3.180   2.159
 5815SOL     OW18343   4.148   1.507   4.252
 5815SOL    HW118344   4.244   1.533   4.238
 5815SOL    HW218345   4.125   1.517   4.349
 5816SOL     OW18346   5.260   4.644   0.209
 5816SOL    HW118347   5.280   4.720   0.271
 5816SOL    HW218348   5.219   4.679   0.125
 5817SOL     OW18349   6.021   4.829   5.447
 5817SOL    HW118350   5.955   4.862   5.515
 5817SOL    HW218351   6.113   4.859   5.473
 5818SOL     OW18352   6.828   5.586   5.756
 5818SOL    HW118353   6.770   5.537   5.821
 5818SOL    HW218354   6.807   5.684   5.759
 5819SOL     OW18355   3.591   6.453   6.881
 5819SOL    HW118356   3.636   6.364   6.876
 5819SOL    HW218357   3.520   6.459   6.811
 5820SOL     OW18358   4.312   4.621   2.830
 5820SOL    HW118359   4.350   4.636   2.921
 5820SOL    HW218360   4.217   4.652   2.828
 5821SOL     OW18361   6.667   0.936   1.982
 5821SOL    HW118362   6.669   0.907   2.078
 5821SOL    HW218363   6.647   1.033   1.977
 5822SOL     OW18364   1.822   2.903   1.403
 5822SOL    HW118365   1.770   2.914   1.488
 5822SOL    HW218366   1.875   2.818   1.406
 5823SOL     OW18367   2.912   6.884   4.460
 5823SOL    HW118368   2.929   6.930   4.548
 5823SOL    HW218369   2.964   6.798   4.457
 5824SOL     OW18370   7.016   6.170   3.173
 5824SOL    HW118371   6.987   6.103   3.105
 5824SOL    HW218372   6.938   6.197   3.229
 5825SOL     OW18373   0.143   6.752   4.611
 5825SOL    HW118374   0.083   6.820   4.570
 5825SOL    HW218375   0.128   6.664   4.566
 5826SOL     OW18376   0.409   5.979   6.406
 5826SOL    HW118377   0.462   6.013   6.328
 5826SOL    HW218378   0.364   5.893   6.381
 5827SOL     OW18379   1.989   3.844   4.461
 5827SOL    HW118380   1.900   3.804   4.483
 5827SOL    HW218381   1.976   3.936   4.424
 5828SOL     OW18382   5.153   1.371   2.551
 5828SOL    HW118383   5.061   1.352   2.584
 5828SOL    HW218384   5.220   1.345   2.621
 5829SOL     OW18385   1.698   0.387   4.487
 5829SOL    HW118386   1.631   0.333   4.436
 5829SOL    HW218387   1.729   0.463   4.430
 5830SOL     OW18388   5.534   0.272   5.846
 5830SOL    HW118389   5.500   0.304   5.757
 5830SOL    HW218390   5.580   0.184   5.835
 5831SOL     OW18391   1.453   0.964   6.058
 5831SOL    HW118392   1.387   0.949   5.985
 5831SOL    HW218393   1.406   0.976   6.145
 5832SOL     OW18394   3.159   4.640   6.802
 5832SOL    HW118395   3.104   4.607   6.879
 5832SOL    HW218396   3.170   4.567   6.734
 5833SOL     OW18397   4.207   3.590   5.103
 5833SOL    HW118398   4.139   3.646   5.150
 5833SOL    HW218399   4.184   3.493   5.115
 5834SOL     OW18400   6.809   4.116   6.689
 5834SOL    HW118401   6.873   4.040   6.683
 5834SOL    HW218402   6.800   4.159   6.599
 5835SOL     OW18403   5.291   2.177   2.824
 5835SOL    HW118404   5.375   2.182   2.771
 5835SOL    HW218405   5.226   2.244   2.789
 5836SOL     OW18406   3.093   0.300   1.570
 5836SOL    HW118407   3.012   0.259   1.527
 5836SOL    HW218408   3.111   0.254   1.657
 5837SOL     OW18409   3.420   3.241   0.021
 5837SOL    HW118410   3.348   3.233   0.090
 5837SOL    HW218411   3.442   3.151   7.013
 5838SOL     OW18412   2.896   1.593   0.954
 5838SOL    HW118413   2.854   1.654   0.887
 5838SOL    HW218414   2.947   1.646   1.022
 5839SOL     OW18415   0.702   2.296   0.784
 5839SOL    HW118416   0.667   2.219   0.837
 5839SOL    HW218417   0.795   2.276   0.753
 5840SOL     OW18418   1.047   3.750   6.634
 5840SOL    HW118419   1.014   3.729   6.542
 5840SOL    HW218420   1.041   3.848   6.650
 5841SOL     OW18421   5.382   1.189   1.699
 5841SOL    HW118422   5.322   1.133   1.757
 5841SOL    HW218423   5.381   1.283   1.731
 5842SOL     OW18424   4.886   3.069   1.401
 5842SOL    HW118425   4.861   3.015   1.481
 5842SOL    HW218426   4.806   3.081   1.342
 5843SOL     OW18427   1.280   4.504   1.587
 5843SOL    HW118428   1.316   4.596   1.570
 5843SOL    HW218429   1.317   4.441   1.519
 5844SOL     OW18430   1.757   6.026   6.326
 5844SOL    HW118431   1.723   6.075   6.245
 5844SOL    HW218432   1.717   5.935   6.328
 5845SOL     OW18433   0.872   0.059   1.744
 5845SOL    HW118434   0.835   6.994   1.737
 5845SOL    HW218435   0.803   0.124   1.712
 5846SOL     OW18436   6.341   3.628   5.676
 5846SOL    HW118437   6.270   3.559   5.689
 5846SOL    HW218438   6.299   3.717   5.660
 5847SOL     OW18439   2.649   2.344   2.188
 5847SOL    HW118440   2.729   2.347   2.128
 5847SOL    HW218441   2.602   2.256   2.177
 5848SOL     OW18442   1.548   5.447   3.096
 5848SOL    HW118443   1.515   5.420   3.006
 5848SOL    HW218444   1.647   5.457   3.094
 5849SOL     OW18445   1.915   0.571   5.193
 5849SOL    HW118446   1.889   0.606   5.282
 5849SOL    HW218447   2.002   0.522   5.200
 5850SOL     OW18448   0.130   3.614   2.040
 5850SOL    HW118449   0.182   3.695   2.011
 5850SOL    HW218450   0.035   3.622   2.009
 5851SOL     OW18451   5.298   3.581   3.774
 5851SOL    HW118452   5.337   3.643   3.706
 5851SOL    HW218453   5.358   3.578   3.854
 5852SOL     OW18454   5.493   6.564   2.749
 5852SOL    HW118455   5.570   6.628   2.749
 5852SOL    HW218456   5.496   6.509   2.665
 5853SOL     OW18457   3.866   5.393   5.489
 5853SOL    HW118458   3.871   5.383   5.588
 5853SOL    HW218459   3.781   5.354   5.455
 5854SOL     OW18460   4.472   3.913   5.807
 5854SOL    HW118461   4.549   3.860   5.842
 5854SOL    HW218462   4.503   4.004   5.781
 5855SOL     OW18463   1.672   0.841   4.349
 5855SOL    HW118464   1.743   0.855   4.418
 5855SOL    HW218465   1.589   0.889   4.376
 5856SOL     OW18466   1.398   5.818   3.616
 5856SOL    HW118467   1.395   5.749   3.689
 5856SOL    HW218468   1.391   5.909   3.657
 5857SOL     OW18469   6.169   3.440   5.249
 5857SOL    HW118470   6.222   3.361   5.278
 5857SOL    HW218471   6.227   3.502   5.196
 5858SOL     OW18472   2.395   2.111   2.660
 5858SOL    HW118473   2.384   2.203   2.622
 5858SOL    HW218474   2.308   2.062   2.653
 5859SOL     OW18475   6.420   6.158   1.645
 5859SOL    HW118476   6.507   6.206   1.635
 5859SOL    HW218477   6.351   6.222   1.680
 5860SOL     OW18478   0.060   4.753   3.546
 5860SOL    HW118479   6.999   4.737   3.589
 5860SOL    HW218480   0.126   4.685   3.579
 5861SOL     OW18481   5.728   0.873   4.240
 5861SOL    HW118482   5.809   0.826   4.273
 5861SOL    HW218483   5.715   0.854   4.142
 5862SOL     OW18484   5.726   5.553   1.138
 5862SOL    HW118485   5.694   5.518   1.050
 5862SOL    HW218486   5.671   5.513   1.211
 5863SOL     OW18487   2.718   2.297   4.957
 5863SOL    HW118488   2.703   2.348   4.872
 5863SOL    HW218489   2.786   2.226   4.942
 5864SOL     OW18490   3.660   4.101   2.618
 5864SOL    HW118491   3.658   4.127   2.715
 5864SOL    HW218492   3.754   4.094   2.587
 5865SOL     OW18493   5.712   0.346   5.126
 5865SOL    HW118494   5.749   0.408   5.196
 5865SOL    HW218495   5.646   0.396   5.070
 5866SOL     OW18496   3.869   3.242   1.101
 5866SOL    HW118497   3.950   3.214   1.049
 5866SOL    HW218498   3.896   3.274   1.191
 5867SOL     OW18499   2.409   3.375   1.407
 5867SOL    HW118500   2.335   3.381   1.474
 5867SOL    HW218501   2.486   3.325   1.447
 5868SOL     OW18502   2.284   1.635   5.803
 5868SOL    HW118503   2.358   1.682   5.851
 5868SOL    HW218504   2.278   1.670   5.710
 5869SOL     OW18505   1.987   5.864   2.873
 5869SOL    HW118506   1.907   5.866   2.813
 5869SOL    HW218507   2.029   5.955   2.875
 5870SOL     OW18508   5.516   6.041   5.143
 5870SOL    HW118509   5.478   6.036   5.051
 5870SOL    HW218510   5.533   6.137   5.167
 5871SOL     OW18511   3.693   3.324   1.903
 5871SOL    HW118512   3.616   3.268   1.934
 5871SOL    HW218513   3.666   3.420   1.898
 5872SOL     OW18514   4.330   6.662   1.509
 5872SOL    HW118515   4.271   6.738   1.481
 5872SOL    HW218516   4.401   6.696   1.571
 5873SOL     OW18517   3.777   0.506   2.050
 5873SOL    HW118518   3.787   0.589   2.106
 5873SOL    HW218519   3.730   0.529   1.965
 5874SOL     OW18520   2.193   4.566   5.351
 5874SOL    HW118521   2.112   4.526   5.395
 5874SOL    HW218522   2.238   4.628   5.415
 5875SOL     OW18523   4.111   1.408   0.302
 5875SOL    HW118524   4.152   1.317   0.302
 5875SOL    HW218525   4.154   1.464   0.231
 5876SOL     OW18526   3.981   3.367   1.733
 5876SOL    HW118527   4.058   3.431   1.743
 5876SOL    HW218528   3.908   3.411   1.680
 5877SOL     OW18529   6.741   6.447   1.103
 5877SOL    HW118530   6.661   6.452   1.044
 5877SOL    HW218531   6.819   6.413   1.050
 5878SOL     OW18532   6.923   5.703   4.407
 5878SOL    HW118533   7.013   5.738   4.379
 5878SOL    HW218534   6.921   5.692   4.506
 5879SOL     OW18535   1.381   4.285   0.033
 5879SOL    HW118536   1.285   4.313   0.033
 5879SOL    HW218537   1.390   4.196   0.077
 5880SOL     OW18538   4.456   4.466   6.890
 5880SOL    HW118539   4.518   4.390   6.905
 5880SOL    HW218540   4.387   4.467   6.962
 5881SOL     OW18541   0.662   6.610   2.790
 5881SOL    HW118542   0.688   6.575   2.880
 5881SOL    HW218543   0.568   6.583   2.770
 5882SOL     OW18544   0.280   5.998   1.705
 5882SOL    HW118545   0.332   6.083   1.698
 5882SOL    HW218546   0.331   5.932   1.760
 5883SOL     OW18547   1.187   1.112   6.151
 5883SOL    HW118548   1.253   1.071   6.213
 5883SOL    HW218549   1.213   1.206   6.131
 5884SOL     OW18550   2.968   1.557   4.751
 5884SOL    HW118551   3.016   1.610   4.681
 5884SOL    HW218552   2.869   1.572   4.741
 5885SOL     OW18553   0.526   0.455   3.267
 5885SOL    HW118554   0.546   0.546   3.302
 5885SOL    HW218555   0.534   0.455   3.167
 5886SOL     OW18556   1.021   2.022   4.882
 5886SOL    HW118557   1.076   2.054   4.959
 5886SOL    HW218558   1.081   2.005   4.803
 5887SOL     OW18559   2.641   1.614   3.064
 5887SOL    HW118560   2.600   1.650   3.148
 5887SOL    HW218561   2.700   1.684   3.024
 5888SOL     OW18562   3.001   0.901   1.658
 5888SOL    HW118563   3.037   0.898   1.564
 5888SOL    HW218564   2.951   0.986   1.672
 5889SOL     OW18565   1.358   6.714   0.506
 5889SOL    HW118566   1.352   6.776   0.584
 5889SOL    HW218567   1.272   6.662   0.499
 5890SOL     OW18568   2.284   1.066   3.962
 5890SOL    HW118569   2.371   1.104   3.994
 5890SOL    HW218570   2.302   0.984   3.907
 5891SOL     OW18571   3.869   3.098   6.005
 5891SOL    HW118572   3.889   3.134   5.914
 5891SOL    HW218573   3.771   3.106   6.022
 5892SOL     OW18574   0.697   5.256   1.429
 5892SOL    HW118575   0.655   5.252   1.338
 5892SOL    HW218576   0.646   5.197   1.491
 5893SOL     OW18577   2.167   3.877   4.110
 5893SOL    HW118578   2.157   3.876   4.010
 5893SOL    HW218579   2.163   3.783   4.144
 5894SOL     OW18580   6.883   4.865   4.319
 5894SOL    HW118581   6.961   4.804   4.305
 5894SOL    HW218582   6.866   4.917   4.235
 5895SOL     OW18583   5.852   4.129   4.048
 5895SOL    HW118584   5.793   4.173   4.116
 5895SOL    HW218585   5.796   4.092   3.974
 5896SOL     OW18586   4.004   0.809   0.292
 5896SOL    HW118587   3.951   0.883   0.334
 5896SOL    HW218588   3.941   0.739   0.257
 5897SOL     OW18589   4.028   0.502   1.294
 5897SOL    HW118590   4.119   0.545   1.297
 5897SOL    HW218591   3.959   0.567   1.326
 5898SOL     OW18592   1.945   6.458   3.202
 5898SOL    HW118593   1.871   6.477   3.138
 5898SOL    HW218594   1.928   6.370   3.248
 5899SOL     OW18595   5.258   5.782   6.024
 5899SOL    HW118596   5.298   5.819   5.940
 5899SOL    HW218597   5.301   5.826   6.103
 5900SOL     OW18598   5.984   5.268   3.649
 5900SOL    HW118599   5.984   5.176   3.686
 5900SOL    HW218600   5.941   5.268   3.558
 5901SOL     OW18601   2.486   0.791   0.581
 5901SOL    HW118602   2.410   0.832   0.530
 5901SOL    HW218603   2.493   0.836   0.671
 5902SOL     OW18604   6.544   2.633   5.523
 5902SOL    HW118605   6.476   2.682   5.577
 5902SOL    HW218606   6.601   2.698   5.474
 5903SOL     OW18607   4.660   4.682   7.023
 5903SOL    HW118608   4.686   4.642   6.935
 5903SOL    HW218609   4.607   4.614   0.047
 5904SOL     OW18610   1.156   4.201   1.344
 5904SOL    HW118611   1.249   4.206   1.380
 5904SOL    HW218612   1.125   4.106   1.345
 5905SOL     OW18613   6.269   5.631   3.326
 5905SOL    HW118614   6.297   5.625   3.422
 5905SOL    HW218615   6.176   5.597   3.316
 5906SOL     OW18616   3.830   2.163   3.432
 5906SOL    HW118617   3.886   2.221   3.374
 5906SOL    HW218618   3.873   2.153   3.522
 5907SOL     OW18619   0.321   5.351   0.902
 5907SOL    HW118620   0.399   5.290   0.887
 5907SOL    HW218621   0.351   5.433   0.950
 5908SOL     OW18622   0.502   2.611   6.534
 5908SOL    HW118623   0.499   2.685   6.466
 5908SOL    HW218624   0.546   2.531   6.495
 5909SOL     OW18625   6.542   5.476   0.456
 5909SOL    HW118626   6.581   5.543   0.519
 5909SOL    HW218627   6.560   5.506   0.362
 5910SOL     OW18628   6.656   3.557   3.644
 5910SOL    HW118629   6.662   3.511   3.732
 5910SOL    HW218630   6.631   3.491   3.573
 5911SOL     OW18631   6.594   6.450   6.776
 5911SOL    HW118632   6.667   6.385   6.753
 5911SOL    HW218633   6.597   6.470   6.874
 5912SOL     OW18634   6.524   0.922   5.985
 5912SOL    HW118635   6.619   0.947   6.001
 5912SOL    HW218636   6.493   0.963   5.900
 5913SOL     OW18637   4.773   2.979   6.258
 5913SOL    HW118638   4.707   2.915   6.299
 5913SOL    HW218639   4.754   3.071   6.292
 5914SOL     OW18640   1.472   4.967   6.363
 5914SOL    HW118641   1.446   4.872   6.346
 5914SOL    HW218642   1.571   4.974   6.371
 5915SOL     OW18643   4.369   5.851   1.013
 5915SOL    HW118644   4.387   5.831   1.109
 5915SOL    HW218645   4.331   5.943   1.004
 5916SOL     OW18646   5.831   6.506   4.035
 5916SOL    HW118647   5.773   6.432   3.999
 5916SOL    HW218648   5.781   6.592   4.031
 5917SOL     OW18649   3.024   3.367   4.505
 5917SOL    HW118650   3.008   3.285   4.560
 5917SOL    HW218651   3.116   3.402   4.523
 5918SOL     OW18652   1.903   4.042   5.342
 5918SOL    HW118653   1.952   4.109   5.398
 5918SOL    HW218654   1.828   4.003   5.396
 5919SOL     OW18655   3.925   3.001   3.091
 5919SOL    HW118656   3.994   3.046   3.148
 5919SOL    HW218657   3.835   3.037   3.113
 5920SOL     OW18658   4.423   1.312   6.715
 5920SOL    HW118659   4.523   1.305   6.706
 5920SOL    HW218660   4.401   1.361   6.799
 5921SOL     OW18661   3.273   5.351   6.361
 5921SOL    HW118662   3.364   5.342   6.402
 5921SOL    HW218663   3.276   5.314   6.268
 5922SOL     OW18664   5.042   3.974   2.890
 5922SOL    HW118665   4.979   3.931   2.954
 5922SOL    HW218666   5.135   3.968   2.927
 5923SOL     OW18667   6.808   1.743   1.909
 5923SOL    HW118668   6.860   1.709   1.987
 5923SOL    HW218669   6.819   1.842   1.903
 5924SOL     OW18670   6.676   0.019   2.954
 5924SOL    HW118671   6.580   0.010   2.929
 5924SOL    HW218672   6.726   0.061   2.879
 5925SOL     OW18673   3.965   6.907   2.159
 5925SOL    HW118674   3.971   7.007   2.157
 5925SOL    HW218675   3.950   6.876   2.253
 5926SOL     OW18676   3.915   5.550   2.114
 5926SOL    HW118677   3.970   5.473   2.144
 5926SOL    HW218678   3.940   5.574   2.020
 5927SOL     OW18679   1.500   4.523   2.628
 5927SOL    HW118680   1.470   4.564   2.542
 5927SOL    HW218681   1.432   4.456   2.659
 5928SOL     OW18682   3.674   6.997   1.224
 5928SOL    HW118683   3.597   6.953   1.271
 5928SOL    HW218684   3.711   6.935   1.155
 5929SOL     OW18685   6.593   0.203   6.066
 5929SOL    HW118686   6.668   0.250   6.020
 5929SOL    HW218687   6.602   0.215   6.165
 5930SOL     OW18688   6.507   4.219   2.956
 5930SOL    HW118689   6.541   4.301   3.003
 5930SOL    HW218690   6.547   4.214   2.865
 5931SOL     OW18691   0.382   5.790   3.180
 5931SOL    HW118692   0.317   5.767   3.107
 5931SOL    HW218693   0.357   5.878   3.220
 5932SOL     OW18694   3.266   0.317   1.010
 5932SOL    HW118695   3.257   0.384   0.936
 5932SOL    HW218696   3.209   0.345   1.087
 5933SOL     OW18697   6.846   4.973   3.684
 5933SOL    HW118698   6.838   4.873   3.679
 5933SOL    HW218699   6.793   5.015   3.611
 5934SOL     OW18700   3.829   3.008   5.000
 5934SOL    HW118701   3.784   2.929   4.959
 5934SOL    HW218702   3.760   3.068   5.040
 5935SOL     OW18703   5.962   4.934   6.528
 5935SOL    HW118704   5.922   4.849   6.562
 5935SOL    HW218705   5.954   4.938   6.428
 5936SOL     OW18706   3.121   2.297   1.681
 5936SOL    HW118707   3.219   2.303   1.700
 5936SOL    HW218708   3.070   2.343   1.754
 5937SOL     OW18709   6.270   3.557   2.432
 5937SOL    HW118710   6.200   3.574   2.362
 5937SOL    HW218711   6.323   3.640   2.447
 5938SOL     OW18712   6.597   5.416   2.775
 5938SOL    HW118713   6.510   5.382   2.740
 5938SOL    HW218714   6.672   5.362   2.737
 5939SOL     OW18715   2.424   6.502   2.668
 5939SOL    HW118716   2.518   6.536   2.669
 5939SOL    HW218717   2.415   6.427   2.734
 5940SOL     OW18718   4.689   5.313   2.235
 5940SOL    HW118719   4.643   5.308   2.324
 5940SOL    HW218720   4.740   5.399   2.229
 5941SOL     OW18721   5.781   3.267   2.352
 5941SOL    HW118722   5.866   3.244   2.400
 5941SOL    HW218723   5.756   3.192   2.291
 5942SOL     OW18724   5.869   3.539   0.395
 5942SOL    HW118725   5.820   3.506   0.315
 5942SOL    HW218726   5.836   3.491   0.477
 5943SOL     OW18727   3.089   4.059   5.739
 5943SOL    HW118728   3.061   4.003   5.817
 5943SOL    HW218729   3.011   4.078   5.681
 5944SOL     OW18730   7.007   2.531   1.157
 5944SOL    HW118731   0.048   2.532   1.086
 5944SOL    HW218732   6.922   2.570   1.122
 5945SOL     OW18733   6.624   4.860   5.106
 5945SOL    HW118734   6.649   4.883   5.012
 5945SOL    HW218735   6.707   4.848   5.161
 5946SOL     OW18736   3.926   3.539   6.069
 5946SOL    HW118737   3.960   3.452   6.104
 5946SOL    HW218738   3.885   3.591   6.143
 5947SOL     OW18739   3.179   3.334   2.183
 5947SOL    HW118740   3.089   3.369   2.207
 5947SOL    HW218741   3.223   3.295   2.264
 5948SOL     OW18742   4.419   4.743   2.566
 5948SOL    HW118743   4.403   4.688   2.649
 5948SOL    HW218744   4.405   4.840   2.587
 5949SOL     OW18745   5.374   4.129   1.335
 5949SOL    HW118746   5.406   4.223   1.349
 5949SOL    HW218747   5.279   4.122   1.364
 5950SOL     OW18748   5.222   1.060   5.232
 5950SOL    HW118749   5.154   1.121   5.191
 5950SOL    HW218750   5.282   1.023   5.161
 5951SOL     OW18751   1.148   5.604   3.577
 5951SOL    HW118752   1.186   5.512   3.568
 5951SOL    HW218753   1.177   5.645   3.664
 5952SOL     OW18754   5.585   4.676   3.455
 5952SOL    HW118755   5.637   4.715   3.532
 5952SOL    HW218756   5.563   4.748   3.390
 5953SOL     OW18757   6.226   3.095   5.568
 5953SOL    HW118758   6.291   3.130   5.635
 5953SOL    HW218759   6.134   3.096   5.607
 5954SOL     OW18760   6.076   5.163   5.205
 5954SOL    HW118761   6.044   5.194   5.294
 5954SOL    HW218762   6.017   5.201   5.133
 5955SOL     OW18763   4.824   5.549   2.590
 5955SOL    HW118764   4.777   5.554   2.502
 5955SOL    HW218765   4.864   5.638   2.612
 5956SOL     OW18766   4.517   1.909   4.728
 5956SOL    HW118767   4.493   1.828   4.673
 5956SOL    HW218768   4.606   1.894   4.771
 5957SOL     OW18769   3.424   1.143   5.006
 5957SOL    HW118770   3.381   1.231   4.985
 5957SOL    HW218771   3.361   1.088   5.060
 5958SOL     OW18772   5.238   5.991   3.155
 5958SOL    HW118773   5.201   6.025   3.242
 5958SOL    HW218774   5.165   5.988   3.087
 5959SOL     OW18775   4.239   2.966   5.365
 5959SOL    HW118776   4.171   3.009   5.305
 5959SOL    HW218777   4.216   2.869   5.377
 5960SOL     OW18778   3.980   5.237   5.212
 5960SOL    HW118779   4.022   5.147   5.223
 5960SOL    HW218780   3.958   5.274   5.302
 5961SOL     OW18781   4.806   1.609   2.669
 5961SOL    HW118782   4.881   1.670   2.694
 5961SOL    HW218783   4.759   1.645   2.588
 5962SOL     OW18784   5.995   6.182   0.254
 5962SOL    HW118785   5.982   6.281   0.244
 5962SOL    HW218786   5.957   6.152   0.342
 5963SOL     OW18787   3.874   3.517   6.815
 5963SOL    HW118788   3.888   3.550   6.722
 5963SOL    HW218789   3.961   3.521   6.865
 5964SOL     OW18790   0.913   6.356   5.487
 5964SOL    HW118791   1.003   6.317   5.507
 5964SOL    HW218792   0.875   6.395   5.571
 5965SOL     OW18793   2.025   1.518   0.010
 5965SOL    HW118794   2.079   1.528   0.094
 5965SOL    HW218795   1.943   1.465   0.030
 5966SOL     OW18796   2.030   6.421   5.512
 5966SOL    HW118797   1.936   6.426   5.544
 5966SOL    HW218798   2.037   6.464   5.422
 5967SOL     OW18799   3.345   0.390   6.328
 5967SOL    HW118800   3.249   0.364   6.316
 5967SOL    HW218801   3.350   0.483   6.365
 5968SOL     OW18802   5.538   2.134   0.545
 5968SOL    HW118803   5.591   2.217   0.563
 5968SOL    HW218804   5.582   2.056   0.589
 5969SOL     OW18805   6.157   6.984   6.580
 5969SOL    HW118806   6.070   6.946   6.612
 5969SOL    HW218807   6.169   0.048   6.619
 5970SOL     OW18808   0.170   4.328   2.769
 5970SOL    HW118809   0.104   4.255   2.749
 5970SOL    HW218810   0.160   4.401   2.702
 5971SOL     OW18811   0.263   1.531   2.341
 5971SOL    HW118812   0.171   1.523   2.303
 5971SOL    HW218813   0.292   1.626   2.338
 5972SOL     OW18814   5.704   5.829   6.387
 5972SOL    HW118815   5.798   5.831   6.422
 5972SOL    HW218816   5.695   5.757   6.319
 5973SOL     OW18817   1.471   3.557   2.358
 5973SOL    HW118818   1.477   3.492   2.433
 5973SOL    HW218819   1.396   3.531   2.297
 5974SOL     OW18820   5.575   5.694   6.933
 5974SOL    HW118821   5.493   5.735   6.971
 5974SOL    HW218822   5.602   5.742   6.849
 5975SOL     OW18823   4.379   0.005   0.704
 5975SOL    HW118824   4.327   6.962   0.657
 5975SOL    HW218825   4.404   0.077   0.640
 5976SOL     OW18826   4.149   2.744   5.982
 5976SOL    HW118827   4.063   2.770   6.025
 5976SOL    HW218828   4.178   2.815   5.918
 5977SOL     OW18829   1.570   5.852   0.010
 5977SOL    HW118830   1.533   5.873   0.101
 5977SOL    HW218831   1.598   5.936   6.993
 5978SOL     OW18832   4.159   5.738   1.676
 5978SOL    HW118833   4.187   5.659   1.620
 5978SOL    HW218834   4.075   5.777   1.638
 5979SOL     OW18835   5.520   0.463   2.878
 5979SOL    HW118836   5.615   0.481   2.853
 5979SOL    HW218837   5.467   0.547   2.874
 5980SOL     OW18838   3.247   3.831   0.983
 5980SOL    HW118839   3.296   3.815   1.069
 5980SOL    HW218840   3.306   3.880   0.919
 5981SOL     OW18841   5.759   2.109   1.447
 5981SOL    HW118842   5.801   2.185   1.495
 5981SOL    HW218843   5.743   2.034   1.511
 5982SOL     OW18844   6.319   2.704   2.029
 5982SOL    HW118845   6.353   2.701   1.936
 5982SOL    HW218846   6.285   2.613   2.055
 5983SOL     OW18847   1.284   1.473   3.761
 5983SOL    HW118848   1.350   1.406   3.792
 5983SOL    HW218849   1.218   1.429   3.699
 5984SOL     OW18850   6.128   5.430   3.133
 5984SOL    HW118851   6.075   5.424   3.048
 5984SOL    HW218852   6.225   5.429   3.111
 5985SOL     OW18853   6.674   3.400   3.896
 5985SOL    HW118854   6.765   3.360   3.886
 5985SOL    HW218855   6.667   3.447   3.984
 5986SOL     OW18856   3.425   4.134   4.047
 5986SOL    HW118857   3.518   4.131   4.084
 5986SOL    HW218858   3.370   4.200   4.099
 5987SOL     OW18859   5.802   6.777   4.031
 5987SOL    HW118860   5.900   6.773   4.048
 5987SOL    HW218861   5.785   6.811   3.939
 5988SOL     OW18862   4.409   0.252   6.104
 5988SOL    HW118863   4.324   0.257   6.158
 5988SOL    HW218864   4.486   0.276   6.162
 5989SOL     OW18865   2.572   5.757   6.449
 5989SOL    HW118866   2.544   5.662   6.463
 5989SOL    HW218867   2.624   5.788   6.528
 5990SOL     OW18868   3.138   3.544   0.612
 5990SOL    HW118869   3.077   3.572   0.538
 5990SOL    HW218870   3.085   3.533   0.696
 5991SOL     OW18871   3.569   5.308   6.817
 5991SOL    HW118872   3.651   5.250   6.821
 5991SOL    HW218873   3.569   5.360   6.731
 5992SOL     OW18874   3.898   0.286   1.932
 5992SOL    HW118875   3.930   0.318   1.843
 5992SOL    HW218876   3.856   0.362   1.982
 5993SOL     OW18877   3.710   4.762   5.950
 5993SOL    HW118878   3.641   4.779   6.020
 5993SOL    HW218879   3.796   4.734   5.994
 5994SOL     OW18880   6.468   2.665   1.800
 5994SOL    HW118881   6.493   2.574   1.766
 5994SOL    HW218882   6.550   2.710   1.836
 5995SOL     OW18883   4.942   3.594   2.484
 5995SOL    HW118884   4.969   3.500   2.500
 5995SOL    HW218885   4.933   3.610   2.385
 5996SOL     OW18886   0.877   6.169   1.289
 5996SOL    HW118887   0.784   6.157   1.321
 5996SOL    HW218888   0.896   6.267   1.277
 5997SOL     OW18889   0.364   5.218   2.613
 5997SOL    HW118890   0.355   5.207   2.712
 5997SOL    HW218891   0.394   5.131   2.573
 5998SOL     OW18892   6.080   1.337   3.263
 5998SOL    HW118893   6.018   1.368   3.335
 5998SOL    HW218894   6.051   1.247   3.231
 5999SOL     OW18895   2.578   2.582   1.807
 5999SOL    HW118896   2.585   2.490   1.846
 5999SOL    HW218897   2.530   2.577   1.719
 6000SOL     OW18898   2.472   6.784   0.544
 6000SOL    HW118899   2.502   6.717   0.612
 6000SOL    HW218900   2.550   6.810   0.487
 6001SOL     OW18901   0.153   4.361   6.762
 6001SOL    HW118902   0.246   4.352   6.725
 6001SOL    HW218903   0.127   4.457   6.765
 6002SOL     OW18904   5.954   0.844   0.547
 6002SOL    HW118905   5.893   0.778   0.591
 6002SOL    HW218906   6.035   0.797   0.513
 6003SOL     OW18907   6.137   1.966   4.775
 6003SOL    HW118908   6.062   1.901   4.783
 6003SOL    HW218909   6.221   1.924   4.809
 6004SOL     OW18910   6.718   3.513   2.731
 6004SOL    HW118911   6.631   3.474   2.763
 6004SOL    HW218912   6.793   3.455   2.761
 6005SOL     OW18913   4.797   5.005   4.157
 6005SOL    HW118914   4.744   5.087   4.178
 6005SOL    HW218915   4.757   4.959   4.078
 6006SOL     OW18916   2.703   1.354   5.287
 6006SOL    HW118917   2.771   1.377   5.217
 6006SOL    HW218918   2.709   1.256   5.308
 6007SOL     OW18919   5.441   4.038   5.763
 6007SOL    HW118920   5.520   3.983   5.734
 6007SOL    HW218921   5.359   4.005   5.716
 6008SOL     OW18922   2.355   4.491   5.133
 6008SOL    HW118923   2.404   4.412   5.170
 6008SOL    HW218924   2.280   4.516   5.194
 6009SOL     OW18925   2.234   1.092   3.032
 6009SOL    HW118926   2.174   1.155   3.082
 6009SOL    HW218927   2.289   1.144   2.967
 6010SOL     OW18928   1.217   4.856   4.469
 6010SOL    HW118929   1.288   4.833   4.402
 6010SOL    HW218930   1.192   4.952   4.460
 6011SOL     OW18931   5.250   2.882   2.934
 6011SOL    HW118932   5.236   2.860   3.031
 6011SOL    HW218933   5.186   2.829   2.879
 6012SOL     OW18934   5.663   0.866   0.274
 6012SOL    HW118935   5.734   0.929   0.305
 6012SOL    HW218936   5.680   0.776   0.314
 6013SOL     OW18937   5.174   2.185   2.527
 6013SOL    HW118938   5.258   2.136   2.552
 6013SOL    HW218939   5.095   2.138   2.566
 6014SOL     OW18940   4.104   3.469   2.732
 6014SOL    HW118941   4.087   3.384   2.683
 6014SOL    HW218942   4.029   3.487   2.796
 6015SOL     OW18943   6.392   3.636   4.347
 6015SOL    HW118944   6.391   3.593   4.257
 6015SOL    HW218945   6.306   3.685   4.360
 6016SOL     OW18946   6.471   1.651   5.579
 6016SOL    HW118947   6.550   1.600   5.542
 6016SOL    HW218948   6.447   1.725   5.516
 6017SOL     OW18949   6.569   4.617   3.708
 6017SOL    HW118950   6.570   4.534   3.763
 6017SOL    HW218951   6.506   4.683   3.749
 6018SOL     OW18952   4.209   0.280   6.299
 6018SOL    HW118953   4.226   0.372   6.332
 6018SOL    HW218954   4.137   0.282   6.229
 6019SOL     OW18955   0.349   2.940   3.995
 6019SOL    HW118956   0.276   2.948   4.063
 6019SOL    HW218957   0.438   2.940   4.041
 6020SOL     OW18958   0.988   5.225   0.851
 6020SOL    HW118959   0.948   5.245   0.941
 6020SOL    HW218960   1.054   5.150   0.861
 6021SOL     OW18961   4.511   0.576   2.642
 6021SOL    HW118962   4.472   0.618   2.561
 6021SOL    HW218963   4.608   0.599   2.648
 6022SOL     OW18964   5.570   1.540   4.041
 6022SOL    HW118965   5.592   1.479   3.964
 6022SOL    HW218966   5.490   1.505   4.089
 6023SOL     OW18967   5.888   1.357   1.639
 6023SOL    HW118968   5.818   1.373   1.569
 6023SOL    HW218969   5.947   1.281   1.610
 6024SOL     OW18970   1.748   4.815   2.772
 6024SOL    HW118971   1.675   4.758   2.809
 6024SOL    HW218972   1.723   4.911   2.780
 6025SOL     OW18973   3.854   1.649   3.392
 6025SOL    HW118974   3.810   1.725   3.439
 6025SOL    HW218975   3.927   1.684   3.332
 6026SOL     OW18976   6.904   4.298   5.395
 6026SOL    HW118977   6.840   4.375   5.396
 6026SOL    HW218978   6.998   4.332   5.389
 6027SOL     OW18979   0.493   2.883   5.672
 6027SOL    HW118980   0.421   2.931   5.722
 6027SOL    HW218981   0.508   2.928   5.584
 6028SOL     OW18982   6.636   5.086   0.397
 6028SOL    HW118983   6.732   5.098   0.421
 6028SOL    HW218984   6.580   5.139   0.461
 6029SOL     OW18985   2.206   6.877   4.992
 6029SOL    HW118986   2.125   6.929   4.967
 6029SOL    HW218987   2.186   6.779   4.984
 6030SOL     OW18988   4.071   5.331   2.430
 6030SOL    HW118989   4.086   5.427   2.454
 6030SOL    HW218990   3.979   5.320   2.393
 6031SOL     OW18991   2.862   5.541   4.314
 6031SOL    HW118992   2.893   5.501   4.401
 6031SOL    HW218993   2.770   5.579   4.326
 6032SOL     OW18994   2.374   4.497   2.727
 6032SOL    HW118995   2.413   4.526   2.639
 6032SOL    HW218996   2.353   4.578   2.782
 6033SOL     OW18997   2.542   1.904   2.704
 6033SOL    HW118998   2.634   1.926   2.736
 6033SOL    HW218999   2.496   1.988   2.675
 6034SOL     OW19000   1.447   6.843   5.189
 6034SOL    HW119001   1.380   6.836   5.262
 6034SOL    HW219002   1.495   6.930   5.195
 6035SOL     OW19003   0.331   1.264   2.041
 6035SOL    HW119004   0.326   1.362   2.024
 6035SOL    HW219005   0.262   1.217   1.985
 6036SOL     OW19006   5.038   4.538   3.196
 6036SOL    HW119007   5.069   4.619   3.146
 6036SOL    HW219008   4.939   4.535   3.198
 6037SOL     OW19009   4.597   6.164   6.940
 6037SOL    HW119010   4.516   6.113   6.969
 6037SOL    HW219011   4.661   6.170   7.017
 6038SOL     OW19012   1.793   2.925   6.000
 6038SOL    HW119013   1.755   2.844   5.955
 6038SOL    HW219014   1.744   2.942   6.086
 6039SOL     OW19015   3.019   3.093   2.937
 6039SOL    HW119016   2.969   3.058   3.016
 6039SOL    HW219017   3.117   3.081   2.952
 6040SOL     OW19018   1.276   1.620   0.538
 6040SOL    HW119019   1.300   1.586   0.629
 6040SOL    HW219020   1.238   1.712   0.545
 6041SOL     OW19021   2.702   0.232   4.771
 6041SOL    HW119022   2.635   0.305   4.786
 6041SOL    HW219023   2.667   0.147   4.810
 6042SOL     OW19024   4.678   6.444   2.343
 6042SOL    HW119025   4.704   6.351   2.368
 6042SOL    HW219026   4.602   6.474   2.401
 6043SOL     OW19027   1.188   5.238   5.769
 6043SOL    HW119028   1.211   5.269   5.861
 6043SOL    HW219029   1.090   5.217   5.765
 6044SOL     OW19030   1.456   2.742   1.394
 6044SOL    HW119031   1.526   2.813   1.388
 6044SOL    HW219032   1.366   2.784   1.386
 6045SOL     OW19033   5.863   4.070   2.354
 6045SOL    HW119034   5.963   4.071   2.342
 6045SOL    HW219035   5.832   3.977   2.373
 6046SOL     OW19036   3.568   2.123   0.175
 6046SOL    HW119037   3.485   2.114   0.231
 6046SOL    HW219038   3.647   2.095   0.229
 6047SOL     OW19039   5.129   1.649   1.849
 6047SOL    HW119040   5.046   1.697   1.822
 6047SOL    HW219041   5.172   1.697   1.926
 6048SOL     OW19042   4.742   5.199   5.537
 6048SOL    HW119043   4.731   5.188   5.635
 6048SOL    HW219044   4.712   5.291   5.510
 6049SOL     OW19045   5.140   3.476   7.026
 6049SOL    HW119046   5.161   3.400   6.964
 6049SOL    HW219047   5.057   3.522   6.996
 6050SOL     OW19048   3.542   5.749   5.763
 6050SOL    HW119049   3.554   5.673   5.699
 6050SOL    HW219050   3.588   5.727   5.849
 6051SOL     OW19051   1.849   6.183   3.767
 6051SOL    HW119052   1.815   6.277   3.778
 6051SOL    HW219053   1.934   6.184   3.715
 6052SOL     OW19054   5.812   1.144   0.206
 6052SOL    HW119055   5.752   1.203   0.153
 6052SOL    HW219056   5.873   1.093   0.145
 6053SOL     OW19057   4.056   1.157   6.826
 6053SOL    HW119058   4.076   1.153   6.728
 6053SOL    HW219059   4.141   1.165   6.877
 6054SOL     OW19060   2.234   3.399   6.968
 6054SOL    HW119061   2.179   3.417   0.021
 6054SOL    HW219062   2.331   3.397   6.993
 6055SOL     OW19063   4.984   6.739   5.327
 6055SOL    HW119064   5.017   6.722   5.234
 6055SOL    HW219065   5.043   6.691   5.392
 6056SOL     OW19066   5.089   3.293   4.492
 6056SOL    HW119067   5.176   3.339   4.508
 6056SOL    HW219068   5.103   3.194   4.495
 6057SOL     OW19069   5.976   2.074   2.940
 6057SOL    HW119070   5.922   2.155   2.919
 6057SOL    HW219071   6.019   2.085   3.030
 6058SOL     OW19072   4.663   3.528   1.547
 6058SOL    HW119073   4.650   3.463   1.622
 6058SOL    HW219074   4.588   3.595   1.547
 6059SOL     OW19075   5.121   4.689   5.856
 6059SOL    HW119076   5.135   4.599   5.817
 6059SOL    HW219077   5.024   4.714   5.852
 6060SOL     OW19078   2.626   3.531   6.496
 6060SOL    HW119079   2.559   3.465   6.462
 6060SOL    HW219080   2.584   3.589   6.566
 6061SOL     OW19081   3.581   2.972   0.655
 6061SOL    HW119082   3.661   2.997   0.709
 6061SOL    HW219083   3.610   2.922   0.573
 6062SOL     OW19084   2.485   0.970   5.301
 6062SOL    HW119085   2.412   1.038   5.308
 6062SOL    HW219086   2.570   1.008   5.337
 6063SOL     OW19087   4.338   2.807   6.193
 6063SOL    HW119088   4.360   2.904   6.187
 6063SOL    HW219089   4.298   2.776   6.107
 6064SOL     OW19090   1.135   6.085   1.232
 6064SOL    HW119091   1.187   6.041   1.306
 6064SOL    HW219092   1.039   6.095   1.260
 6065SOL     OW19093   0.585   6.586   2.242
 6065SOL    HW119094   0.669   6.592   2.187
 6065SOL    HW219095   0.606   6.609   2.337
 6066SOL     OW19096   4.835   1.453   6.231
 6066SOL    HW119097   4.920   1.444   6.284
 6066SOL    HW219098   4.854   1.433   6.135
 6067SOL     OW19099   5.529   0.901   5.343
 6067SOL    HW119100   5.495   0.811   5.371
 6067SOL    HW219101   5.500   0.920   5.249
 6068SOL     OW19102   5.190   3.320   4.836
 6068SOL    HW119103   5.110   3.283   4.883
 6068SOL    HW219104   5.162   3.359   4.748
 6069SOL     OW19105   5.966   3.001   5.052
 6069SOL    HW119106   6.049   3.039   5.093
 6069SOL    HW219107   5.988   2.919   5.000
 6070SOL     OW19108   2.775   2.370   0.940
 6070SOL    HW119109   2.717   2.340   0.864
 6070SOL    HW219110   2.854   2.309   0.948
 6071SOL     OW19111   5.465   5.771   4.558
 6071SOL    HW119112   5.479   5.690   4.501
 6071SOL    HW219113   5.367   5.789   4.568
 6072SOL     OW19114   6.602   7.010   1.395
 6072SOL    HW119115   6.635   7.011   1.489
 6072SOL    HW219116   6.599   0.076   1.360
 6073SOL     OW19117   5.745   3.161   6.953
 6073SOL    HW119118   5.781   3.133   0.014
 6073SOL    HW219119   5.722   3.079   6.900
 6074SOL     OW19120   0.816   6.082   2.725
 6074SOL    HW119121   0.829   6.032   2.640
 6074SOL    HW219122   0.858   6.030   2.800
 6075SOL     OW19123   5.749   0.869   5.815
 6075SOL    HW119124   5.809   0.792   5.793
 6075SOL    HW219125   5.804   0.949   5.838
 6076SOL     OW19126   3.043   5.424   4.167
 6076SOL    HW119127   2.973   5.467   4.223
 6076SOL    HW219128   3.133   5.443   4.207
 6077SOL     OW19129   6.147   5.602   1.032
 6077SOL    HW119130   6.222   5.653   1.075
 6077SOL    HW219131   6.166   5.590   0.935
 6078SOL     OW19132   4.791   4.832   0.777
 6078SOL    HW119133   4.726   4.884   0.832
 6078SOL    HW219134   4.855   4.895   0.733
 6079SOL     OW19135   4.307   3.927   6.065
 6079SOL    HW119136   4.368   3.989   6.114
 6079SOL    HW219137   4.336   3.919   5.970
 6080SOL     OW19138   0.257   6.623   1.321
 6080SOL    HW119139   0.179   6.674   1.285
 6080SOL    HW219140   0.260   6.634   1.421
 6081SOL     OW19141   6.450   2.931   5.329
 6081SOL    HW119142   6.527   2.911   5.390
 6081SOL    HW219143   6.485   2.959   5.239
 6082SOL     OW19144   1.974   1.382   3.718
 6082SOL    HW119145   2.028   1.380   3.802
 6082SOL    HW219146   1.877   1.383   3.741
 6083SOL     OW19147   6.264   6.045   0.218
 6083SOL    HW119148   6.287   5.985   0.295
 6083SOL    HW219149   6.182   6.098   0.240
 6084SOL     OW19150   0.499   6.703   3.463
 6084SOL    HW119151   0.521   6.765   3.538
 6084SOL    HW219152   0.481   6.756   3.380
 6085SOL     OW19153   0.024   5.929   0.664
 6085SOL    HW119154   0.057   5.909   0.572
 6085SOL    HW219155   6.984   6.002   0.660
 6086SOL     OW19156   3.351   1.044   6.007
 6086SOL    HW119157   3.339   1.040   5.908
 6086SOL    HW219158   3.444   1.015   6.031
 6087SOL     OW19159   3.561   5.487   1.217
 6087SOL    HW119160   3.552   5.506   1.315
 6087SOL    HW219161   3.482   5.525   1.168
 6088SOL     OW19162   5.201   5.908   4.252
 6088SOL    HW119163   5.207   5.858   4.165
 6088SOL    HW219164   5.219   6.005   4.236
 6089SOL     OW19165   5.176   3.044   1.823
 6089SOL    HW119166   5.096   3.084   1.866
 6089SOL    HW219167   5.149   2.965   1.768
 6090SOL     OW19168   2.019   5.747   5.184
 6090SOL    HW119169   2.115   5.720   5.174
 6090SOL    HW219170   2.013   5.837   5.227
 6091SOL     OW19171   1.950   1.177   0.305
 6091SOL    HW119172   1.874   1.233   0.272
 6091SOL    HW219173   1.946   1.087   0.262
 6092SOL     OW19174   4.071   0.239   2.411
 6092SOL    HW119175   4.150   0.243   2.471
 6092SOL    HW219176   3.997   0.190   2.457
 6093SOL     OW19177   2.022   3.420   1.852
 6093SOL    HW119178   1.976   3.348   1.904
 6093SOL    HW219179   2.097   3.457   1.906
 6094SOL     OW19180   2.512   6.659   2.085
 6094SOL    HW119181   2.525   6.637   1.988
 6094SOL    HW219182   2.415   6.660   2.107
 6095SOL     OW19183   5.240   4.081   0.668
 6095SOL    HW119184   5.220   4.060   0.764
 6095SOL    HW219185   5.319   4.142   0.664
 6096SOL     OW19186   6.360   6.478   4.242
 6096SOL    HW119187   6.268   6.505   4.214
 6096SOL    HW219188   6.357   6.441   4.335
 6097SOL     OW19189   2.111   5.859   1.873
 6097SOL    HW119190   2.155   5.948   1.889
 6097SOL    HW219191   2.165   5.787   1.916
 6098SOL     OW19192   1.657   1.635   5.380
 6098SOL    HW119193   1.685   1.726   5.349
 6098SOL    HW219194   1.666   1.570   5.305
 6099SOL     OW19195   5.988   6.455   0.200
 6099SOL    HW119196   6.077   6.455   0.153
 6099SOL    HW219197   5.953   6.548   0.205
 6100SOL     OW19198   5.399   6.093   0.737
 6100SOL    HW119199   5.383   6.187   0.767
 6100SOL    HW219200   5.318   6.059   0.689
 6101SOL     OW19201   6.454   3.207   3.963
 6101SOL    HW119202   6.369   3.237   3.920
 6101SOL    HW219203   6.528   3.268   3.937
 6102SOL     OW19204   3.303   6.160   3.000
 6102SOL    HW119205   3.399   6.132   2.991
 6102SOL    HW219206   3.262   6.171   2.910
 6103SOL     OW19207   6.528   1.884   1.522
 6103SOL    HW119208   6.489   1.808   1.469
 6103SOL    HW219209   6.457   1.924   1.579
 6104SOL     OW19210   6.085   0.807   5.391
 6104SOL    HW119211   6.122   0.867   5.461
 6104SOL    HW219212   6.148   0.803   5.313
 6105SOL     OW19213   3.408   6.483   6.661
 6105SOL    HW119214   3.367   6.479   6.570
 6105SOL    HW219215   3.338   6.511   6.727
 6106SOL     OW19216   1.710   4.096   6.938
 6106SOL    HW119217   1.795   4.043   6.934
 6106SOL    HW219218   1.707   4.162   6.863
 6107SOL     OW19219   3.906   5.428   4.541
 6107SOL    HW119220   4.003   5.441   4.517
 6107SOL    HW219221   3.850   5.487   4.484
 6108SOL     OW19222   1.890   3.109   1.886
 6108SOL    HW119223   1.982   3.088   1.919
 6108SOL    HW219224   1.876   3.067   1.796
 6109SOL     OW19225   6.136   2.085   5.219
 6109SOL    HW119226   6.048   2.070   5.263
 6109SOL    HW219227   6.181   2.164   5.261
 6110SOL     OW19228   3.731   4.054   0.517
 6110SOL    HW119229   3.681   3.997   0.451
 6110SOL    HW219230   3.788   4.120   0.467
 6111SOL     OW19231   1.985   4.163   2.519
 6111SOL    HW119232   1.965   4.067   2.497
 6111SOL    HW219233   1.906   4.203   2.566
 6112SOL     OW19234   3.600   0.350   2.200
 6112SOL    HW119235   3.544   0.299   2.135
 6112SOL    HW219236   3.665   0.407   2.150
 6113SOL     OW19237   2.643   0.968   6.840
 6113SOL    HW119238   2.616   0.903   6.769
 6113SOL    HW219239   2.641   1.061   6.804
 6114SOL     OW19240   5.177   5.017   1.488
 6114SOL    HW119241   5.233   5.100   1.494
 6114SOL    HW219242   5.125   5.006   1.573
 6115SOL     OW19243   5.360   0.012   4.126
 6115SOL    HW119244   5.456   0.039   4.111
 6115SOL    HW219245   5.318   7.019   4.038
 6116SOL     OW19246   3.812   1.507   6.197
 6116SOL    HW119247   3.736   1.480   6.257
 6116SOL    HW219248   3.853   1.591   6.231
 6117SOL     OW19249   1.589   1.246   3.434
 6117SOL    HW119250   1.551   1.336   3.457
 6117SOL    HW219251   1.579   1.231   3.335
 6118SOL     OW19252   0.159   1.168   2.343
 6118SOL    HW119253   0.121   1.106   2.412
 6118SOL    HW219254   0.234   1.221   2.383
 6119SOL     OW19255   0.587   4.062   6.625
 6119SOL    HW119256   0.554   4.012   6.545
 6119SOL    HW219257   0.661   4.123   6.598
 6120SOL     OW19258   3.435   6.434   5.048
 6120SOL    HW119259   3.452   6.400   5.140
 6120SOL    HW219260   3.399   6.527   5.052
 6121SOL     OW19261   0.682   3.435   5.795
 6121SOL    HW119262   0.718   3.363   5.736
 6121SOL    HW219263   0.758   3.482   5.840
 6122SOL     OW19264   4.306   5.188   0.547
 6122SOL    HW119265   4.282   5.093   0.531
 6122SOL    HW219266   4.400   5.193   0.581
 6123SOL     OW19267   5.295   0.083   6.898
 6123SOL    HW119268   5.231   0.088   6.822
 6123SOL    HW219269   5.292   0.168   6.950
 6124SOL     OW19270   2.014   6.968   6.043
 6124SOL    HW119271   2.018   6.949   5.945
 6124SOL    HW219272   1.959   0.023   6.059
 6125SOL     OW19273   2.088   4.952   0.388
 6125SOL    HW119274   2.008   4.924   0.335
 6125SOL    HW219275   2.167   4.961   0.328
 6126SOL     OW19276   1.205   0.190   4.266
 6126SOL    HW119277   1.139   0.239   4.322
 6126SOL    HW219278   1.157   0.132   4.201
 6127SOL     OW19279   3.230   0.493   0.777
 6127SOL    HW119280   3.296   0.565   0.758
 6127SOL    HW219281   3.223   0.432   0.698
 6128SOL     OW19282   5.805   4.034   0.162
 6128SOL    HW119283   5.866   4.021   0.084
 6128SOL    HW219284   5.814   3.957   0.225
 6129SOL     OW19285   6.952   3.286   3.157
 6129SOL    HW119286   6.944   3.361   3.221
 6129SOL    HW219287   6.990   3.206   3.203
 6130SOL     OW19288   5.751   2.248   2.791
 6130SOL    HW119289   5.665   2.231   2.744
 6130SOL    HW219290   5.738   2.318   2.862
 6131SOL     OW19291   0.355   1.447   5.398
 6131SOL    HW119292   0.450   1.475   5.390
 6131SOL    HW219293   0.350   1.347   5.405
 6132SOL     OW19294   4.618   2.067   0.129
 6132SOL    HW119295   4.716   2.085   0.140
 6132SOL    HW219296   4.605   1.979   0.084
 6133SOL     OW19297   1.684   3.116   2.078
 6133SOL    HW119298   1.758   3.111   2.011
 6133SOL    HW219299   1.609   3.172   2.042
 6134SOL     OW19300   3.959   4.924   6.321
 6134SOL    HW119301   3.956   4.952   6.417
 6134SOL    HW219302   4.048   4.946   6.282
 6135SOL     OW19303   0.584   0.897   1.186
 6135SOL    HW119304   0.677   0.903   1.151
 6135SOL    HW219305   0.523   0.861   1.115
 6136SOL     OW19306   0.910   3.063   2.349
 6136SOL    HW119307   0.965   2.982   2.370
 6136SOL    HW219308   0.911   3.080   2.251
 6137SOL     OW19309   6.608   3.155   2.803
 6137SOL    HW119310   6.707   3.146   2.793
 6137SOL    HW219311   6.564   3.066   2.788
 6138SOL     OW19312   3.574   6.278   2.774
 6138SOL    HW119313   3.648   6.342   2.752
 6138SOL    HW219314   3.486   6.326   2.768
 6139SOL     OW19315   1.405   0.169   5.912
 6139SOL    HW119316   1.441   0.230   5.982
 6139SOL    HW219317   1.470   0.165   5.836
 6140SOL     OW19318   0.744   6.004   1.909
 6140SOL    HW119319   0.765   6.097   1.938
 6140SOL    HW219320   0.774   5.991   1.814
 6141SOL     OW19321   0.311   6.490   6.603
 6141SOL    HW119322   0.385   6.526   6.547
 6141SOL    HW219323   0.246   6.441   6.545
 6142SOL     OW19324   1.192   6.715   0.133
 6142SOL    HW119325   1.166   6.811   0.119
 6142SOL    HW219326   1.213   6.701   0.230
 6143SOL     OW19327   6.806   3.740   1.665
 6143SOL    HW119328   6.748   3.705   1.592
 6143SOL    HW219329   6.868   3.668   1.696
 6144SOL     OW19330   5.423   4.552   3.079
 6144SOL    HW119331   5.377   4.514   3.160
 6144SOL    HW219332   5.380   4.515   2.996
 6145SOL     OW19333   4.710   5.084   2.953
 6145SOL    HW119334   4.675   5.177   2.942
 6145SOL    HW219335   4.636   5.018   2.937
 6146SOL     OW19336   3.075   5.950   4.085
 6146SOL    HW119337   3.046   5.946   4.181
 6146SOL    HW219338   3.168   5.916   4.077
 6147SOL     OW19339   2.251   2.136   4.691
 6147SOL    HW119340   2.299   2.217   4.725
 6147SOL    HW219341   2.180   2.110   4.756
 6148SOL     OW19342   5.342   6.682   4.872
 6148SOL    HW119343   5.377   6.683   4.778
 6148SOL    HW219344   5.401   6.738   4.929
 6149SOL     OW19345   2.627   5.786   1.069
 6149SOL    HW119346   2.566   5.729   1.014
 6149SOL    HW219347   2.619   5.760   1.166
 6150SOL     OW19348   4.465   5.491   6.844
 6150SOL    HW119349   4.387   5.436   6.876
 6150SOL    HW219350   4.514   5.440   6.773
 6151SOL     OW19351   6.161   4.214   5.977
 6151SOL    HW119352   6.214   4.288   5.937
 6151SOL    HW219353   6.207   4.126   5.958
 6152SOL     OW19354   6.376   5.195   4.607
 6152SOL    HW119355   6.345   5.285   4.637
 6152SOL    HW219356   6.456   5.206   4.548
 6153SOL     OW19357   4.926   4.473   1.705
 6153SOL    HW119358   4.835   4.453   1.741
 6153SOL    HW219359   4.987   4.396   1.722
 6154SOL     OW19360   5.780   1.686   2.725
 6154SOL    HW119361   5.839   1.680   2.805
 6154SOL    HW219362   5.685   1.672   2.752
 6155SOL     OW19363   1.628   1.687   3.958
 6155SOL    HW119364   1.667   1.713   4.046
 6155SOL    HW219365   1.540   1.642   3.973
 6156SOL     OW19366   4.059   4.259   1.254
 6156SOL    HW119367   4.009   4.262   1.167
 6156SOL    HW219368   3.993   4.258   1.330
 6157SOL     OW19369   0.224   0.871   4.925
 6157SOL    HW119370   0.240   0.798   4.991
 6157SOL    HW219371   0.296   0.870   4.856
 6158SOL     OW19372   3.494   2.327   5.873
 6158SOL    HW119373   3.540   2.328   5.962
 6158SOL    HW219374   3.558   2.357   5.802
 6159SOL     OW19375   5.384   2.726   2.246
 6159SOL    HW119376   5.323   2.785   2.193
 6159SOL    HW219377   5.471   2.717   2.199
 6160SOL     OW19378   4.872   1.467   6.535
 6160SOL    HW119379   4.945   1.535   6.529
 6160SOL    HW219380   4.823   1.479   6.621
 6161SOL     OW19381   4.714   1.543   5.014
 6161SOL    HW119382   4.625   1.555   4.970
 6161SOL    HW219383   4.701   1.527   5.111
 6162SOL     OW19384   0.733   6.035   3.128
 6162SOL    HW119385   0.646   6.009   3.087
 6162SOL    HW219386   0.737   6.134   3.141
 6163SOL     OW19387   6.485   6.801   0.924
 6163SOL    HW119388   6.496   6.890   0.968
 6163SOL    HW219389   6.568   6.777   0.874
 6164SOL     OW19390   4.093   3.789   2.267
 6164SOL    HW119391   4.187   3.794   2.232
 6164SOL    HW219392   4.084   3.708   2.325
 6165SOL     OW19393   4.909   1.425   6.979
 6165SOL    HW119394   4.819   1.429   6.934
 6165SOL    HW219395   4.959   1.346   6.946
 6166SOL     OW19396   5.466   1.510   6.501
 6166SOL    HW119397   5.463   1.609   6.516
 6166SOL    HW219398   5.518   1.467   6.574
 6167SOL     OW19399   1.186   5.568   3.304
 6167SOL    HW119400   1.130   5.487   3.287
 6167SOL    HW219401   1.164   5.604   3.395
 6168SOL     OW19402   1.847   3.980   1.811
 6168SOL    HW119403   1.938   3.956   1.777
 6168SOL    HW219404   1.846   4.075   1.841
 6169SOL     OW19405   1.076   2.574   0.618
 6169SOL    HW119406   1.125   2.498   0.577
 6169SOL    HW219407   1.029   2.626   0.547
 6170SOL     OW19408   1.264   3.868   5.390
 6170SOL    HW119409   1.286   3.951   5.337
 6170SOL    HW219410   1.243   3.894   5.484
 6171SOL     OW19411   0.660   2.900   0.462
 6171SOL    HW119412   0.645   2.807   0.496
 6171SOL    HW219413   0.619   2.910   0.372
 6172SOL     OW19414   1.715   2.771   2.496
 6172SOL    HW119415   1.807   2.731   2.492
 6172SOL    HW219416   1.707   2.844   2.428
 6173SOL     OW19417   6.927   5.587   1.686
 6173SOL    HW119418   6.875   5.517   1.637
 6173SOL    HW219419   6.879   5.674   1.681
 6174SOL     OW19420   5.801   4.838   3.550
 6174SOL    HW119421   5.783   4.936   3.559
 6174SOL    HW219422   5.865   4.823   3.475
 6175SOL     OW19423   4.593   0.501   3.656
 6175SOL    HW119424   4.533   0.512   3.577
 6175SOL    HW219425   4.542   0.459   3.731
 6176SOL     OW19426   4.994   3.963   6.299
 6176SOL    HW119427   4.981   4.011   6.386
 6176SOL    HW219428   4.911   3.912   6.276
 6177SOL     OW19429   5.783   0.859   1.126
 6177SOL    HW119430   5.736   0.909   1.199
 6177SOL    HW219431   5.877   0.891   1.120
 6178SOL     OW19432   4.760   4.943   2.614
 6178SOL    HW119433   4.728   4.954   2.520
 6178SOL    HW219434   4.808   4.856   2.623
 6179SOL     OW19435   6.683   4.115   3.195
 6179SOL    HW119436   6.634   4.140   3.279
 6179SOL    HW219437   6.661   4.180   3.123
 6180SOL     OW19438   3.410   4.467   0.238
 6180SOL    HW119439   3.395   4.479   0.139
 6180SOL    HW219440   3.346   4.525   0.288
 6181SOL     OW19441   4.125   6.606   1.065
 6181SOL    HW119442   4.091   6.629   0.974
 6181SOL    HW219443   4.172   6.518   1.062
 6182SOL     OW19444   5.469   3.406   5.535
 6182SOL    HW119445   5.407   3.463   5.482
 6182SOL    HW219446   5.541   3.464   5.575
 6183SOL     OW19447   1.331   2.252   3.122
 6183SOL    HW119448   1.243   2.301   3.119
 6183SOL    HW219449   1.391   2.297   3.188
 6184SOL     OW19450   2.012   0.015   6.793
 6184SOL    HW119451   1.942   0.082   6.818
 6184SOL    HW219452   1.982   6.951   6.821
 6185SOL     OW19453   0.920   3.820   5.679
 6185SOL    HW119454   0.946   3.739   5.731
 6185SOL    HW219455   0.968   3.900   5.715
 6186SOL     OW19456   0.305   0.264   0.071
 6186SOL    HW119457   0.313   0.324   0.151
 6186SOL    HW219458   0.343   0.310   7.019
 6187SOL     OW19459   4.955   4.687   3.631
 6187SOL    HW119460   4.918   4.678   3.539
 6187SOL    HW219461   4.972   4.784   3.651
 6188SOL     OW19462   2.209   0.771   0.761
 6188SOL    HW119463   2.274   0.841   0.788
 6188SOL    HW219464   2.168   0.796   0.673
 6189SOL     OW19465   4.728   4.459   3.177
 6189SOL    HW119466   4.717   4.523   3.100
 6189SOL    HW219467   4.651   4.471   3.240
 6190SOL     OW19468   0.797   3.777   5.429
 6190SOL    HW119469   0.858   3.810   5.356
 6190SOL    HW219470   0.844   3.782   5.517
 6191SOL     OW19471   3.109   1.790   0.161
 6191SOL    HW119472   3.102   1.888   0.142
 6191SOL    HW219473   3.033   1.761   0.220
 6192SOL     OW19474   3.418   2.658   5.600
 6192SOL    HW119475   3.441   2.595   5.526
 6192SOL    HW219476   3.471   2.742   5.590
 6193SOL     OW19477   4.982   0.442   1.986
 6193SOL    HW119478   4.889   0.442   1.947
 6193SOL    HW219479   4.977   0.415   2.082
 6194SOL     OW19480   1.387   0.010   1.880
 6194SOL    HW119481   1.466   0.070   1.892
 6194SOL    HW219482   1.382   6.974   1.957
 6195SOL     OW19483   3.818   6.158   5.791
 6195SOL    HW119484   3.867   6.092   5.734
 6195SOL    HW219485   3.720   6.141   5.785
 6196SOL     OW19486   5.584   2.902   1.483
 6196SOL    HW119487   5.514   2.959   1.525
 6196SOL    HW219488   5.657   2.961   1.447
 6197SOL     OW19489   4.058   4.858   0.817
 6197SOL    HW119490   3.970   4.858   0.770
 6197SOL    HW219491   4.104   4.771   0.803
 6198SOL     OW19492   4.073   6.345   2.071
 6198SOL    HW119493   4.019   6.427   2.091
 6198SOL    HW219494   4.018   6.283   2.014
 6199SOL     OW19495   0.833   1.261   0.266
 6199SOL    HW119496   0.741   1.224   0.278
 6199SOL    HW219497   0.833   1.359   0.286
 6200SOL     OW19498   1.435   1.268   5.782
 6200SOL    HW119499   1.422   1.171   5.763
 6200SOL    HW219500   1.454   1.281   5.879
 6201SOL     OW19501   0.738   3.912   4.521
 6201SOL    HW119502   0.731   3.959   4.433
 6201SOL    HW219503   0.790   3.828   4.510
 6202SOL     OW19504   3.950   1.359   2.398
 6202SOL    HW119505   3.889   1.428   2.361
 6202SOL    HW219506   3.991   1.307   2.322
 6203SOL     OW19507   6.924   5.942   2.602
 6203SOL    HW119508   7.001   5.896   2.645
 6203SOL    HW219509   6.950   5.971   2.509
 6204SOL     OW19510   0.504   4.869   4.514
 6204SOL    HW119511   0.585   4.880   4.457
 6204SOL    HW219512   0.429   4.924   4.476
 6205SOL     OW19513   6.239   5.621   0.078
 6205SOL    HW119514   6.210   5.541   0.026
 6205SOL    HW219515   6.226   5.703   0.022
 6206SOL     OW19516   6.008   1.754   3.376
 6206SOL    HW119517   5.929   1.760   3.315
 6206SOL    HW219518   6.082   1.706   3.330
 6207SOL     OW19519   0.174   4.746   5.163
 6207SOL    HW119520   0.122   4.741   5.077
 6207SOL    HW219521   0.263   4.701   5.150
 6208SOL     OW19522   5.481   2.418   5.768
 6208SOL    HW119523   5.459   2.499   5.714
 6208SOL    HW219524   5.441   2.337   5.726
 6209SOL     OW19525   4.012   5.830   6.452
 6209SOL    HW119526   4.077   5.900   6.479
 6209SOL    HW219527   3.923   5.848   6.495
 6210SOL     OW19528   5.553   3.539   3.920
 6210SOL    HW119529   5.533   3.447   3.888
 6210SOL    HW219530   5.518   3.551   4.013
 6211SOL     OW19531   3.113   6.494   5.614
 6211SOL    HW119532   3.122   6.585   5.653
 6211SOL    HW219533   3.102   6.500   5.515
 6212SOL     OW19534   2.228   4.992   4.327
 6212SOL    HW119535   2.296   4.920   4.340
 6212SOL    HW219536   2.165   4.993   4.404
 6213SOL     OW19537   6.616   0.588   0.562
 6213SOL    HW119538   6.701   0.627   0.527
 6213SOL    HW219539   6.614   0.596   0.662
 6214SOL     OW19540   4.552   5.154   4.199
 6214SOL    HW119541   4.506   5.131   4.285
 6214SOL    HW219542   4.505   5.231   4.156
 6215SOL     OW19543   3.945   2.228   0.131
 6215SOL    HW119544   3.994   2.261   0.211
 6215SOL    HW219545   3.932   2.303   0.066
 6216SOL     OW19546   6.189   1.339   2.299
 6216SOL    HW119547   6.176   1.252   2.346
 6216SOL    HW219548   6.134   1.342   2.216
 6217SOL     OW19549   0.570   3.550   2.566
 6217SOL    HW119550   0.534   3.624   2.623
 6217SOL    HW219551   0.520   3.466   2.585
 6218SOL     OW19552   3.967   6.051   6.784
 6218SOL    HW119553   3.977   5.952   6.779
 6218SOL    HW219554   4.009   6.093   6.703
 6219SOL     OW19555   1.672   2.359   4.507
 6219SOL    HW119556   1.676   2.325   4.600
 6219SOL    HW219557   1.765   2.376   4.473
 6220SOL     OW19558   2.632   1.544   4.492
 6220SOL    HW119559   2.538   1.577   4.504
 6220SOL    HW219560   2.653   1.541   4.394
 6221SOL     OW19561   5.464   5.988   0.033
 6221SOL    HW119562   5.469   5.955   0.127
 6221SOL    HW219563   5.527   6.065   0.021
 6222SOL     OW19564   0.991   6.282   1.633
 6222SOL    HW119565   0.893   6.281   1.612
 6222SOL    HW219566   1.039   6.333   1.561
 6223SOL     OW19567   1.351   4.983   3.874
 6223SOL    HW119568   1.367   4.888   3.899
 6223SOL    HW219569   1.269   4.989   3.817
 6224SOL     OW19570   3.024   1.575   5.949
 6224SOL    HW119571   3.087   1.597   6.024
 6224SOL    HW219572   2.985   1.484   5.963
 6225SOL     OW19573   4.229   3.566   6.731
 6225SOL    HW119574   4.216   3.507   6.811
 6225SOL    HW219575   4.306   3.628   6.748
 6226SOL     OW19576   0.325   1.985   5.674
 6226SOL    HW119577   0.296   2.007   5.581
 6226SOL    HW219578   0.417   1.947   5.672
 6227SOL     OW19579   3.180   5.576   5.214
 6227SOL    HW119580   3.197   5.621   5.126
 6227SOL    HW219581   3.107   5.508   5.203
 6228SOL     OW19582   1.253   3.453   2.221
 6228SOL    HW119583   1.225   3.365   2.257
 6228SOL    HW219584   1.174   3.515   2.219
 6229SOL     OW19585   0.650   2.093   3.528
 6229SOL    HW119586   0.686   2.003   3.504
 6229SOL    HW219587   0.610   2.136   3.447
 6230SOL     OW19588   0.541   1.763   3.314
 6230SOL    HW119589   0.452   1.799   3.342
 6230SOL    HW219590   0.556   1.783   3.217
 6231SOL     OW19591   6.347   6.421   0.653
 6231SOL    HW119592   6.311   6.513   0.667
 6231SOL    HW219593   6.302   6.358   0.717
 6232SOL     OW19594   6.768   1.344   0.889
 6232SOL    HW119595   6.759   1.248   0.914
 6232SOL    HW219596   6.679   1.389   0.899
 6233SOL     OW19597   6.689   1.963   1.122
 6233SOL    HW119598   6.597   1.926   1.113
 6233SOL    HW219599   6.750   1.917   1.057
 6234SOL     OW19600   6.755   0.994   5.592
 6234SOL    HW119601   6.749   0.895   5.606
 6234SOL    HW219602   6.772   1.040   5.679
 6235SOL     OW19603   0.211   7.004   0.920
 6235SOL    HW119604   0.310   6.998   0.933
 6235SOL    HW219605   0.165   6.988   1.007
 6236SOL     OW19606   0.593   4.037   0.890
 6236SOL    HW119607   0.621   4.034   0.986
 6236SOL    HW219608   0.605   4.130   0.855
 6237SOL     OW19609   3.954   0.647   6.069
 6237SOL    HW119610   3.947   0.569   6.008
 6237SOL    HW219611   3.906   0.627   6.155
 6238SOL     OW19612   4.137   5.274   2.681
 6238SOL    HW119613   4.114   5.281   2.584
 6238SOL    HW219614   4.116   5.360   2.727
 6239SOL     OW19615   2.973   0.805   1.354
 6239SOL    HW119616   3.072   0.796   1.350
 6239SOL    HW219617   2.930   0.721   1.322
 6240SOL     OW19618   2.142   3.656   5.575
 6240SOL    HW119619   2.149   3.561   5.605
 6240SOL    HW219620   2.220   3.678   5.515
 6241SOL     OW19621   3.064   6.958   1.586
 6241SOL    HW119622   2.986   6.896   1.599
 6241SOL    HW219623   3.060   0.003   1.654
 6242SOL     OW19624   4.045   0.612   4.192
 6242SOL    HW119625   4.011   0.653   4.107
 6242SOL    HW219626   3.986   0.536   4.218
 6243SOL     OW19627   6.403   6.891   5.344
 6243SOL    HW119628   6.369   6.932   5.259
 6243SOL    HW219629   6.482   6.833   5.324
 6244SOL     OW19630   6.296   2.659   2.627
 6244SOL    HW119631   6.229   2.586   2.614
 6244SOL    HW219632   6.281   2.703   2.716
 6245SOL     OW19633   1.658   3.857   0.224
 6245SOL    HW119634   1.590   3.895   0.161
 6245SOL    HW219635   1.718   3.795   0.175
 6246SOL     OW19636   1.360   2.301   5.748
 6246SOL    HW119637   1.374   2.363   5.671
 6246SOL    HW219638   1.444   2.295   5.802
 6247SOL     OW19639   0.316   5.522   4.111
 6247SOL    HW119640   0.385   5.510   4.182
 6247SOL    HW219641   0.277   5.433   4.087
 6248SOL     OW19642   3.458   3.404   6.834
 6248SOL    HW119643   3.544   3.396   6.783
 6248SOL    HW219644   3.459   3.342   6.913
 6249SOL     OW19645   6.863   4.100   0.396
 6249SOL    HW119646   6.923   4.111   0.475
 6249SOL    HW219647   6.866   4.005   0.365
 6250SOL     OW19648   6.505   0.520   0.229
 6250SOL    HW119649   6.546   0.586   0.166
 6250SOL    HW219650   6.577   0.468   0.274
 6251SOL     OW19651   3.716   6.034   6.023
 6251SOL    HW119652   3.743   6.118   5.977
 6251SOL    HW219653   3.772   6.021   6.105
 6252SOL     OW19654   2.275   6.009   5.456
 6252SOL    HW119655   2.262   6.108   5.467
 6252SOL    HW219656   2.238   5.962   5.536
 6253SOL     OW19657   2.202   5.020   3.859
 6253SOL    HW119658   2.255   5.015   3.944
 6253SOL    HW219659   2.203   5.114   3.825
 6254SOL     OW19660   5.635   1.347   1.505
 6254SOL    HW119661   5.590   1.436   1.508
 6254SOL    HW219662   5.586   1.288   1.441
 6255SOL     OW19663   2.966   0.643   0.544
 6255SOL    HW119664   3.058   0.667   0.515
 6255SOL    HW219665   2.902   0.715   0.515
 6256SOL     OW19666   3.660   5.186   1.461
 6256SOL    HW119667   3.686   5.130   1.540
 6256SOL    HW219668   3.664   5.130   1.378
 6257SOL     OW19669   4.964   2.014   1.028
 6257SOL    HW119670   5.058   2.022   0.995
 6257SOL    HW219671   4.908   2.088   0.991
 6258SOL     OW19672   3.495   0.847   3.658
 6258SOL    HW119673   3.399   0.859   3.632
 6258SOL    HW219674   3.544   0.802   3.584
 6259SOL     OW19675   1.763   2.668   6.928
 6259SOL    HW119676   1.859   2.694   6.937
 6259SOL    HW219677   1.705   2.747   6.946
 6260SOL     OW19678   3.615   5.657   0.551
 6260SOL    HW119679   3.519   5.664   0.576
 6260SOL    HW219680   3.671   5.706   0.619
 6261SOL     OW19681   3.785   1.369   0.135
 6261SOL    HW119682   3.704   1.398   0.187
 6261SOL    HW219683   3.756   1.311   0.059
 6262SOL     OW19684   2.527   6.161   1.989
 6262SOL    HW119685   2.470   6.229   1.944
 6262SOL    HW219686   2.572   6.203   2.069
 6263SOL     OW19687   0.064   0.433   4.541
 6263SOL    HW119688   0.158   0.401   4.553
 6263SOL    HW219689   0.061   0.499   4.466
 6264SOL     OW19690   1.610   0.189   1.914
 6264SOL    HW119691   1.689   0.157   1.861
 6264SOL    HW219692   1.641   0.240   1.994
 6265SOL     OW19693   3.720   3.546   0.627
 6265SOL    HW119694   3.634   3.503   0.599
 6265SOL    HW219695   3.797   3.498   0.584
 6266SOL     OW19696   3.945   0.756   3.983
 6266SOL    HW119697   3.902   0.723   3.900
 6266SOL    HW219698   3.986   0.846   3.967
 6267SOL     OW19699   2.590   6.889   5.769
 6267SOL    HW119700   2.664   6.919   5.830
 6267SOL    HW219701   2.502   6.911   5.811
 6268SOL     OW19702   2.656   0.302   3.341
 6268SOL    HW119703   2.605   0.347   3.268
 6268SOL    HW219704   2.591   0.264   3.408
 6269SOL     OW19705   0.389   6.647   1.899
 6269SOL    HW119706   0.312   6.618   1.957
 6269SOL    HW219707   0.384   6.745   1.883
 6270SOL     OW19708   1.538   0.298   6.139
 6270SOL    HW119709   1.632   0.331   6.130
 6270SOL    HW219710   1.510   0.301   6.235
 6271SOL     OW19711   6.262   2.423   6.248
 6271SOL    HW119712   6.245   2.455   6.155
 6271SOL    HW219713   6.350   2.459   6.280
 6272SOL     OW19714   0.824   2.850   0.094
 6272SOL    HW119715   0.870   2.762   0.107
 6272SOL    HW219716   0.892   2.923   0.092
 6273SOL     OW19717   0.693   6.314   2.849
 6273SOL    HW119718   0.745   6.236   2.815
 6273SOL    HW219719   0.595   6.295   2.842
 6274SOL     OW19720   3.533   6.123   5.773
 6274SOL    HW119721   3.498   6.039   5.814
 6274SOL    HW219722   3.461   6.167   5.720
 6275SOL     OW19723   2.328   6.682   6.349
 6275SOL    HW119724   2.389   6.760   6.358
 6275SOL    HW219725   2.336   6.624   6.430
 6276SOL     OW19726   2.048   4.559   3.726
 6276SOL    HW119727   2.040   4.636   3.663
 6276SOL    HW219728   1.996   4.578   3.809
 6277SOL     OW19729   4.829   3.257   1.034
 6277SOL    HW119730   4.890   3.188   0.996
 6277SOL    HW219731   4.874   3.302   1.111
 6278SOL     OW19732   5.433   6.712   4.577
 6278SOL    HW119733   5.349   6.668   4.547
 6278SOL    HW219734   5.436   6.806   4.543
 6279SOL     OW19735   4.004   6.611   6.768
 6279SOL    HW119736   4.065   6.641   6.694
 6279SOL    HW219737   3.919   6.578   6.729
 6280SOL     OW19738   1.264   1.866   5.245
 6280SOL    HW119739   1.349   1.887   5.197
 6280SOL    HW219740   1.277   1.784   5.301
 6281SOL     OW19741   0.295   4.975   4.371
 6281SOL    HW119742   0.322   5.038   4.299
 6281SOL    HW219743   0.238   4.903   4.331
 6282SOL     OW19744   0.007   5.452   5.916
 6282SOL    HW119745   6.956   5.495   5.871
 6282SOL    HW219746   7.004   5.371   5.967
 6283SOL     OW19747   0.050   3.376   5.151
 6283SOL    HW119748   0.053   3.288   5.103
 6283SOL    HW219749   6.985   3.393   5.183
 6284SOL     OW19750   1.002   5.311   4.649
 6284SOL    HW119751   1.058   5.393   4.642
 6284SOL    HW219752   0.943   5.317   4.729
 6285SOL     OW19753   0.242   3.368   4.412
 6285SOL    HW119754   0.296   3.347   4.493
 6285SOL    HW219755   0.175   3.439   4.435
 6286SOL     OW19756   6.166   1.800   4.326
 6286SOL    HW119757   6.209   1.885   4.298
 6286SOL    HW219758   6.232   1.725   4.318
 6287SOL     OW19759   3.276   4.868   5.081
 6287SOL    HW119760   3.194   4.819   5.111
 6287SOL    HW219761   3.277   4.871   4.981
 6288SOL     OW19762   5.278   4.487   2.324
 6288SOL    HW119763   5.277   4.392   2.293
 6288SOL    HW219764   5.359   4.533   2.288
 6289SOL     OW19765   1.837   4.795   0.532
 6289SOL    HW119766   1.781   4.771   0.611
 6289SOL    HW219767   1.816   4.889   0.504
 6290SOL     OW19768   6.471   5.166   6.013
 6290SOL    HW119769   6.515   5.248   5.974
 6290SOL    HW219770   6.388   5.193   6.061
 6291SOL     OW19771   4.118   3.469   4.103
 6291SOL    HW119772   4.046   3.399   4.106
 6291SOL    HW219773   4.128   3.502   4.009
 6292SOL     OW19774   1.692   2.051   4.683
 6292SOL    HW119775   1.647   2.138   4.705
 6292SOL    HW219776   1.777   2.070   4.634
 6293SOL     OW19777   4.452   1.319   0.864
 6293SOL    HW119778   4.489   1.242   0.813
 6293SOL    HW219779   4.373   1.356   0.815
 6294SOL     OW19780   3.561   6.398   4.156
 6294SOL    HW119781   3.593   6.433   4.068
 6294SOL    HW219782   3.464   6.375   4.150
 6295SOL     OW19783   5.692   4.620   5.203
 6295SOL    HW119784   5.752   4.545   5.177
 6295SOL    HW219785   5.620   4.586   5.264
 6296SOL     OW19786   0.385   6.049   6.071
 6296SOL    HW119787   0.346   6.140   6.088
 6296SOL    HW219788   0.473   6.041   6.117
 6297SOL     OW19789   5.523   0.663   4.753
 6297SOL    HW119790   5.475   0.748   4.732
 6297SOL    HW219791   5.609   0.685   4.800
 6298SOL     OW19792   1.693   3.553   6.842
 6298SOL    HW119793   1.770   3.610   6.869
 6298SOL    HW219794   1.608   3.604   6.853
 6299SOL     OW19795   6.350   1.948   1.326
 6299SOL    HW119796   6.400   1.998   1.397
 6299SOL    HW219797   6.252   1.963   1.338
 6300SOL     OW19798   6.390   1.167   0.027
 6300SOL    HW119799   6.308   1.166   6.997
 6300SOL    HW219800   6.384   1.244   0.091
 6301SOL     OW19801   4.244   6.789   0.320
 6301SOL    HW119802   4.272   6.871   0.270
 6301SOL    HW219803   4.296   6.710   0.288
 6302SOL     OW19804   1.137   0.465   3.410
 6302SOL    HW119805   1.226   0.492   3.374
 6302SOL    HW219806   1.112   0.527   3.485
 6303SOL     OW19807   1.659   0.917   3.814
 6303SOL    HW119808   1.681   1.014   3.826
 6303SOL    HW219809   1.693   0.866   3.893
 6304SOL     OW19810   2.238   1.283   1.133
 6304SOL    HW119811   2.274   1.253   1.222
 6304SOL    HW219812   2.143   1.313   1.144
 6305SOL     OW19813   6.297   6.682   0.738
 6305SOL    HW119814   6.205   6.678   0.776
 6305SOL    HW219815   6.363   6.701   0.812
 6306SOL     OW19816   0.691   4.053   4.295
 6306SOL    HW119817   0.603   4.020   4.259
 6306SOL    HW219818   0.686   4.152   4.305
 6307SOL     OW19819   3.715   4.158   4.814
 6307SOL    HW119820   3.790   4.138   4.878
 6307SOL    HW219821   3.642   4.206   4.863
 6308SOL     OW19822   2.174   2.154   4.431
 6308SOL    HW119823   2.205   2.231   4.375
 6308SOL    HW219824   2.225   2.153   4.517
 6309SOL     OW19825   5.890   4.848   5.198
 6309SOL    HW119826   5.806   4.806   5.233
 6309SOL    HW219827   5.954   4.861   5.274
 6310SOL     OW19828   2.369   5.650   2.662
 6310SOL    HW119829   2.308   5.617   2.733
 6310SOL    HW219830   2.329   5.730   2.618
 6311SOL     OW19831   5.203   1.386   5.675
 6311SOL    HW119832   5.256   1.321   5.621
 6311SOL    HW219833   5.254   1.409   5.758
 6312SOL     OW19834   6.683   6.765   5.530
 6312SOL    HW119835   6.699   6.850   5.481
 6312SOL    HW219836   6.586   6.740   5.524
 6313SOL     OW19837   6.497   5.954   4.191
 6313SOL    HW119838   6.557   5.923   4.265
 6313SOL    HW219839   6.456   6.042   4.216
 6314SOL     OW19840   3.840   6.893   1.649
 6314SOL    HW119841   3.765   6.958   1.662
 6314SOL    HW219842   3.889   6.881   1.736
 6315SOL     OW19843   2.070   2.700   5.335
 6315SOL    HW119844   2.098   2.647   5.414
 6315SOL    HW219845   2.151   2.733   5.286
 6316SOL     OW19846   5.080   2.070   6.767
 6316SOL    HW119847   5.143   2.137   6.806
 6316SOL    HW219848   5.003   2.117   6.724
 6317SOL     OW19849   4.437   5.267   1.376
 6317SOL    HW119850   4.455   5.201   1.450
 6317SOL    HW219851   4.354   5.240   1.327
 6318SOL     OW19852   3.964   6.980   5.936
 6318SOL    HW119853   3.888   0.008   5.968
 6318SOL    HW219854   4.030   6.967   6.010
 6319SOL     OW19855   6.706   1.874   4.705
 6319SOL    HW119856   6.747   1.783   4.713
 6319SOL    HW219857   6.653   1.879   4.620
 6320SOL     OW19858   6.548   6.328   5.256
 6320SOL    HW119859   6.473   6.262   5.253
 6320SOL    HW219860   6.542   6.389   5.177
 6321SOL     OW19861   3.787   4.122   0.778
 6321SOL    HW119862   3.830   4.040   0.816
 6321SOL    HW219863   3.756   4.104   0.685
 6322SOL     OW19864   2.074   2.829   0.661
 6322SOL    HW119865   2.109   2.788   0.577
 6322SOL    HW219866   2.107   2.776   0.739
 6323SOL     OW19867   2.532   2.417   1.594
 6323SOL    HW119868   2.515   2.339   1.654
 6323SOL    HW219869   2.480   2.406   1.509
 6324SOL     OW19870   4.933   1.203   0.789
 6324SOL    HW119871   4.954   1.110   0.758
 6324SOL    HW219872   4.932   1.204   0.889
 6325SOL     OW19873   2.011   3.002   2.720
 6325SOL    HW119874   2.096   2.964   2.684
 6325SOL    HW219875   1.959   3.044   2.645
 6326SOL     OW19876   4.974   4.756   1.620
 6326SOL    HW119877   4.890   4.803   1.593
 6326SOL    HW219878   4.951   4.668   1.661
 6327SOL     OW19879   0.674   1.109   4.909
 6327SOL    HW119880   0.579   1.090   4.935
 6327SOL    HW219881   0.708   1.187   4.961
 6328SOL     OW19882   3.366   3.634   0.235
 6328SOL    HW119883   3.283   3.578   0.242
 6328SOL    HW219884   3.363   3.687   0.150
 6329SOL     OW19885   1.573   2.749   3.152
 6329SOL    HW119886   1.494   2.688   3.150
 6329SOL    HW219887   1.545   2.841   3.125
 6330SOL     OW19888   5.793   0.295   1.574
 6330SOL    HW119889   5.716   0.347   1.537
 6330SOL    HW219890   5.803   0.210   1.523
 6331SOL     OW19891   6.084   2.409   5.443
 6331SOL    HW119892   6.086   2.506   5.416
 6331SOL    HW219893   6.166   2.387   5.495
 6332SOL     OW19894   0.286   2.962   0.674
 6332SOL    HW119895   0.343   2.883   0.696
 6332SOL    HW219896   0.197   2.953   0.719
 6333SOL     OW19897   4.784   6.217   5.133
 6333SOL    HW119898   4.847   6.270   5.075
 6333SOL    HW219899   4.720   6.167   5.076
 6334SOL     OW19900   2.604   1.228   2.506
 6334SOL    HW119901   2.584   1.324   2.488
 6334SOL    HW219902   2.611   1.178   2.419
 6335SOL     OW19903   4.520   0.692   0.667
 6335SOL    HW119904   4.599   0.671   0.724
 6335SOL    HW219905   4.437   0.688   0.722
 6336SOL     OW19906   1.015   2.702   6.684
 6336SOL    HW119907   1.014   2.800   6.705
 6336SOL    HW219908   0.944   2.681   6.617
 6337SOL     OW19909   5.131   4.578   4.983
 6337SOL    HW119910   5.191   4.557   4.906
 6337SOL    HW219911   5.049   4.522   4.978
 6338SOL     OW19912   3.379   2.033   3.899
 6338SOL    HW119913   3.392   1.942   3.939
 6338SOL    HW219914   3.320   2.087   3.958
 6339SOL     OW19915   0.683   3.886   3.522
 6339SOL    HW119916   0.741   3.966   3.506
 6339SOL    HW219917   0.731   3.804   3.492
 6340SOL     OW19918   1.703   5.269   1.815
 6340SOL    HW119919   1.674   5.331   1.742
 6340SOL    HW219920   1.672   5.305   1.903
 6341SOL     OW19921   0.068   3.976   4.446
 6341SOL    HW119922   7.026   3.946   4.511
 6341SOL    HW219923   0.133   4.036   4.492
 6342SOL     OW19924   2.062   1.128   1.989
 6342SOL    HW119925   2.136   1.061   1.995
 6342SOL    HW219926   1.994   1.097   1.922
 6343SOL     OW19927   4.648   1.619   6.349
 6343SOL    HW119928   4.721   1.563   6.309
 6343SOL    HW219929   4.656   1.618   6.449
 6344SOL     OW19930   5.282   2.184   4.581
 6344SOL    HW119931   5.213   2.133   4.529
 6344SOL    HW219932   5.270   2.167   4.679
 6345SOL     OW19933   5.980   2.932   2.678
 6345SOL    HW119934   5.943   2.946   2.770
 6345SOL    HW219935   5.974   2.835   2.655
 6346SOL     OW19936   6.821   5.565   4.189
 6346SOL    HW119937   6.869   5.600   4.270
 6346SOL    HW219938   6.731   5.530   4.216
 6347SOL     OW19939   1.791   1.009   1.186
 6347SOL    HW119940   1.823   1.049   1.100
 6347SOL    HW219941   1.849   0.931   1.210
 6348SOL     OW19942   1.623   2.853   6.234
 6348SOL    HW119943   1.585   2.792   6.303
 6348SOL    HW219944   1.685   2.918   6.277
 6349SOL     OW19945   2.169   0.801   1.582
 6349SOL    HW119946   2.161   0.723   1.521
 6349SOL    HW219947   2.080   0.846   1.590
 6350SOL     OW19948   0.599   5.293   4.068
 6350SOL    HW119949   0.623   5.321   3.975
 6350SOL    HW219950   0.680   5.293   4.125
 6351SOL     OW19951   6.208   3.387   3.800
 6351SOL    HW119952   6.172   3.341   3.881
 6351SOL    HW219953   6.237   3.479   3.824
 6352SOL     OW19954   3.310   6.695   4.761
 6352SOL    HW119955   3.247   6.740   4.698
 6352SOL    HW219956   3.402   6.731   4.747
 6353SOL     OW19957   1.270   6.931   5.978
 6353SOL    HW119958   1.261   0.002   5.963
 6353SOL    HW219959   1.221   6.882   5.906
 6354SOL     OW19960   2.575   5.134   2.986
 6354SOL    HW119961   2.634   5.121   3.065
 6354SOL    HW219962   2.532   5.047   2.962
 6355SOL     OW19963   1.264   5.147   6.742
 6355SOL    HW119964   1.269   5.244   6.719
 6355SOL    HW219965   1.252   5.136   6.840
 6356SOL     OW19966   5.003   5.897   1.804
 6356SOL    HW119967   5.000   5.976   1.743
 6356SOL    HW219968   5.092   5.893   1.849
 6357SOL     OW19969   6.407   3.767   2.744
 6357SOL    HW119970   6.388   3.836   2.815
 6357SOL    HW219971   6.403   3.810   2.654
 6358SOL     OW19972   0.364   2.402   6.831
 6358SOL    HW119973   0.376   2.304   6.820
 6358SOL    HW219974   0.266   2.424   6.837
 6359SOL     OW19975   6.333   0.467   0.438
 6359SOL    HW119976   6.385   0.409   0.500
 6359SOL    HW219977   6.391   0.494   0.361
 6360SOL     OW19978   1.323   4.430   4.428
 6360SOL    HW119979   1.335   4.400   4.334
 6360SOL    HW219980   1.263   4.366   4.476
 6361SOL     OW19981   1.190   6.684   0.948
 6361SOL    HW119982   1.097   6.649   0.932
 6361SOL    HW219983   1.199   6.774   0.906
 6362SOL     OW19984   0.001   6.007   0.034
 6362SOL    HW119985   6.982   6.083   0.078
 6362SOL    HW219986   7.000   5.921   0.077
 6363SOL     OW19987   1.951   5.278   3.855
 6363SOL    HW119988   1.922   5.182   3.857
 6363SOL    HW219989   1.925   5.319   3.767
 6364SOL     OW19990   2.508   1.978   5.401
 6364SOL    HW119991   2.455   2.061   5.417
 6364SOL    HW219992   2.567   1.991   5.321
 6365SOL     OW19993   5.612   0.047   4.025
 6365SOL    HW119994   5.667   6.993   4.013
 6365SOL    HW219995   5.669   0.128   4.008
 6366SOL     OW19996   1.070   5.936   5.469
 6366SOL    HW119997   1.091   6.022   5.515
 6366SOL    HW219998   0.991   5.893   5.514
 6367SOL     OW19999   3.894   1.264   4.822
 6367SOL    HW120000   3.843   1.339   4.864
 6367SOL    HW220001   3.927   1.292   4.732
 6368SOL     OW20002   3.425   5.064   3.432
 6368SOL    HW120003   3.369   5.083   3.513
 6368SOL    HW220004   3.455   5.150   3.391
 6369SOL     OW20005   2.410   6.464   4.462
 6369SOL    HW120006   2.345   6.530   4.501
 6369SOL    HW220007   2.480   6.513   4.410
 6370SOL     OW20008   0.204   3.337   3.489
 6370SOL    HW120009   0.300   3.314   3.504
 6370SOL    HW220010   0.197   3.407   3.418
 6371SOL     OW20011   4.723   4.674   3.011
 6371SOL    HW120012   4.682   4.640   2.925
 6371SOL    HW220013   4.792   4.743   2.989
 6372SOL     OW20014   1.377   1.035   1.588
 6372SOL    HW120015   1.376   1.010   1.491
 6372SOL    HW220016   1.387   1.134   1.597
 6373SOL     OW20017   4.758   4.296   2.395
 6373SOL    HW120018   4.768   4.199   2.416
 6373SOL    HW220019   4.841   4.330   2.351
 6374SOL     OW20020   4.165   3.657   2.928
 6374SOL    HW120021   4.210   3.596   2.863
 6374SOL    HW220022   4.161   3.750   2.890
 6375SOL     OW20023   0.026   1.681   3.302
 6375SOL    HW120024   0.055   1.606   3.242
 6375SOL    HW220025   7.009   1.643   3.383
 6376SOL     OW20026   5.382   2.638   5.211
 6376SOL    HW120027   5.458   2.703   5.210
 6376SOL    HW220028   5.297   2.686   5.234
 6377SOL     OW20029   0.056   1.530   5.265
 6377SOL    HW120030   0.134   1.480   5.303
 6377SOL    HW220031   0.003   1.470   5.205
 6378SOL     OW20032   4.566   4.525   3.723
 6378SOL    HW120033   4.484   4.487   3.766
 6378SOL    HW220034   4.629   4.556   3.795
 6379SOL     OW20035   1.434   4.207   4.827
 6379SOL    HW120036   1.483   4.241   4.747
 6379SOL    HW220037   1.366   4.275   4.856
 6380SOL     OW20038   0.619   1.806   5.013
 6380SOL    HW120039   0.714   1.837   5.018
 6380SOL    HW220040   0.586   1.817   4.919
 6381SOL     OW20041   4.027   2.928   1.847
 6381SOL    HW120042   3.977   2.925   1.934
 6381SOL    HW220043   4.013   2.842   1.798
 6382SOL     OW20044   2.452   1.925   0.752
 6382SOL    HW120045   2.461   2.014   0.796
 6382SOL    HW220046   2.371   1.924   0.693
 6383SOL     OW20047   2.028   2.323   2.959
 6383SOL    HW120048   2.031   2.307   3.057
 6383SOL    HW220049   2.057   2.417   2.940
 6384SOL     OW20050   5.982   3.871   3.131
 6384SOL    HW120051   5.919   3.869   3.053
 6384SOL    HW220052   6.052   3.800   3.121
 6385SOL     OW20053   0.049   3.786   3.482
 6385SOL    HW120054   0.062   3.753   3.389
 6385SOL    HW220055   6.994   3.746   3.521
 6386SOL     OW20056   1.922   4.411   5.949
 6386SOL    HW120057   1.958   4.449   5.863
 6386SOL    HW220058   1.913   4.312   5.940
 6387SOL     OW20059   6.643   1.646   6.339
 6387SOL    HW120060   6.560   1.643   6.283
 6387SOL    HW220061   6.627   1.597   6.425
 6388SOL     OW20062   3.980   6.617   2.092
 6388SOL    HW120063   4.018   6.708   2.077
 6388SOL    HW220064   3.919   6.594   2.016
 6389SOL     OW20065   0.177   5.374   2.218
 6389SOL    HW120066   0.211   5.289   2.180
 6389SOL    HW220067   0.130   5.356   2.305
 6390SOL     OW20068   0.371   0.869   5.807
 6390SOL    HW120069   0.292   0.807   5.805
 6390SOL    HW220070   0.340   0.963   5.789
 6391SOL     OW20071   2.603   0.204   5.886
 6391SOL    HW120072   2.591   0.267   5.963
 6391SOL    HW220073   2.516   0.194   5.838
 6392SOL     OW20074   2.938   5.496   2.725
 6392SOL    HW120075   2.879   5.430   2.771
 6392SOL    HW220076   2.896   5.587   2.733
 6393SOL     OW20077   6.979   6.405   1.898
 6393SOL    HW120078   6.907   6.412   1.967
 6393SOL    HW220079   6.997   6.309   1.878
 6394SOL     OW20080   2.451   5.412   0.755
 6394SOL    HW120081   2.510   5.441   0.679
 6394SOL    HW220082   2.376   5.358   0.719
 6395SOL     OW20083   0.056   2.792   1.703
 6395SOL    HW120084   0.023   2.781   1.609
 6395SOL    HW220085   0.037   2.885   1.734
 6396SOL     OW20086   5.539   3.427   6.659
 6396SOL    HW120087   5.441   3.407   6.648
 6396SOL    HW220088   5.566   3.496   6.593
 6397SOL     OW20089   6.067   1.581   1.032
 6397SOL    HW120090   6.011   1.612   1.109
 6397SOL    HW220091   6.024   1.500   0.991
 6398SOL     OW20092   2.612   6.911   1.614
 6398SOL    HW120093   2.611   6.813   1.638
 6398SOL    HW220094   2.679   6.927   1.542
 6399SOL     OW20095   1.790   6.663   6.653
 6399SOL    HW120096   1.723   6.601   6.695
 6399SOL    HW220097   1.754   6.695   6.565
 6400SOL     OW20098   2.857   5.604   1.735
 6400SOL    HW120099   2.865   5.507   1.713
 6400SOL    HW220100   2.813   5.614   1.824
 6401SOL     OW20101   5.492   5.944   3.477
 6401SOL    HW120102   5.546   6.016   3.519
 6401SOL    HW220103   5.543   5.905   3.400
 6402SOL     OW20104   2.751   2.341   3.169
 6402SOL    HW120105   2.786   2.352   3.262
 6402SOL    HW220106   2.661   2.383   3.161
 6403SOL     OW20107   7.018   5.766   6.377
 6403SOL    HW120108   0.048   5.686   6.394
 6403SOL    HW220109   6.986   5.765   6.282
 6404SOL     OW20110   4.325   0.659   2.431
 6404SOL    HW120111   4.291   0.740   2.479
 6404SOL    HW220112   4.256   0.629   2.365
 6405SOL     OW20113   3.414   0.133   3.880
 6405SOL    HW120114   3.321   0.098   3.872
 6405SOL    HW220115   3.474   0.081   3.820
 6406SOL     OW20116   0.881   2.826   2.663
 6406SOL    HW120117   0.974   2.852   2.689
 6406SOL    HW220118   0.885   2.740   2.610
 6407SOL     OW20119   2.827   6.783   3.813
 6407SOL    HW120120   2.797   6.689   3.796
 6407SOL    HW220121   2.755   6.832   3.862
 6408SOL     OW20122   5.646   0.975   0.567
 6408SOL    HW120123   5.595   1.057   0.594
 6408SOL    HW220124   5.625   0.901   0.631
 6409SOL     OW20125   6.530   4.564   3.428
 6409SOL    HW120126   6.503   4.574   3.524
 6409SOL    HW220127   6.630   4.554   3.423
 6410SOL     OW20128   1.960   1.242   6.913
 6410SOL    HW120129   2.025   1.264   6.986
 6410SOL    HW220130   1.905   1.323   6.893
 6411SOL     OW20131   0.756   3.080   3.198
 6411SOL    HW120132   0.706   3.045   3.119
 6411SOL    HW220133   0.717   3.167   3.227
 6412SOL     OW20134   1.214   1.959   4.624
 6412SOL    HW120135   1.132   1.957   4.566
 6412SOL    HW220136   1.279   2.027   4.589
 6413SOL     OW20137   3.639   4.888   3.546
 6413SOL    HW120138   3.591   4.933   3.471
 6413SOL    HW220139   3.670   4.797   3.517
 6414SOL     OW20140   5.689   0.894   7.007
 6414SOL    HW120141   5.605   0.865   6.961
 6414SOL    HW220142   5.689   0.857   0.072
 6415SOL     OW20143   2.016   3.497   2.932
 6415SOL    HW120144   2.056   3.456   2.850
 6415SOL    HW220145   1.928   3.455   2.951
 6416SOL     OW20146   0.994   1.055   6.579
 6416SOL    HW120147   0.920   0.995   6.550
 6416SOL    HW220148   1.004   1.051   6.678
 6417SOL     OW20149   5.843   5.141   0.384
 6417SOL    HW120150   5.935   5.111   0.357
 6417SOL    HW220151   5.844   5.239   0.401
 6418SOL     OW20152   4.881   3.836   2.031
 6418SOL    HW120153   4.884   3.933   2.051
 6418SOL    HW220154   4.870   3.822   1.933
 6419SOL     OW20155   1.567   4.569   3.356
 6419SOL    HW120156   1.507   4.540   3.431
 6419SOL    HW220157   1.649   4.511   3.354
 6420SOL     OW20158   2.498   5.868   4.320
 6420SOL    HW120159   2.505   5.959   4.279
 6420SOL    HW220160   2.403   5.836   4.313
 6421SOL     OW20161   5.091   0.265   3.187
 6421SOL    HW120162   5.097   0.306   3.096
 6421SOL    HW220163   5.009   0.299   3.233
 6422SOL     OW20164   0.172   0.946   4.588
 6422SOL    HW120165   0.104   0.908   4.525
 6422SOL    HW220166   0.157   1.044   4.597
 6423SOL     OW20167   5.123   5.122   3.491
 6423SOL    HW120168   5.031   5.130   3.454
 6423SOL    HW220169   5.181   5.194   3.454
 6424SOL     OW20170   0.312   5.175   5.995
 6424SOL    HW120171   0.289   5.113   5.920
 6424SOL    HW220172   0.294   5.130   6.082
 6425SOL     OW20173   6.532   6.053   3.355
 6425SOL    HW120174   6.559   6.073   3.261
 6425SOL    HW220175   6.435   6.028   3.358
 6426SOL     OW20176   1.477   5.197   3.221
 6426SOL    HW120177   1.506   5.290   3.197
 6426SOL    HW220178   1.509   5.134   3.151
 6427SOL     OW20179   3.395   4.167   4.442
 6427SOL    HW120180   3.370   4.116   4.524
 6427SOL    HW220181   3.493   4.186   4.443
 6428SOL     OW20182   5.857   3.830   5.799
 6428SOL    HW120183   5.759   3.812   5.794
 6428SOL    HW220184   5.875   3.888   5.879
 6429SOL     OW20185   1.345   2.000   5.783
 6429SOL    HW120186   1.287   1.960   5.713
 6429SOL    HW220187   1.356   2.098   5.766
 6430SOL     OW20188   5.917   0.960   3.315
 6430SOL    HW120189   5.985   1.012   3.264
 6430SOL    HW220190   5.914   0.992   3.410
 6431SOL     OW20191   4.957   6.986   4.075
 6431SOL    HW120192   5.040   7.026   4.115
 6431SOL    HW220193   4.928   0.014   3.997
 6432SOL     OW20194   4.635   4.380   5.881
 6432SOL    HW120195   4.596   4.292   5.853
 6432SOL    HW220196   4.562   4.441   5.913
 6433SOL     OW20197   1.299   5.645   5.944
 6433SOL    HW120198   1.285   5.631   5.846
 6433SOL    HW220199   1.286   5.558   5.992
 6434SOL     OW20200   2.558   5.203   6.327
 6434SOL    HW120201   2.480   5.148   6.357
 6434SOL    HW220202   2.546   5.227   6.230
 6435SOL     OW20203   4.862   6.584   0.810
 6435SOL    HW120204   4.811   6.647   0.751
 6435SOL    HW220205   4.882   6.630   0.897
 6436SOL     OW20206   1.278   3.106   2.992
 6436SOL    HW120207   1.343   3.045   2.947
 6436SOL    HW220208   1.186   3.089   2.956
 6437SOL     OW20209   2.423   1.105   0.670
 6437SOL    HW120210   2.385   1.049   0.744
 6437SOL    HW220211   2.513   1.138   0.697
 6438SOL     OW20212   6.264   4.315   5.490
 6438SOL    HW120213   6.261   4.403   5.442
 6438SOL    HW220214   6.334   4.257   5.448
 6439SOL     OW20215   5.673   1.242   1.791
 6439SOL    HW120216   5.617   1.227   1.710
 6439SOL    HW220217   5.761   1.282   1.763
 6440SOL     OW20218   2.395   1.811   6.177
 6440SOL    HW120219   2.368   1.904   6.205
 6440SOL    HW220220   2.436   1.814   6.087
 6441SOL     OW20221   7.006   6.806   1.892
 6441SOL    HW120222   6.912   6.785   1.919
 6441SOL    HW220223   0.019   6.868   1.958
 6442SOL     OW20224   2.485   1.176   4.720
 6442SOL    HW120225   2.562   1.207   4.663
 6442SOL    HW220226   2.403   1.171   4.664
 6443SOL     OW20227   3.871   2.452   5.776
 6443SOL    HW120228   3.961   2.439   5.734
 6443SOL    HW220229   3.806   2.388   5.736
 6444SOL     OW20230   5.491   2.724   4.704
 6444SOL    HW120231   5.462   2.658   4.772
 6444SOL    HW220232   5.436   2.807   4.712
 6445SOL     OW20233   3.967   3.066   4.776
 6445SOL    HW120234   4.012   2.978   4.759
 6445SOL    HW220235   3.902   3.056   4.852
 6446SOL     OW20236   1.113   1.229   0.231
 6446SOL    HW120237   1.155   1.259   0.317
 6446SOL    HW220238   1.020   1.266   0.225
 6447SOL     OW20239   5.307   4.886   3.734
 6447SOL    HW120240   5.328   4.789   3.745
 6447SOL    HW220241   5.208   4.898   3.729
 6448SOL     OW20242   4.232   5.695   1.976
 6448SOL    HW120243   4.183   5.762   2.032
 6448SOL    HW220244   4.227   5.722   1.880
 6449SOL     OW20245   3.723   6.247   1.243
 6449SOL    HW120246   3.761   6.170   1.191
 6449SOL    HW220247   3.740   6.232   1.341
 6450SOL     OW20248   0.677   3.574   0.961
 6450SOL    HW120249   0.667   3.622   0.874
 6450SOL    HW220250   0.679   3.639   1.036
 6451SOL     OW20251   2.103   0.759   4.726
 6451SOL    HW120252   2.082   0.856   4.735
 6451SOL    HW220253   2.102   0.733   4.630
 6452SOL     OW20254   4.664   5.270   3.726
 6452SOL    HW120255   4.727   5.223   3.788
 6452SOL    HW220256   4.576   5.222   3.727
 6453SOL     OW20257   2.403   6.250   1.742
 6453SOL    HW120258   2.411   6.191   1.662
 6453SOL    HW220259   2.309   6.246   1.777
 6454SOL     OW20260   1.097   2.272   2.847
 6454SOL    HW120261   1.021   2.224   2.890
 6454SOL    HW220262   1.182   2.223   2.863
 6455SOL     OW20263   6.627   3.379   3.457
 6455SOL    HW120264   6.720   3.345   3.443
 6455SOL    HW220265   6.574   3.310   3.507
 6456SOL     OW20266   1.127   0.727   3.180
 6456SOL    HW120267   1.106   0.633   3.151
 6456SOL    HW220268   1.199   0.725   3.250
 6457SOL     OW20269   5.098   1.695   1.503
 6457SOL    HW120270   5.003   1.707   1.472
 6457SOL    HW220271   5.108   1.737   1.593
 6458SOL     OW20272   1.022   6.333   4.558
 6458SOL    HW120273   0.964   6.353   4.638
 6458SOL    HW220274   1.040   6.418   4.508
 6459SOL     OW20275   6.304   3.162   1.422
 6459SOL    HW120276   6.207   3.182   1.410
 6459SOL    HW220277   6.359   3.222   1.364
 6460SOL     OW20278   5.683   6.452   6.233
 6460SOL    HW120279   5.663   6.455   6.331
 6460SOL    HW220280   5.600   6.427   6.183
 6461SOL     OW20281   2.062   4.748   6.017
 6461SOL    HW120282   2.023   4.820   5.958
 6461SOL    HW220283   2.083   4.667   5.962
 6462SOL     OW20284   2.492   2.593   4.480
 6462SOL    HW120285   2.420   2.661   4.469
 6462SOL    HW220286   2.541   2.582   4.393
 6463SOL     OW20287   6.114   2.583   7.014
 6463SOL    HW120288   6.199   2.622   0.020
 6463SOL    HW220289   6.095   2.616   6.922
 6464SOL     OW20290   1.166   5.356   5.259
 6464SOL    HW120291   1.149   5.258   5.267
 6464SOL    HW220292   1.240   5.372   5.194
 6465SOL     OW20293   6.866   2.994   2.829
 6465SOL    HW120294   6.890   2.910   2.781
 6465SOL    HW220295   6.915   3.071   2.789
 6466SOL     OW20296   0.433   1.406   5.986
 6466SOL    HW120297   0.526   1.414   6.021
 6466SOL    HW220298   0.432   1.345   5.907
 6467SOL     OW20299   3.445   1.824   0.312
 6467SOL    HW120300   3.432   1.791   0.218
 6467SOL    HW220301   3.426   1.750   0.376
 6468SOL     OW20302   3.203   6.569   0.655
 6468SOL    HW120303   3.280   6.596   0.597
 6468SOL    HW220304   3.238   6.521   0.736
 6469SOL     OW20305   4.422   1.554   4.558
 6469SOL    HW120306   4.413   1.454   4.564
 6469SOL    HW220307   4.511   1.581   4.595
 6470SOL     OW20308   6.074   2.747   0.440
 6470SOL    HW120309   6.035   2.703   0.360
 6470SOL    HW220310   6.025   2.833   0.458
 6471SOL     OW20311   6.606   6.677   6.181
 6471SOL    HW120312   6.588   6.608   6.111
 6471SOL    HW220313   6.568   6.765   6.154
 6472SOL     OW20314   0.262   5.574   1.941
 6472SOL    HW120315   0.190   5.602   2.003
 6472SOL    HW220316   0.343   5.547   1.993
 6473SOL     OW20317   3.028   1.470   4.407
 6473SOL    HW120318   3.055   1.566   4.420
 6473SOL    HW220319   2.953   1.466   4.341
 6474SOL     OW20320   2.746   4.350   5.654
 6474SOL    HW120321   2.715   4.352   5.559
 6474SOL    HW220322   2.820   4.283   5.664
 6475SOL     OW20323   5.513   5.227   3.928
 6475SOL    HW120324   5.516   5.214   4.027
 6475SOL    HW220325   5.606   5.221   3.890
 6476SOL     OW20326   4.248   3.234   1.213
 6476SOL    HW120327   4.333   3.249   1.264
 6476SOL    HW220328   4.251   3.286   1.128
 6477SOL     OW20329   5.889   4.945   1.106
 6477SOL    HW120330   5.878   4.902   1.196
 6477SOL    HW220331   5.901   4.874   1.037
 6478SOL     OW20332   3.461   0.404   1.664
 6478SOL    HW120333   3.438   0.364   1.576
 6478SOL    HW220334   3.450   0.335   1.736
 6479SOL     OW20335   4.491   5.239   3.434
 6479SOL    HW120336   4.566   5.302   3.456
 6479SOL    HW220337   4.437   5.277   3.360
 6480SOL     OW20338   3.055   1.373   6.297
 6480SOL    HW120339   3.115   1.300   6.330
 6480SOL    HW220340   3.028   1.353   6.203
 6481SOL     OW20341   3.521   2.032   2.142
 6481SOL    HW120342   3.471   2.086   2.209
 6481SOL    HW220343   3.574   2.093   2.083
 6482SOL     OW20344   6.683   0.872   6.350
 6482SOL    HW120345   6.696   0.971   6.336
 6482SOL    HW220346   6.760   0.823   6.310
 6483SOL     OW20347   0.942   6.648   2.784
 6483SOL    HW120348   0.988   6.620   2.699
 6483SOL    HW220349   0.843   6.643   2.771
 6484SOL     OW20350   3.120   0.168   1.224
 6484SOL    HW120351   3.214   0.148   1.253
 6484SOL    HW220352   3.103   0.127   1.134
 6485SOL     OW20353   1.979   5.044   3.687
 6485SOL    HW120354   2.074   5.062   3.664
 6485SOL    HW220355   1.920   5.075   3.613
 6486SOL     OW20356   2.243   4.739   3.508
 6486SOL    HW120357   2.271   4.833   3.490
 6486SOL    HW220358   2.309   4.695   3.570
 6487SOL     OW20359   0.468   6.634   5.209
 6487SOL    HW120360   0.525   6.589   5.278
 6487SOL    HW220361   0.434   6.721   5.246
 6488SOL     OW20362   3.787   5.587   4.343
 6488SOL    HW120363   3.789   5.662   4.410
 6488SOL    HW220364   3.776   5.625   4.251
 6489SOL     OW20365   3.071   2.699   5.979
 6489SOL    HW120366   3.003   2.629   5.997
 6489SOL    HW220367   3.163   2.661   5.991
 6490SOL     OW20368   4.211   0.718   6.780
 6490SOL    HW120369   4.256   0.783   6.842
 6490SOL    HW220370   4.131   0.678   6.826
 6491SOL     OW20371   4.268   0.870   0.747
 6491SOL    HW120372   4.222   0.782   0.741
 6491SOL    HW220373   4.285   0.892   0.843
 6492SOL     OW20374   3.767   4.612   6.544
 6492SOL    HW120375   3.807   4.608   6.453
 6492SOL    HW220376   3.686   4.554   6.548
 6493SOL     OW20377   1.038   4.644   5.140
 6493SOL    HW120378   0.964   4.708   5.119
 6493SOL    HW220379   1.119   4.695   5.169
 6494SOL     OW20380   0.246   0.319   3.845
 6494SOL    HW120381   0.276   0.226   3.825
 6494SOL    HW220382   0.212   0.362   3.762
 6495SOL     OW20383   6.063   0.121   4.780
 6495SOL    HW120384   6.073   0.202   4.723
 6495SOL    HW220385   5.985   0.132   4.842
 6496SOL     OW20386   6.563   0.777   2.899
 6496SOL    HW120387   6.639   0.742   2.953
 6496SOL    HW220388   6.487   0.802   2.960
 6497SOL     OW20389   1.180   1.572   0.834
 6497SOL    HW120390   1.154   1.504   0.903
 6497SOL    HW220391   1.178   1.663   0.875
 6498SOL     OW20392   1.644   3.108   3.996
 6498SOL    HW120393   1.735   3.127   4.034
 6498SOL    HW220394   1.629   3.166   3.916
 6499SOL     OW20395   5.389   3.135   5.507
 6499SOL    HW120396   5.413   3.232   5.498
 6499SOL    HW220397   5.452   3.091   5.571
 6500SOL     OW20398   0.194   3.780   4.276
 6500SOL    HW120399   0.134   3.835   4.334
 6500SOL    HW220400   0.282   3.768   4.321
 6501SOL     OW20401   6.835   1.845   6.411
 6501SOL    HW120402   6.854   1.808   6.502
 6501SOL    HW220403   6.764   1.790   6.366
 6502SOL     OW20404   6.785   2.025   1.838
 6502SOL    HW120405   6.788   2.053   1.742
 6502SOL    HW220406   6.838   2.090   1.894
 6503SOL     OW20407   5.414   0.686   3.420
 6503SOL    HW120408   5.320   0.657   3.438
 6503SOL    HW220409   5.433   0.771   3.469
 6504SOL     OW20410   4.471   6.021   5.645
 6504SOL    HW120411   4.519   6.041   5.559
 6504SOL    HW220412   4.439   6.106   5.687
 6505SOL     OW20413   5.181   6.034   0.271
 6505SOL    HW120414   5.115   6.060   0.342
 6505SOL    HW220415   5.135   5.977   0.203
 6506SOL     OW20416   6.772   2.517   2.881
 6506SOL    HW120417   6.681   2.556   2.866
 6506SOL    HW220418   6.810   2.554   2.966
 6507SOL     OW20419   1.416   5.020   5.480
 6507SOL    HW120420   1.470   5.064   5.408
 6507SOL    HW220421   1.467   4.942   5.517
 6508SOL     OW20422   1.793   0.472   2.640
 6508SOL    HW120423   1.801   0.424   2.552
 6508SOL    HW220424   1.698   0.471   2.670
 6509SOL     OW20425   3.556   2.069   4.236
 6509SOL    HW120426   3.625   2.140   4.222
 6509SOL    HW220427   3.499   2.093   4.315
 6510SOL     OW20428   6.127   5.366   0.009
 6510SOL    HW120429   6.049   5.345   6.978
 6510SOL    HW220430   6.210   5.326   6.997
 6511SOL     OW20431   4.096   1.866   4.487
 6511SOL    HW120432   4.063   1.956   4.459
 6511SOL    HW220433   4.040   1.832   4.563
 6512SOL     OW20434   4.013   6.865   2.431
 6512SOL    HW120435   4.095   6.912   2.464
 6512SOL    HW220436   3.968   6.818   2.506
 6513SOL     OW20437   2.488   4.942   2.808
 6513SOL    HW120438   2.510   5.002   2.732
 6513SOL    HW220439   2.547   4.861   2.805
 6514SOL     OW20440   6.524   0.792   3.638
 6514SOL    HW120441   6.560   0.793   3.545
 6514SOL    HW220442   6.590   0.833   3.701
 6515SOL     OW20443   0.113   4.748   4.325
 6515SOL    HW120444   0.076   4.696   4.402
 6515SOL    HW220445   0.135   4.685   4.250
 6516SOL     OW20446   0.338   3.576   1.503
 6516SOL    HW120447   0.352   3.482   1.470
 6516SOL    HW220448   0.264   3.576   1.570
 6517SOL     OW20449   6.405   1.094   1.222
 6517SOL    HW120450   6.361   1.161   1.163
 6517SOL    HW220451   6.499   1.079   1.192
 6518SOL     OW20452   0.119   0.807   0.119
 6518SOL    HW120453   0.175   0.724   0.119
 6518SOL    HW220454   0.080   0.821   0.209
 6519SOL     OW20455   1.206   2.067   3.619
 6519SOL    HW120456   1.201   2.166   3.606
 6519SOL    HW220457   1.300   2.041   3.643
 6520SOL     OW20458   5.928   5.897   1.918
 6520SOL    HW120459   6.008   5.839   1.929
 6520SOL    HW220460   5.865   5.882   1.995
 6521SOL     OW20461   1.789   2.568   3.783
 6521SOL    HW120462   1.746   2.517   3.708
 6521SOL    HW220463   1.782   2.514   3.867
 6522SOL     OW20464   3.333   5.245   6.104
 6522SOL    HW120465   3.418   5.265   6.057
 6522SOL    HW220466   3.255   5.270   6.046
 6523SOL     OW20467   3.975   1.228   6.521
 6523SOL    HW120468   4.049   1.294   6.536
 6523SOL    HW220469   4.003   1.161   6.452
 6524SOL     OW20470   3.548   3.607   1.632
 6524SOL    HW120471   3.577   3.702   1.624
 6524SOL    HW220472   3.556   3.562   1.543
 6525SOL     OW20473   2.656   5.045   2.612
 6525SOL    HW120474   2.749   5.072   2.634
 6525SOL    HW220475   2.612   5.118   2.560
 6526SOL     OW20476   1.944   0.458   6.821
 6526SOL    HW120477   1.902   0.549   6.828
 6526SOL    HW220478   2.035   0.466   6.781
 6527SOL     OW20479   0.503   2.117   4.463
 6527SOL    HW120480   0.593   2.135   4.504
 6527SOL    HW220481   0.516   2.078   4.372
 6528SOL     OW20482   0.084   0.802   5.845
 6528SOL    HW120483   0.086   0.884   5.901
 6528SOL    HW220484   0.071   0.828   5.749
 6529SOL     OW20485   1.661   0.868   2.683
 6529SOL    HW120486   1.757   0.841   2.678
 6529SOL    HW220487   1.648   0.936   2.755
 6530SOL     OW20488   6.708   3.726   0.367
 6530SOL    HW120489   6.632   3.686   0.315
 6530SOL    HW220490   6.730   3.667   0.445
 6531SOL     OW20491   5.354   3.109   5.178
 6531SOL    HW120492   5.404   3.037   5.227
 6531SOL    HW220493   5.388   3.198   5.208
 6532SOL     OW20494   0.038   1.173   0.995
 6532SOL    HW120495   0.007   1.152   1.088
 6532SOL    HW220496   6.987   1.186   0.935
 6533SOL     OW20497   4.531   6.802   0.988
 6533SOL    HW120498   4.570   6.834   0.901
 6533SOL    HW220499   4.598   6.747   1.037
 6534SOL     OW20500   3.852   4.625   1.450
 6534SOL    HW120501   3.899   4.686   1.386
 6534SOL    HW220502   3.898   4.628   1.539
 6535SOL     OW20503   6.204   3.834   4.074
 6535SOL    HW120504   6.110   3.851   4.043
 6535SOL    HW220505   6.236   3.747   4.038
 6536SOL     OW20506   1.141   1.092   5.682
 6536SOL    HW120507   1.206   1.032   5.729
 6536SOL    HW220508   1.111   1.164   5.745
 6537SOL     OW20509   6.896   5.476   0.049
 6537SOL    HW120510   6.807   5.438   0.071
 6537SOL    HW220511   6.916   5.552   0.111
 6538SOL     OW20512   2.554   4.099   6.466
 6538SOL    HW120513   2.489   4.168   6.499
 6538SOL    HW220514   2.580   4.040   6.543
 6539SOL     OW20515   4.168   0.456   5.699
 6539SOL    HW120516   4.240   0.513   5.740
 6539SOL    HW220517   4.174   0.460   5.600
 6540SOL     OW20518   4.749   1.978   5.849
 6540SOL    HW120519   4.692   2.017   5.922
 6540SOL    HW220520   4.719   1.885   5.830
 6541SOL     OW20521   4.703   2.613   5.039
 6541SOL    HW120522   4.773   2.683   5.054
 6541SOL    HW220523   4.634   2.619   5.111
 6542SOL     OW20524   6.287   3.655   3.860
 6542SOL    HW120525   6.209   3.712   3.833
 6542SOL    HW220526   6.370   3.691   3.818
 6543SOL     OW20527   5.267   2.787   5.742
 6543SOL    HW120528   5.358   2.803   5.780
 6543SOL    HW220529   5.239   2.867   5.688
 6544SOL     OW20530   1.093   6.281   3.177
 6544SOL    HW120531   1.087   6.335   3.094
 6544SOL    HW220532   1.171   6.218   3.171
 6545SOL     OW20533   3.888   2.529   0.511
 6545SOL    HW120534   3.853   2.473   0.436
 6545SOL    HW220535   3.814   2.546   0.577
 6546SOL     OW20536   2.683   4.734   0.345
 6546SOL    HW120537   2.672   4.667   0.271
 6546SOL    HW220538   2.594   4.759   0.380
 6547SOL     OW20539   4.707   1.230   5.647
 6547SOL    HW120540   4.801   1.214   5.615
 6547SOL    HW220541   4.651   1.150   5.625
 6548SOL     OW20542   0.797   4.448   0.341
 6548SOL    HW120543   0.755   4.358   0.327
 6548SOL    HW220544   0.762   4.513   0.273
 6549SOL     OW20545   5.041   0.872   1.738
 6549SOL    HW120546   5.116   0.819   1.697
 6549SOL    HW220547   5.003   0.934   1.670
 6550SOL     OW20548   0.175   6.316   4.232
 6550SOL    HW120549   0.122   6.280   4.155
 6550SOL    HW220550   0.222   6.400   4.204
 6551SOL     OW20551   1.813   5.132   2.434
 6551SOL    HW120552   1.905   5.170   2.439
 6551SOL    HW220553   1.747   5.207   2.419
 6552SOL     OW20554   1.816   6.873   6.820
 6552SOL    HW120555   1.791   6.787   6.776
 6552SOL    HW220556   1.734   6.927   6.838
 6553SOL     OW20557   6.968   1.919   3.147
 6553SOL    HW120558   6.954   1.837   3.202
 6553SOL    HW220559   0.034   1.920   3.113
 6554SOL     OW20560   0.616   0.914   4.533
 6554SOL    HW120561   0.575   0.889   4.445
 6554SOL    HW220562   0.714   0.899   4.530
 6555SOL     OW20563   5.944   1.962   2.700
 6555SOL    HW120564   5.970   1.970   2.797
 6555SOL    HW220565   5.875   1.890   2.690
 6556SOL     OW20566   5.305   4.510   4.706
 6556SOL    HW120567   5.356   4.497   4.791
 6556SOL    HW220568   5.330   4.596   4.663
 6557SOL     OW20569   3.199   6.815   2.559
 6557SOL    HW120570   3.226   6.830   2.464
 6557SOL    HW220571   3.231   6.892   2.615
 6558SOL     OW20572   6.992   4.920   6.771
 6558SOL    HW120573   6.944   4.911   6.858
 6558SOL    HW220574   7.024   5.014   6.759
 6559SOL     OW20575   0.547   3.189   6.239
 6559SOL    HW120576   0.580   3.139   6.319
 6559SOL    HW220577   0.565   3.136   6.156
 6560SOL     OW20578   4.533   5.557   1.372
 6560SOL    HW120579   4.458   5.597   1.321
 6560SOL    HW220580   4.504   5.469   1.411
 6561SOL     OW20581   3.221   3.857   1.435
 6561SOL    HW120582   3.248   3.769   1.474
 6561SOL    HW220583   3.220   3.850   1.335
 6562SOL     OW20584   5.992   3.510   1.069
 6562SOL    HW120585   5.913   3.451   1.051
 6562SOL    HW220586   6.075   3.465   1.037
 6563SOL     OW20587   5.645   6.542   0.125
 6563SOL    HW120588   5.683   6.633   0.144
 6563SOL    HW220589   5.633   6.531   0.026
 6564SOL     OW20590   6.658   4.419   3.075
 6564SOL    HW120591   6.695   4.457   3.160
 6564SOL    HW220592   6.733   4.399   3.012
 6565SOL     OW20593   6.111   1.877   3.613
 6565SOL    HW120594   6.053   1.836   3.543
 6565SOL    HW220595   6.132   1.808   3.683
 6566SOL     OW20596   3.581   6.030   2.912
 6566SOL    HW120597   3.573   6.118   2.865
 6566SOL    HW220598   3.661   5.981   2.879
 6567SOL     OW20599   4.216   1.062   2.354
 6567SOL    HW120600   4.212   1.144   2.298
 6567SOL    HW220601   4.311   1.036   2.368
 6568SOL     OW20602   3.628   1.082   3.540
 6568SOL    HW120603   3.693   1.042   3.476
 6568SOL    HW220604   3.565   1.011   3.573
 6569SOL     OW20605   3.228   3.560   6.122
 6569SOL    HW120606   3.184   3.528   6.206
 6569SOL    HW220607   3.161   3.560   6.047
 6570SOL     OW20608   3.871   0.835   1.993
 6570SOL    HW120609   3.962   0.831   1.952
 6570SOL    HW220610   3.877   0.876   2.084
 6571SOL     OW20611   2.995   5.629   1.363
 6571SOL    HW120612   3.042   5.550   1.401
 6571SOL    HW220613   2.966   5.690   1.437
 6572SOL     OW20614   6.283   5.183   5.754
 6572SOL    HW120615   6.380   5.201   5.738
 6572SOL    HW220616   6.246   5.254   5.814
 6573SOL     OW20617   1.796   1.647   2.109
 6573SOL    HW120618   1.725   1.703   2.065
 6573SOL    HW220619   1.755   1.565   2.147
 6574SOL     OW20620   3.439   5.566   2.802
 6574SOL    HW120621   3.345   5.533   2.797
 6574SOL    HW220622   3.441   5.665   2.786
 6575SOL     OW20623   0.980   6.784   3.036
 6575SOL    HW120624   0.884   6.804   3.057
 6575SOL    HW220625   0.986   6.735   2.950
 6576SOL     OW20626   2.264   6.125   6.451
 6576SOL    HW120627   2.168   6.102   6.443
 6576SOL    HW220628   2.318   6.067   6.390
 6577SOL     OW20629   0.897   1.119   4.279
 6577SOL    HW120630   0.808   1.164   4.269
 6577SOL    HW220631   0.899   1.069   4.365
 6578SOL     OW20632   1.270   5.047   3.346
 6578SOL    HW120633   1.224   5.004   3.268
 6578SOL    HW220634   1.352   5.095   3.314
 6579SOL     OW20635   6.663   3.753   4.900
 6579SOL    HW120636   6.611   3.828   4.860
 6579SOL    HW220637   6.728   3.789   4.968
 6580SOL     OW20638   0.808   2.462   0.529
 6580SOL    HW120639   0.719   2.429   0.559
 6580SOL    HW220640   0.879   2.428   0.591
 6581SOL     OW20641   2.608   0.531   6.859
 6581SOL    HW120642   2.584   0.556   6.953
 6581SOL    HW220643   2.688   0.472   6.859
 6582SOL     OW20644   0.771   1.639   1.934
 6582SOL    HW120645   0.730   1.611   2.021
 6582SOL    HW220646   0.712   1.609   1.859
 6583SOL     OW20647   4.300   0.857   5.101
 6583SOL    HW120648   4.238   0.925   5.140
 6583SOL    HW220649   4.250   0.773   5.083
 6584SOL     OW20650   4.725   2.484   0.954
 6584SOL    HW120651   4.799   2.550   0.969
 6584SOL    HW220652   4.700   2.442   1.041
 6585SOL     OW20653   5.312   6.841   0.264
 6585SOL    HW120654   5.319   6.744   0.285
 6585SOL    HW220655   5.346   6.857   0.171
 6586SOL     OW20656   0.387   1.991   5.054
 6586SOL    HW120657   0.327   2.002   5.133
 6586SOL    HW220658   0.472   1.947   5.083
 6587SOL     OW20659   1.949   6.875   4.685
 6587SOL    HW120660   1.953   6.862   4.586
 6587SOL    HW220661   1.857   6.902   4.712
 6588SOL     OW20662   0.966   3.671   1.641
 6588SOL    HW120663   1.048   3.620   1.616
 6588SOL    HW220664   0.886   3.612   1.632
 6589SOL     OW20665   5.306   1.239   0.070
 6589SOL    HW120666   5.370   1.170   0.103
 6589SOL    HW220667   5.219   1.195   0.045
 6590SOL     OW20668   1.149   0.514   6.195
 6590SOL    HW120669   1.138   0.417   6.216
 6590SOL    HW220670   1.093   0.569   6.256
 6591SOL     OW20671   5.179   5.452   2.223
 6591SOL    HW120672   5.138   5.516   2.158
 6591SOL    HW220673   5.216   5.504   2.300
 6592SOL     OW20674   5.881   0.385   3.738
 6592SOL    HW120675   5.967   0.335   3.725
 6592SOL    HW220676   5.901   0.483   3.744
 6593SOL     OW20677   2.036   2.123   2.299
 6593SOL    HW120678   2.015   2.191   2.370
 6593SOL    HW220679   2.111   2.064   2.330
 6594SOL     OW20680   3.433   1.758   0.048
 6594SOL    HW120681   3.336   1.780   0.041
 6594SOL    HW220682   3.464   1.713   6.992
 6595SOL     OW20683   0.546   4.011   6.934
 6595SOL    HW120684   0.577   4.050   6.848
 6595SOL    HW220685   0.604   3.934   6.959
 6596SOL     OW20686   3.245   6.350   4.389
 6596SOL    HW120687   3.315   6.382   4.454
 6596SOL    HW220688   3.274   6.371   4.296
 6597SOL     OW20689   1.799   5.425   1.352
 6597SOL    HW120690   1.752   5.402   1.438
 6597SOL    HW220691   1.881   5.369   1.344
 6598SOL     OW20692   1.521   6.225   4.719
 6598SOL    HW120693   1.441   6.217   4.778
 6598SOL    HW220694   1.603   6.230   4.776
 6599SOL     OW20695   4.487   6.618   6.167
 6599SOL    HW120696   4.470   6.711   6.199
 6599SOL    HW220697   4.584   6.597   6.177
 6600SOL     OW20698   5.017   4.785   5.148
 6600SOL    HW120699   5.050   4.724   5.076
 6600SOL    HW220700   5.006   4.877   5.111
 6601SOL     OW20701   1.222   1.969   5.548
 6601SOL    HW120702   1.179   1.896   5.495
 6601SOL    HW220703   1.205   2.057   5.504
 6602SOL     OW20704   0.894   0.993   2.163
 6602SOL    HW120705   0.894   1.092   2.150
 6602SOL    HW220706   0.916   0.947   2.077
 6603SOL     OW20707   6.754   2.801   3.872
 6603SOL    HW120708   6.698   2.719   3.882
 6603SOL    HW220709   6.754   2.852   3.958
 6604SOL     OW20710   2.202   0.148   0.901
 6604SOL    HW120711   2.129   0.202   0.861
 6604SOL    HW220712   2.282   0.150   0.840
 6605SOL     OW20713   5.534   3.693   1.834
 6605SOL    HW120714   5.603   3.668   1.903
 6605SOL    HW220715   5.520   3.616   1.772
 6606SOL     OW20716   6.907   6.234   1.667
 6606SOL    HW120717   6.905   6.183   1.753
 6606SOL    HW220718   6.955   6.180   1.598
 6607SOL     OW20719   1.744   3.340   2.336
 6607SOL    HW120720   1.747   3.330   2.236
 6607SOL    HW220721   1.689   3.265   2.374
 6608SOL     OW20722   6.025   6.163   1.125
 6608SOL    HW120723   5.930   6.194   1.135
 6608SOL    HW220724   6.086   6.232   1.165
 6609SOL     OW20725   4.611   0.979   5.609
 6609SOL    HW120726   4.538   0.910   5.608
 6609SOL    HW220727   4.686   0.948   5.668
 6610SOL     OW20728   3.212   7.027   0.029
 6610SOL    HW120729   3.112   7.023   0.031
 6610SOL    HW220730   3.245   0.052   0.107
 6611SOL     OW20731   4.997   2.869   3.692
 6611SOL    HW120732   5.088   2.851   3.732
 6611SOL    HW220733   4.950   2.936   3.748
 6612SOL     OW20734   6.128   2.175   6.158
 6612SOL    HW120735   6.037   2.166   6.198
 6612SOL    HW220736   6.176   2.251   6.201
 6613SOL     OW20737   6.628   6.092   4.991
 6613SOL    HW120738   6.629   6.156   4.915
 6613SOL    HW220739   6.713   6.039   4.992
 6614SOL     OW20740   5.400   6.984   0.847
 6614SOL    HW120741   5.457   6.949   0.772
 6614SOL    HW220742   5.329   0.015   0.810
 6615SOL     OW20743   1.200   5.234   2.441
 6615SOL    HW120744   1.182   5.245   2.343
 6615SOL    HW220745   1.142   5.297   2.493
 6616SOL     OW20746   4.288   0.920   5.838
 6616SOL    HW120747   4.266   1.011   5.871
 6616SOL    HW220748   4.250   0.908   5.746
 6617SOL     OW20749   4.431   4.986   3.233
 6617SOL    HW120750   4.381   4.981   3.146
 6617SOL    HW220751   4.449   5.082   3.255
 6618SOL     OW20752   1.372   2.429   2.258
 6618SOL    HW120753   1.394   2.336   2.231
 6618SOL    HW220754   1.456   2.478   2.283
 6619SOL     OW20755   6.554   0.065   4.156
 6619SOL    HW120756   6.538   0.093   4.061
 6619SOL    HW220757   6.638   0.010   4.161
 6620SOL     OW20758   1.711   3.114   5.023
 6620SOL    HW120759   1.758   3.029   5.000
 6620SOL    HW220760   1.774   3.176   5.068
 6621SOL     OW20761   3.113   2.901   6.224
 6621SOL    HW120762   3.033   2.913   6.165
 6621SOL    HW220763   3.099   2.822   6.283
 6622SOL     OW20764   5.670   0.064   0.910
 6622SOL    HW120765   5.588   0.021   0.873
 6622SOL    HW220766   5.747   0.000   0.904
 6623SOL     OW20767   3.278   3.247   5.465
 6623SOL    HW120768   3.186   3.283   5.448
 6623SOL    HW220769   3.336   3.269   5.387
 6624SOL     OW20770   0.573   5.071   6.219
 6624SOL    HW120771   0.508   5.123   6.274
 6624SOL    HW220772   0.537   4.980   6.202
 6625SOL     OW20773   5.074   1.957   5.363
 6625SOL    HW120774   5.019   2.029   5.407
 6625SOL    HW220775   5.015   1.902   5.304
 6626SOL     OW20776   4.964   4.771   5.417
 6626SOL    HW120777   5.003   4.701   5.477
 6626SOL    HW220778   4.991   4.753   5.323
 6627SOL     OW20779   2.133   6.535   4.996
 6627SOL    HW120780   2.200   6.504   4.929
 6627SOL    HW220781   2.060   6.586   4.951
 6628SOL     OW20782   4.601   4.484   4.817
 6628SOL    HW120783   4.652   4.401   4.797
 6628SOL    HW220784   4.602   4.501   4.916
 6629SOL     OW20785   4.332   5.995   7.010
 6629SOL    HW120786   4.262   6.066   7.014
 6629SOL    HW220787   4.288   5.905   7.005
 6630SOL     OW20788   3.898   1.122   1.795
 6630SOL    HW120789   3.980   1.115   1.853
 6630SOL    HW220790   3.816   1.118   1.852
 6631SOL     OW20791   2.663   5.456   3.415
 6631SOL    HW120792   2.689   5.476   3.509
 6631SOL    HW220793   2.720   5.383   3.378
 6632SOL     OW20794   0.253   6.958   1.382
 6632SOL    HW120795   0.191   6.953   1.304
 6632SOL    HW220796   0.225   0.006   1.442
 6633SOL     OW20797   0.607   4.730   6.112
 6633SOL    HW120798   0.654   4.693   6.193
 6633SOL    HW220799   0.633   4.677   6.031
 6634SOL     OW20800   5.145   2.296   4.084
 6634SOL    HW120801   5.222   2.330   4.030
 6634SOL    HW220802   5.080   2.250   4.023
 6635SOL     OW20803   4.371   4.645   3.086
 6635SOL    HW120804   4.326   4.726   3.123
 6635SOL    HW220805   4.415   4.594   3.159
 6636SOL     OW20806   5.085   2.628   5.885
 6636SOL    HW120807   5.008   2.648   5.945
 6636SOL    HW220808   5.113   2.712   5.837
 6637SOL     OW20809   1.569   0.279   6.667
 6637SOL    HW120810   1.519   0.270   6.753
 6637SOL    HW220811   1.661   0.241   6.677
 6638SOL     OW20812   3.100   3.612   3.938
 6638SOL    HW120813   3.150   3.548   3.880
 6638SOL    HW220814   3.159   3.691   3.959
 6639SOL     OW20815   5.230   4.443   6.696
 6639SOL    HW120816   5.189   4.367   6.646
 6639SOL    HW220817   5.275   4.409   6.778
 6640SOL     OW20818   1.740   1.539   5.112
 6640SOL    HW120819   1.766   1.444   5.099
 6640SOL    HW220820   1.674   1.566   5.042
 6641SOL     OW20821   2.108   1.915   6.212
 6641SOL    HW120822   2.018   1.933   6.172
 6641SOL    HW220823   2.130   1.818   6.201
 6642SOL     OW20824   2.183   5.678   6.730
 6642SOL    HW120825   2.149   5.649   6.641
 6642SOL    HW220826   2.255   5.616   6.761
 6643SOL     OW20827   6.089   5.053   0.303
 6643SOL    HW120828   6.063   5.016   0.213
 6643SOL    HW220829   6.158   4.995   0.344
 6644SOL     OW20830   2.401   5.468   1.992
 6644SOL    HW120831   2.475   5.453   1.926
 6644SOL    HW220832   2.394   5.389   2.053
 6645SOL     OW20833   6.318   5.074   0.656
 6645SOL    HW120834   6.379   5.083   0.735
 6645SOL    HW220835   6.325   5.156   0.599
 6646SOL     OW20836   4.472   0.194   4.693
 6646SOL    HW120837   4.522   0.121   4.740
 6646SOL    HW220838   4.387   0.158   4.655
 6647SOL     OW20839   4.954   1.061   1.550
 6647SOL    HW120840   4.984   1.019   1.465
 6647SOL    HW220841   4.979   1.157   1.551
 6648SOL     OW20842   4.549   6.563   3.473
 6648SOL    HW120843   4.640   6.524   3.484
 6648SOL    HW220844   4.482   6.489   3.464
 6649SOL     OW20845   4.703   0.922   6.748
 6649SOL    HW120846   4.612   0.882   6.752
 6649SOL    HW220847   4.761   0.878   6.816
 6650SOL     OW20848   3.786   1.512   5.298
 6650SOL    HW120849   3.782   1.414   5.276
 6650SOL    HW220850   3.820   1.563   5.220
 6651SOL     OW20851   2.136   2.034   5.437
 6651SOL    HW120852   2.099   2.097   5.505
 6651SOL    HW220853   2.158   2.083   5.353
 6652SOL     OW20854   0.953   4.580   0.748
 6652SOL    HW120855   1.038   4.528   0.740
 6652SOL    HW220856   0.917   4.600   0.657
 6653SOL     OW20857   2.867   3.497   2.704
 6653SOL    HW120858   2.773   3.482   2.675
 6653SOL    HW220859   2.924   3.519   2.625
 6654SOL     OW20860   1.046   4.821   1.183
 6654SOL    HW120861   1.052   4.760   1.104
 6654SOL    HW220862   1.127   4.879   1.187
 6655SOL     OW20863   0.668   6.946   3.547
 6655SOL    HW120864   0.690   7.021   3.484
 6655SOL    HW220865   0.645   6.984   3.637
 6656SOL     OW20866   5.453   1.794   4.165
 6656SOL    HW120867   5.522   1.848   4.214
 6656SOL    HW220868   5.498   1.723   4.112
 6657SOL     OW20869   5.689   5.549   6.261
 6657SOL    HW120870   5.666   5.511   6.350
 6657SOL    HW220871   5.622   5.520   6.193
 6658SOL     OW20872   6.911   1.320   4.359
 6658SOL    HW120873   6.902   1.337   4.457
 6658SOL    HW220874   6.829   1.274   4.325
 6659SOL     OW20875   2.164   2.444   0.326
 6659SOL    HW120876   2.075   2.408   0.355
 6659SOL    HW220877   2.236   2.410   0.386
 6660SOL     OW20878   1.206   5.113   1.240
 6660SOL    HW120879   1.110   5.113   1.212
 6660SOL    HW220880   1.212   5.102   1.340
 6661SOL     OW20881   0.787   6.517   5.047
 6661SOL    HW120882   0.827   6.532   5.137
 6661SOL    HW220883   0.694   6.553   5.046
 6662SOL     OW20884   0.975   0.497   0.041
 6662SOL    HW120885   1.009   0.567   7.005
 6662SOL    HW220886   0.928   0.542   0.117
 6663SOL     OW20887   6.435   4.656   4.166
 6663SOL    HW120888   6.530   4.632   4.150
 6663SOL    HW220889   6.377   4.607   4.100
 6664SOL     OW20890   1.867   6.287   0.388
 6664SOL    HW120891   1.781   6.337   0.388
 6664SOL    HW220892   1.870   6.226   0.467
 6665SOL     OW20893   1.990   6.106   4.376
 6665SOL    HW120894   1.980   6.098   4.475
 6665SOL    HW220895   2.047   6.031   4.342
 6666SOL     OW20896   6.407   0.091   5.519
 6666SOL    HW120897   6.388   0.027   5.444
 6666SOL    HW220898   6.474   0.158   5.488
 6667SOL     OW20899   6.604   6.048   6.630
 6667SOL    HW120900   6.637   6.142   6.627
 6667SOL    HW220901   6.669   5.989   6.582
 6668SOL     OW20902   0.081   5.172   1.228
 6668SOL    HW120903   0.117   5.181   1.320
 6668SOL    HW220904   0.132   5.101   1.179
 6669SOL     OW20905   1.698   2.870   3.394
 6669SOL    HW120906   1.641   2.816   3.332
 6669SOL    HW220907   1.763   2.924   3.340
 6670SOL     OW20908   3.430   2.061   5.574
 6670SOL    HW120909   3.378   2.129   5.522
 6670SOL    HW220910   3.499   2.019   5.515
 6671SOL     OW20911   6.362   5.955   0.834
 6671SOL    HW120912   6.364   5.966   0.933
 6671SOL    HW220913   6.269   5.968   0.800
 6672SOL     OW20914   6.518   1.964   6.340
 6672SOL    HW120915   6.482   1.892   6.399
 6672SOL    HW220916   6.534   2.047   6.394
 6673SOL     OW20917   4.837   5.379   4.491
 6673SOL    HW120918   4.893   5.421   4.419
 6673SOL    HW220919   4.840   5.280   4.482
 6674SOL     OW20920   0.401   4.875   6.031
 6674SOL    HW120921   0.369   4.883   5.936
 6674SOL    HW220922   0.484   4.820   6.033
 6675SOL     OW20923   4.944   3.837   1.761
 6675SOL    HW120924   4.990   3.755   1.728
 6675SOL    HW220925   4.867   3.859   1.701
 6676SOL     OW20926   0.008   3.470   5.570
 6676SOL    HW120927   0.078   3.402   5.552
 6676SOL    HW220928   6.955   3.426   5.610
 6677SOL     OW20929   1.595   1.385   6.575
 6677SOL    HW120930   1.527   1.339   6.630
 6677SOL    HW220931   1.677   1.403   6.630
 6678SOL     OW20932   3.419   3.199   6.490
 6678SOL    HW120933   3.320   3.205   6.499
 6678SOL    HW220934   3.453   3.276   6.437
 6679SOL     OW20935   3.062   1.212   4.167
 6679SOL    HW120936   3.146   1.253   4.203
 6679SOL    HW220937   3.033   1.262   4.086
 6680SOL     OW20938   4.913   6.780   6.866
 6680SOL    HW120939   4.837   6.838   6.834
 6680SOL    HW220940   4.876   6.698   6.910
 6681SOL     OW20941   4.061   6.143   1.626
 6681SOL    HW120942   4.035   6.140   1.722
 6681SOL    HW220943   4.134   6.210   1.614
 6682SOL     OW20944   0.225   4.665   2.665
 6682SOL    HW120945   0.210   4.763   2.671
 6682SOL    HW220946   0.315   4.646   2.628
 6683SOL     OW20947   5.802   3.210   5.451
 6683SOL    HW120948   5.762   3.243   5.365
 6683SOL    HW220949   5.885   3.158   5.431
 6684SOL     OW20950   2.986   0.556   1.538
 6684SOL    HW120951   3.046   0.635   1.526
 6684SOL    HW220952   3.042   0.476   1.561
 6685SOL     OW20953   6.759   3.854   5.648
 6685SOL    HW120954   6.721   3.791   5.717
 6685SOL    HW220955   6.859   3.847   5.649
 6686SOL     OW20956   5.500   5.880   4.134
 6686SOL    HW120957   5.425   5.817   4.153
 6686SOL    HW220958   5.527   5.872   4.038
 6687SOL     OW20959   1.178   3.333   0.209
 6687SOL    HW120960   1.202   3.417   0.259
 6687SOL    HW220961   1.166   3.354   0.112
 6688SOL     OW20962   0.261   4.027   2.743
 6688SOL    HW120963   0.161   4.025   2.747
 6688SOL    HW220964   0.290   4.113   2.702
 6689SOL     OW20965   4.486   2.855   0.289
 6689SOL    HW120966   4.485   2.900   0.378
 6689SOL    HW220967   4.581   2.833   0.264
 6690SOL     OW20968   2.013   1.022   0.739
 6690SOL    HW120969   2.022   1.093   0.669
 6690SOL    HW220970   2.018   0.932   0.695
 6691SOL     OW20971   2.438   6.546   1.823
 6691SOL    HW120972   2.386   6.600   1.757
 6691SOL    HW220973   2.432   6.449   1.798
 6692SOL     OW20974   4.092   3.835   5.278
 6692SOL    HW120975   4.073   3.786   5.363
 6692SOL    HW220976   4.172   3.894   5.290
 6693SOL     OW20977   4.084   3.632   4.859
 6693SOL    HW120978   4.165   3.619   4.917
 6693SOL    HW220979   4.032   3.547   4.854
 6694SOL     OW20980   3.830   6.040   1.122
 6694SOL    HW120981   3.908   5.999   1.074
 6694SOL    HW220982   3.792   5.973   1.186
 6695SOL     OW20983   3.187   1.636   0.608
 6695SOL    HW120984   3.221   1.724   0.639
 6695SOL    HW220985   3.087   1.634   0.616
 6696SOL     OW20986   2.240   3.132   5.633
 6696SOL    HW120987   2.218   3.055   5.693
 6696SOL    HW220988   2.225   3.105   5.538
 6697SOL     OW20989   4.438   2.444   2.667
 6697SOL    HW120990   4.479   2.476   2.752
 6697SOL    HW220991   4.350   2.400   2.687
 6698SOL     OW20992   2.757   2.517   1.482
 6698SOL    HW120993   2.672   2.527   1.533
 6698SOL    HW220994   2.755   2.431   1.430
 6699SOL     OW20995   2.407   5.508   6.271
 6699SOL    HW120996   2.322   5.459   6.292
 6699SOL    HW220997   2.464   5.513   6.354
 6700SOL     OW20998   6.831   6.697   1.251
 6700SOL    HW120999   6.779   6.731   1.330
 6700SOL    HW221000   6.783   6.618   1.212
 6701SOL     OW21001   5.424   3.072   1.685
 6701SOL    HW121002   5.338   3.038   1.724
 6701SOL    HW221003   5.492   3.082   1.759
 6702SOL     OW21004   3.332   1.673   1.852
 6702SOL    HW121005   3.333   1.591   1.795
 6702SOL    HW221006   3.363   1.650   1.944
 6703SOL     OW21007   6.259   1.971   6.757
 6703SOL    HW121008   6.238   1.902   6.826
 6703SOL    HW221009   6.214   2.057   6.781
 6704SOL     OW21010   3.216   1.787   3.600
 6704SOL    HW121011   3.226   1.739   3.686
 6704SOL    HW221012   3.209   1.721   3.525
 6705SOL     OW21013   6.638   3.005   1.746
 6705SOL    HW121014   6.616   3.071   1.674
 6705SOL    HW221015   6.557   2.952   1.770
 6706SOL     OW21016   1.312   3.994   2.127
 6706SOL    HW121017   1.289   3.913   2.073
 6706SOL    HW221018   1.411   4.003   2.132
 6707SOL     OW21019   6.644   5.809   3.476
 6707SOL    HW121020   6.648   5.768   3.568
 6707SOL    HW221021   6.596   5.897   3.481
 6708SOL     OW21022   6.245   5.206   1.955
 6708SOL    HW121023   6.322   5.257   1.918
 6708SOL    HW221024   6.187   5.267   2.009
 6709SOL     OW21025   2.525   6.661   3.250
 6709SOL    HW121026   2.548   6.733   3.184
 6709SOL    HW221027   2.524   6.573   3.204
 6710SOL     OW21028   3.609   0.960   6.086
 6710SOL    HW121029   3.563   0.881   6.127
 6710SOL    HW221030   3.631   1.026   6.158
 6711SOL     OW21031   4.778   5.300   6.293
 6711SOL    HW121032   4.845   5.254   6.351
 6711SOL    HW221033   4.717   5.231   6.252
 6712SOL     OW21034   5.622   4.109   6.982
 6712SOL    HW121035   5.682   4.085   0.031
 6712SOL    HW221036   5.535   4.145   7.018
 6713SOL     OW21037   2.205   0.487   2.456
 6713SOL    HW121038   2.299   0.505   2.487
 6713SOL    HW221039   2.207   0.444   2.366
 6714SOL     OW21040   6.324   1.197   6.131
 6714SOL    HW121041   6.353   1.271   6.070
 6714SOL    HW221042   6.327   1.110   6.081
 6715SOL     OW21043   0.630   0.165   6.854
 6715SOL    HW121044   0.554   0.198   6.798
 6715SOL    HW221045   0.627   0.065   6.858
 6716SOL     OW21046   0.540   5.872   1.593
 6716SOL    HW121047   0.495   5.957   1.567
 6716SOL    HW221048   0.505   5.841   1.681
 6717SOL     OW21049   4.309   2.860   6.739
 6717SOL    HW121050   4.367   2.815   6.806
 6717SOL    HW221051   4.290   2.797   6.663
 6718SOL     OW21052   4.735   0.640   0.406
 6718SOL    HW121053   4.666   0.692   0.459
 6718SOL    HW221054   4.776   0.570   0.465
 6719SOL     OW21055   2.467   0.312   6.689
 6719SOL    HW121056   2.369   0.299   6.674
 6719SOL    HW221057   2.482   0.390   6.749
 6720SOL     OW21058   1.072   6.855   4.188
 6720SOL    HW121059   1.162   6.881   4.156
 6720SOL    HW221060   1.059   6.756   4.174
 6721SOL     OW21061   6.611   0.236   6.359
 6721SOL    HW121062   6.646   0.325   6.330
 6721SOL    HW221063   6.519   0.247   6.398
 6722SOL     OW21064   6.724   2.904   1.345
 6722SOL    HW121065   6.759   2.827   1.290
 6722SOL    HW221066   6.742   2.886   1.442
 6723SOL     OW21067   2.286   6.769   3.336
 6723SOL    HW121068   2.284   6.849   3.276
 6723SOL    HW221069   2.358   6.706   3.306
 6724SOL     OW21070   1.538   3.582   5.626
 6724SOL    HW121071   1.463   3.590   5.560
 6724SOL    HW221072   1.623   3.563   5.578
 6725SOL     OW21073   0.311   3.948   1.482
 6725SOL    HW121074   0.379   3.875   1.484
 6725SOL    HW221075   0.347   4.026   1.430
 6726SOL     OW21076   0.820   2.270   4.935
 6726SOL    HW121077   0.725   2.285   4.964
 6726SOL    HW221078   0.821   2.221   4.849
 6727SOL     OW21079   6.544   4.217   5.258
 6727SOL    HW121080   6.564   4.285   5.187
 6727SOL    HW221081   6.596   4.239   5.341
 6728SOL     OW21082   3.993   1.418   3.329
 6728SOL    HW121083   4.028   1.405   3.422
 6728SOL    HW221084   3.917   1.483   3.332
 6729SOL     OW21085   6.708   1.163   2.693
 6729SOL    HW121086   6.678   1.068   2.705
 6729SOL    HW221087   6.752   1.195   2.776
 6730SOL     OW21088   2.536   6.772   0.162
 6730SOL    HW121089   2.580   6.726   0.086
 6730SOL    HW221090   2.461   6.829   0.129
 6731SOL     OW21091   1.000   5.963   2.074
 6731SOL    HW121092   1.017   5.967   1.975
 6731SOL    HW221093   0.903   5.976   2.092
 6732SOL     OW21094   5.640   5.228   5.533
 6732SOL    HW121095   5.564   5.251   5.593
 6732SOL    HW221096   5.628   5.134   5.500
 6733SOL     OW21097   3.923   5.123   0.024
 6733SOL    HW121098   4.016   5.092   0.038
 6733SOL    HW221099   3.923   5.217   7.018
 6734SOL     OW21100   6.528   2.159   4.964
 6734SOL    HW121101   6.599   2.229   4.967
 6734SOL    HW221102   6.507   2.138   4.869
 6735SOL     OW21103   0.008   4.260   4.678
 6735SOL    HW121104   6.954   4.227   4.725
 6735SOL    HW221105   0.080   4.191   4.684
 6736SOL     OW21106   3.433   3.696   6.784
 6736SOL    HW121107   3.463   3.613   6.832
 6736SOL    HW221108   3.408   3.672   6.690
 6737SOL     OW21109   2.146   2.334   0.687
 6737SOL    HW121110   2.155   2.241   0.652
 6737SOL    HW221111   2.209   2.395   0.638
 6738SOL     OW21112   1.461   4.932   2.400
 6738SOL    HW121113   1.554   4.903   2.423
 6738SOL    HW221114   1.465   5.016   2.346
 6739SOL     OW21115   3.687   6.048   5.462
 6739SOL    HW121116   3.710   6.020   5.369
 6739SOL    HW221117   3.611   5.992   5.495
 6740SOL     OW21118   1.826   0.821   4.068
 6740SOL    HW121119   1.918   0.856   4.082
 6740SOL    HW221120   1.761   0.873   4.123
 6741SOL     OW21121   4.256   1.141   5.574
 6741SOL    HW121122   4.264   1.229   5.621
 6741SOL    HW221123   4.320   1.139   5.497
 6742SOL     OW21124   6.294   5.606   2.848
 6742SOL    HW121125   6.337   5.599   2.938
 6742SOL    HW221126   6.314   5.524   2.795
 6743SOL     OW21127   4.042   4.687   0.391
 6743SOL    HW121128   4.032   4.716   0.295
 6743SOL    HW221129   3.953   4.688   0.436
 6744SOL     OW21130   5.878   4.222   6.579
 6744SOL    HW121131   5.876   4.301   6.641
 6744SOL    HW221132   5.887   4.254   6.485
 6745SOL     OW21133   0.083   0.146   3.155
 6745SOL    HW121134   0.043   0.224   3.202
 6745SOL    HW221135   0.093   0.166   3.058
 6746SOL     OW21136   1.286   1.147   3.130
 6746SOL    HW121137   1.342   1.078   3.174
 6746SOL    HW221138   1.206   1.103   3.088
 6747SOL     OW21139   5.760   1.019   4.952
 6747SOL    HW121140   5.704   1.100   4.968
 6747SOL    HW221141   5.853   1.034   4.986
 6748SOL     OW21142   1.450   0.753   3.371
 6748SOL    HW121143   1.523   0.766   3.438
 6748SOL    HW221144   1.424   0.656   3.368
 6749SOL     OW21145   2.568   6.268   0.615
 6749SOL    HW121146   2.623   6.304   0.540
 6749SOL    HW221147   2.519   6.186   0.585
 6750SOL     OW21148   4.086   2.193   5.359
 6750SOL    HW121149   4.092   2.099   5.390
 6750SOL    HW221150   3.992   2.227   5.371
 6751SOL     OW21151   4.449   0.121   3.711
 6751SOL    HW121152   4.519   0.051   3.727
 6751SOL    HW221153   4.445   0.142   3.613
 6752SOL     OW21154   0.532   2.485   2.931
 6752SOL    HW121155   0.473   2.421   2.980
 6752SOL    HW221156   0.499   2.498   2.838
 6753SOL     OW21157   4.191   1.098   6.337
 6753SOL    HW121158   4.162   1.019   6.392
 6753SOL    HW221159   4.288   1.117   6.354
 6754SOL     OW21160   0.284   1.527   0.094
 6754SOL    HW121161   0.350   1.462   0.132
 6754SOL    HW221162   0.192   1.489   0.105
 6755SOL     OW21163   3.992   0.673   3.301
 6755SOL    HW121164   3.977   0.699   3.205
 6755SOL    HW221165   4.075   0.716   3.335
 6756SOL     OW21166   3.979   5.630   5.364
 6756SOL    HW121167   3.941   5.657   5.276
 6756SOL    HW221168   3.945   5.538   5.388
 6757SOL     OW21169   4.553   0.220   1.923
 6757SOL    HW121170   4.541   0.208   2.021
 6757SOL    HW221171   4.464   0.225   1.878
 6758SOL     OW21172   0.161   2.363   1.469
 6758SOL    HW121173   0.109   2.301   1.528
 6758SOL    HW221174   0.144   2.457   1.497
 6759SOL     OW21175   0.833   4.585   4.003
 6759SOL    HW121176   0.796   4.631   3.922
 6759SOL    HW221177   0.865   4.493   3.977
 6760SOL     OW21178   6.817   4.516   3.366
 6760SOL    HW121179   6.837   4.612   3.344
 6760SOL    HW221180   6.903   4.467   3.379
 6761SOL     OW21181   6.271   2.319   5.954
 6761SOL    HW121182   6.350   2.352   6.006
 6761SOL    HW221183   6.201   2.286   6.017
 6762SOL     OW21184   0.178   5.140   3.535
 6762SOL    HW121185   0.243   5.152   3.610
 6762SOL    HW221186   0.190   5.211   3.467
 6763SOL     OW21187   0.281   4.760   3.092
 6763SOL    HW121188   0.219   4.682   3.091
 6763SOL    HW221189   0.239   4.835   3.144
 6764SOL     OW21190   2.559   5.328   6.740
 6764SOL    HW121191   2.638   5.309   6.798
 6764SOL    HW221192   2.479   5.346   6.798
 6765SOL     OW21193   4.987   4.781   4.040
 6765SOL    HW121194   5.065   4.721   4.023
 6765SOL    HW221195   4.925   4.739   4.106
 6766SOL     OW21196   4.753   6.541   6.134
 6766SOL    HW121197   4.788   6.448   6.126
 6766SOL    HW221198   4.787   6.596   6.058
 6767SOL     OW21199   1.223   2.361   0.557
 6767SOL    HW121200   1.269   2.356   0.646
 6767SOL    HW221201   1.288   2.394   0.489
 6768SOL     OW21202   0.974   6.217   3.415
 6768SOL    HW121203   0.934   6.125   3.420
 6768SOL    HW221204   0.998   6.238   3.321
 6769SOL     OW21205   2.872   0.086   5.725
 6769SOL    HW121206   2.810   0.076   5.648
 6769SOL    HW221207   2.826   0.136   5.798
 6770SOL     OW21208   5.526   1.786   3.397
 6770SOL    HW121209   5.566   1.790   3.489
 6770SOL    HW221210   5.426   1.793   3.404
 6771SOL     OW21211   4.069   1.226   2.148
 6771SOL    HW121212   3.983   1.274   2.131
 6771SOL    HW221213   4.108   1.196   2.061
 6772SOL     OW21214   4.719   2.113   2.649
 6772SOL    HW121215   4.742   2.210   2.638
 6772SOL    HW221216   4.681   2.098   2.740
 6773SOL     OW21217   0.143   6.572   2.033
 6773SOL    HW121218   0.103   6.495   1.983
 6773SOL    HW221219   0.091   6.655   2.012
 6774SOL     OW21220   1.344   3.135   4.732
 6774SOL    HW121221   1.433   3.179   4.720
 6774SOL    HW221222   1.357   3.046   4.776
 6775SOL     OW21223   0.903   2.242   3.257
 6775SOL    HW121224   0.826   2.191   3.296
 6775SOL    HW221225   0.898   2.337   3.288
 6776SOL     OW21226   4.370   3.907   1.245
 6776SOL    HW121227   4.348   3.815   1.277
 6776SOL    HW221228   4.442   3.901   1.175
 6777SOL     OW21229   4.253   5.774   0.728
 6777SOL    HW121230   4.211   5.685   0.715
 6777SOL    HW221231   4.293   5.779   0.820
 6778SOL     OW21232   6.193   3.603   1.939
 6778SOL    HW121233   6.154   3.663   1.869
 6778SOL    HW221234   6.287   3.579   1.912
 6779SOL     OW21235   5.296   4.410   6.328
 6779SOL    HW121236   5.246   4.417   6.242
 6779SOL    HW221237   5.239   4.365   6.397
 6780SOL     OW21238   0.861   3.525   3.061
 6780SOL    HW121239   0.790   3.488   3.002
 6780SOL    HW221240   0.936   3.560   3.005
 6781SOL     OW21241   6.717   2.030   3.980
 6781SOL    HW121242   6.741   2.110   4.034
 6781SOL    HW221243   6.667   2.058   3.898
 6782SOL     OW21244   0.709   1.418   3.059
 6782SOL    HW121245   0.699   1.484   2.983
 6782SOL    HW221246   0.749   1.465   3.138
 6783SOL     OW21247   1.082   2.889   6.097
 6783SOL    HW121248   1.068   2.969   6.039
 6783SOL    HW221249   1.049   2.807   6.050
 6784SOL     OW21250   2.296   3.796   0.857
 6784SOL    HW121251   2.355   3.772   0.934
 6784SOL    HW221252   2.333   3.755   0.773
 6785SOL     OW21253   5.963   5.271   5.445
 6785SOL    HW121254   5.892   5.287   5.377
 6785SOL    HW221255   5.938   5.192   5.502
 6786SOL     OW21256   0.755   3.050   6.763
 6786SOL    HW121257   0.704   2.992   6.827
 6786SOL    HW221258   0.768   3.140   6.804
 6787SOL     OW21259   3.327   2.014   1.146
 6787SOL    HW121260   3.242   1.982   1.188
 6787SOL    HW221261   3.306   2.061   1.060
 6788SOL     OW21262   0.212   4.681   2.153
 6788SOL    HW121263   0.243   4.589   2.130
 6788SOL    HW221264   0.291   4.737   2.180
 6789SOL     OW21265   0.177   4.523   4.153
 6789SOL    HW121266   0.229   4.528   4.067
 6789SOL    HW221267   0.161   4.427   4.176
 6790SOL     OW21268   0.595   4.404   6.962
 6790SOL    HW121269   0.687   4.395   7.000
 6790SOL    HW221270   0.528   4.403   0.009
 6791SOL     OW21271   4.021   2.212   2.448
 6791SOL    HW121272   4.099   2.166   2.407
 6791SOL    HW221273   3.941   2.201   2.390
 6792SOL     OW21274   5.304   0.057   5.603
 6792SOL    HW121275   5.320   6.996   5.645
 6792SOL    HW221276   5.211   0.060   5.566
 6793SOL     OW21277   3.580   0.557   6.865
 6793SOL    HW121278   3.655   0.528   6.806
 6793SOL    HW221279   3.591   0.516   6.955
 6794SOL     OW21280   5.383   1.443   5.309
 6794SOL    HW121281   5.348   1.361   5.354
 6794SOL    HW221282   5.308   1.508   5.295
 6795SOL     OW21283   0.914   6.086   0.045
 6795SOL    HW121284   0.823   6.126   0.047
 6795SOL    HW221285   0.917   6.005   0.104
 6796SOL     OW21286   6.251   7.023   2.330
 6796SOL    HW121287   6.274   0.092   2.318
 6796SOL    HW221288   6.220   6.985   2.243
 6797SOL     OW21289   6.396   1.826   0.856
 6797SOL    HW121290   6.420   1.905   0.913
 6797SOL    HW221291   6.475   1.802   0.799
 6798SOL     OW21292   6.477   0.353   1.623
 6798SOL    HW121293   6.558   0.321   1.672
 6798SOL    HW221294   6.409   0.386   1.688
 6799SOL     OW21295   6.000   6.916   2.427
 6799SOL    HW121296   6.088   6.955   2.399
 6799SOL    HW221297   5.959   6.972   2.498
 6800SOL     OW21298   2.475   2.604   2.097
 6800SOL    HW121299   2.493   2.511   2.128
 6800SOL    HW221300   2.526   2.622   2.013
 6801SOL     OW21301   0.843   6.742   3.631
 6801SOL    HW121302   0.789   6.826   3.622
 6801SOL    HW221303   0.835   6.688   3.547
 6802SOL     OW21304   3.815   6.176   1.489
 6802SOL    HW121305   3.735   6.119   1.507
 6802SOL    HW221306   3.898   6.125   1.513
 6803SOL     OW21307   4.125   4.311   6.572
 6803SOL    HW121308   4.197   4.260   6.619
 6803SOL    HW221309   4.069   4.360   6.639
 6804SOL     OW21310   3.995   5.012   3.125
 6804SOL    HW121311   4.007   5.035   3.029
 6804SOL    HW221312   3.904   4.975   3.140
 6805SOL     OW21313   0.411   5.449   6.804
 6805SOL    HW121314   0.481   5.454   6.876
 6805SOL    HW221315   0.406   5.355   6.769
 6806SOL     OW21316   6.973   0.917   4.425
 6806SOL    HW121317   7.001   0.920   4.329
 6806SOL    HW221318   6.891   0.972   4.438
 6807SOL     OW21319   4.029   3.861   2.755
 6807SOL    HW121320   3.955   3.806   2.716
 6807SOL    HW221321   3.995   3.911   2.834
 6808SOL     OW21322   6.986   1.325   5.119
 6808SOL    HW121323   7.024   1.246   5.167
 6808SOL    HW221324   6.991   1.311   5.021
 6809SOL     OW21325   6.714   3.366   0.605
 6809SOL    HW121326   6.679   3.300   0.671
 6809SOL    HW221327   6.765   3.319   0.534
 6810SOL     OW21328   2.869   0.895   2.326
 6810SOL    HW121329   2.936   0.970   2.333
 6810SOL    HW221330   2.889   0.826   2.395
 6811SOL     OW21331   6.390   3.123   2.353
 6811SOL    HW121332   6.383   3.032   2.392
 6811SOL    HW221333   6.485   3.153   2.353
 6812SOL     OW21334   3.752   4.087   5.278
 6812SOL    HW121335   3.760   3.993   5.310
 6812SOL    HW221336   3.767   4.091   5.179
 6813SOL     OW21337   5.980   3.170   2.505
 6813SOL    HW121338   5.982   3.105   2.581
 6813SOL    HW221339   6.059   3.231   2.513
 6814SOL     OW21340   4.479   1.890   6.607
 6814SOL    HW121341   4.409   1.876   6.677
 6814SOL    HW221342   4.527   1.975   6.625
 6815SOL     OW21343   2.629   6.531   6.728
 6815SOL    HW121344   2.691   6.462   6.767
 6815SOL    HW221345   2.620   6.515   6.630
 6816SOL     OW21346   0.075   1.335   5.667
 6816SOL    HW121347   0.005   1.398   5.698
 6816SOL    HW221348   0.043   1.287   5.585
 6817SOL     OW21349   2.470   2.652   3.956
 6817SOL    HW121350   2.405   2.587   3.919
 6817SOL    HW221351   2.432   2.745   3.951
 6818SOL     OW21352   2.100   6.605   0.336
 6818SOL    HW121353   2.107   6.705   0.336
 6818SOL    HW221354   2.004   6.579   0.321
 6819SOL     OW21355   4.772   1.524   3.193
 6819SOL    HW121356   4.837   1.449   3.190
 6819SOL    HW221357   4.728   1.534   3.104
 6820SOL     OW21358   1.341   6.041   1.742
 6820SOL    HW121359   1.435   6.050   1.776
 6820SOL    HW221360   1.320   5.945   1.727
 6821SOL     OW21361   4.334   2.667   5.356
 6821SOL    HW121362   4.321   2.651   5.454
 6821SOL    HW221363   4.259   2.626   5.305
 6822SOL     OW21364   5.786   2.573   5.680
 6822SOL    HW121365   5.860   2.618   5.632
 6822SOL    HW221366   5.783   2.476   5.654
 6823SOL     OW21367   5.934   4.320   6.080
 6823SOL    HW121368   6.009   4.284   6.025
 6823SOL    HW221369   5.901   4.405   6.040
 6824SOL     OW21370   1.539   1.509   0.391
 6824SOL    HW121371   1.524   1.542   0.298
 6824SOL    HW221372   1.627   1.542   0.425
 6825SOL     OW21373   6.030   0.205   0.270
 6825SOL    HW121374   5.954   0.159   0.225
 6825SOL    HW221375   6.115   0.183   0.223
 6826SOL     OW21376   1.784   3.828   3.143
 6826SOL    HW121377   1.710   3.778   3.189
 6826SOL    HW221378   1.816   3.775   3.065
 6827SOL     OW21379   5.274   5.331   6.349
 6827SOL    HW121380   5.328   5.317   6.432
 6827SOL    HW221381   5.203   5.400   6.367
 6828SOL     OW21382   3.769   1.480   2.723
 6828SOL    HW121383   3.716   1.514   2.801
 6828SOL    HW221384   3.715   1.412   2.673
 6829SOL     OW21385   5.520   6.317   5.197
 6829SOL    HW121386   5.432   6.360   5.175
 6829SOL    HW221387   5.559   6.361   5.278
 6830SOL     OW21388   5.467   0.458   3.549
 6830SOL    HW121389   5.461   0.524   3.475
 6830SOL    HW221390   5.382   0.406   3.555
 6831SOL     OW21391   2.063   1.120   5.629
 6831SOL    HW121392   2.074   1.211   5.669
 6831SOL    HW221393   1.966   1.103   5.611
 6832SOL     OW21394   2.390   3.888   0.570
 6832SOL    HW121395   2.348   3.978   0.580
 6832SOL    HW221396   2.488   3.899   0.552
 6833SOL     OW21397   2.298   4.831   6.122
 6833SOL    HW121398   2.209   4.805   6.084
 6833SOL    HW221399   2.329   4.916   6.078
 6834SOL     OW21400   6.221   6.962   0.546
 6834SOL    HW121401   6.214   0.030   0.573
 6834SOL    HW221402   6.217   6.904   0.628
 6835SOL     OW21403   3.614   1.386   4.610
 6835SOL    HW121404   3.675   1.333   4.551
 6835SOL    HW221405   3.655   1.475   4.629
 6836SOL     OW21406   2.610   4.202   6.207
 6836SOL    HW121407   2.587   4.173   6.299
 6836SOL    HW221408   2.620   4.121   6.148
 6837SOL     OW21409   0.786   1.890   3.040
 6837SOL    HW121410   0.878   1.865   3.070
 6837SOL    HW221411   0.791   1.972   2.984
 6838SOL     OW21412   2.890   4.536   6.183
 6838SOL    HW121413   2.914   4.633   6.177
 6838SOL    HW221414   2.796   4.523   6.152
 6839SOL     OW21415   4.973   1.159   5.089
 6839SOL    HW121416   4.949   1.211   5.007
 6839SOL    HW221417   4.936   1.205   5.170
 6840SOL     OW21418   3.134   6.666   5.335
 6840SOL    HW121419   3.098   6.752   5.372
 6840SOL    HW221420   3.232   6.660   5.353
 6841SOL     OW21421   3.995   5.093   0.644
 6841SOL    HW121422   3.925   5.032   0.681
 6841SOL    HW221423   4.074   5.094   0.706
 6842SOL     OW21424   2.675   2.644   0.128
 6842SOL    HW121425   2.756   2.587   0.122
 6842SOL    HW221426   2.599   2.600   0.079
 6843SOL     OW21427   5.604   0.239   2.180
 6843SOL    HW121428   5.591   0.307   2.107
 6843SOL    HW221429   5.702   0.222   2.193
 6844SOL     OW21430   6.287   6.342   3.913
 6844SOL    HW121431   6.251   6.250   3.929
 6844SOL    HW221432   6.232   6.408   3.964
 6845SOL     OW21433   5.322   4.051   2.497
 6845SOL    HW121434   5.257   4.125   2.484
 6845SOL    HW221435   5.394   4.056   2.427
 6846SOL     OW21436   4.142   3.135   1.549
 6846SOL    HW121437   4.127   3.100   1.457
 6846SOL    HW221438   4.230   3.182   1.554
 6847SOL     OW21439   6.729   4.279   2.083
 6847SOL    HW121440   6.749   4.355   2.145
 6847SOL    HW221441   6.685   4.315   2.001
 6848SOL     OW21442   2.951   6.542   3.562
 6848SOL    HW121443   2.971   6.628   3.516
 6848SOL    HW221444   3.018   6.473   3.536
 6849SOL     OW21445   3.145   5.727   4.777
 6849SOL    HW121446   3.080   5.690   4.709
 6849SOL    HW221447   3.108   5.811   4.816
 6850SOL     OW21448   5.315   3.228   2.443
 6850SOL    HW121449   5.400   3.207   2.491
 6850SOL    HW221450   5.243   3.165   2.471
 6851SOL     OW21451   1.510   2.916   3.871
 6851SOL    HW121452   1.435   2.896   3.934
 6851SOL    HW221453   1.578   2.972   3.918
 6852SOL     OW21454   1.532   4.721   1.096
 6852SOL    HW121455   1.482   4.807   1.109
 6852SOL    HW221456   1.629   4.740   1.080
 6853SOL     OW21457   6.719   3.773   6.658
 6853SOL    HW121458   6.818   3.782   6.661
 6853SOL    HW221459   6.685   3.806   6.570
 6854SOL     OW21460   6.186   1.866   5.658
 6854SOL    HW121461   6.147   1.806   5.588
 6854SOL    HW221462   6.148   1.843   5.747
 6855SOL     OW21463   3.260   5.807   2.680
 6855SOL    HW121464   3.258   5.883   2.615
 6855SOL    HW221465   3.189   5.741   2.655
 6856SOL     OW21466   5.369   4.877   5.482
 6856SOL    HW121467   5.332   4.882   5.574
 6856SOL    HW221468   5.324   4.803   5.432
 6857SOL     OW21469   3.258   1.544   0.140
 6857SOL    HW121470   3.259   1.489   0.223
 6857SOL    HW221471   3.217   1.634   0.160
 6858SOL     OW21472   3.888   3.325   4.066
 6858SOL    HW121473   3.792   3.354   4.062
 6858SOL    HW221474   3.895   3.241   4.119
 6859SOL     OW21475   1.355   6.896   1.212
 6859SOL    HW121476   1.316   6.843   1.288
 6859SOL    HW221477   1.307   6.984   1.204
 6860SOL     OW21478   5.974   5.595   1.346
 6860SOL    HW121479   5.995   5.505   1.384
 6860SOL    HW221480   5.901   5.637   1.400
 6861SOL     OW21481   5.861   4.544   0.714
 6861SOL    HW121482   5.808   4.547   0.629
 6861SOL    HW221483   5.890   4.451   0.733
 6862SOL     OW21484   2.213   4.717   4.798
 6862SOL    HW121485   2.285   4.649   4.785
 6862SOL    HW221486   2.162   4.697   4.881
 6863SOL     OW21487   5.838   1.540   4.810
 6863SOL    HW121488   5.913   1.491   4.854
 6863SOL    HW221489   5.866   1.634   4.790
 6864SOL     OW21490   3.534   5.794   3.908
 6864SOL    HW121491   3.483   5.726   3.855
 6864SOL    HW221492   3.571   5.863   3.846
 6865SOL     OW21493   6.840   5.507   2.866
 6865SOL    HW121494   6.835   5.582   2.933
 6865SOL    HW221495   6.750   5.494   2.825
 6866SOL     OW21496   6.384   4.515   2.290
 6866SOL    HW121497   6.348   4.525   2.382
 6866SOL    HW221498   6.481   4.538   2.289
 6867SOL     OW21499   1.497   4.813   1.420
 6867SOL    HW121500   1.553   4.799   1.502
 6867SOL    HW221501   1.547   4.783   1.339
 6868SOL     OW21502   0.971   5.446   5.846
 6868SOL    HW121503   0.948   5.477   5.938
 6868SOL    HW221504   1.056   5.490   5.816
 6869SOL     OW21505   6.137   1.130   5.111
 6869SOL    HW121506   6.202   1.088   5.174
 6869SOL    HW221507   6.069   1.181   5.163
 6870SOL     OW21508   6.846   5.514   2.248
 6870SOL    HW121509   6.840   5.487   2.152
 6870SOL    HW221510   6.782   5.460   2.302
 6871SOL     OW21511   5.750   4.266   2.173
 6871SOL    HW121512   5.813   4.207   2.225
 6871SOL    HW221513   5.694   4.319   2.237
 6872SOL     OW21514   0.920   3.796   0.981
 6872SOL    HW121515   0.893   3.763   1.071
 6872SOL    HW221516   1.008   3.843   0.986
 6873SOL     OW21517   6.413   3.940   4.879
 6873SOL    HW121518   6.357   3.913   4.958
 6873SOL    HW221519   6.429   4.039   4.883
 6874SOL     OW21520   1.001   4.720   2.957
 6874SOL    HW121521   1.020   4.750   3.050
 6874SOL    HW221522   1.002   4.800   2.896
 6875SOL     OW21523   1.011   2.474   3.660
 6875SOL    HW121524   1.035   2.477   3.757
 6875SOL    HW221525   0.935   2.410   3.646
 6876SOL     OW21526   4.425   6.441   5.024
 6876SOL    HW121527   4.478   6.441   5.109
 6876SOL    HW221528   4.470   6.383   4.956
 6877SOL     OW21529   2.639   4.471   6.418
 6877SOL    HW121530   2.647   4.490   6.320
 6877SOL    HW221531   2.714   4.516   6.467
 6878SOL     OW21532   2.755   2.580   5.301
 6878SOL    HW121533   2.836   2.531   5.332
 6878SOL    HW221534   2.699   2.519   5.245
 6879SOL     OW21535   1.227   2.185   0.289
 6879SOL    HW121536   1.207   2.196   0.192
 6879SOL    HW221537   1.311   2.235   0.312
 6880SOL     OW21538   1.878   3.547   5.191
 6880SOL    HW121539   1.888   3.571   5.288
 6880SOL    HW221540   1.940   3.603   5.136
 6881SOL     OW21541   0.556   4.102   2.349
 6881SOL    HW121542   0.489   4.028   2.340
 6881SOL    HW221543   0.628   4.073   2.412
 6882SOL     OW21544   3.081   0.474   6.013
 6882SOL    HW121545   3.012   0.445   5.947
 6882SOL    HW221546   3.092   0.573   6.008
 6883SOL     OW21547   3.961   2.093   0.829
 6883SOL    HW121548   3.914   2.073   0.915
 6883SOL    HW221549   3.955   2.191   0.809
 6884SOL     OW21550   1.842   4.090   4.414
 6884SOL    HW121551   1.755   4.042   4.425
 6884SOL    HW221552   1.847   4.166   4.478
 6885SOL     OW21553   4.096   5.914   4.813
 6885SOL    HW121554   3.999   5.908   4.837
 6885SOL    HW221555   4.116   5.847   4.741
 6886SOL     OW21556   7.002   0.689   4.074
 6886SOL    HW121557   6.906   0.672   4.049
 6886SOL    HW221558   0.028   0.699   3.991
 6887SOL     OW21559   5.349   6.696   5.564
 6887SOL    HW121560   5.330   6.653   5.475
 6887SOL    HW221561   5.418   6.643   5.613
 6888SOL     OW21562   5.146   6.834   7.009
 6888SOL    HW121563   5.053   6.834   6.973
 6888SOL    HW221564   5.193   6.918   6.981
 6889SOL     OW21565   1.893   2.545   5.212
 6889SOL    HW121566   1.930   2.530   5.120
 6889SOL    HW221567   1.941   2.622   5.255
 6890SOL     OW21568   3.491   6.741   1.162
 6890SOL    HW121569   3.416   6.802   1.135
 6890SOL    HW221570   3.474   6.706   1.253
 6891SOL     OW21571   2.279   4.367   4.328
 6891SOL    HW121572   2.267   4.307   4.407
 6891SOL    HW221573   2.202   4.431   4.322
 6892SOL     OW21574   3.341   1.339   3.245
 6892SOL    HW121575   3.423   1.284   3.263
 6892SOL    HW221576   3.361   1.435   3.261
 6893SOL     OW21577   5.505   5.146   6.903
 6893SOL    HW121578   5.418   5.141   6.953
 6893SOL    HW221579   5.527   5.242   6.884
 6894SOL     OW21580   6.254   4.914   0.446
 6894SOL    HW121581   6.310   4.968   0.509
 6894SOL    HW221582   6.299   4.826   0.430
 6895SOL     OW21583   2.470   5.977   6.296
 6895SOL    HW121584   2.517   5.935   6.373
 6895SOL    HW221585   2.441   5.906   6.231
 6896SOL     OW21586   2.070   6.563   3.668
 6896SOL    HW121587   1.993   6.531   3.724
 6896SOL    HW221588   2.147   6.587   3.728
 6897SOL     OW21589   2.936   3.664   0.041
 6897SOL    HW121590   2.849   3.629   0.076
 6897SOL    HW221591   2.997   3.683   0.118
 6898SOL     OW21592   3.868   1.677   2.563
 6898SOL    HW121593   3.825   1.601   2.611
 6898SOL    HW221594   3.908   1.645   2.477
 6899SOL     OW21595   5.133   6.790   1.259
 6899SOL    HW121596   5.170   6.713   1.311
 6899SOL    HW221597   5.207   6.834   1.207
 6900SOL     OW21598   6.336   0.408   5.622
 6900SOL    HW121599   6.412   0.359   5.665
 6900SOL    HW221600   6.338   0.393   5.523
 6901SOL     OW21601   0.313   0.061   5.804
 6901SOL    HW121602   0.273   0.033   5.716
 6901SOL    HW221603   0.406   0.094   5.788
 6902SOL     OW21604   5.867   6.952   0.602
 6902SOL    HW121605   5.916   6.886   0.544
 6902SOL    HW221606   5.915   0.012   0.599
 6903SOL     OW21607   4.006   5.191   4.853
 6903SOL    HW121608   4.012   5.273   4.909
 6903SOL    HW221609   4.087   5.183   4.795
 6904SOL     OW21610   5.962   1.864   4.085
 6904SOL    HW121611   5.982   1.815   4.170
 6904SOL    HW221612   5.891   1.815   4.034
 6905SOL     OW21613   5.838   6.474   6.794
 6905SOL    HW121614   5.750   6.437   6.822
 6905SOL    HW221615   5.857   6.558   6.844
 6906SOL     OW21616   4.289   1.025   4.299
 6906SOL    HW121617   4.250   1.107   4.258
 6906SOL    HW221618   4.272   0.946   4.240
 6907SOL     OW21619   5.056   1.863   1.232
 6907SOL    HW121620   4.995   1.802   1.282
 6907SOL    HW221621   5.004   1.911   1.161
 6908SOL     OW21622   1.069   6.322   5.873
 6908SOL    HW121623   1.122   6.281   5.947
 6908SOL    HW221624   1.129   6.343   5.796
 6909SOL     OW21625   6.023   4.219   1.767
 6909SOL    HW121626   6.045   4.306   1.811
 6909SOL    HW221627   6.078   4.146   1.809
 6910SOL     OW21628   0.243   2.341   3.931
 6910SOL    HW121629   0.248   2.241   3.926
 6910SOL    HW221630   0.204   2.377   3.847
 6911SOL     OW21631   5.124   6.627   3.802
 6911SOL    HW121632   5.124   6.543   3.856
 6911SOL    HW221633   5.121   6.605   3.705
 6912SOL     OW21634   4.141   4.937   0.443
 6912SOL    HW121635   4.099   4.988   0.518
 6912SOL    HW221636   4.106   4.844   0.442
 6913SOL     OW21637   5.230   4.923   5.751
 6913SOL    HW121638   5.163   4.965   5.689
 6913SOL    HW221639   5.194   4.837   5.787
 6914SOL     OW21640   5.391   4.444   0.090
 6914SOL    HW121641   5.485   4.462   0.120
 6914SOL    HW221642   5.331   4.518   0.121
 6915SOL     OW21643   6.347   3.909   1.641
 6915SOL    HW121644   6.291   3.935   1.720
 6915SOL    HW221645   6.318   3.963   1.562
 6916SOL     OW21646   6.288   3.760   6.718
 6916SOL    HW121647   6.265   3.855   6.696
 6916SOL    HW221648   6.205   3.705   6.717
 6917SOL     OW21649   3.432   5.672   0.802
 6917SOL    HW121650   3.490   5.751   0.824
 6917SOL    HW221651   3.405   5.626   0.886
 6918SOL     OW21652   0.700   3.141   4.397
 6918SOL    HW121653   0.773   3.128   4.329
 6918SOL    HW221654   0.711   3.230   4.441
 6919SOL     OW21655   0.391   6.319   2.964
 6919SOL    HW121656   0.318   6.329   3.031
 6919SOL    HW221657   0.459   6.392   2.976
 6920SOL     OW21658   4.247   5.603   5.318
 6920SOL    HW121659   4.259   5.505   5.333
 6920SOL    HW221660   4.155   5.630   5.345
 6921SOL     OW21661   5.205   6.356   3.441
 6921SOL    HW121662   5.265   6.421   3.394
 6921SOL    HW221663   5.235   6.263   3.422
 6922SOL     OW21664   2.059   5.625   6.486
 6922SOL    HW121665   2.069   5.539   6.435
 6922SOL    HW221666   2.069   5.702   6.423
 6923SOL     OW21667   4.876   5.171   3.391
 6923SOL    HW121668   4.805   5.107   3.419
 6923SOL    HW221669   4.894   5.160   3.293
 6924SOL     OW21670   1.119   4.327   6.759
 6924SOL    HW121671   1.217   4.342   6.749
 6924SOL    HW221672   1.098   4.303   6.854
 6925SOL     OW21673   3.870   6.074   4.606
 6925SOL    HW121674   3.934   6.151   4.606
 6925SOL    HW221675   3.777   6.108   4.617
 6926SOL     OW21676   2.887   3.318   2.260
 6926SOL    HW121677   2.849   3.371   2.185
 6926SOL    HW221678   2.859   3.222   2.252
 6927SOL     OW21679   5.416   3.175   6.396
 6927SOL    HW121680   5.345   3.125   6.348
 6927SOL    HW221681   5.453   3.246   6.336
 6928SOL     OW21682   6.532   6.177   0.786
 6928SOL    HW121683   6.532   6.186   0.686
 6928SOL    HW221684   6.475   6.098   0.812
 6929SOL     OW21685   4.752   5.447   1.258
 6929SOL    HW121686   4.675   5.480   1.313
 6929SOL    HW221687   4.817   5.521   1.243
 6930SOL     OW21688   7.008   0.178   2.660
 6930SOL    HW121689   0.055   0.124   2.621
 6930SOL    HW221690   6.928   0.120   2.673
 6931SOL     OW21691   1.803   0.314   2.404
 6931SOL    HW121692   1.820   0.365   2.320
 6931SOL    HW221693   1.853   0.228   2.402
 6932SOL     OW21694   4.015   7.010   0.652
 6932SOL    HW121695   3.932   6.967   0.616
 6932SOL    HW221696   3.990   0.055   0.716
 6933SOL     OW21697   3.348   5.970   5.220
 6933SOL    HW121698   3.312   6.021   5.298
 6933SOL    HW221699   3.427   5.917   5.250
 6934SOL     OW21700   4.993   4.351   6.113
 6934SOL    HW121701   4.919   4.374   6.176
 6934SOL    HW221702   5.061   4.295   6.161
 6935SOL     OW21703   4.596   6.004   3.413
 6935SOL    HW121704   4.650   6.088   3.402
 6935SOL    HW221705   4.599   5.976   3.509
 6936SOL     OW21706   6.517   2.602   3.259
 6936SOL    HW121707   6.558   2.520   3.301
 6936SOL    HW221708   6.428   2.618   3.300
 6937SOL     OW21709   6.880   6.087   0.399
 6937SOL    HW121710   6.870   6.146   0.479
 6937SOL    HW221711   6.839   6.131   0.319
 6938SOL     OW21712   5.051   3.466   5.990
 6938SOL    HW121713   5.009   3.395   6.047
 6938SOL    HW221714   5.109   3.424   5.921
 6939SOL     OW21715   6.953   4.141   1.217
 6939SOL    HW121716   6.977   4.104   1.127
 6939SOL    HW221717   6.951   4.241   1.212
 6940SOL     OW21718   4.600   1.447   0.614
 6940SOL    HW121719   4.571   1.430   0.520
 6940SOL    HW221720   4.542   1.516   0.655
 6941SOL     OW21721   3.334   2.991   3.100
 6941SOL    HW121722   3.402   2.937   3.149
 6941SOL    HW221723   3.331   2.962   3.004
 6942SOL     OW21724   6.126   2.523   1.285
 6942SOL    HW121725   6.215   2.546   1.247
 6942SOL    HW221726   6.069   2.605   1.290
 6943SOL     OW21727   5.064   6.061   6.421
 6943SOL    HW121728   5.020   6.088   6.336
 6943SOL    HW221729   4.995   6.026   6.485
 6944SOL     OW21730   1.691   3.870   6.345
 6944SOL    HW121731   1.689   3.848   6.247
 6944SOL    HW221732   1.669   3.967   6.357
 6945SOL     OW21733   5.985   3.328   5.918
 6945SOL    HW121734   6.001   3.292   6.010
 6945SOL    HW221735   5.975   3.427   5.923
 6946SOL     OW21736   6.150   6.703   1.470
 6946SOL    HW121737   6.225   6.644   1.438
 6946SOL    HW221738   6.182   6.760   1.546
 6947SOL     OW21739   3.444   6.578   5.649
 6947SOL    HW121740   3.365   6.537   5.603
 6947SOL    HW221741   3.444   6.550   5.745
 6948SOL     OW21742   5.899   0.543   6.381
 6948SOL    HW121743   5.959   0.623   6.374
 6948SOL    HW221744   5.836   0.555   6.458
 6949SOL     OW21745   4.923   0.137   3.885
 6949SOL    HW121746   5.007   0.169   3.841
 6949SOL    HW221747   4.866   0.090   3.818
 6950SOL     OW21748   2.236   7.000   3.802
 6950SOL    HW121749   2.310   6.988   3.736
 6950SOL    HW221750   2.205   0.067   3.800
 6951SOL     OW21751   6.598   6.360   6.177
 6951SOL    HW121752   6.575   6.387   6.084
 6951SOL    HW221753   6.648   6.274   6.175
 6952SOL     OW21754   6.926   5.796   4.030
 6952SOL    HW121755   6.908   5.737   4.108
 6952SOL    HW221756   7.006   5.762   3.980
 6953SOL     OW21757   5.068   0.508   0.106
 6953SOL    HW121758   4.987   0.540   0.155
 6953SOL    HW221759   5.144   0.571   0.122
 6954SOL     OW21760   0.337   3.461   4.151
 6954SOL    HW121761   0.244   3.489   4.176
 6954SOL    HW221762   0.370   3.519   4.076
 6955SOL     OW21763   6.138   0.391   2.046
 6955SOL    HW121764   6.179   0.415   1.958
 6955SOL    HW221765   6.082   0.309   2.036
 6956SOL     OW21766   4.729   6.231   3.147
 6956SOL    HW121767   4.706   6.327   3.129
 6956SOL    HW221768   4.709   6.210   3.243
 6957SOL     OW21769   5.916   5.125   0.867
 6957SOL    HW121770   5.901   5.077   0.953
 6957SOL    HW221771   5.957   5.215   0.885
 6958SOL     OW21772   3.130   3.972   4.859
 6958SOL    HW121773   3.069   3.931   4.791
 6958SOL    HW221774   3.094   3.955   4.950
 6959SOL     OW21775   2.472   1.208   4.990
 6959SOL    HW121776   2.487   1.194   4.892
 6959SOL    HW221777   2.554   1.180   5.041
 6960SOL     OW21778   1.373   5.797   1.382
 6960SOL    HW121779   1.429   5.875   1.354
 6960SOL    HW221780   1.363   5.797   1.482
 6961SOL     OW21781   6.673   2.552   3.926
 6961SOL    HW121782   6.667   2.576   4.023
 6961SOL    HW221783   6.594   2.495   3.901
 6962SOL     OW21784   5.888   6.228   2.142
 6962SOL    HW121785   5.979   6.203   2.109
 6962SOL    HW221786   5.836   6.145   2.161
 6963SOL     OW21787   6.337   5.324   0.869
 6963SOL    HW121788   6.288   5.298   0.951
 6963SOL    HW221789   6.322   5.421   0.850
 6964SOL     OW21790   3.697   6.335   4.906
 6964SOL    HW121791   3.666   6.249   4.863
 6964SOL    HW221792   3.618   6.385   4.941
 6965SOL     OW21793   0.272   3.329   6.819
 6965SOL    HW121794   0.288   3.424   6.794
 6965SOL    HW221795   0.359   3.285   6.843
 6966SOL     OW21796   6.710   2.098   3.468
 6966SOL    HW121797   6.703   2.012   3.417
 6966SOL    HW221798   6.803   2.135   3.459
 6967SOL     OW21799   1.580   0.504   5.378
 6967SOL    HW121800   1.631   0.566   5.318
 6967SOL    HW221801   1.640   0.429   5.407
 6968SOL     OW21802   4.476   6.520   2.785
 6968SOL    HW121803   4.447   6.569   2.867
 6968SOL    HW221804   4.462   6.422   2.798
 6969SOL     OW21805   2.784   2.346   1.244
 6969SOL    HW121806   2.836   2.329   1.327
 6969SOL    HW221807   2.841   2.330   1.164
 6970SOL     OW21808   3.355   4.077   6.714
 6970SOL    HW121809   3.329   4.137   6.638
 6970SOL    HW221810   3.454   4.077   6.723
 6971SOL     OW21811   6.417   4.450   1.103
 6971SOL    HW121812   6.438   4.379   1.036
 6971SOL    HW221813   6.326   4.436   1.140
 6972SOL     OW21814   5.747   4.456   3.380
 6972SOL    HW121815   5.680   4.527   3.403
 6972SOL    HW221816   5.725   4.419   3.289
 6973SOL     OW21817   0.823   3.242   5.629
 6973SOL    HW121818   0.774   3.287   5.554
 6973SOL    HW221819   0.921   3.242   5.609
 6974SOL     OW21820   3.325   2.889   2.849
 6974SOL    HW121821   3.338   2.956   2.776
 6974SOL    HW221822   3.414   2.850   2.875
 6975SOL     OW21823   1.999   6.050   6.442
 6975SOL    HW121824   1.987   6.015   6.535
 6975SOL    HW221825   1.910   6.060   6.398
 6976SOL     OW21826   4.302   5.329   4.979
 6976SOL    HW121827   4.263   5.293   4.895
 6976SOL    HW221828   4.264   5.419   4.998
 6977SOL     OW21829   4.303   2.425   1.693
 6977SOL    HW121830   4.223   2.369   1.713
 6977SOL    HW221831   4.291   2.472   1.605
 6978SOL     OW21832   4.702   1.787   2.427
 6978SOL    HW121833   4.631   1.717   2.423
 6978SOL    HW221834   4.659   1.877   2.436
 6979SOL     OW21835   1.435   4.128   0.881
 6979SOL    HW121836   1.429   4.182   0.965
 6979SOL    HW221837   1.397   4.180   0.805
 6980SOL     OW21838   1.300   1.299   3.397
 6980SOL    HW121839   1.360   1.376   3.421
 6980SOL    HW221840   1.314   1.275   3.301
 6981SOL     OW21841   3.988   3.306   6.210
 6981SOL    HW121842   3.899   3.300   6.256
 6981SOL    HW221843   4.021   3.214   6.190
 6982SOL     OW21844   1.696   0.572   4.279
 6982SOL    HW121845   1.627   0.549   4.211
 6982SOL    HW221846   1.701   0.671   4.290
 6983SOL     OW21847   4.340   2.085   4.303
 6983SOL    HW121848   4.275   2.161   4.296
 6983SOL    HW221849   4.304   2.005   4.256
 6984SOL     OW21850   2.263   1.663   3.989
 6984SOL    HW121851   2.170   1.643   3.958
 6984SOL    HW221852   2.290   1.754   3.955
 6985SOL     OW21853   4.010   5.889   1.497
 6985SOL    HW121854   4.030   5.977   1.540
 6985SOL    HW221855   4.033   5.895   1.399
 6986SOL     OW21856   2.452   6.480   6.178
 6986SOL    HW121857   2.415   6.569   6.203
 6986SOL    HW221858   2.434   6.461   6.082
 6987SOL     OW21859   0.447   2.212   6.379
 6987SOL    HW121860   0.476   2.143   6.314
 6987SOL    HW221861   0.387   2.278   6.334
 6988SOL     OW21862   6.792   1.157   5.794
 6988SOL    HW121863   6.777   1.141   5.891
 6988SOL    HW221864   6.803   1.256   5.778
 6989SOL     OW21865   0.774   3.425   4.099
 6989SOL    HW121866   0.741   3.518   4.117
 6989SOL    HW221867   0.816   3.388   4.181
 6990SOL     OW21868   4.904   2.379   1.651
 6990SOL    HW121869   4.850   2.411   1.574
 6990SOL    HW221870   4.845   2.327   1.714
 6991SOL     OW21871   3.080   4.905   4.133
 6991SOL    HW121872   3.057   5.003   4.131
 6991SOL    HW221873   3.137   4.883   4.055
 6992SOL     OW21874   5.560   6.409   5.460
 6992SOL    HW121875   5.582   6.374   5.551
 6992SOL    HW221876   5.602   6.498   5.447
 6993SOL     OW21877   6.792   0.679   3.045
 6993SOL    HW121878   6.873   0.623   3.029
 6993SOL    HW221879   6.814   0.752   3.109
 6994SOL     OW21880   0.517   2.754   4.558
 6994SOL    HW121881   0.482   2.727   4.648
 6994SOL    HW221882   0.443   2.751   4.491
 6995SOL     OW21883   6.862   4.620   5.682
 6995SOL    HW121884   6.909   4.703   5.710
 6995SOL    HW221885   6.925   4.542   5.688
 6996SOL     OW21886   2.566   0.601   0.126
 6996SOL    HW121887   2.496   0.560   0.185
 6996SOL    HW221888   2.644   0.627   0.182
 6997SOL     OW21889   6.178   6.165   5.322
 6997SOL    HW121890   6.170   6.265   5.321
 6997SOL    HW221891   6.115   6.126   5.255
 6998SOL     OW21892   1.437   2.035   1.205
 6998SOL    HW121893   1.469   2.129   1.206
 6998SOL    HW221894   1.467   1.988   1.288
 6999SOL     OW21895   2.673   2.733   5.843
 6999SOL    HW121896   2.678   2.731   5.743
 6999SOL    HW221897   2.579   2.752   5.872
 7000SOL     OW21898   6.409   6.002   1.886
 7000SOL    HW121899   6.433   6.066   1.812
 7000SOL    HW221900   6.355   6.050   1.955
 7001SOL     OW21901   2.273   3.077   5.367
 7001SOL    HW121902   2.346   3.037   5.312
 7001SOL    HW221903   2.185   3.054   5.327
 7002SOL     OW21904   2.580   4.894   3.708
 7002SOL    HW121905   2.521   4.873   3.787
 7002SOL    HW221906   2.622   4.984   3.721
 7003SOL     OW21907   3.771   5.558   6.846
 7003SOL    HW121908   3.724   5.529   6.763
 7003SOL    HW221909   3.857   5.508   6.855
 7004SOL     OW21910   1.410   4.840   1.972
 7004SOL    HW121911   1.502   4.844   2.012
 7004SOL    HW221912   1.358   4.767   2.017
 7005SOL     OW21913   1.450   6.887   0.315
 7005SOL    HW121914   1.378   6.953   0.337
 7005SOL    HW221915   1.424   6.796   0.349
 7006SOL     OW21916   4.606   4.757   4.195
 7006SOL    HW121917   4.534   4.688   4.198
 7006SOL    HW221918   4.628   4.788   4.287
 7007SOL     OW21919   4.650   0.061   4.165
 7007SOL    HW121920   4.725   0.086   4.103
 7007SOL    HW221921   4.660   6.994   4.193
 7008SOL     OW21922   0.987   4.487   4.924
 7008SOL    HW121923   0.895   4.448   4.929
 7008SOL    HW221924   0.999   4.551   5.001
 7009SOL     OW21925   6.384   5.897   2.570
 7009SOL    HW121926   6.381   5.804   2.533
 7009SOL    HW221927   6.479   5.926   2.579
 7010SOL     OW21928   5.169   4.464   5.244
 7010SOL    HW121929   5.148   4.368   5.232
 7010SOL    HW221930   5.125   4.518   5.172
 7011SOL     OW21931   3.818   6.976   6.330
 7011SOL    HW121932   3.800   6.926   6.246
 7011SOL    HW221933   3.871   6.918   6.392
 7012SOL     OW21934   1.596   1.733   1.909
 7012SOL    HW121935   1.672   1.722   1.845
 7012SOL    HW221936   1.571   1.830   1.915
 7013SOL     OW21937   0.898   0.678   0.642
 7013SOL    HW121938   0.849   0.675   0.555
 7013SOL    HW221939   0.931   0.587   0.666
 7014SOL     OW21940   4.070   3.057   1.294
 7014SOL    HW121941   4.131   3.099   1.228
 7014SOL    HW221942   4.043   2.966   1.262
 7015SOL     OW21943   5.760   4.320   1.901
 7015SOL    HW121944   5.852   4.302   1.865
 7015SOL    HW221945   5.754   4.287   1.995
 7016SOL     OW21946   3.348   4.760   1.697
 7016SOL    HW121947   3.400   4.681   1.730
 7016SOL    HW221948   3.366   4.839   1.755
 7017SOL     OW21949   2.662   5.894   2.188
 7017SOL    HW121950   2.727   5.968   2.173
 7017SOL    HW221951   2.626   5.898   2.281
 7018SOL     OW21952   6.101   4.490   3.911
 7018SOL    HW121953   6.098   4.507   3.813
 7018SOL    HW221954   6.012   4.510   3.952
 7019SOL     OW21955   2.460   4.123   6.854
 7019SOL    HW121956   2.459   4.153   6.950
 7019SOL    HW221957   2.555   4.108   6.826
 7020SOL     OW21958   5.577   0.209   6.836
 7020SOL    HW121959   5.480   0.233   6.836
 7020SOL    HW221960   5.595   0.142   6.908
 7021SOL     OW21961   1.506   1.317   6.038
 7021SOL    HW121962   1.592   1.319   5.986
 7021SOL    HW221963   1.527   1.307   6.136
 7022SOL     OW21964   4.408   6.196   0.192
 7022SOL    HW121965   4.349   6.190   0.272
 7022SOL    HW221966   4.394   6.116   0.134
 7023SOL     OW21967   0.716   1.663   2.884
 7023SOL    HW121968   0.730   1.745   2.939
 7023SOL    HW221969   0.657   1.684   2.806
 7024SOL     OW21970   1.589   4.464   5.491
 7024SOL    HW121971   1.588   4.461   5.591
 7024SOL    HW221972   1.660   4.403   5.456
 7025SOL     OW21973   2.573   0.735   6.690
 7025SOL    HW121974   2.492   0.783   6.723
 7025SOL    HW221975   2.592   0.658   6.750
 7026SOL     OW21976   3.367   1.949   1.933
 7026SOL    HW121977   3.364   1.959   2.033
 7026SOL    HW221978   3.324   1.863   1.907
 7027SOL     OW21979   2.341   5.056   4.073
 7027SOL    HW121980   2.303   5.017   4.156
 7027SOL    HW221981   2.390   5.141   4.095
 7028SOL     OW21982   4.762   0.342   4.160
 7028SOL    HW121983   4.784   0.245   4.158
 7028SOL    HW221984   4.670   0.355   4.198
 7029SOL     OW21985   5.190   4.810   6.435
 7029SOL    HW121986   5.238   4.882   6.384
 7029SOL    HW221987   5.131   4.759   6.373
 7030SOL     OW21988   0.871   1.640   4.992
 7030SOL    HW121989   0.788   1.651   4.937
 7030SOL    HW221990   0.881   1.718   5.053
 7031SOL     OW21991   2.090   6.595   5.279
 7031SOL    HW121992   2.168   6.641   5.322
 7031SOL    HW221993   2.121   6.547   5.196
 7032SOL     OW21994   3.498   0.631   2.655
 7032SOL    HW121995   3.555   0.713   2.649
 7032SOL    HW221996   3.413   0.645   2.604
 7033SOL     OW21997   1.417   2.602   3.441
 7033SOL    HW121998   1.462   2.667   3.502
 7033SOL    HW221999   1.349   2.651   3.385
 7034SOL     OW22000   6.081   0.514   2.878
 7034SOL    HW122001   6.086   0.586   2.947
 7034SOL    HW222002   6.172   0.499   2.840
 7035SOL     OW22003   1.988   6.620   1.653
 7035SOL    HW122004   1.947   6.688   1.593
 7035SOL    HW222005   2.085   6.612   1.633
 7036SOL     OW22006   0.678   0.556   2.738
 7036SOL    HW122007   0.612   0.615   2.691
 7036SOL    HW222008   0.678   0.466   2.695
 7037SOL     OW22009   1.794   0.791   6.387
 7037SOL    HW122010   1.740   0.749   6.314
 7037SOL    HW222011   1.764   0.886   6.399
 7038SOL     OW22012   1.741   3.766   4.453
 7038SOL    HW122013   1.716   3.670   4.443
 7038SOL    HW222014   1.659   3.822   4.454
 7039SOL     OW22015   2.789   4.744   1.474
 7039SOL    HW122016   2.883   4.735   1.439
 7039SOL    HW222017   2.791   4.744   1.574
 7040SOL     OW22018   6.659   2.174   4.693
 7040SOL    HW122019   6.742   2.211   4.737
 7040SOL    HW222020   6.674   2.078   4.671
 7041SOL     OW22021   0.381   2.439   1.832
 7041SOL    HW122022   0.326   2.355   1.826
 7041SOL    HW222023   0.475   2.419   1.805
 7042SOL     OW22024   5.405   5.124   5.736
 7042SOL    HW122025   5.326   5.063   5.733
 7042SOL    HW222026   5.477   5.083   5.792
 7043SOL     OW22027   1.990   3.458   2.426
 7043SOL    HW122028   1.976   3.523   2.500
 7043SOL    HW222029   1.903   3.417   2.400
 7044SOL     OW22030   4.683   4.974   3.450
 7044SOL    HW122031   4.709   4.886   3.409
 7044SOL    HW222032   4.604   5.011   3.401
 7045SOL     OW22033   5.267   5.282   3.274
 7045SOL    HW122034   5.199   5.323   3.213
 7045SOL    HW222035   5.358   5.293   3.234
 7046SOL     OW22036   3.214   1.535   2.878
 7046SOL    HW122037   3.137   1.549   2.941
 7046SOL    HW222038   3.283   1.605   2.894
 7047SOL     OW22039   0.868   2.596   2.526
 7047SOL    HW122040   0.800   2.626   2.459
 7047SOL    HW222041   0.911   2.512   2.494
 7048SOL     OW22042   6.400   6.059   3.034
 7048SOL    HW122043   6.354   6.051   2.946
 7048SOL    HW222044   6.366   6.141   3.081
 7049SOL     OW22045   3.373   1.328   1.085
 7049SOL    HW122046   3.361   1.398   1.014
 7049SOL    HW222047   3.324   1.245   1.058
 7050SOL     OW22048   3.816   3.978   1.814
 7050SOL    HW122049   3.802   3.879   1.815
 7050SOL    HW222050   3.742   4.022   1.763
 7051SOL     OW22051   7.020   0.737   1.503
 7051SOL    HW122052   0.030   0.788   1.426
 7051SOL    HW222053   6.921   0.750   1.506
 7052SOL     OW22054   5.252   2.738   4.091
 7052SOL    HW122055   5.272   2.652   4.137
 7052SOL    HW222056   5.329   2.801   4.104
 7053SOL     OW22057   0.692   3.272   4.947
 7053SOL    HW122058   0.753   3.267   4.868
 7053SOL    HW222059   0.735   3.227   5.025
 7054SOL     OW22060   0.338   6.797   0.714
 7054SOL    HW122061   0.358   6.886   0.756
 7054SOL    HW222062   0.271   6.748   0.770
 7055SOL     OW22063   3.644   6.466   5.297
 7055SOL    HW122064   3.647   6.562   5.268
 7055SOL    HW222065   3.737   6.434   5.317
 7056SOL     OW22066   6.458   5.853   2.199
 7056SOL    HW122067   6.454   5.836   2.297
 7056SOL    HW222068   6.523   5.927   2.180
 7057SOL     OW22069   1.090   5.968   3.822
 7057SOL    HW122070   1.117   6.056   3.783
 7057SOL    HW222071   1.157   5.898   3.797
 7058SOL     OW22072   6.411   5.661   6.245
 7058SOL    HW122073   6.360   5.633   6.327
 7058SOL    HW222074   6.358   5.641   6.164
 7059SOL     OW22075   6.808   1.074   4.089
 7059SOL    HW122076   6.787   1.127   4.006
 7059SOL    HW222077   6.742   1.000   4.100
 7060SOL     OW22078   4.084   6.881   1.829
 7060SOL    HW122079   4.070   6.918   1.921
 7060SOL    HW222080   4.156   6.933   1.783
 7061SOL     OW22081   1.569   3.153   3.463
 7061SOL    HW122082   1.587   3.215   3.386
 7061SOL    HW222083   1.606   3.063   3.442
 7062SOL     OW22084   4.668   1.081   5.188
 7062SOL    HW122085   4.743   1.148   5.195
 7062SOL    HW222086   4.678   1.012   5.259
 7063SOL     OW22087   0.850   0.491   1.891
 7063SOL    HW122088   0.947   0.512   1.879
 7063SOL    HW222089   0.805   0.491   1.802
 7064SOL     OW22090   3.763   2.438   1.270
 7064SOL    HW122091   3.804   2.428   1.361
 7064SOL    HW222092   3.677   2.387   1.266
 7065SOL     OW22093   3.861   3.963   6.455
 7065SOL    HW122094   3.885   3.894   6.523
 7065SOL    HW222095   3.878   3.928   6.363
 7066SOL     OW22096   4.568   6.964   0.451
 7066SOL    HW122097   4.544   6.868   0.465
 7066SOL    HW222098   4.665   6.973   0.431
 7067SOL     OW22099   2.078   1.709   4.981
 7067SOL    HW122100   1.995   1.689   5.033
 7067SOL    HW222101   2.136   1.771   5.033
 7068SOL     OW22102   0.460   4.365   3.925
 7068SOL    HW122103   0.409   4.279   3.926
 7068SOL    HW222104   0.529   4.363   3.998
 7069SOL     OW22105   5.648   1.420   4.652
 7069SOL    HW122106   5.719   1.457   4.712
 7069SOL    HW222107   5.679   1.423   4.557
 7070SOL     OW22108   6.804   6.103   5.215
 7070SOL    HW122109   6.785   6.030   5.281
 7070SOL    HW222110   6.719   6.127   5.168
 7071SOL     OW22111   1.940   6.326   6.513
 7071SOL    HW122112   2.005   6.266   6.561
 7071SOL    HW222113   1.951   6.313   6.414
 7072SOL     OW22114   1.591   6.067   6.870
 7072SOL    HW122115   1.651   6.141   6.840
 7072SOL    HW222116   1.499   6.104   6.888
 7073SOL     OW22117   5.005   6.932   4.423
 7073SOL    HW122118   4.938   7.003   4.441
 7073SOL    HW222119   5.069   6.963   4.353
 7074SOL     OW22120   4.478   2.374   2.125
 7074SOL    HW122121   4.488   2.413   2.033
 7074SOL    HW222122   4.527   2.287   2.129
 7075SOL     OW22123   2.008   4.617   5.124
 7075SOL    HW122124   2.072   4.577   5.190
 7075SOL    HW222125   1.980   4.548   5.058
 7076SOL     OW22126   5.452   1.849   6.650
 7076SOL    HW122127   5.507   1.899   6.717
 7076SOL    HW222128   5.375   1.804   6.697
 7077SOL     OW22129   2.425   4.483   4.069
 7077SOL    HW122130   2.421   4.430   4.155
 7077SOL    HW222131   2.378   4.432   3.997
 7078SOL     OW22132   0.056   0.403   1.825
 7078SOL    HW122133   0.082   0.306   1.833
 7078SOL    HW222134   0.133   0.461   1.852
 7079SOL     OW22135   6.646   6.258   4.789
 7079SOL    HW122136   6.716   6.328   4.770
 7079SOL    HW222137   6.636   6.199   4.710
 7080SOL     OW22138   2.793   2.198   3.941
 7080SOL    HW122139   2.881   2.204   3.894
 7080SOL    HW222140   2.734   2.272   3.911
 7081SOL     OW22141   3.334   0.384   0.327
 7081SOL    HW122142   3.345   0.482   0.312
 7081SOL    HW222143   3.294   0.369   0.417
 7082SOL     OW22144   6.658   4.469   6.668
 7082SOL    HW122145   6.561   4.460   6.692
 7082SOL    HW222146   6.674   4.560   6.631
 7083SOL     OW22147   2.787   0.002   0.569
 7083SOL    HW122148   2.783   0.088   0.517
 7083SOL    HW222149   2.756   6.955   0.511
 7084SOL     OW22150   0.294   6.325   6.073
 7084SOL    HW122151   0.334   6.383   6.002
 7084SOL    HW222152   0.195   6.316   6.056
 7085SOL     OW22153   0.756   1.987   1.770
 7085SOL    HW122154   0.688   2.013   1.839
 7085SOL    HW222155   0.837   1.948   1.816
 7086SOL     OW22156   5.208   0.870   5.450
 7086SOL    HW122157   5.249   0.940   5.391
 7086SOL    HW222158   5.269   0.790   5.454
 7087SOL     OW22159   6.010   2.963   3.824
 7087SOL    HW122160   6.036   3.033   3.891
 7087SOL    HW222161   6.063   2.880   3.840
 7088SOL     OW22162   5.522   3.048   3.591
 7088SOL    HW122163   5.524   2.983   3.515
 7088SOL    HW222164   5.615   3.067   3.622
 7089SOL     OW22165   2.962   2.155   4.861
 7089SOL    HW122166   3.034   2.194   4.918
 7089SOL    HW222167   3.001   2.115   4.778
 7090SOL     OW22168   2.864   0.408   0.084
 7090SOL    HW122169   2.927   0.334   0.109
 7090SOL    HW222170   2.827   0.391   7.021
 7091SOL     OW22171   0.598   1.474   6.860
 7091SOL    HW122172   0.554   1.559   6.832
 7091SOL    HW222173   0.643   1.432   6.781
 7092SOL     OW22174   4.669   2.809   5.872
 7092SOL    HW122175   4.719   2.749   5.810
 7092SOL    HW222176   4.619   2.878   5.818
 7093SOL     OW22177   3.086   3.630   3.202
 7093SOL    HW122178   3.044   3.611   3.291
 7093SOL    HW222179   3.086   3.729   3.186
 7094SOL     OW22180   6.953   5.797   5.409
 7094SOL    HW122181   6.860   5.830   5.426
 7094SOL    HW222182   6.959   5.700   5.431
 7095SOL     OW22183   3.567   3.874   6.076
 7095SOL    HW122184   3.509   3.924   6.012
 7095SOL    HW222185   3.546   3.903   6.169
 7096SOL     OW22186   6.706   0.838   3.839
 7096SOL    HW122187   6.775   0.769   3.861
 7096SOL    HW222188   6.660   0.867   3.923
 7097SOL     OW22189   5.818   1.241   0.897
 7097SOL    HW122190   5.793   1.323   0.846
 7097SOL    HW222191   5.883   1.187   0.844
 7098SOL     OW22192   1.601   0.022   5.309
 7098SOL    HW122193   1.585   0.094   5.376
 7098SOL    HW222194   1.683   6.998   5.334
 7099SOL     OW22195   3.331   1.301   5.305
 7099SOL    HW122196   3.311   1.368   5.375
 7099SOL    HW222197   3.321   1.343   5.214
 7100SOL     OW22198   5.198   2.537   0.994
 7100SOL    HW122199   5.116   2.553   0.939
 7100SOL    HW222200   5.264   2.484   0.940
 7101SOL     OW22201   2.099   0.991   4.537
 7101SOL    HW122202   2.101   1.057   4.612
 7101SOL    HW222203   2.166   1.018   4.468
 7102SOL     OW22204   5.042   6.864   0.736
 7102SOL    HW122205   4.959   6.843   0.684
 7102SOL    HW222206   5.118   6.809   0.701
 7103SOL     OW22207   4.701   4.747   1.601
 7103SOL    HW122208   4.730   4.706   1.687
 7103SOL    HW222209   4.603   4.734   1.589
 7104SOL     OW22210   0.327   2.926   3.734
 7104SOL    HW122211   0.294   3.010   3.691
 7104SOL    HW222212   0.328   2.938   3.833
 7105SOL     OW22213   2.901   3.030   5.324
 7105SOL    HW122214   2.953   3.111   5.349
 7105SOL    HW222215   2.958   2.969   5.268
 7106SOL     OW22216   3.822   3.980   2.947
 7106SOL    HW122217   3.750   3.946   2.886
 7106SOL    HW222218   3.782   4.038   3.018
 7107SOL     OW22219   3.947   1.410   0.694
 7107SOL    HW122220   3.893   1.441   0.616
 7107SOL    HW222221   3.894   1.343   0.746
 7108SOL     OW22222   5.120   5.711   3.271
 7108SOL    HW122223   5.116   5.649   3.349
 7108SOL    HW222224   5.066   5.793   3.290
 7109SOL     OW22225   3.049   0.740   5.916
 7109SOL    HW122226   3.098   0.747   5.829
 7109SOL    HW222227   2.951   0.738   5.900
 7110SOL     OW22228   2.950   6.049   4.564
 7110SOL    HW122229   3.031   6.095   4.601
 7110SOL    HW222230   2.870   6.075   4.617
 7111SOL     OW22231   1.322   2.206   4.525
 7111SOL    HW122232   1.338   2.293   4.572
 7111SOL    HW222233   1.227   2.203   4.494
 7112SOL     OW22234   1.187   5.514   4.716
 7112SOL    HW122235   1.273   5.463   4.715
 7112SOL    HW222236   1.203   5.609   4.691
 7113SOL     OW22237   4.046   3.732   4.599
 7113SOL    HW122238   4.136   3.720   4.557
 7113SOL    HW222239   4.054   3.726   4.699
 7114SOL     OW22240   3.453   0.115   2.098
 7114SOL    HW122241   3.377   0.115   2.164
 7114SOL    HW222242   3.524   0.052   2.130
 7115SOL     OW22243   5.383   2.711   1.446
 7115SOL    HW122244   5.351   2.700   1.352
 7115SOL    HW222245   5.447   2.787   1.451
 7116SOL     OW22246   6.218   4.188   3.505
 7116SOL    HW122247   6.143   4.175   3.439
 7116SOL    HW222248   6.298   4.223   3.457
 7117SOL     OW22249   0.236   6.448   5.421
 7117SOL    HW122250   0.167   6.467   5.351
 7117SOL    HW222251   0.297   6.375   5.389
 7118SOL     OW22252   2.740   3.653   1.620
 7118SOL    HW122253   2.800   3.591   1.569
 7118SOL    HW222254   2.651   3.609   1.634
 7119SOL     OW22255   5.036   2.059   2.957
 7119SOL    HW122256   5.014   2.152   2.927
 7119SOL    HW222257   5.099   2.062   3.034
 7120SOL     OW22258   3.503   1.668   2.612
 7120SOL    HW122259   3.427   1.605   2.593
 7120SOL    HW222260   3.564   1.628   2.679
 7121SOL     OW22261   1.440   6.788   3.256
 7121SOL    HW122262   1.420   6.784   3.158
 7121SOL    HW222263   1.469   6.697   3.287
 7122SOL     OW22264   0.688   0.209   5.958
 7122SOL    HW122265   0.634   0.286   5.991
 7122SOL    HW222266   0.647   0.174   5.874
 7123SOL     OW22267   1.968   4.583   3.171
 7123SOL    HW122268   1.977   4.666   3.116
 7123SOL    HW222269   1.878   4.543   3.157
 7124SOL     OW22270   0.098   2.165   1.265
 7124SOL    HW122271   0.102   2.241   1.329
 7124SOL    HW222272   0.068   2.082   1.313
 7125SOL     OW22273   0.075   0.010   1.185
 7125SOL    HW122274   7.011   0.042   1.205
 7125SOL    HW222275   0.140   0.085   1.197
 7126SOL     OW22276   3.265   5.227   0.166
 7126SOL    HW122277   3.284   5.293   0.239
 7126SOL    HW222278   3.271   5.272   0.078
 7127SOL     OW22279   1.432   5.574   5.476
 7127SOL    HW122280   1.417   5.507   5.550
 7127SOL    HW222281   1.379   5.657   5.496
 7128SOL     OW22282   3.121   4.920   0.377
 7128SOL    HW122283   3.171   4.910   0.291
 7128SOL    HW222284   3.023   4.906   0.361
 7129SOL     OW22285   2.046   1.791   6.694
 7129SOL    HW122286   2.015   1.880   6.725
 7129SOL    HW222287   2.091   1.743   6.769
 7130SOL     OW22288   4.095   6.016   5.099
 7130SOL    HW122289   4.101   5.991   5.003
 7130SOL    HW222290   4.029   6.090   5.111
 7131SOL     OW22291   2.697   0.638   1.547
 7131SOL    HW122292   2.627   0.666   1.613
 7131SOL    HW222293   2.786   0.638   1.591
 7132SOL     OW22294   3.337   4.419   6.991
 7132SOL    HW122295   3.239   4.417   6.968
 7132SOL    HW222296   3.388   4.460   6.916
 7133SOL     OW22297   5.230   5.499   6.054
 7133SOL    HW122298   5.295   5.453   5.994
 7133SOL    HW222299   5.221   5.595   6.027
 7134SOL     OW22300   5.601   6.866   2.344
 7134SOL    HW122301   5.531   6.795   2.347
 7134SOL    HW222302   5.559   6.956   2.350
 7135SOL     OW22303   1.483   3.468   3.136
 7135SOL    HW122304   1.498   3.565   3.153
 7135SOL    HW222305   1.570   3.419   3.143
 7136SOL     OW22306   2.357   2.830   1.056
 7136SOL    HW122307   2.393   2.916   1.020
 7136SOL    HW222308   2.424   2.789   1.119
 7137SOL     OW22309   3.608   0.075   6.833
 7137SOL    HW122310   3.527   0.016   6.837
 7137SOL    HW222311   3.656   0.070   6.921
 7138SOL     OW22312   1.411   2.333   6.742
 7138SOL    HW122313   1.413   2.429   6.769
 7138SOL    HW222314   1.490   2.285   6.781
 7139SOL     OW22315   5.881   4.039   1.222
 7139SOL    HW122316   5.952   4.000   1.163
 7139SOL    HW222317   5.922   4.075   1.306
 7140SOL     OW22318   5.937   4.143   3.414
 7140SOL    HW122319   5.977   4.147   3.323
 7140SOL    HW222320   5.838   4.133   3.406
 7141SOL     OW22321   3.643   5.789   1.538
 7141SOL    HW122322   3.575   5.722   1.567
 7141SOL    HW222323   3.609   5.882   1.557
 7142SOL     OW22324   3.958   0.308   3.868
 7142SOL    HW122325   3.987   0.215   3.843
 7142SOL    HW222326   3.921   0.354   3.788
 7143SOL     OW22327   1.555   2.637   5.849
 7143SOL    HW122328   1.517   2.609   5.937
 7143SOL    HW222329   1.501   2.597   5.775
 7144SOL     OW22330   1.983   2.481   2.100
 7144SOL    HW122331   2.004   2.515   2.191
 7144SOL    HW222332   2.030   2.394   2.085
 7145SOL     OW22333   4.762   0.247   0.369
 7145SOL    HW122334   4.860   0.264   0.386
 7145SOL    HW222335   4.751   0.204   0.279
 7146SOL     OW22336   2.306   0.265   1.309
 7146SOL    HW122337   2.247   0.328   1.259
 7146SOL    HW222338   2.389   0.247   1.257
 7147SOL     OW22339   0.326   0.311   3.377
 7147SOL    HW122340   0.386   0.360   3.314
 7147SOL    HW222341   0.378   0.281   3.457
 7148SOL     OW22342   0.928   5.861   0.806
 7148SOL    HW122343   0.889   5.938   0.857
 7148SOL    HW222344   0.978   5.896   0.727
 7149SOL     OW22345   6.324   6.737   2.842
 7149SOL    HW122346   6.399   6.744   2.776
 7149SOL    HW222347   6.276   6.651   2.829
 7150SOL     OW22348   2.986   2.215   2.304
 7150SOL    HW122349   3.051   2.144   2.276
 7150SOL    HW222350   2.972   2.279   2.229
 7151SOL     OW22351   2.016   6.352   1.053
 7151SOL    HW122352   2.115   6.351   1.046
 7151SOL    HW222353   1.989   6.402   1.136
 7152SOL     OW22354   1.135   0.778   5.321
 7152SOL    HW122355   1.229   0.779   5.287
 7152SOL    HW222356   1.074   0.818   5.253
 7153SOL     OW22357   3.517   5.669   1.970
 7153SOL    HW122358   3.466   5.610   1.908
 7153SOL    HW222359   3.578   5.728   1.917
 7154SOL     OW22360   3.556   0.431   3.188
 7154SOL    HW122361   3.632   0.420   3.252
 7154SOL    HW222362   3.471   0.401   3.232
 7155SOL     OW22363   1.753   3.619   1.079
 7155SOL    HW122364   1.810   3.610   1.161
 7155SOL    HW222365   1.800   3.678   1.013
 7156SOL     OW22366   0.023   3.534   3.864
 7156SOL    HW122367   0.112   3.525   3.820
 7156SOL    HW222368   0.034   3.521   3.963
 7157SOL     OW22369   0.108   3.912   1.865
 7157SOL    HW122370   0.020   3.957   1.848
 7157SOL    HW222371   0.165   3.921   1.784
 7158SOL     OW22372   1.037   6.856   3.788
 7158SOL    HW122373   1.059   6.782   3.852
 7158SOL    HW222374   0.991   6.817   3.708
 7159SOL     OW22375   0.817   4.832   2.695
 7159SOL    HW122376   0.760   4.771   2.750
 7159SOL    HW222377   0.827   4.920   2.743
 7160SOL     OW22378   5.752   0.102   2.896
 7160SOL    HW122379   5.709   0.070   2.811
 7160SOL    HW222380   5.723   0.044   2.972
 7161SOL     OW22381   3.017   3.933   4.086
 7161SOL    HW122382   3.072   4.000   4.137
 7161SOL    HW222383   3.004   3.851   4.142
 7162SOL     OW22384   1.201   5.667   6.277
 7162SOL    HW122385   1.255   5.613   6.212
 7162SOL    HW222386   1.201   5.763   6.248
 7163SOL     OW22387   2.924   6.529   3.081
 7163SOL    HW122388   2.840   6.560   3.036
 7163SOL    HW222389   2.937   6.432   3.064
 7164SOL     OW22390   2.132   0.723   3.507
 7164SOL    HW122391   2.178   0.670   3.436
 7164SOL    HW222392   2.033   0.716   3.496
 7165SOL     OW22393   6.711   1.125   2.287
 7165SOL    HW122394   6.730   1.191   2.360
 7165SOL    HW222395   6.792   1.067   2.272
 7166SOL     OW22396   6.092   2.450   0.638
 7166SOL    HW122397   6.137   2.410   0.718
 7166SOL    HW222398   6.136   2.536   0.614
 7167SOL     OW22399   5.445   3.360   4.180
 7167SOL    HW122400   5.401   3.399   4.260
 7167SOL    HW222401   5.378   3.309   4.126
 7168SOL     OW22402   1.510   2.374   3.270
 7168SOL    HW122403   1.451   2.453   3.249
 7168SOL    HW222404   1.605   2.398   3.250
 7169SOL     OW22405   6.931   2.263   4.714
 7169SOL    HW122406   6.965   2.321   4.788
 7169SOL    HW222407   6.973   2.173   4.720
 7170SOL     OW22408   4.695   6.800   4.321
 7170SOL    HW122409   4.736   6.724   4.270
 7170SOL    HW222410   4.762   6.835   4.386
 7171SOL     OW22411   5.605   3.808   7.005
 7171SOL    HW122412   5.598   3.903   6.975
 7171SOL    HW222413   5.516   3.777   0.012
 7172SOL     OW22414   1.446   0.481   5.012
 7172SOL    HW122415   1.546   0.485   5.009
 7172SOL    HW222416   1.410   0.484   4.919
 7173SOL     OW22417   6.666   4.444   5.971
 7173SOL    HW122418   6.749   4.389   5.960
 7173SOL    HW222419   6.689   4.530   6.017
 7174SOL     OW22420   0.638   4.728   6.911
 7174SOL    HW122421   0.692   4.734   6.827
 7174SOL    HW222422   0.623   4.631   6.934
 7175SOL     OW22423   5.755   2.494   6.848
 7175SOL    HW122424   5.794   2.448   6.927
 7175SOL    HW222425   5.803   2.464   6.765
 7176SOL     OW22426   0.534   0.256   2.964
 7176SOL    HW122427   0.478   0.266   2.882
 7176SOL    HW222428   0.541   0.345   3.010
 7177SOL     OW22429   1.452   5.390   4.631
 7177SOL    HW122430   1.472   5.318   4.565
 7177SOL    HW222431   1.529   5.453   4.637
 7178SOL     OW22432   2.348   2.077   6.262
 7178SOL    HW122433   2.359   2.176   6.256
 7178SOL    HW222434   2.255   2.056   6.290
 7179SOL     OW22435   2.080   3.571   4.817
 7179SOL    HW122436   2.013   3.497   4.815
 7179SOL    HW222437   2.137   3.563   4.899
 7180SOL     OW22438   2.780   5.520   0.286
 7180SOL    HW122439   2.798   5.618   0.288
 7180SOL    HW222440   2.742   5.491   0.375
 7181SOL     OW22441   2.335   6.514   0.235
 7181SOL    HW122442   2.239   6.542   0.244
 7181SOL    HW222443   2.394   6.594   0.243
 7182SOL     OW22444   0.928   2.671   4.805
 7182SOL    HW122445   0.861   2.661   4.878
 7182SOL    HW222446   0.883   2.708   4.724
 7183SOL     OW22447   2.126   6.274   6.792
 7183SOL    HW122448   2.099   6.201   6.855
 7183SOL    HW222449   2.164   6.351   6.843
 7184SOL     OW22450   6.799   0.790   3.519
 7184SOL    HW122451   6.749   0.717   3.472
 7184SOL    HW222452   6.870   0.750   3.577
 7185SOL     OW22453   5.726   0.508   5.335
 7185SOL    HW122454   5.799   0.519   5.403
 7185SOL    HW222455   5.645   0.558   5.365
 7186SOL     OW22456   6.702   1.548   0.305
 7186SOL    HW122457   6.760   1.622   0.340
 7186SOL    HW222458   6.754   1.463   0.303
 7187SOL     OW22459   3.709   5.134   6.385
 7187SOL    HW122460   3.719   5.035   6.374
 7187SOL    HW222461   3.728   5.180   6.298
 7188SOL     OW22462   6.303   1.147   0.802
 7188SOL    HW122463   6.275   1.055   0.772
 7188SOL    HW222464   6.285   1.212   0.728
 7189SOL     OW22465   0.499   1.988   6.208
 7189SOL    HW122466   0.553   1.947   6.281
 7189SOL    HW222467   0.438   1.918   6.168
 7190SOL     OW22468   0.047   3.634   2.914
 7190SOL    HW122469   0.115   3.674   2.853
 7190SOL    HW222470   0.040   3.536   2.897
 7191SOL     OW22471   0.776   4.372   2.552
 7191SOL    HW122472   0.693   4.317   2.562
 7191SOL    HW222473   0.805   4.403   2.643
 7192SOL     OW22474   3.198   4.788   5.661
 7192SOL    HW122475   3.188   4.688   5.669
 7192SOL    HW222476   3.248   4.809   5.577
 7193SOL     OW22477   1.346   2.593   1.948
 7193SOL    HW122478   1.256   2.586   1.904
 7193SOL    HW222479   1.397   2.508   1.933
 7194SOL     OW22480   2.514   1.742   0.446
 7194SOL    HW122481   2.423   1.784   0.443
 7194SOL    HW222482   2.581   1.809   0.477
 7195SOL     OW22483   0.146   4.375   0.077
 7195SOL    HW122484   0.080   4.393   0.004
 7195SOL    HW222485   0.137   4.280   0.108
 7196SOL     OW22486   3.456   4.196   0.922
 7196SOL    HW122487   3.514   4.245   0.857
 7196SOL    HW222488   3.361   4.200   0.892
 7197SOL     OW22489   0.596   2.580   5.951
 7197SOL    HW122490   0.568   2.567   5.856
 7197SOL    HW222491   0.574   2.674   5.980
 7198SOL     OW22492   0.157   0.437   0.466
 7198SOL    HW122493   0.233   0.475   0.413
 7198SOL    HW222494   0.073   0.486   0.442
 7199SOL     OW22495   2.108   0.858   2.515
 7199SOL    HW122496   2.133   0.789   2.447
 7199SOL    HW222497   2.088   0.944   2.469
 7200SOL     OW22498   2.656   2.070   0.192
 7200SOL    HW122499   2.604   2.002   0.140
 7200SOL    HW222500   2.672   2.150   0.135
 7201SOL     OW22501   0.570   5.651   4.755
 7201SOL    HW122502   0.615   5.720   4.812
 7201SOL    HW222503   0.513   5.593   4.812
 7202SOL     OW22504   4.620   0.396   6.390
 7202SOL    HW122505   4.610   0.408   6.291
 7202SOL    HW222506   4.700   0.447   6.422
 7203SOL     OW22507   0.653   1.607   0.891
 7203SOL    HW122508   0.733   1.575   0.841
 7203SOL    HW222509   0.633   1.544   0.965
 7204SOL     OW22510   0.954   0.208   5.503
 7204SOL    HW122511   1.016   0.268   5.554
 7204SOL    HW222512   1.001   0.171   5.423
 7205SOL     OW22513   0.835   5.303   4.242
 7205SOL    HW122514   0.808   5.248   4.321
 7205SOL    HW222515   0.893   5.378   4.272
 7206SOL     OW22516   1.361   6.892   1.619
 7206SOL    HW122517   1.284   6.939   1.663
 7206SOL    HW222518   1.360   6.795   1.644
 7207SOL     OW22519   3.824   0.335   2.828
 7207SOL    HW122520   3.879   0.257   2.799
 7207SOL    HW222521   3.853   0.417   2.777
 7208SOL     OW22522   4.262   7.003   3.011
 7208SOL    HW122523   4.319   6.947   2.951
 7208SOL    HW222524   4.266   0.070   2.981
 7209SOL     OW22525   2.999   3.848   1.881
 7209SOL    HW122526   3.020   3.751   1.875
 7209SOL    HW222527   2.925   3.871   1.819
 7210SOL     OW22528   4.814   0.933   3.823
 7210SOL    HW122529   4.821   0.836   3.846
 7210SOL    HW222530   4.884   0.957   3.756
 7211SOL     OW22531   3.128   6.532   4.067
 7211SOL    HW122532   3.119   6.627   4.038
 7211SOL    HW222533   3.041   6.485   4.054
 7212SOL     OW22534   0.453   6.285   4.845
 7212SOL    HW122535   0.484   6.193   4.823
 7212SOL    HW222536   0.354   6.284   4.863
 7213SOL     OW22537   5.102   6.417   0.687
 7213SOL    HW122538   5.019   6.467   0.712
 7213SOL    HW222539   5.099   6.392   0.591
 7214SOL     OW22540   6.927   5.543   5.475
 7214SOL    HW122541   6.842   5.550   5.422
 7214SOL    HW222542   6.911   5.575   5.568
 7215SOL     OW22543   6.799   3.813   5.143
 7215SOL    HW122544   6.776   3.743   5.210
 7215SOL    HW222545   6.873   3.780   5.084
 7216SOL     OW22546   3.777   6.635   6.577
 7216SOL    HW122547   3.797   6.684   6.492
 7216SOL    HW222548   3.698   6.677   6.622
 7217SOL     OW22549   2.791   4.765   2.527
 7217SOL    HW122550   2.710   4.731   2.574
 7217SOL    HW222551   2.808   4.860   2.554
 7218SOL     OW22552   5.163   3.052   4.989
 7218SOL    HW122553   5.073   3.071   5.028
 7218SOL    HW222554   5.234   3.087   5.051
 7219SOL     OW22555   4.835   0.426   3.888
 7219SOL    HW122556   4.788   0.411   3.975
 7219SOL    HW222557   4.856   0.338   3.846
 7220SOL     OW22558   0.445   5.170   4.934
 7220SOL    HW122559   0.448   5.146   5.031
 7220SOL    HW222560   0.386   5.106   4.886
 7221SOL     OW22561   3.605   6.182   4.665
 7221SOL    HW122562   3.620   6.268   4.618
 7221SOL    HW222563   3.520   6.187   4.717
 7222SOL     OW22564   5.941   0.308   3.276
 7222SOL    HW122565   5.888   0.334   3.195
 7222SOL    HW222566   5.879   0.284   3.351
 7223SOL     OW22567   2.958   1.627   1.732
 7223SOL    HW122568   2.960   1.669   1.641
 7223SOL    HW222569   3.004   1.538   1.728
 7224SOL     OW22570   5.051   2.069   3.898
 7224SOL    HW122571   5.126   2.044   3.836
 7224SOL    HW222572   5.075   2.042   3.991
 7225SOL     OW22573   0.503   5.727   0.479
 7225SOL    HW122574   0.555   5.770   0.406
 7225SOL    HW222575   0.550   5.741   0.566
 7226SOL     OW22576   6.222   0.857   0.866
 7226SOL    HW122577   6.257   0.843   0.959
 7226SOL    HW222578   6.294   0.838   0.800
 7227SOL     OW22579   1.866   1.406   0.677
 7227SOL    HW122580   1.934   1.352   0.628
 7227SOL    HW222581   1.854   1.495   0.632
 7228SOL     OW22582   0.611   1.553   2.490
 7228SOL    HW122583   0.582   1.457   2.495
 7228SOL    HW222584   0.544   1.610   2.538
 7229SOL     OW22585   1.673   6.148   6.104
 7229SOL    HW122586   1.736   6.171   6.029
 7229SOL    HW222587   1.582   6.131   6.066
 7230SOL     OW22588   4.580   5.439   4.428
 7230SOL    HW122589   4.573   5.428   4.328
 7230SOL    HW222590   4.675   5.431   4.456
 7231SOL     OW22591   4.615   0.888   0.907
 7231SOL    HW122592   4.581   0.947   0.834
 7231SOL    HW222593   4.557   0.807   0.915
 7232SOL     OW22594   5.149   5.075   2.944
 7232SOL    HW122595   5.126   5.086   2.847
 7232SOL    HW222596   5.239   5.115   2.961
 7233SOL     OW22597   6.824   1.773   3.761
 7233SOL    HW122598   6.849   1.856   3.812
 7233SOL    HW222599   6.727   1.775   3.738
 7234SOL     OW22600   5.389   3.252   3.507
 7234SOL    HW122601   5.465   3.282   3.450
 7234SOL    HW222602   5.415   3.167   3.554
 7235SOL     OW22603   6.572   4.027   2.115
 7235SOL    HW122604   6.561   4.030   2.215
 7235SOL    HW222605   6.632   4.101   2.086
 7236SOL     OW22606   2.341   2.005   1.855
 7236SOL    HW122607   2.395   1.938   1.906
 7236SOL    HW222608   2.251   1.967   1.834
 7237SOL     OW22609   4.914   1.105   4.598
 7237SOL    HW122610   4.981   1.070   4.533
 7237SOL    HW222611   4.855   1.031   4.629
 7238SOL     OW22612   2.970   1.397   0.767
 7238SOL    HW122613   2.992   1.327   0.835
 7238SOL    HW222614   2.954   1.484   0.813
 7239SOL     OW22615   1.572   2.624   2.294
 7239SOL    HW122616   1.606   2.646   2.385
 7239SOL    HW222617   1.545   2.708   2.247
 7240SOL     OW22618   2.732   5.394   5.949
 7240SOL    HW122619   2.739   5.452   5.868
 7240SOL    HW222620   2.645   5.410   5.994
 7241SOL     OW22621   2.009   0.697   0.914
 7241SOL    HW122622   1.940   0.769   0.927
 7241SOL    HW222623   2.093   0.737   0.878
 7242SOL     OW22624   6.572   6.085   0.487
 7242SOL    HW122625   6.646   6.033   0.444
 7242SOL    HW222626   6.592   6.182   0.481
 7243SOL     OW22627   6.627   4.707   6.055
 7243SOL    HW122628   6.658   4.697   5.960
 7243SOL    HW222629   6.573   4.791   6.063
 7244SOL     OW22630   5.923   0.656   1.780
 7244SOL    HW122631   5.950   0.563   1.754
 7244SOL    HW222632   5.824   0.666   1.768
 7245SOL     OW22633   0.793   2.170   4.656
 7245SOL    HW122634   0.795   2.074   4.628
 7245SOL    HW222635   0.886   2.205   4.661
 7246SOL     OW22636   6.533   0.627   4.130
 7246SOL    HW122637   6.606   0.615   4.197
 7246SOL    HW222638   6.508   0.538   4.092
 7247SOL     OW22639   3.167   0.035   3.898
 7247SOL    HW122640   3.110   6.989   3.933
 7247SOL    HW222641   3.122   0.077   3.819
 7248SOL     OW22642   3.068   1.506   3.766
 7248SOL    HW122643   3.024   1.457   3.842
 7248SOL    HW222644   3.057   1.453   3.682
 7249SOL     OW22645   6.309   4.067   2.102
 7249SOL    HW122646   6.403   4.032   2.108
 7249SOL    HW222647   6.310   4.166   2.109
 7250SOL     OW22648   4.186   6.896   6.111
 7250SOL    HW122649   4.262   6.927   6.054
 7250SOL    HW222650   4.197   6.798   6.131
 7251SOL     OW22651   0.597   0.060   5.705
 7251SOL    HW122652   0.620   0.115   5.624
 7251SOL    HW222653   0.637   6.997   5.696
 7252SOL     OW22654   3.036   3.281   2.763
 7252SOL    HW122655   2.999   3.204   2.815
 7252SOL    HW222656   2.962   3.344   2.739
 7253SOL     OW22657   2.718   6.592   6.184
 7253SOL    HW122658   2.627   6.549   6.188
 7253SOL    HW222659   2.755   6.582   6.091
 7254SOL     OW22660   4.039   5.166   3.978
 7254SOL    HW122661   4.051   5.264   3.959
 7254SOL    HW222662   4.114   5.134   4.036
 7255SOL     OW22663   3.340   3.746   0.612
 7255SOL    HW122664   3.333   3.783   0.704
 7255SOL    HW222665   3.277   3.668   0.603
 7256SOL     OW22666   3.919   4.868   4.298
 7256SOL    HW122667   3.910   4.905   4.390
 7256SOL    HW222668   3.831   4.873   4.251
 7257SOL     OW22669   4.740   2.839   3.939
 7257SOL    HW122670   4.743   2.918   3.878
 7257SOL    HW222671   4.833   2.808   3.959
 7258SOL     OW22672   4.268   0.957   2.992
 7258SOL    HW122673   4.301   0.982   3.082
 7258SOL    HW222674   4.232   1.038   2.946
 7259SOL     OW22675   3.139   3.211   1.113
 7259SOL    HW122676   3.149   3.179   1.019
 7259SOL    HW222677   3.218   3.182   1.166
 7260SOL     OW22678   3.132   1.855   2.931
 7260SOL    HW122679   3.166   1.855   2.837
 7260SOL    HW222680   3.065   1.782   2.942
 7261SOL     OW22681   1.427   3.276   1.505
 7261SOL    HW122682   1.436   3.375   1.517
 7261SOL    HW222683   1.489   3.246   1.433
 7262SOL     OW22684   5.033   1.536   5.534
 7262SOL    HW122685   5.092   1.467   5.574
 7262SOL    HW222686   5.054   1.625   5.574
 7263SOL     OW22687   0.589   6.335   1.176
 7263SOL    HW122688   0.493   6.350   1.153
 7263SOL    HW222689   0.647   6.372   1.104
 7264SOL     OW22690   5.472   1.306   6.305
 7264SOL    HW122691   5.421   1.309   6.219
 7264SOL    HW222692   5.432   1.369   6.371
 7265SOL     OW22693   5.506   5.311   6.170
 7265SOL    HW122694   5.481   5.325   6.074
 7265SOL    HW222695   5.427   5.330   6.228
 7266SOL     OW22696   5.410   0.121   1.410
 7266SOL    HW122697   5.344   0.124   1.336
 7266SOL    HW222698   5.418   0.028   1.444
 7267SOL     OW22699   6.931   6.340   5.516
 7267SOL    HW122700   6.925   6.369   5.420
 7267SOL    HW222701   6.947   6.242   5.520
 7268SOL     OW22702   4.618   4.778   3.256
 7268SOL    HW122703   4.642   4.746   3.165
 7268SOL    HW222704   4.541   4.843   3.250
 7269SOL     OW22705   6.867   5.983   1.181
 7269SOL    HW122706   6.807   6.063   1.183
 7269SOL    HW222707   6.818   5.904   1.219
 7270SOL     OW22708   0.810   3.133   5.188
 7270SOL    HW122709   0.810   3.194   5.267
 7270SOL    HW222710   0.784   3.041   5.216
 7271SOL     OW22711   0.380   5.771   4.047
 7271SOL    HW122712   0.423   5.816   4.125
 7271SOL    HW222713   0.361   5.675   4.070
 7272SOL     OW22714   5.344   4.977   2.215
 7272SOL    HW122715   5.349   4.944   2.121
 7272SOL    HW222716   5.306   5.070   2.216
 7273SOL     OW22717   5.444   4.546   1.616
 7273SOL    HW122718   5.465   4.637   1.580
 7273SOL    HW222719   5.529   4.495   1.627
 7274SOL     OW22720   1.301   6.108   6.863
 7274SOL    HW122721   1.290   6.167   6.782
 7274SOL    HW222722   1.222   6.048   6.871
 7275SOL     OW22723   6.723   0.871   2.709
 7275SOL    HW122724   6.666   0.831   2.781
 7275SOL    HW222725   6.815   0.833   2.715
 7276SOL     OW22726   3.741   1.267   3.100
 7276SOL    HW122727   3.659   1.228   3.057
 7276SOL    HW222728   3.715   1.318   3.182
 7277SOL     OW22729   4.323   0.945   4.007
 7277SOL    HW122730   4.365   0.926   3.918
 7277SOL    HW222731   4.329   0.865   4.066
 7278SOL     OW22732   3.545   2.099   1.789
 7278SOL    HW122733   3.589   2.166   1.849
 7278SOL    HW222734   3.494   2.033   1.844
 7279SOL     OW22735   4.454   3.074   6.482
 7279SOL    HW122736   4.435   3.097   6.387
 7279SOL    HW222737   4.374   3.030   6.522
 7280SOL     OW22738   0.011   1.817   4.036
 7280SOL    HW122739   0.036   1.892   4.097
 7280SOL    HW222740   0.066   1.822   3.952
 7281SOL     OW22741   1.639   0.528   0.246
 7281SOL    HW122742   1.692   0.447   0.220
 7281SOL    HW222743   1.606   0.518   0.340
 7282SOL     OW22744   5.795   6.834   0.881
 7282SOL    HW122745   5.807   6.868   0.788
 7282SOL    HW222746   5.842   6.746   0.890
 7283SOL     OW22747   3.414   0.225   1.852
 7283SOL    HW122748   3.337   0.181   1.806
 7283SOL    HW222749   3.433   0.176   1.938
 7284SOL     OW22750   6.765   2.499   4.842
 7284SOL    HW122751   6.849   2.445   4.835
 7284SOL    HW222752   6.784   2.584   4.892
 7285SOL     OW22753   5.804   3.646   1.675
 7285SOL    HW122754   5.745   3.565   1.671
 7285SOL    HW222755   5.827   3.675   1.582
 7286SOL     OW22756   0.506   0.214   1.514
 7286SOL    HW122757   0.410   0.191   1.533
 7286SOL    HW222758   0.526   0.196   1.418
 7287SOL     OW22759   6.559   3.090   4.480
 7287SOL    HW122760   6.537   3.109   4.384
 7287SOL    HW222761   6.566   2.991   4.493
 7288SOL     OW22762   1.090   2.144   1.792
 7288SOL    HW122763   1.079   2.080   1.867
 7288SOL    HW222764   1.187   2.156   1.772
 7289SOL     OW22765   6.194   1.624   3.229
 7289SOL    HW122766   6.135   1.543   3.233
 7289SOL    HW222767   6.289   1.598   3.245
 7290SOL     OW22768   2.837   0.831   5.223
 7290SOL    HW122769   2.880   0.847   5.312
 7290SOL    HW222770   2.877   0.750   5.181
 7291SOL     OW22771   2.604   0.434   1.041
 7291SOL    HW122772   2.572   0.523   1.074
 7291SOL    HW222773   2.700   0.440   1.015
 7292SOL     OW22774   2.862   6.713   2.413
 7292SOL    HW122775   2.892   6.634   2.360
 7292SOL    HW222776   2.831   6.785   2.351
 7293SOL     OW22777   1.829   1.460   5.954
 7293SOL    HW122778   1.745   1.509   5.976
 7293SOL    HW222779   1.886   1.516   5.893
 7294SOL     OW22780   3.618   4.336   0.522
 7294SOL    HW122781   3.592   4.302   0.612
 7294SOL    HW222782   3.550   4.306   0.454
 7295SOL     OW22783   6.879   4.391   1.229
 7295SOL    HW122784   6.781   4.394   1.252
 7295SOL    HW222785   6.928   4.462   1.278
 7296SOL     OW22786   4.619   5.226   2.490
 7296SOL    HW122787   4.557   5.148   2.494
 7296SOL    HW222788   4.712   5.195   2.509
 7297SOL     OW22789   2.432   0.204   1.813
 7297SOL    HW122790   2.408   0.110   1.840
 7297SOL    HW222791   2.523   0.204   1.771
 7298SOL     OW22792   5.303   4.835   6.843
 7298SOL    HW122793   5.213   4.815   6.880
 7298SOL    HW222794   5.320   4.777   6.763
 7299SOL     OW22795   0.720   1.894   0.952
 7299SOL    HW122796   0.757   1.914   0.861
 7299SOL    HW222797   0.676   1.804   0.951
 7300SOL     OW22798   0.390   6.306   2.556
 7300SOL    HW122799   0.447   6.309   2.474
 7300SOL    HW222800   0.332   6.225   2.554
 7301SOL     OW22801   6.518   2.233   5.529
 7301SOL    HW122802   6.473   2.148   5.557
 7301SOL    HW222803   6.529   2.234   5.430
 7302SOL     OW22804   0.367   2.407   6.207
 7302SOL    HW122805   0.288   2.461   6.236
 7302SOL    HW222806   0.338   2.337   6.142
 7303SOL     OW22807   3.542   0.742   6.639
 7303SOL    HW122808   3.548   0.688   6.723
 7303SOL    HW222809   3.625   0.796   6.629
 7304SOL     OW22810   3.147   5.492   1.814
 7304SOL    HW122811   3.108   5.525   1.900
 7304SOL    HW222812   3.168   5.395   1.822
 7305SOL     OW22813   5.289   1.861   1.344
 7305SOL    HW122814   5.287   1.900   1.436
 7305SOL    HW222815   5.198   1.865   1.304
 7306SOL     OW22816   3.711   1.871   1.770
 7306SOL    HW122817   3.690   1.962   1.734
 7306SOL    HW222818   3.784   1.830   1.717
 7307SOL     OW22819   4.288   6.960   2.560
 7307SOL    HW122820   4.300   0.028   2.588
 7307SOL    HW222821   4.356   6.936   2.491
 7308SOL     OW22822   6.507   1.408   4.029
 7308SOL    HW122823   6.525   1.506   4.025
 7308SOL    HW222824   6.467   1.385   4.117
 7309SOL     OW22825   3.466   6.663   1.462
 7309SOL    HW122826   3.482   6.574   1.419
 7309SOL    HW222827   3.412   6.650   1.545
 7310SOL     OW22828   2.382   3.659   0.229
 7310SOL    HW122829   2.352   3.747   0.191
 7310SOL    HW222830   2.330   3.639   0.312
 7311SOL     OW22831   1.386   0.521   0.432
 7311SOL    HW122832   1.315   0.590   0.449
 7311SOL    HW222833   1.359   0.434   0.474
 7312SOL     OW22834   1.250   1.728   4.837
 7312SOL    HW122835   1.266   1.813   4.788
 7312SOL    HW222836   1.229   1.747   4.933
 7313SOL     OW22837   2.000   1.327   0.932
 7313SOL    HW122838   2.086   1.377   0.923
 7313SOL    HW222839   1.937   1.356   0.859
 7314SOL     OW22840   7.004   4.091   6.256
 7314SOL    HW122841   6.907   4.110   6.275
 7314SOL    HW222842   7.017   4.086   6.157
 7315SOL     OW22843   5.045   5.933   2.294
 7315SOL    HW122844   5.077   5.960   2.203
 7315SOL    HW222845   5.034   5.834   2.297
 7316SOL     OW22846   2.927   2.939   6.506
 7316SOL    HW122847   2.906   3.034   6.484
 7316SOL    HW222848   2.914   2.883   6.424
 7317SOL     OW22849   3.837   1.893   2.070
 7317SOL    HW122850   3.783   1.868   1.989
 7317SOL    HW222851   3.789   1.864   2.153
 7318SOL     OW22852   3.106   0.148   3.166
 7318SOL    HW122853   3.154   0.086   3.103
 7318SOL    HW222854   3.070   0.226   3.114
 7319SOL     OW22855   5.716   2.951   6.763
 7319SOL    HW122856   5.639   3.004   6.727
 7319SOL    HW222857   5.796   2.964   6.704
 7320SOL     OW22858   0.388   3.129   0.910
 7320SOL    HW122859   0.345   3.204   0.859
 7320SOL    HW222860   0.328   3.049   0.907
 7321SOL     OW22861   2.270   0.023   6.190
 7321SOL    HW122862   2.184   7.023   6.146
 7321SOL    HW222863   2.326   6.971   6.208
 7322SOL     OW22864   0.183   2.237   3.010
 7322SOL    HW122865   0.107   2.268   2.952
 7322SOL    HW222866   0.186   2.137   3.009
 7323SOL     OW22867   2.677   2.850   1.700
 7323SOL    HW122868   2.653   2.812   1.611
 7323SOL    HW222869   2.689   2.776   1.766
 7324SOL     OW22870   5.650   4.435   2.392
 7324SOL    HW122871   5.602   4.510   2.438
 7324SOL    HW222872   5.666   4.361   2.457
 7325SOL     OW22873   3.168   0.212   5.491
 7325SOL    HW122874   3.249   0.224   5.432
 7325SOL    HW222875   3.138   0.302   5.524
 7326SOL     OW22876   3.421   6.729   6.144
 7326SOL    HW122877   3.414   6.819   6.186
 7326SOL    HW222878   3.402   6.659   6.213
 7327SOL     OW22879   5.969   2.555   4.270
 7327SOL    HW122880   5.964   2.647   4.232
 7327SOL    HW222881   5.975   2.560   4.370
 7328SOL     OW22882   4.780   6.434   5.491
 7328SOL    HW122883   4.865   6.403   5.448
 7328SOL    HW222884   4.760   6.376   5.571
 7329SOL     OW22885   1.135   3.629   0.770
 7329SOL    HW122886   1.164   3.669   0.857
 7329SOL    HW222887   1.130   3.530   0.779
 7330SOL     OW22888   2.223   3.114   1.338
 7330SOL    HW122889   2.315   3.131   1.303
 7330SOL    HW222890   2.228   3.092   1.436
 7331SOL     OW22891   5.584   6.579   1.814
 7331SOL    HW122892   5.508   6.515   1.804
 7331SOL    HW222893   5.586   6.641   1.736
 7332SOL     OW22894   2.840   4.157   6.463
 7332SOL    HW122895   2.743   4.148   6.485
 7332SOL    HW222896   2.889   4.075   6.493
 7333SOL     OW22897   6.298   3.274   2.730
 7333SOL    HW122898   6.398   3.270   2.730
 7333SOL    HW222899   6.265   3.277   2.635
 7334SOL     OW22900   2.762   5.975   6.130
 7334SOL    HW122901   2.803   6.059   6.095
 7334SOL    HW222902   2.688   5.998   6.194
 7335SOL     OW22903   0.012   2.892   3.709
 7335SOL    HW122904   0.040   2.958   3.640
 7335SOL    HW222905   6.958   2.844   3.678
 7336SOL     OW22906   2.326   6.923   1.601
 7336SOL    HW122907   2.423   6.944   1.586
 7336SOL    HW222908   2.270   6.994   1.560
 7337SOL     OW22909   2.242   3.026   1.583
 7337SOL    HW122910   2.262   2.928   1.589
 7337SOL    HW222911   2.274   3.072   1.666
 7338SOL     OW22912   5.201   1.996   1.630
 7338SOL    HW122913   5.272   1.937   1.668
 7338SOL    HW222914   5.143   2.031   1.704
 7339SOL     OW22915   6.946   0.757   5.155
 7339SOL    HW122916   6.934   0.762   5.056
 7339SOL    HW222917   6.863   0.787   5.201
 7340SOL     OW22918   3.583   1.428   0.309
 7340SOL    HW122919   3.533   1.342   0.305
 7340SOL    HW222920   3.521   1.501   0.338
 7341SOL     OW22921   0.948   5.059   4.907
 7341SOL    HW122922   0.901   5.139   4.869
 7341SOL    HW222923   1.036   5.047   4.862
 7342SOL     OW22924   6.574   6.455   0.048
 7342SOL    HW122925   6.507   6.384   0.068
 7342SOL    HW222926   6.556   6.535   0.104
 7343SOL     OW22927   5.342   3.555   1.569
 7343SOL    HW122928   5.391   3.594   1.491
 7343SOL    HW222929   5.378   3.463   1.588
 7344SOL     OW22930   2.385   0.481   6.323
 7344SOL    HW122931   2.351   0.541   6.251
 7344SOL    HW222932   2.474   0.513   6.354
 7345SOL     OW22933   5.192   6.515   5.822
 7345SOL    HW122934   5.126   6.480   5.889
 7345SOL    HW222935   5.147   6.527   5.734
 7346SOL     OW22936   3.654   4.538   1.202
 7346SOL    HW122937   3.617   4.625   1.235
 7346SOL    HW222938   3.677   4.480   1.279
 7347SOL     OW22939   6.949   3.139   0.685
 7347SOL    HW122940   6.923   3.054   0.730
 7347SOL    HW222941   6.944   3.126   0.586
 7348SOL     OW22942   1.628   3.265   3.754
 7348SOL    HW122943   1.580   3.269   3.666
 7348SOL    HW222944   1.710   3.323   3.749
 7349SOL     OW22945   4.153   1.861   1.164
 7349SOL    HW122946   4.155   1.787   1.231
 7349SOL    HW222947   4.127   1.825   1.075
 7350SOL     OW22948   1.720   3.835   4.169
 7350SOL    HW122949   1.719   3.797   4.262
 7350SOL    HW222950   1.781   3.914   4.166
 7351SOL     OW22951   4.498   5.698   5.469
 7351SOL    HW122952   4.410   5.668   5.434
 7351SOL    HW222953   4.484   5.761   5.546
 7352SOL     OW22954   1.475   3.359   2.584
 7352SOL    HW122955   1.391   3.362   2.638
 7352SOL    HW222956   1.547   3.316   2.639
 7353SOL     OW22957   0.188   0.568   5.930
 7353SOL    HW122958   0.242   0.586   6.012
 7353SOL    HW222959   0.145   0.653   5.900
 7354SOL     OW22960   0.912   1.793   6.914
 7354SOL    HW122961   0.923   1.857   6.838
 7354SOL    HW222962   0.816   1.791   6.943
 7355SOL     OW22963   1.412   1.254   0.463
 7355SOL    HW122964   1.473   1.329   0.441
 7355SOL    HW222965   1.317   1.284   0.456
 7356SOL     OW22966   4.861   2.876   6.607
 7356SOL    HW122967   4.919   2.795   6.597
 7356SOL    HW222968   4.885   2.942   6.536
 7357SOL     OW22969   4.264   0.960   1.474
 7357SOL    HW122970   4.301   0.883   1.527
 7357SOL    HW222971   4.339   1.012   1.434
 7358SOL     OW22972   1.420   2.808   2.122
 7358SOL    HW122973   1.353   2.878   2.098
 7358SOL    HW222974   1.401   2.724   2.072
 7359SOL     OW22975   2.974   2.791   0.420
 7359SOL    HW122976   2.886   2.744   0.430
 7359SOL    HW222977   3.008   2.817   0.511
 7360SOL     OW22978   3.067   3.233   5.785
 7360SOL    HW122979   3.080   3.144   5.741
 7360SOL    HW222980   2.978   3.270   5.760
 7361SOL     OW22981   4.278   0.518   2.030
 7361SOL    HW122982   4.244   0.492   2.120
 7361SOL    HW222983   4.378   0.524   2.033
 7362SOL     OW22984   0.713   6.360   4.284
 7362SOL    HW122985   0.747   6.382   4.376
 7362SOL    HW222986   0.650   6.431   4.255
 7363SOL     OW22987   3.877   1.506   1.076
 7363SOL    HW122988   3.791   1.528   1.032
 7363SOL    HW222989   3.936   1.586   1.076
 7364SOL     OW22990   4.327   0.314   1.303
 7364SOL    HW122991   4.355   0.264   1.222
 7364SOL    HW222992   4.227   0.317   1.307
 7365SOL     OW22993   1.634   6.023   1.863
 7365SOL    HW122994   1.575   6.070   1.929
 7365SOL    HW222995   1.725   6.011   1.903
 7366SOL     OW22996   2.199   5.414   0.492
 7366SOL    HW122997   2.127   5.478   0.466
 7366SOL    HW222998   2.288   5.458   0.481
 7367SOL     OW22999   4.862   4.161   1.196
 7367SOL    HW123000   4.841   4.196   1.104
 7367SOL    HW223001   4.847   4.234   1.263
 7368SOL     OW23002   3.878   3.003   3.681
 7368SOL    HW123003   3.807   2.964   3.740
 7368SOL    HW223004   3.919   3.082   3.728
 7369SOL     OW23005   4.775   3.100   0.353
 7369SOL    HW123006   4.747   3.114   0.448
 7369SOL    HW223007   4.826   3.014   0.345
 7370SOL     OW23008   2.832   0.576   5.082
 7370SOL    HW123009   2.886   0.520   5.145
 7370SOL    HW223010   2.750   0.526   5.054
 7371SOL     OW23011   1.985   5.830   4.245
 7371SOL    HW123012   1.980   5.742   4.197
 7371SOL    HW223013   1.931   5.898   4.195
 7372SOL     OW23014   2.989   1.286   5.513
 7372SOL    HW123015   2.900   1.297   5.556
 7372SOL    HW223016   2.980   1.294   5.414
 7373SOL     OW23017   5.536   0.995   4.421
 7373SOL    HW123018   5.606   1.010   4.491
 7373SOL    HW223019   5.574   0.938   4.348
 7374SOL     OW23020   2.725   2.344   5.546
 7374SOL    HW123021   2.767   2.420   5.595
 7374SOL    HW223022   2.778   2.323   5.464
 7375SOL     OW23023   1.989   2.607   2.895
 7375SOL    HW123024   1.892   2.619   2.915
 7375SOL    HW223025   2.033   2.697   2.892
 7376SOL     OW23026   3.812   1.570   6.696
 7376SOL    HW123027   3.784   1.664   6.716
 7376SOL    HW223028   3.910   1.567   6.677
 7377SOL     OW23029   5.333   5.257   1.480
 7377SOL    HW123030   5.293   5.347   1.468
 7377SOL    HW223031   5.372   5.249   1.572
 7378SOL     OW23032   0.250   1.553   5.629
 7378SOL    HW123033   0.222   1.467   5.672
 7378SOL    HW223034   0.257   1.540   5.531
 7379SOL     OW23035   3.591   1.931   3.058
 7379SOL    HW123036   3.655   2.006   3.041
 7379SOL    HW223037   3.597   1.904   3.154
 7380SOL     OW23038   6.612   3.333   5.211
 7380SOL    HW123039   6.684   3.344   5.278
 7380SOL    HW223040   6.619   3.405   5.142
 7381SOL     OW23041   5.146   4.019   2.204
 7381SOL    HW123042   5.140   3.997   2.107
 7381SOL    HW223043   5.099   3.948   2.257
 7382SOL     OW23044   0.064   5.723   5.969
 7382SOL    HW123045   0.042   5.640   5.918
 7382SOL    HW223046   0.125   5.781   5.915
 7383SOL     OW23047   0.788   6.416   0.990
 7383SOL    HW123048   0.819   6.505   0.955
 7383SOL    HW223049   0.771   6.354   0.913
 7384SOL     OW23050   5.861   0.651   2.388
 7384SOL    HW123051   5.773   0.607   2.372
 7384SOL    HW223052   5.935   0.585   2.374
 7385SOL     OW23053   4.120   5.861   2.191
 7385SOL    HW123054   4.026   5.855   2.225
 7385SOL    HW223055   4.183   5.873   2.268
 7386SOL     OW23056   0.127   1.855   5.439
 7386SOL    HW123057   0.102   1.807   5.523
 7386SOL    HW223058   0.163   1.946   5.463
 7387SOL     OW23059   4.458   6.471   4.188
 7387SOL    HW123060   4.460   6.497   4.285
 7387SOL    HW223061   4.551   6.466   4.153
 7388SOL     OW23062   0.171   4.930   2.664
 7388SOL    HW123063   0.168   4.986   2.747
 7388SOL    HW223064   0.090   4.949   2.608
 7389SOL     OW23065   0.657   4.245   6.196
 7389SOL    HW123066   0.571   4.282   6.232
 7389SOL    HW223067   0.678   4.158   6.240
 7390SOL     OW23068   2.348   1.213   6.833
 7390SOL    HW123069   2.315   1.178   6.920
 7390SOL    HW223070   2.293   1.291   6.805
 7391SOL     OW23071   5.109   4.171   4.903
 7391SOL    HW123072   5.181   4.104   4.919
 7391SOL    HW223073   5.071   4.160   4.811
 7392SOL     OW23074   2.737   6.045   0.045
 7392SOL    HW123075   2.689   6.130   0.068
 7392SOL    HW223076   2.672   5.977   0.013
 7393SOL     OW23077   5.681   4.886   1.558
 7393SOL    HW123078   5.690   4.984   1.577
 7393SOL    HW223079   5.768   4.851   1.524
 7394SOL     OW23080   3.028   2.906   5.758
 7394SOL    HW123081   2.950   2.884   5.699
 7394SOL    HW223082   3.033   2.840   5.833
 7395SOL     OW23083   2.350   1.594   0.234
 7395SOL    HW123084   2.400   1.664   0.285
 7395SOL    HW223085   2.409   1.515   0.220
 7396SOL     OW23086   0.458   6.599   0.252
 7396SOL    HW123087   0.461   6.499   0.257
 7396SOL    HW223088   0.395   6.627   0.179
 7397SOL     OW23089   4.646   5.084   5.199
 7397SOL    HW123090   4.623   5.040   5.285
 7397SOL    HW223091   4.640   5.017   5.125
 7398SOL     OW23092   3.046   5.134   4.410
 7398SOL    HW123093   3.129   5.169   4.452
 7398SOL    HW223094   3.045   5.034   4.416
 7399SOL     OW23095   1.212   2.882   5.605
 7399SOL    HW123096   1.282   2.880   5.677
 7399SOL    HW223097   1.250   2.924   5.523
 7400SOL     OW23098   3.575   3.438   5.815
 7400SOL    HW123099   3.669   3.469   5.805
 7400SOL    HW223100   3.534   3.479   5.897
 7401SOL     OW23101   1.109   0.780   3.865
 7401SOL    HW123102   1.166   0.727   3.927
 7401SOL    HW223103   1.016   0.786   3.903
 7402SOL     OW23104   2.930   5.734   5.941
 7402SOL    HW123105   2.862   5.696   5.878
 7402SOL    HW223106   2.893   5.732   6.034
 7403SOL     OW23107   1.789   4.106   2.852
 7403SOL    HW123108   1.831   4.195   2.836
 7403SOL    HW223109   1.746   4.105   2.943
 7404SOL     OW23110   3.031   4.931   1.117
 7404SOL    HW123111   3.071   4.995   1.051
 7404SOL    HW223112   3.022   4.841   1.075
 7405SOL     OW23113   3.097   4.846   4.427
 7405SOL    HW123114   3.089   4.848   4.327
 7405SOL    HW223115   3.083   4.753   4.460
 7406SOL     OW23116   0.640   3.074   3.650
 7406SOL    HW123117   0.713   3.105   3.589
 7406SOL    HW223118   0.679   3.031   3.731
 7407SOL     OW23119   0.160   6.314   4.816
 7407SOL    HW123120   0.073   6.321   4.865
 7407SOL    HW223121   0.171   6.221   4.781
 7408SOL     OW23122   1.400   3.242   6.246
 7408SOL    HW123123   1.468   3.176   6.214
 7408SOL    HW223124   1.408   3.326   6.193
 7409SOL     OW23125   0.689   1.457   5.716
 7409SOL    HW123126   0.630   1.376   5.715
 7409SOL    HW223127   0.773   1.438   5.665
 7410SOL     OW23128   0.603   5.070   1.242
 7410SOL    HW123129   0.545   4.995   1.212
 7410SOL    HW223130   0.640   5.050   1.333
 7411SOL     OW23131   2.574   6.731   4.378
 7411SOL    HW123132   2.610   6.806   4.433
 7411SOL    HW223133   2.650   6.683   4.335
 7412SOL     OW23134   4.235   0.221   2.874
 7412SOL    HW123135   4.328   0.204   2.841
 7412SOL    HW223136   4.217   0.319   2.876
 7413SOL     OW23137   4.945   5.297   5.251
 7413SOL    HW123138   4.848   5.273   5.250
 7413SOL    HW223139   4.968   5.340   5.338
 7414SOL     OW23140   0.212   6.872   4.160
 7414SOL    HW123141   0.306   6.905   4.155
 7414SOL    HW223142   0.149   6.949   4.145
 7415SOL     OW23143   1.098   3.577   2.895
 7415SOL    HW123144   1.072   3.521   2.816
 7415SOL    HW223145   1.152   3.522   2.959
 7416SOL     OW23146   3.198   1.168   3.708
 7416SOL    HW123147   3.272   1.178   3.774
 7416SOL    HW223148   3.118   1.131   3.753
 7417SOL     OW23149   2.242   1.004   6.156
 7417SOL    HW123150   2.242   0.906   6.135
 7417SOL    HW223151   2.158   1.026   6.206
 7418SOL     OW23152   3.861   5.556   0.714
 7418SOL    HW123153   3.817   5.581   0.800
 7418SOL    HW223154   3.821   5.471   0.679
 7419SOL     OW23155   5.935   2.388   5.146
 7419SOL    HW123156   6.007   2.335   5.191
 7419SOL    HW223157   5.878   2.327   5.091
 7420SOL     OW23158   0.199   0.164   1.796
 7420SOL    HW123159   0.266   0.235   1.775
 7420SOL    HW223160   0.197   0.148   1.895
 7421SOL     OW23161   3.746   3.497   1.163
 7421SOL    HW123162   3.761   3.542   1.075
 7421SOL    HW223163   3.760   3.399   1.154
 7422SOL     OW23164   0.168   2.941   2.530
 7422SOL    HW123165   0.253   2.938   2.478
 7422SOL    HW223166   0.161   2.860   2.588
 7423SOL     OW23167   6.772   4.533   5.420
 7423SOL    HW123168   6.678   4.538   5.387
 7423SOL    HW223169   6.782   4.587   5.504
 7424SOL     OW23170   0.293   0.441   4.944
 7424SOL    HW123171   0.365   0.477   5.004
 7424SOL    HW223172   0.322   0.352   4.907
 7425SOL     OW23173   5.091   5.532   6.363
 7425SOL    HW123174   5.084   5.578   6.274
 7425SOL    HW223175   5.031   5.577   6.429
 7426SOL     OW23176   1.754   1.423   6.820
 7426SOL    HW123177   1.705   1.405   6.906
 7426SOL    HW223178   1.758   1.521   6.804
 7427SOL     OW23179   3.302   6.346   4.115
 7427SOL    HW123180   3.268   6.280   4.047
 7427SOL    HW223181   3.241   6.425   4.119
 7428SOL     OW23182   3.849   1.596   5.939
 7428SOL    HW123183   3.847   1.570   6.036
 7428SOL    HW223184   3.760   1.635   5.913
 7429SOL     OW23185   6.625   6.594   3.323
 7429SOL    HW123186   6.662   6.531   3.255
 7429SOL    HW223187   6.602   6.681   3.280
 7430SOL     OW23188   0.032   3.877   6.411
 7430SOL    HW123189   0.013   3.938   6.334
 7430SOL    HW223190   7.016   3.789   6.395
 7431SOL     OW23191   0.273   3.026   2.812
 7431SOL    HW123192   0.270   2.970   2.894
 7431SOL    HW223193   0.253   3.121   2.835
 7432SOL     OW23194   0.069   0.086   3.444
 7432SOL    HW123195   0.150   0.030   3.461
 7432SOL    HW223196   0.087   0.147   3.366
 7433SOL     OW23197   5.383   4.902   0.060
 7433SOL    HW123198   5.476   4.876   0.088
 7433SOL    HW223199   5.374   4.892   6.989
 7434SOL     OW23200   4.680   0.143   5.918
 7434SOL    HW123201   4.779   0.153   5.930
 7434SOL    HW223202   4.660   0.134   5.820
 7435SOL     OW23203   4.120   5.548   0.621
 7435SOL    HW123204   4.143   5.584   0.531
 7435SOL    HW223205   4.020   5.548   0.632
 7436SOL     OW23206   5.825   3.055   6.536
 7436SOL    HW123207   5.832   3.150   6.505
 7436SOL    HW223208   5.749   3.010   6.490
 7437SOL     OW23209   0.318   5.961   0.434
 7437SOL    HW123210   0.357   5.869   0.435
 7437SOL    HW223211   0.335   6.006   0.522
 7438SOL     OW23212   0.617   5.267   0.151
 7438SOL    HW123213   0.704   5.253   0.199
 7438SOL    HW223214   0.547   5.295   0.217
 7439SOL     OW23215   1.324   6.181   4.903
 7439SOL    HW123216   1.390   6.142   4.967
 7439SOL    HW223217   1.246   6.217   4.953
 7440SOL     OW23218   0.486   3.277   4.557
 7440SOL    HW123219   0.539   3.207   4.507
 7440SOL    HW223220   0.510   3.367   4.522
 7441SOL     OW23221   4.721   5.846   4.713
 7441SOL    HW123222   4.736   5.884   4.621
 7441SOL    HW223223   4.804   5.799   4.743
 7442SOL     OW23224   0.948   0.969   6.185
 7442SOL    HW123225   0.896   1.041   6.232
 7442SOL    HW223226   1.037   1.007   6.156
 7443SOL     OW23227   0.428   0.575   2.110
 7443SOL    HW123228   0.398   0.614   2.198
 7443SOL    HW223229   0.516   0.615   2.084
 7444SOL     OW23230   6.357   3.223   4.641
 7444SOL    HW123231   6.293   3.190   4.711
 7444SOL    HW223232   6.430   3.157   4.628
 7445SOL     OW23233   3.107   1.048   1.243
 7445SOL    HW123234   3.075   0.960   1.209
 7445SOL    HW223235   3.207   1.047   1.251
 7446SOL     OW23236   5.500   3.960   0.877
 7446SOL    HW123237   5.401   3.949   0.889
 7446SOL    HW223238   5.525   3.934   0.784
 7447SOL     OW23239   0.966   3.049   5.879
 7447SOL    HW123240   1.042   3.080   5.821
 7447SOL    HW223241   0.886   3.031   5.822
 7448SOL     OW23242   6.376   6.721   5.563
 7448SOL    HW123243   6.312   6.645   5.576
 7448SOL    HW223244   6.345   6.778   5.487
 7449SOL     OW23245   6.679   2.728   1.966
 7449SOL    HW123246   6.660   2.661   2.038
 7449SOL    HW223247   6.775   2.721   1.939
 7450SOL     OW23248   5.362   1.814   4.547
 7450SOL    HW123249   5.424   1.871   4.493
 7450SOL    HW223250   5.396   1.808   4.641
 7451SOL     OW23251   0.756   6.637   3.383
 7451SOL    HW123252   0.666   6.657   3.423
 7451SOL    HW223253   0.757   6.543   3.350
 7452SOL     OW23254   0.372   6.194   5.312
 7452SOL    HW123255   0.407   6.206   5.219
 7452SOL    HW223256   0.433   6.239   5.377
 7453SOL     OW23257   4.766   5.814   5.902
 7453SOL    HW123258   4.808   5.898   5.868
 7453SOL    HW223259   4.666   5.824   5.899
 7454SOL     OW23260   1.493   2.363   1.879
 7454SOL    HW123261   1.592   2.356   1.868
 7454SOL    HW223262   1.448   2.311   1.807
 7455SOL     OW23263   0.067   1.982   2.290
 7455SOL    HW123264   6.999   1.996   2.267
 7455SOL    HW223265   0.112   2.070   2.304
 7456SOL     OW23266   0.623   2.226   4.059
 7456SOL    HW123267   0.722   2.241   4.054
 7456SOL    HW223268   0.576   2.306   4.021
 7457SOL     OW23269   3.878   0.841   5.178
 7457SOL    HW123270   3.967   0.883   5.159
 7457SOL    HW223271   3.831   0.821   5.091
 7458SOL     OW23272   2.136   6.927   6.582
 7458SOL    HW123273   2.078   6.979   6.646
 7458SOL    HW223274   2.133   6.830   6.606
 7459SOL     OW23275   4.866   0.597   1.664
 7459SOL    HW123276   4.871   0.497   1.664
 7459SOL    HW223277   4.951   0.634   1.700
 7460SOL     OW23278   1.961   4.964   1.093
 7460SOL    HW123279   2.039   4.932   1.040
 7460SOL    HW223280   1.945   5.061   1.073
 7461SOL     OW23281   6.443   1.704   5.843
 7461SOL    HW123282   6.440   1.690   5.744
 7461SOL    HW223283   6.356   1.742   5.874
 7462SOL     OW23284   1.268   4.172   2.888
 7462SOL    HW123285   1.315   4.100   2.837
 7462SOL    HW223286   1.325   4.202   2.964
 7463SOL     OW23287   3.114   4.982   0.839
 7463SOL    HW123288   3.114   4.904   0.776
 7463SOL    HW223289   3.021   5.003   0.867
 7464SOL     OW23290   4.640   0.516   6.665
 7464SOL    HW123291   4.716   0.512   6.600
 7464SOL    HW223292   4.557   0.481   6.622
 7465SOL     OW23293   1.109   6.977   0.088
 7465SOL    HW123294   1.139   6.985   7.021
 7465SOL    HW223295   1.174   7.023   0.148
 7466SOL     OW23296   0.383   0.608   6.149
 7466SOL    HW123297   0.434   0.555   6.082
 7466SOL    HW223298   0.385   0.562   6.238
 7467SOL     OW23299   0.022   1.722   0.283
 7467SOL    HW123300   0.102   1.781   0.292
 7467SOL    HW223301   7.004   1.740   0.196
 7468SOL     OW23302   6.741   2.686   3.117
 7468SOL    HW123303   6.758   2.784   3.113
 7468SOL    HW223304   6.650   2.670   3.156
 7469SOL     OW23305   6.841   0.748   0.483
 7469SOL    HW123306   6.937   0.750   0.511
 7469SOL    HW223307   6.834   0.712   0.390
 7470SOL     OW23308   0.020   3.048   3.936
 7470SOL    HW123309   0.036   2.989   4.015
 7470SOL    HW223310   0.023   2.994   3.853
 7471SOL     OW23311   6.581   6.493   5.947
 7471SOL    HW123312   6.645   6.492   5.870
 7471SOL    HW223313   6.514   6.566   5.934
 7472SOL     OW23314   6.468   6.899   4.360
 7472SOL    HW123315   6.516   6.820   4.323
 7472SOL    HW223316   6.512   6.983   4.329
 7473SOL     OW23317   6.594   4.596   2.665
 7473SOL    HW123318   6.624   4.506   2.633
 7473SOL    HW223319   6.506   4.619   2.624
 7474SOL     OW23320   2.255   1.380   5.471
 7474SOL    HW123321   2.160   1.399   5.449
 7474SOL    HW223322   2.268   1.388   5.570
 7475SOL     OW23323   3.928   1.026   2.763
 7475SOL    HW123324   3.987   1.056   2.838
 7475SOL    HW223325   3.961   1.065   2.677
 7476SOL     OW23326   3.103   5.268   3.928
 7476SOL    HW123327   3.015   5.309   3.905
 7476SOL    HW223328   3.118   5.277   4.027
 7477SOL     OW23329   0.083   1.246   4.879
 7477SOL    HW123330   0.030   1.299   4.813
 7477SOL    HW223331   0.161   1.204   4.833
 7478SOL     OW23332   4.536   4.636   6.485
 7478SOL    HW123333   4.461   4.628   6.551
 7478SOL    HW223334   4.623   4.619   6.531
 7479SOL     OW23335   4.008   2.384   1.469
 7479SOL    HW123336   4.066   2.455   1.428
 7479SOL    HW223337   3.971   2.418   1.556
 7480SOL     OW23338   6.853   3.957   1.812
 7480SOL    HW123339   6.823   3.887   1.747
 7480SOL    HW223340   6.833   4.048   1.776
 7481SOL     OW23341   6.149   5.407   1.529
 7481SOL    HW123342   6.060   5.368   1.506
 7481SOL    HW223343   6.221   5.349   1.490
 7482SOL     OW23344   4.650   2.143   3.546
 7482SOL    HW123345   4.568   2.200   3.554
 7482SOL    HW223346   4.703   2.172   3.467
 7483SOL     OW23347   4.973   2.715   5.080
 7483SOL    HW123348   5.020   2.645   5.027
 7483SOL    HW223349   5.029   2.740   5.159
 7484SOL     OW23350   1.028   1.019   3.342
 7484SOL    HW123351   1.045   0.987   3.249
 7484SOL    HW223352   0.957   0.962   3.384
 7485SOL     OW23353   3.494   0.242   4.655
 7485SOL    HW123354   3.397   0.220   4.657
 7485SOL    HW223355   3.514   0.298   4.574
 7486SOL     OW23356   2.846   0.477   5.838
 7486SOL    HW123357   2.799   0.560   5.870
 7486SOL    HW223358   2.793   0.397   5.865
 7487SOL     OW23359   2.345   5.941   2.331
 7487SOL    HW123360   2.430   5.905   2.369
 7487SOL    HW223361   2.365   6.021   2.275
 7488SOL     OW23362   1.838   6.406   4.514
 7488SOL    HW123363   1.825   6.321   4.463
 7488SOL    HW223364   1.762   6.469   4.494
 7489SOL     OW23365   5.590   2.307   4.837
 7489SOL    HW123366   5.687   2.313   4.811
 7489SOL    HW223367   5.578   2.235   4.905
 7490SOL     OW23368   0.528   0.875   1.580
 7490SOL    HW123369   0.566   0.813   1.511
 7490SOL    HW223370   0.520   0.967   1.542
 7491SOL     OW23371   6.133   3.475   5.673
 7491SOL    HW123372   6.057   3.536   5.694
 7491SOL    HW223373   6.101   3.400   5.615
 7492SOL     OW23374   2.134   0.634   3.766
 7492SOL    HW123375   2.118   0.622   3.668
 7492SOL    HW223376   2.047   0.632   3.815
 7493SOL     OW23377   6.548   3.910   0.145
 7493SOL    HW123378   6.568   3.883   0.050
 7493SOL    HW223379   6.590   3.999   0.164
 7494SOL     OW23380   5.338   0.712   2.851
 7494SOL    HW123381   5.248   0.683   2.820
 7494SOL    HW223382   5.392   0.742   2.772
 7495SOL     OW23383   1.750   0.803   0.520
 7495SOL    HW123384   1.734   0.705   0.512
 7495SOL    HW223385   1.749   0.830   0.617
 7496SOL     OW23386   0.186   3.233   5.636
 7496SOL    HW123387   0.137   3.283   5.707
 7496SOL    HW223388   0.284   3.248   5.646
 7497SOL     OW23389   2.118   4.801   0.658
 7497SOL    HW123390   2.058   4.829   0.582
 7497SOL    HW223391   2.076   4.724   0.706
 7498SOL     OW23392   2.532   1.443   5.472
 7498SOL    HW123393   2.451   1.477   5.425
 7498SOL    HW223394   2.595   1.402   5.405
 7499SOL     OW23395   3.807   2.066   2.982
 7499SOL    HW123396   3.877   2.136   2.966
 7499SOL    HW223397   3.827   1.986   2.925
 7500SOL     OW23398   3.416   5.231   4.255
 7500SOL    HW123399   3.508   5.269   4.261
 7500SOL    HW223400   3.419   5.142   4.210
 7501SOL     OW23401   5.740   4.007   3.812
 7501SOL    HW123402   5.786   3.947   3.746
 7501SOL    HW223403   5.666   4.056   3.767
 7502SOL     OW23404   1.672   6.893   4.701
 7502SOL    HW123405   1.657   6.969   4.639
 7502SOL    HW223406   1.602   6.893   4.772
 7503SOL     OW23407   2.755   1.759   0.771
 7503SOL    HW123408   2.695   1.835   0.746
 7503SOL    HW223409   2.796   1.720   0.688
 7504SOL     OW23410   1.963   0.061   2.942
 7504SOL    HW123411   2.047   0.008   2.934
 7504SOL    HW223412   1.953   0.119   2.861
 7505SOL     OW23413   2.509   2.101   5.877
 7505SOL    HW123414   2.436   2.035   5.896
 7505SOL    HW223415   2.556   2.075   5.792
 7506SOL     OW23416   4.827   7.012   3.248
 7506SOL    HW123417   4.842   6.980   3.342
 7506SOL    HW223418   4.730   0.003   3.235
 7507SOL     OW23419   0.815   0.536   2.396
 7507SOL    HW123420   0.815   0.636   2.390
 7507SOL    HW223421   0.900   0.506   2.437
 7508SOL     OW23422   0.509   6.150   2.085
 7508SOL    HW123423   0.523   6.233   2.030
 7508SOL    HW223424   0.411   6.127   2.086
 7509SOL     OW23425   5.638   4.195   0.375
 7509SOL    HW123426   5.688   4.138   0.310
 7509SOL    HW223427   5.539   4.185   0.360
 7510SOL     OW23428   3.749   4.512   5.292
 7510SOL    HW123429   3.839   4.467   5.289
 7510SOL    HW223430   3.678   4.445   5.270
 7511SOL     OW23431   1.873   7.001   3.574
 7511SOL    HW123432   1.902   0.060   3.615
 7511SOL    HW223433   1.951   6.957   3.532
 7512SOL     OW23434   2.837   5.636   6.860
 7512SOL    HW123435   2.840   5.693   6.943
 7512SOL    HW223436   2.831   5.540   6.887
 7513SOL     OW23437   1.951   1.142   1.721
 7513SOL    HW123438   1.953   1.074   1.647
 7513SOL    HW223439   2.008   1.220   1.696
 7514SOL     OW23440   2.255   5.792   1.118
 7514SOL    HW123441   2.313   5.720   1.079
 7514SOL    HW223442   2.207   5.756   1.198
 7515SOL     OW23443   0.150   4.850   1.946
 7515SOL    HW123444   0.187   4.943   1.947
 7515SOL    HW223445   0.185   4.800   2.026
 7516SOL     OW23446   6.719   5.854   5.748
 7516SOL    HW123447   6.718   5.901   5.836
 7516SOL    HW223448   6.639   5.880   5.695
 7517SOL     OW23449   6.813   2.986   0.967
 7517SOL    HW123450   6.899   3.027   0.996
 7517SOL    HW223451   6.737   3.030   1.016
 7518SOL     OW23452   4.340   5.323   3.234
 7518SOL    HW123453   4.253   5.280   3.256
 7518SOL    HW223454   4.328   5.422   3.230
 7519SOL     OW23455   6.788   6.937   4.240
 7519SOL    HW123456   6.874   6.951   4.191
 7519SOL    HW223457   6.759   6.842   4.232
 7520SOL     OW23458   3.967   0.672   2.209
 7520SOL    HW123459   3.956   0.665   2.110
 7520SOL    HW223460   3.926   0.758   2.241
 7521SOL     OW23461   4.777   4.419   6.240
 7521SOL    HW123462   4.760   4.517   6.237
 7521SOL    HW223463   4.736   4.381   6.323
 7522SOL     OW23464   2.286   0.578   6.690
 7522SOL    HW123465   2.313   0.604   6.783
 7522SOL    HW223466   2.308   0.653   6.628
 7523SOL     OW23467   5.893   0.069   6.013
 7523SOL    HW123468   5.959   0.143   5.998
 7523SOL    HW223469   5.838   0.091   6.094
 7524SOL     OW23470   2.024   1.793   5.902
 7524SOL    HW123471   2.108   1.740   5.890
 7524SOL    HW223472   2.046   1.890   5.906
 7525SOL     OW23473   3.133   0.922   6.118
 7525SOL    HW123474   3.078   0.868   6.054
 7525SOL    HW223475   3.190   0.986   6.067
 7526SOL     OW23476   2.984   3.287   1.581
 7526SOL    HW123477   3.081   3.280   1.607
 7526SOL    HW223478   2.954   3.198   1.546
 7527SOL     OW23479   4.194   5.781   2.853
 7527SOL    HW123480   4.170   5.860   2.797
 7527SOL    HW223481   4.144   5.785   2.939
 7528SOL     OW23482   5.500   1.860   6.955
 7528SOL    HW123483   5.580   1.800   6.967
 7528SOL    HW223484   5.427   1.809   6.909
 7529SOL     OW23485   5.545   0.297   4.534
 7529SOL    HW123486   5.487   0.313   4.454
 7529SOL    HW223487   5.620   0.236   4.509
 7530SOL     OW23488   0.563   3.759   2.380
 7530SOL    HW123489   0.578   3.677   2.436
 7530SOL    HW223490   0.484   3.810   2.414
 7531SOL     OW23491   4.470   2.493   4.322
 7531SOL    HW123492   4.469   2.416   4.258
 7531SOL    HW223493   4.512   2.465   4.408
 7532SOL     OW23494   5.532   4.613   1.106
 7532SOL    HW123495   5.490   4.524   1.090
 7532SOL    HW223496   5.630   4.602   1.123
 7533SOL     OW23497   2.247   2.240   1.987
 7533SOL    HW123498   2.281   2.149   1.962
 7533SOL    HW223499   2.285   2.266   2.076
 7534SOL     OW23500   4.488   5.878   5.876
 7534SOL    HW123501   4.472   5.903   5.781
 7534SOL    HW223502   4.475   5.779   5.887
 7535SOL     OW23503   2.379   0.129   5.746
 7535SOL    HW123504   2.295   0.075   5.745
 7535SOL    HW223505   2.401   0.160   5.654
 7536SOL     OW23506   4.651   4.275   4.485
 7536SOL    HW123507   4.686   4.182   4.476
 7536SOL    HW223508   4.685   4.315   4.570
 7537SOL     OW23509   3.452   5.315   2.653
 7537SOL    HW123510   3.455   5.408   2.690
 7537SOL    HW223511   3.385   5.311   2.579
 7538SOL     OW23512   2.941   3.026   1.505
 7538SOL    HW123513   2.860   3.059   1.458
 7538SOL    HW223514   3.011   3.001   1.438
 7539SOL     OW23515   0.966   3.136   3.953
 7539SOL    HW123516   1.057   3.098   3.935
 7539SOL    HW223517   0.964   3.233   3.928
 7540SOL     OW23518   4.587   0.055   5.236
 7540SOL    HW123519   4.680   0.039   5.266
 7540SOL    HW223520   4.540   6.996   5.223
 7541SOL     OW23521   6.931   4.445   4.143
 7541SOL    HW123522   7.014   4.498   4.130
 7541SOL    HW223523   6.932   4.403   4.234
 7542SOL     OW23524   0.562   5.777   6.883
 7542SOL    HW123525   0.514   5.706   6.934
 7542SOL    HW223526   0.528   5.779   6.788
 7543SOL     OW23527   3.508   2.448   0.266
 7543SOL    HW123528   3.492   2.497   0.352
 7543SOL    HW223529   3.474   2.355   0.275
 7544SOL     OW23530   0.492   2.105   2.768
 7544SOL    HW123531   0.410   2.130   2.717
 7544SOL    HW223532   0.469   2.035   2.836
 7545SOL     OW23533   6.487   5.855   1.543
 7545SOL    HW123534   6.444   5.940   1.510
 7545SOL    HW223535   6.416   5.788   1.566
 7546SOL     OW23536   3.171   1.999   2.257
 7546SOL    HW123537   3.134   1.970   2.169
 7546SOL    HW223538   3.174   1.920   2.319
 7547SOL     OW23539   4.904   1.403   0.385
 7547SOL    HW123540   4.868   1.357   0.466
 7547SOL    HW223541   4.845   1.479   0.359
 7548SOL     OW23542   3.803   2.007   0.275
 7548SOL    HW123543   3.848   2.096   0.281
 7548SOL    HW223544   3.778   1.977   0.367
 7549SOL     OW23545   5.513   2.019   0.863
 7549SOL    HW123546   5.548   1.929   0.840
 7549SOL    HW223547   5.432   2.009   0.921
 7550SOL     OW23548   2.507   4.608   2.462
 7550SOL    HW123549   2.440   4.680   2.476
 7550SOL    HW223550   2.545   4.614   2.369
 7551SOL     OW23551   4.843   3.610   6.364
 7551SOL    HW123552   4.793   3.573   6.442
 7551SOL    HW223553   4.795   3.688   6.326
 7552SOL     OW23554   0.839   5.067   2.894
 7552SOL    HW123555   0.844   5.042   2.990
 7552SOL    HW223556   0.746   5.098   2.872
 7553SOL     OW23557   4.457   6.049   5.117
 7553SOL    HW123558   4.404   6.117   5.169
 7553SOL    HW223559   4.520   6.002   5.178
 7554SOL     OW23560   4.540   1.780   1.369
 7554SOL    HW123561   4.588   1.697   1.339
 7554SOL    HW223562   4.512   1.833   1.289
 7555SOL     OW23563   1.862   5.384   5.776
 7555SOL    HW123564   1.798   5.312   5.805
 7555SOL    HW223565   1.870   5.384   5.676
 7556SOL     OW23566   1.028   2.940   6.800
 7556SOL    HW123567   0.954   3.004   6.819
 7556SOL    HW223568   1.115   2.982   6.823
 7557SOL     OW23569   5.343   2.537   6.030
 7557SOL    HW123570   5.280   2.592   6.085
 7557SOL    HW223571   5.320   2.548   5.933
 7558SOL     OW23572   1.868   2.716   4.293
 7558SOL    HW123573   1.819   2.730   4.206
 7558SOL    HW223574   1.812   2.751   4.368
 7559SOL     OW23575   5.906   4.363   6.349
 7559SOL    HW123576   5.892   4.346   6.252
 7559SOL    HW223577   5.997   4.402   6.364
 7560SOL     OW23578   4.911   6.566   1.335
 7560SOL    HW123579   4.867   6.656   1.343
 7560SOL    HW223580   5.010   6.577   1.332
 7561SOL     OW23581   1.156   3.347   6.962
 7561SOL    HW123582   1.106   3.352   6.876
 7561SOL    HW223583   1.216   3.267   6.961
 7562SOL     OW23584   6.069   6.179   4.189
 7562SOL    HW123585   6.137   6.248   4.216
 7562SOL    HW223586   6.092   6.091   4.232
 7563SOL     OW23587   2.158   6.749   0.749
 7563SOL    HW123588   2.258   6.740   0.747
 7563SOL    HW223589   2.127   6.751   0.844
 7564SOL     OW23590   4.844   0.846   2.887
 7564SOL    HW123591   4.753   0.887   2.890
 7564SOL    HW223592   4.911   0.911   2.924
 7565SOL     OW23593   6.058   3.155   0.385
 7565SOL    HW123594   6.032   3.232   0.443
 7565SOL    HW223595   6.157   3.142   0.387
 7566SOL     OW23596   6.505   4.615   2.919
 7566SOL    HW123597   6.578   4.557   2.954
 7566SOL    HW223598   6.519   4.629   2.820
 7567SOL     OW23599   1.679   2.325   5.006
 7567SOL    HW123600   1.766   2.337   5.054
 7567SOL    HW223601   1.613   2.281   5.068
 7568SOL     OW23602   5.735   6.316   2.841
 7568SOL    HW123603   5.713   6.234   2.787
 7568SOL    HW223604   5.751   6.393   2.780
 7569SOL     OW23605   4.028   6.186   6.223
 7569SOL    HW123606   3.996   6.235   6.142
 7569SOL    HW223607   4.076   6.103   6.195
 7570SOL     OW23608   5.444   4.506   4.939
 7570SOL    HW123609   5.387   4.516   5.020
 7570SOL    HW223610   5.519   4.573   4.943
 7571SOL     OW23611   5.497   5.464   3.735
 7571SOL    HW123612   5.458   5.427   3.819
 7571SOL    HW223613   5.442   5.434   3.657
 7572SOL     OW23614   4.340   1.117   1.718
 7572SOL    HW123615   4.296   1.099   1.631
 7572SOL    HW223616   4.323   1.211   1.746
 7573SOL     OW23617   0.224   6.703   4.890
 7573SOL    HW123618   0.305   6.648   4.908
 7573SOL    HW223619   0.224   6.733   4.795
 7574SOL     OW23620   6.474   0.962   4.545
 7574SOL    HW123621   6.375   0.974   4.550
 7574SOL    HW223622   6.497   0.868   4.568
 7575SOL     OW23623   4.384   0.245   5.837
 7575SOL    HW123624   4.319   0.317   5.814
 7575SOL    HW223625   4.406   0.249   5.934
 7576SOL     OW23626   4.909   4.447   6.660
 7576SOL    HW123627   4.880   4.503   6.582
 7576SOL    HW223628   4.899   4.350   6.637
 7577SOL     OW23629   0.102   6.903   6.734
 7577SOL    HW123630   0.151   6.971   6.789
 7577SOL    HW223631   0.139   6.902   6.641
 7578SOL     OW23632   2.444   5.907   2.032
 7578SOL    HW123633   2.515   5.889   2.100
 7578SOL    HW223634   2.446   6.003   2.005
 7579SOL     OW23635   6.248   1.324   1.884
 7579SOL    HW123636   6.247   1.234   1.840
 7579SOL    HW223637   6.212   1.393   1.820
 7580SOL     OW23638   1.195   3.675   3.730
 7580SOL    HW123639   1.201   3.582   3.694
 7580SOL    HW223640   1.243   3.738   3.668
 7581SOL     OW23641   6.458   0.849   1.041
 7581SOL    HW123642   6.419   0.926   1.090
 7581SOL    HW223643   6.457   0.768   1.100
 7582SOL     OW23644   3.021   1.267   1.027
 7582SOL    HW123645   2.927   1.273   1.059
 7582SOL    HW223646   3.073   1.208   1.089
 7583SOL     OW23647   6.425   2.845   1.067
 7583SOL    HW123648   6.410   2.813   1.160
 7583SOL    HW223649   6.415   2.945   1.065
 7584SOL     OW23650   2.679   0.152   1.732
 7584SOL    HW123651   2.693   0.192   1.642
 7584SOL    HW223652   2.678   0.052   1.724
 7585SOL     OW23653   1.497   2.549   6.391
 7585SOL    HW123654   1.571   2.526   6.454
 7585SOL    HW223655   1.411   2.556   6.442
 7586SOL     OW23656   3.045   0.783   3.796
 7586SOL    HW123657   3.062   0.719   3.871
 7586SOL    HW223658   3.132   0.806   3.752
 7587SOL     OW23659   2.180   1.951   7.000
 7587SOL    HW123660   2.116   1.997   0.033
 7587SOL    HW223661   2.171   1.988   6.907
 7588SOL     OW23662   1.351   3.159   2.401
 7588SOL    HW123663   1.400   3.226   2.457
 7588SOL    HW223664   1.258   3.190   2.384
 7589SOL     OW23665   0.705   6.979   2.147
 7589SOL    HW123666   0.716   0.008   2.065
 7589SOL    HW223667   0.793   6.938   2.170
 7590SOL     OW23668   4.694   1.750   6.606
 7590SOL    HW123669   4.767   1.795   6.555
 7590SOL    HW223670   4.610   1.804   6.599
 7591SOL     OW23671   6.924   3.867   0.279
 7591SOL    HW123672   6.858   3.807   0.325
 7591SOL    HW223673   6.921   3.850   0.180
 7592SOL     OW23674   6.936   4.034   5.985
 7592SOL    HW123675   6.989   4.103   5.935
 7592SOL    HW223676   6.840   4.038   5.956
 7593SOL     OW23677   6.032   3.187   1.327
 7593SOL    HW123678   6.030   3.115   1.258
 7593SOL    HW223679   6.009   3.274   1.286
 7594SOL     OW23680   0.915   5.133   2.581
 7594SOL    HW123681   0.986   5.066   2.558
 7594SOL    HW223682   0.937   5.221   2.538
 7595SOL     OW23683   0.117   2.272   5.729
 7595SOL    HW123684   0.152   2.187   5.691
 7595SOL    HW223685   0.105   2.339   5.655
 7596SOL     OW23686   4.609   5.539   3.857
 7596SOL    HW123687   4.646   5.459   3.809
 7596SOL    HW223688   4.510   5.544   3.841
 7597SOL     OW23689   3.813   6.140   3.025
 7597SOL    HW123690   3.717   6.124   3.004
 7597SOL    HW223691   3.820   6.192   3.110
 7598SOL     OW23692   6.396   1.275   2.845
 7598SOL    HW123693   6.324   1.342   2.861
 7598SOL    HW223694   6.485   1.319   2.854
 7599SOL     OW23695   5.454   1.799   2.599
 7599SOL    HW123696   5.418   1.832   2.687
 7599SOL    HW223697   5.403   1.718   2.571
 7600SOL     OW23698   2.116   1.473   2.434
 7600SOL    HW123699   2.073   1.393   2.392
 7600SOL    HW223700   2.151   1.533   2.363
 7601SOL     OW23701   2.048   5.210   3.031
 7601SOL    HW123702   2.041   5.177   3.125
 7601SOL    HW223703   2.092   5.300   3.030
 7602SOL     OW23704   0.629   4.548   5.873
 7602SOL    HW123705   0.592   4.551   5.780
 7602SOL    HW223706   0.615   4.457   5.911
 7603SOL     OW23707   1.576   5.694   6.005
 7603SOL    HW123708   1.479   5.679   5.988
 7603SOL    HW223709   1.587   5.741   6.093
 7604SOL     OW23710   1.622   4.803   4.539
 7604SOL    HW123711   1.563   4.869   4.493
 7604SOL    HW223712   1.660   4.843   4.623
 7605SOL     OW23713   0.555   0.020   1.183
 7605SOL    HW123714   0.642   0.067   1.192
 7605SOL    HW223715   0.531   7.007   1.271
 7606SOL     OW23716   5.989   3.552   4.463
 7606SOL    HW123717   6.009   3.620   4.533
 7606SOL    HW223718   6.052   3.475   4.472
 7607SOL     OW23719   3.637   4.638   6.929
 7607SOL    HW123720   3.605   4.664   7.020
 7607SOL    HW223721   3.559   4.605   6.875
 7608SOL     OW23722   3.827   3.711   2.574
 7608SOL    HW123723   3.903   3.673   2.521
 7608SOL    HW223724   3.763   3.637   2.597
 7609SOL     OW23725   1.377   3.309   4.303
 7609SOL    HW123726   1.314   3.317   4.380
 7609SOL    HW223727   1.347   3.235   4.243
 7610SOL     OW23728   5.340   6.283   6.777
 7610SOL    HW123729   5.268   6.331   6.728
 7610SOL    HW223730   5.304   6.198   6.816
 7611SOL     OW23731   0.227   2.197   0.760
 7611SOL    HW123732   0.135   2.214   0.725
 7611SOL    HW223733   0.223   2.182   0.859
 7612SOL     OW23734   5.226   3.224   4.054
 7612SOL    HW123735   5.239   3.178   3.966
 7612SOL    HW223736   5.175   3.165   4.116
 7613SOL     OW23737   6.421   3.358   1.259
 7613SOL    HW123738   6.381   3.446   1.283
 7613SOL    HW223739   6.475   3.367   1.176
 7614SOL     OW23740   4.953   3.128   0.569
 7614SOL    HW123741   5.040   3.087   0.597
 7614SOL    HW223742   4.969   3.195   0.496
 7615SOL     OW23743   3.446   5.009   6.876
 7615SOL    HW123744   3.499   5.071   6.934
 7615SOL    HW223745   3.348   5.024   6.891
 7616SOL     OW23746   5.913   5.043   4.981
 7616SOL    HW123747   6.002   5.014   4.945
 7616SOL    HW223748   5.894   4.994   5.066
 7617SOL     OW23749   3.926   4.894   2.616
 7617SOL    HW123750   3.996   4.878   2.685
 7617SOL    HW223751   3.919   4.992   2.598
 7618SOL     OW23752   0.484   1.639   5.785
 7618SOL    HW123753   0.564   1.580   5.773
 7618SOL    HW223754   0.404   1.597   5.743
 7619SOL     OW23755   6.005   3.063   5.346
 7619SOL    HW123756   6.078   2.994   5.349
 7619SOL    HW223757   5.950   3.049   5.264
 7620SOL     OW23758   4.146   5.628   1.008
 7620SOL    HW123759   4.140   5.719   0.969
 7620SOL    HW223760   4.147   5.560   0.934
 7621SOL     OW23761   6.988   1.852   1.248
 7621SOL    HW123762   6.944   1.848   1.338
 7621SOL    HW223763   6.918   1.853   1.177
 7622SOL     OW23764   4.313   5.927   1.283
 7622SOL    HW123765   4.242   5.992   1.253
 7622SOL    HW223766   4.341   5.949   1.376
 7623SOL     OW23767   4.696   4.560   6.761
 7623SOL    HW123768   4.613   4.506   6.778
 7623SOL    HW223769   4.759   4.507   6.705
 7624SOL     OW23770   0.233   3.603   5.234
 7624SOL    HW123771   0.216   3.660   5.315
 7624SOL    HW223772   0.157   3.537   5.224
 7625SOL     OW23773   4.656   0.784   1.603
 7625SOL    HW123774   4.723   0.709   1.603
 7625SOL    HW223775   4.702   0.869   1.579
 7626SOL     OW23776   5.645   0.084   4.368
 7626SOL    HW123777   5.626   0.115   4.274
 7626SOL    HW223778   5.578   0.016   4.395
 7627SOL     OW23779   5.211   2.298   0.364
 7627SOL    HW123780   5.287   2.357   0.338
 7627SOL    HW223781   5.225   2.264   0.457
 7628SOL     OW23782   3.641   1.095   2.786
 7628SOL    HW123783   3.740   1.081   2.788
 7628SOL    HW223784   3.605   1.088   2.879
 7629SOL     OW23785   6.827   6.302   3.341
 7629SOL    HW123786   6.914   6.333   3.380
 7629SOL    HW223787   6.764   6.278   3.415
 7630SOL     OW23788   6.826   6.991   1.205
 7630SOL    HW123789   6.823   6.942   1.118
 7630SOL    HW223790   6.797   6.930   1.278
 7631SOL     OW23791   1.236   1.362   6.035
 7631SOL    HW123792   1.227   1.462   6.044
 7631SOL    HW223793   1.332   1.336   6.049
 7632SOL     OW23794   3.050   2.862   1.723
 7632SOL    HW123795   3.014   2.768   1.728
 7632SOL    HW223796   3.000   2.914   1.655
 7633SOL     OW23797   5.334   0.592   1.298
 7633SOL    HW123798   5.302   0.610   1.205
 7633SOL    HW223799   5.400   0.517   1.297
 7634SOL     OW23800   1.342   2.366   2.662
 7634SOL    HW123801   1.243   2.370   2.669
 7634SOL    HW223802   1.374   2.277   2.694
 7635SOL     OW23803   3.599   5.377   4.878
 7635SOL    HW123804   3.578   5.287   4.916
 7635SOL    HW223805   3.560   5.448   4.937
 7636SOL     OW23806   1.436   2.362   3.826
 7636SOL    HW123807   1.472   2.455   3.829
 7636SOL    HW223808   1.399   2.343   3.735
 7637SOL     OW23809   2.143   5.039   2.464
 7637SOL    HW123810   2.172   5.063   2.556
 7637SOL    HW223811   2.094   4.952   2.466
 7638SOL     OW23812   3.211   6.167   1.051
 7638SOL    HW123813   3.236   6.074   1.025
 7638SOL    HW223814   3.285   6.207   1.106
 7639SOL     OW23815   1.429   2.673   0.767
 7639SOL    HW123816   1.447   2.738   0.841
 7639SOL    HW223817   1.334   2.643   0.772
 7640SOL     OW23818   3.104   1.980   6.261
 7640SOL    HW123819   3.117   2.006   6.166
 7640SOL    HW223820   3.034   2.037   6.303
 7641SOL     OW23821   0.981   5.027   2.084
 7641SOL    HW123822   0.984   5.004   1.986
 7641SOL    HW223823   1.067   4.998   2.127
 7642SOL     OW23824   3.902   0.524   2.650
 7642SOL    HW123825   3.940   0.616   2.651
 7642SOL    HW223826   3.867   0.502   2.559
 7643SOL     OW23827   4.829   3.028   4.146
 7643SOL    HW123828   4.918   2.991   4.122
 7643SOL    HW223829   4.766   3.016   4.069
 7644SOL     OW23830   6.112   2.465   2.547
 7644SOL    HW123831   6.098   2.438   2.452
 7644SOL    HW223832   6.067   2.399   2.608
 7645SOL     OW23833   4.158   4.077   5.636
 7645SOL    HW123834   4.124   4.004   5.694
 7645SOL    HW223835   4.226   4.041   5.573
 7646SOL     OW23836   1.275   3.925   2.776
 7646SOL    HW123837   1.312   3.837   2.748
 7646SOL    HW223838   1.181   3.934   2.742
 7647SOL     OW23839   6.610   3.801   2.972
 7647SOL    HW123840   6.638   3.751   2.891
 7647SOL    HW223841   6.648   3.758   3.054
 7648SOL     OW23842   2.370   1.487   2.568
 7648SOL    HW123843   2.410   1.399   2.593
 7648SOL    HW223844   2.270   1.480   2.571
 7649SOL     OW23845   0.895   0.883   2.619
 7649SOL    HW123846   0.973   0.872   2.680
 7649SOL    HW223847   0.811   0.888   2.672
 7650SOL     OW23848   4.665   2.023   1.058
 7650SOL    HW123849   4.711   1.970   0.986
 7650SOL    HW223850   4.574   1.986   1.073
 7651SOL     OW23851   2.364   0.699   4.057
 7651SOL    HW123852   2.294   0.630   4.042
 7651SOL    HW223853   2.366   0.762   3.979
 7652SOL     OW23854   5.907   3.711   4.877
 7652SOL    HW123855   5.881   3.798   4.918
 7652SOL    HW223856   5.926   3.644   4.949
 7653SOL     OW23857   1.119   2.143   6.772
 7653SOL    HW123858   1.062   2.075   6.726
 7653SOL    HW223859   1.116   2.229   6.722
 7654SOL     OW23860   4.821   2.670   3.603
 7654SOL    HW123861   4.897   2.733   3.624
 7654SOL    HW223862   4.756   2.670   3.679
 7655SOL     OW23863   4.789   0.321   3.051
 7655SOL    HW123864   4.848   0.247   3.084
 7655SOL    HW223865   4.841   0.406   3.046
 7656SOL     OW23866   2.648   4.040   5.970
 7656SOL    HW123867   2.680   4.064   5.878
 7656SOL    HW223868   2.698   3.960   6.003
 7657SOL     OW23869   1.523   2.952   4.565
 7657SOL    HW123870   1.565   3.015   4.631
 7657SOL    HW223871   1.592   2.888   4.531
 7658SOL     OW23872   3.792   6.678   5.787
 7658SOL    HW123873   3.816   6.759   5.841
 7658SOL    HW223874   3.743   6.706   5.705
 7659SOL     OW23875   5.583   5.805   6.643
 7659SOL    HW123876   5.534   5.723   6.613
 7659SOL    HW223877   5.654   5.828   6.577
 7660SOL     OW23878   0.551   5.854   4.237
 7660SOL    HW123879   0.581   5.948   4.254
 7660SOL    HW223880   0.562   5.800   4.321
 7661SOL     OW23881   6.258   2.399   4.203
 7661SOL    HW123882   6.159   2.388   4.213
 7661SOL    HW223883   6.296   2.315   4.164
 7662SOL     OW23884   1.108   3.589   2.557
 7662SOL    HW123885   1.092   3.566   2.461
 7662SOL    HW223886   1.198   3.553   2.584
 7663SOL     OW23887   0.866   5.823   5.582
 7663SOL    HW123888   0.884   5.726   5.566
 7663SOL    HW223889   0.769   5.842   5.564
 7664SOL     OW23890   3.639   0.042   1.636
 7664SOL    HW123891   3.583   7.024   1.568
 7664SOL    HW223892   3.590   0.121   1.673
 7665SOL     OW23893   5.642   6.761   4.794
 7665SOL    HW123894   5.729   6.713   4.807
 7665SOL    HW223895   5.598   6.728   4.710
 7666SOL     OW23896   0.416   5.767   1.810
 7666SOL    HW123897   0.346   5.696   1.800
 7666SOL    HW223898   0.455   5.763   1.902
 7667SOL     OW23899   5.281   6.356   2.403
 7667SOL    HW123900   5.218   6.424   2.441
 7667SOL    HW223901   5.368   6.360   2.453
 7668SOL     OW23902   3.068   4.670   0.173
 7668SOL    HW123903   3.080   4.600   0.103
 7668SOL    HW223904   3.126   4.648   0.252
 7669SOL     OW23905   5.141   1.755   5.675
 7669SOL    HW123906   5.106   1.837   5.720
 7669SOL    HW223907   5.239   1.765   5.660
 7670SOL     OW23908   1.023   5.092   6.377
 7670SOL    HW123909   1.015   5.190   6.361
 7670SOL    HW223910   1.116   5.070   6.405
 7671SOL     OW23911   4.472   1.101   2.747
 7671SOL    HW123912   4.418   1.083   2.664
 7671SOL    HW223913   4.525   1.184   2.735
 7672SOL     OW23914   0.426   6.901   3.290
 7672SOL    HW123915   0.486   6.967   3.247
 7672SOL    HW223916   0.331   6.919   3.262
 7673SOL     OW23917   1.359   5.671   0.010
 7673SOL    HW123918   1.431   5.740   0.002
 7673SOL    HW223919   1.401   5.580   0.015
 7674SOL     OW23920   5.531   1.130   3.509
 7674SOL    HW123921   5.557   1.131   3.412
 7674SOL    HW223922   5.432   1.147   3.517
 7675SOL     OW23923   6.337   6.637   2.318
 7675SOL    HW123924   6.247   6.667   2.286
 7675SOL    HW223925   6.359   6.548   2.277
 7676SOL     OW23926   1.877   1.599   0.403
 7676SOL    HW123927   1.956   1.567   0.352
 7676SOL    HW223928   1.907   1.657   0.479
 7677SOL     OW23929   0.546   4.644   1.754
 7677SOL    HW123930   0.587   4.602   1.835
 7677SOL    HW223931   0.581   4.737   1.744
 7678SOL     OW23932   2.264   2.746   4.464
 7678SOL    HW123933   2.244   2.841   4.443
 7678SOL    HW223934   2.247   2.728   4.561
 7679SOL     OW23935   2.873   5.574   6.462
 7679SOL    HW123936   2.808   5.505   6.430
 7679SOL    HW223937   2.826   5.638   6.523
 7680SOL     OW23938   1.429   1.283   0.782
 7680SOL    HW123939   1.406   1.281   0.685
 7680SOL    HW223940   1.427   1.377   0.815
 7681SOL     OW23941   2.050   0.447   0.918
 7681SOL    HW123942   2.026   0.544   0.909
 7681SOL    HW223943   2.022   0.398   0.836
 7682SOL     OW23944   3.528   0.252   2.454
 7682SOL    HW123945   3.572   0.292   2.374
 7682SOL    HW223946   3.547   0.308   2.535
 7683SOL     OW23947   5.347   1.395   4.183
 7683SOL    HW123948   5.252   1.384   4.154
 7683SOL    HW223949   5.370   1.322   4.247
 7684SOL     OW23950   3.569   2.015   1.441
 7684SOL    HW123951   3.652   2.020   1.497
 7684SOL    HW223952   3.505   1.950   1.482
 7685SOL     OW23953   3.171   2.355   6.576
 7685SOL    HW123954   3.185   2.263   6.541
 7685SOL    HW223955   3.259   2.400   6.589
 7686SOL     OW23956   0.153   6.919   3.241
 7686SOL    HW123957   0.093   6.997   3.222
 7686SOL    HW223958   0.101   6.848   3.288
 7687SOL     OW23959   5.576   5.192   4.192
 7687SOL    HW123960   5.481   5.203   4.221
 7687SOL    HW223961   5.637   5.212   4.269
 7688SOL     OW23962   1.444   6.113   5.998
 7688SOL    HW123963   1.359   6.125   6.049
 7688SOL    HW223964   1.426   6.125   5.900
 7689SOL     OW23965   5.943   6.217   2.587
 7689SOL    HW123966   6.039   6.205   2.560
 7689SOL    HW223967   5.911   6.307   2.558
 7690SOL     OW23968   5.487   4.675   0.465
 7690SOL    HW123969   5.415   4.729   0.422
 7690SOL    HW223970   5.501   4.706   0.559
 7691SOL     OW23971   5.292   3.514   4.985
 7691SOL    HW123972   5.206   3.543   5.028
 7691SOL    HW223973   5.272   3.443   4.917
 7692SOL     OW23974   0.218   6.117   2.096
 7692SOL    HW123975   0.152   6.047   2.069
 7692SOL    HW223976   0.180   6.171   2.171
 7693SOL     OW23977   4.127   6.901   1.105
 7693SOL    HW123978   4.137   6.801   1.115
 7693SOL    HW223979   4.199   6.935   1.045
 7694SOL     OW23980   0.197   4.458   4.890
 7694SOL    HW123981   0.148   4.514   4.824
 7694SOL    HW223982   0.137   4.385   4.924
 7695SOL     OW23983   4.421   0.204   1.066
 7695SOL    HW123984   4.496   0.247   1.016
 7695SOL    HW223985   4.382   0.131   1.011
 7696SOL     OW23986   0.065   1.050   5.123
 7696SOL    HW123987   6.996   1.048   5.148
 7696SOL    HW223988   0.081   0.986   5.048
 7697SOL     OW23989   2.842   6.478   2.104
 7697SOL    HW123990   2.820   6.575   2.115
 7697SOL    HW223991   2.853   6.457   2.007
 7698SOL     OW23992   6.394   1.419   3.747
 7698SOL    HW123993   6.306   1.375   3.728
 7698SOL    HW223994   6.421   1.400   3.842
 7699SOL     OW23995   3.700   5.939   0.020
 7699SOL    HW123996   3.758   6.017   0.041
 7699SOL    HW223997   3.704   5.920   6.950
 7700SOL     OW23998   5.089   6.042   4.017
 7700SOL    HW123999   5.157   6.098   3.971
 7700SOL    HW224000   5.070   6.080   4.108
 7701SOL     OW24001   6.862   1.745   6.655
 7701SOL    HW124002   6.827   1.681   6.723
 7701SOL    HW224003   6.961   1.755   6.666
 7702SOL     OW24004   3.481   7.014   5.353
 7702SOL    HW124005   3.415   6.942   5.376
 7702SOL    HW224006   3.503   7.009   5.256
 7703SOL     OW24007   6.002   0.299   6.263
 7703SOL    HW124008   5.982   0.393   6.289
 7703SOL    HW224009   5.974   0.238   6.337
 7704SOL     OW24010   5.714   5.623   4.727
 7704SOL    HW124011   5.637   5.581   4.680
 7704SOL    HW224012   5.729   5.577   4.815
 7705SOL     OW24013   3.625   5.469   6.613
 7705SOL    HW124014   3.702   5.421   6.570
 7705SOL    HW224015   3.565   5.506   6.542
 7706SOL     OW24016   4.600   3.172   5.457
 7706SOL    HW124017   4.614   3.260   5.413
 7706SOL    HW224018   4.576   3.103   5.388
 7707SOL     OW24019   6.957   5.272   6.134
 7707SOL    HW124020   6.896   5.193   6.125
 7707SOL    HW224021   6.940   5.317   6.222
 7708SOL     OW24022   0.026   0.422   5.731
 7708SOL    HW124023   0.094   0.390   5.666
 7708SOL    HW224024   0.070   0.482   5.798
 7709SOL     OW24025   6.064   5.029   2.015
 7709SOL    HW124026   5.993   5.097   2.031
 7709SOL    HW224027   6.149   5.075   1.990
 7710SOL     OW24028   2.699   1.067   0.433
 7710SOL    HW124029   2.679   1.104   0.523
 7710SOL    HW224030   2.741   1.138   0.376
 7711SOL     OW24031   6.257   6.693   6.146
 7711SOL    HW124032   6.285   6.759   6.076
 7711SOL    HW224033   6.174   6.726   6.191
 7712SOL     OW24034   5.863   5.238   2.106
 7712SOL    HW124035   5.823   5.248   2.197
 7712SOL    HW224036   5.939   5.302   2.096
 7713SOL     OW24037   1.397   3.996   0.474
 7713SOL    HW124038   1.497   4.001   0.463
 7713SOL    HW224039   1.374   3.920   0.535
 7714SOL     OW24040   5.767   4.121   5.736
 7714SOL    HW124041   5.853   4.168   5.715
 7714SOL    HW224042   5.765   4.096   5.833
 7715SOL     OW24043   3.768   2.416   0.290
 7715SOL    HW124044   3.673   2.442   0.274
 7715SOL    HW224045   3.800   2.358   0.215
 7716SOL     OW24046   5.703   4.537   2.747
 7716SOL    HW124047   5.636   4.546   2.673
 7716SOL    HW224048   5.737   4.443   2.749
 7717SOL     OW24049   1.805   0.952   4.797
 7717SOL    HW124050   1.877   0.949   4.866
 7717SOL    HW224051   1.752   0.867   4.802
 7718SOL     OW24052   1.194   3.087   3.306
 7718SOL    HW124053   1.165   3.082   3.401
 7718SOL    HW224054   1.131   3.033   3.250
 7719SOL     OW24055   6.893   4.436   4.958
 7719SOL    HW124056   6.938   4.489   5.030
 7719SOL    HW224057   6.949   4.356   4.936
 7720SOL     OW24058   6.832   1.316   0.278
 7720SOL    HW124059   6.842   1.273   0.188
 7720SOL    HW224060   6.849   1.248   0.350
 7721SOL     OW24061   0.305   5.514   2.675
 7721SOL    HW124062   0.291   5.461   2.591
 7721SOL    HW224063   0.240   5.589   2.678
 7722SOL     OW24064   1.302   4.827   3.537
 7722SOL    HW124065   1.315   4.884   3.456
 7722SOL    HW224066   1.387   4.822   3.589
 7723SOL     OW24067   4.666   3.254   0.129
 7723SOL    HW124068   4.686   3.164   0.168
 7723SOL    HW224069   4.576   3.253   0.086
 7724SOL     OW24070   3.010   3.957   0.896
 7724SOL    HW124071   2.993   3.935   0.800
 7724SOL    HW224072   3.099   3.922   0.923
 7725SOL     OW24073   6.443   1.524   3.201
 7725SOL    HW124074   6.463   1.456   3.131
 7725SOL    HW224075   6.469   1.488   3.291
 7726SOL     OW24076   1.677   5.597   5.289
 7726SOL    HW124077   1.587   5.595   5.331
 7726SOL    HW224078   1.668   5.603   5.190
 7727SOL     OW24079   0.287   0.692   2.719
 7727SOL    HW124080   0.308   0.779   2.673
 7727SOL    HW224081   0.242   0.711   2.806
 7728SOL     OW24082   1.253   4.579   3.750
 7728SOL    HW124083   1.157   4.596   3.729
 7728SOL    HW224084   1.291   4.658   3.799
 7729SOL     OW24085   5.625   3.080   0.695
 7729SOL    HW124086   5.672   3.064   0.782
 7729SOL    HW224087   5.560   3.006   0.679
 7730SOL     OW24088   5.964   5.817   0.396
 7730SOL    HW124089   6.050   5.793   0.351
 7730SOL    HW224090   5.966   5.789   0.491
 7731SOL     OW24091   6.530   1.188   0.536
 7731SOL    HW124092   6.593   1.146   0.601
 7731SOL    HW224093   6.478   1.116   0.490
 7732SOL     OW24094   4.778   6.558   0.484
 7732SOL    HW124095   4.700   6.544   0.422
 7732SOL    HW224096   4.796   6.474   0.535
 7733SOL     OW24097   5.124   6.370   2.780
 7733SOL    HW124098   5.100   6.314   2.700
 7733SOL    HW224099   5.046   6.428   2.805
 7734SOL     OW24100   2.669   4.720   3.029
 7734SOL    HW124101   2.581   4.753   3.061
 7734SOL    HW224102   2.742   4.754   3.089
 7735SOL     OW24103   4.744   0.131   6.526
 7735SOL    HW124104   4.842   0.146   6.507
 7735SOL    HW224105   4.691   0.166   6.449
 7736SOL     OW24106   3.603   3.480   6.521
 7736SOL    HW124107   3.644   3.432   6.598
 7736SOL    HW224108   3.618   3.428   6.437
 7737SOL     OW24109   3.003   6.663   2.670
 7737SOL    HW124110   3.088   6.707   2.640
 7737SOL    HW224111   2.931   6.683   2.604
 7738SOL     OW24112   2.901   6.105   6.869
 7738SOL    HW124113   2.829   6.070   6.929
 7738SOL    HW224114   2.878   6.086   6.774
 7739SOL     OW24115   0.334   2.611   1.273
 7739SOL    HW124116   0.377   2.612   1.363
 7739SOL    HW224117   0.309   2.517   1.249
 7740SOL     OW24118   2.361   1.307   2.244
 7740SOL    HW124119   2.266   1.331   2.226
 7740SOL    HW224120   2.388   1.231   2.184
 7741SOL     OW24121   0.797   5.206   5.771
 7741SOL    HW124122   0.851   5.284   5.802
 7741SOL    HW224123   0.700   5.231   5.768
 7742SOL     OW24124   4.413   2.260   3.667
 7742SOL    HW124125   4.388   2.229   3.759
 7742SOL    HW224126   4.337   2.242   3.604
 7743SOL     OW24127   5.795   1.696   6.485
 7743SOL    HW124128   5.800   1.605   6.445
 7743SOL    HW224129   5.865   1.754   6.443
 7744SOL     OW24130   0.952   6.334   4.150
 7744SOL    HW124131   0.857   6.344   4.180
 7744SOL    HW224132   0.955   6.281   4.065
 7745SOL     OW24133   3.691   1.216   6.964
 7745SOL    HW124134   3.598   1.181   6.958
 7745SOL    HW224135   3.713   1.268   6.881
 7746SOL     OW24136   1.609   0.206   0.447
 7746SOL    HW124137   1.695   0.248   0.475
 7746SOL    HW224138   1.600   0.210   0.347
 7747SOL     OW24139   5.430   5.895   0.921
 7747SOL    HW124140   5.439   5.800   0.890
 7747SOL    HW224141   5.413   5.954   0.842
 7748SOL     OW24142   3.497   4.202   5.001
 7748SOL    HW124143   3.537   4.228   5.089
 7748SOL    HW224144   3.455   4.282   4.958
 7749SOL     OW24145   2.623   2.938   6.073
 7749SOL    HW124146   2.722   2.927   6.064
 7749SOL    HW224147   2.583   2.953   5.982
 7750SOL     OW24148   0.086   6.172   1.829
 7750SOL    HW124149   0.121   6.128   1.746
 7750SOL    HW224150   0.150   6.157   1.904
 7751SOL     OW24151   1.714   2.419   2.217
 7751SOL    HW124152   1.763   2.430   2.131
 7751SOL    HW224153   1.659   2.500   2.235
 7752SOL     OW24154   5.909   6.663   5.602
 7752SOL    HW124155   6.004   6.637   5.615
 7752SOL    HW224156   5.902   6.727   5.525
 7753SOL     OW24157   2.693   0.995   3.811
 7753SOL    HW124158   2.658   0.924   3.872
 7753SOL    HW224159   2.641   0.994   3.725
 7754SOL     OW24160   3.142   6.283   1.734
 7754SOL    HW124161   3.166   6.274   1.638
 7754SOL    HW224162   3.162   6.198   1.782
 7755SOL     OW24163   2.165   2.527   5.525
 7755SOL    HW124164   2.135   2.527   5.621
 7755SOL    HW224165   2.153   2.435   5.487
 7756SOL     OW24166   2.591   6.100   2.613
 7756SOL    HW124167   2.525   6.156   2.664
 7756SOL    HW224168   2.668   6.077   2.673
 7757SOL     OW24169   5.277   4.851   0.398
 7757SOL    HW124170   5.213   4.911   0.349
 7757SOL    HW224171   5.352   4.906   0.435
 7758SOL     OW24172   2.461   0.496   5.568
 7758SOL    HW124173   2.522   0.576   5.566
 7758SOL    HW224174   2.444   0.469   5.662
 7759SOL     OW24175   2.009   2.286   5.589
 7759SOL    HW124176   1.954   2.220   5.641
 7759SOL    HW224177   1.955   2.320   5.512
 7760SOL     OW24178   5.894   3.593   2.589
 7760SOL    HW124179   5.841   3.508   2.587
 7760SOL    HW224180   5.967   3.585   2.656
 7761SOL     OW24181   6.909   0.215   4.624
 7761SOL    HW124182   6.896   0.234   4.721
 7761SOL    HW224183   6.972   0.282   4.585
 7762SOL     OW24184   2.348   0.143   4.076
 7762SOL    HW124185   2.330   0.206   4.152
 7762SOL    HW224186   2.272   0.147   4.011
 7763SOL     OW24187   2.290   0.348   6.960
 7763SOL    HW124188   2.309   0.440   6.927
 7763SOL    HW224189   2.310   0.342   0.030
 7764SOL     OW24190   3.628   3.378   4.864
 7764SOL    HW124191   3.574   3.447   4.911
 7764SOL    HW224192   3.569   3.322   4.806
 7765SOL     OW24193   5.784   4.361   5.154
 7765SOL    HW124194   5.862   4.297   5.157
 7765SOL    HW224195   5.717   4.328   5.088
 7766SOL     OW24196   6.836   4.106   6.990
 7766SOL    HW124197   6.765   4.130   6.923
 7766SOL    HW224198   6.923   4.092   6.943
 7767SOL     OW24199   5.111   6.014   2.533
 7767SOL    HW124200   5.107   5.982   2.438
 7767SOL    HW224201   5.108   6.114   2.534
 7768SOL     OW24202   4.488   4.515   3.310
 7768SOL    HW124203   4.437   4.585   3.358
 7768SOL    HW224204   4.509   4.440   3.373
 7769SOL     OW24205   4.513   1.577   3.937
 7769SOL    HW124206   4.578   1.502   3.927
 7769SOL    HW224207   4.470   1.597   3.849
 7770SOL     OW24208   1.874   4.320   4.230
 7770SOL    HW124209   1.791   4.374   4.245
 7770SOL    HW224210   1.876   4.244   4.294
 7771SOL     OW24211   3.634   1.988   5.394
 7771SOL    HW124212   3.725   1.974   5.354
 7771SOL    HW224213   3.570   1.923   5.353
 7772SOL     OW24214   4.264   0.078   2.036
 7772SOL    HW124215   4.175   0.086   2.082
 7772SOL    HW224216   4.333   0.127   2.090
 7773SOL     OW24217   2.273   5.668   5.162
 7773SOL    HW124218   2.338   5.664   5.238
 7773SOL    HW224219   2.303   5.738   5.097
 7774SOL     OW24220   5.087   1.881   4.637
 7774SOL    HW124221   5.177   1.839   4.625
 7774SOL    HW224222   5.067   1.941   4.559
 7775SOL     OW24223   4.711   6.083   0.348
 7775SOL    HW124224   4.638   6.019   0.324
 7775SOL    HW224225   4.677   6.146   0.419
 7776SOL     OW24226   0.322   6.111   6.669
 7776SOL    HW124227   0.296   6.016   6.686
 7776SOL    HW224228   0.346   6.123   6.573
 7777SOL     OW24229   5.904   5.717   3.859
 7777SOL    HW124230   5.838   5.642   3.853
 7777SOL    HW224231   5.978   5.701   3.794
 7778SOL     OW24232   5.503   3.922   0.601
 7778SOL    HW124233   5.490   3.943   0.504
 7778SOL    HW224234   5.516   3.824   0.613
 7779SOL     OW24235   2.477   1.993   1.470
 7779SOL    HW124236   2.459   1.895   1.485
 7779SOL    HW224237   2.430   2.023   1.387
 7780SOL     OW24238   0.466   5.066   5.205
 7780SOL    HW124239   0.518   5.121   5.271
 7780SOL    HW224240   0.475   4.969   5.227
 7781SOL     OW24241   2.413   4.264   1.223
 7781SOL    HW124242   2.445   4.339   1.165
 7781SOL    HW224243   2.324   4.287   1.260
 7782SOL     OW24244   5.365   5.076   4.722
 7782SOL    HW124245   5.290   5.072   4.657
 7782SOL    HW224246   5.451   5.091   4.673
 7783SOL     OW24247   0.698   6.813   5.697
 7783SOL    HW124248   0.790   6.802   5.660
 7783SOL    HW224249   0.633   6.762   5.641
 7784SOL     OW24250   3.621   2.828   1.993
 7784SOL    HW124251   3.580   2.805   2.081
 7784SOL    HW224252   3.708   2.875   2.008
 7785SOL     OW24253   1.828   6.300   5.222
 7785SOL    HW124254   1.802   6.236   5.295
 7785SOL    HW224255   1.910   6.266   5.175
 7786SOL     OW24256   3.637   6.686   0.900
 7786SOL    HW124257   3.581   6.712   0.978
 7786SOL    HW224258   3.720   6.742   0.898
 7787SOL     OW24259   2.507   2.892   7.002
 7787SOL    HW124260   2.583   2.840   6.963
 7787SOL    HW224261   2.499   2.980   6.954
 7788SOL     OW24262   1.725   5.004   1.296
 7788SOL    HW124263   1.771   4.938   1.237
 7788SOL    HW224264   1.792   5.070   1.330
 7789SOL     OW24265   2.416   0.035   6.528
 7789SOL    HW124266   2.321   0.002   6.534
 7789SOL    HW224267   2.444   0.071   6.617
 7790SOL     OW24268   5.290   5.382   2.786
 7790SOL    HW124269   5.356   5.457   2.800
 7790SOL    HW224270   5.200   5.421   2.769
 7791SOL     OW24271   2.221   5.173   2.700
 7791SOL    HW124272   2.287   5.211   2.765
 7791SOL    HW224273   2.159   5.246   2.670
 7792SOL     OW24274   2.107   5.537   4.718
 7792SOL    HW124275   2.072   5.549   4.626
 7792SOL    HW224276   2.036   5.498   4.776
 7793SOL     OW24277   3.924   1.049   0.380
 7793SOL    HW124278   3.986   1.083   0.451
 7793SOL    HW224279   3.925   1.111   0.301
 7794SOL     OW24280   6.155   3.981   2.328
 7794SOL    HW124281   6.104   3.896   2.319
 7794SOL    HW224282   6.195   4.006   2.240
 7795SOL     OW24283   1.858   4.565   5.408
 7795SOL    HW124284   1.815   4.492   5.355
 7795SOL    HW224285   1.804   4.649   5.400
 7796SOL     OW24286   3.434   2.834   4.889
 7796SOL    HW124287   3.439   2.900   4.814
 7796SOL    HW224288   3.439   2.741   4.853
 7797SOL     OW24289   1.587   6.604   1.558
 7797SOL    HW124290   1.612   6.615   1.461
 7797SOL    HW224291   1.623   6.518   1.593
 7798SOL     OW24292   1.107   2.935   3.515
 7798SOL    HW124293   1.192   2.938   3.568
 7798SOL    HW224294   1.040   2.877   3.562
 7799SOL     OW24295   1.540   5.271   2.552
 7799SOL    HW124296   1.442   5.260   2.533
 7799SOL    HW224297   1.580   5.331   2.483
 7800SOL     OW24298   0.834   5.654   2.895
 7800SOL    HW124299   0.905   5.591   2.929
 7800SOL    HW224300   0.767   5.602   2.842
 7801SOL     OW24301   2.075   1.719   1.427
 7801SOL    HW124302   2.114   1.718   1.519
 7801SOL    HW224303   2.148   1.709   1.359
 7802SOL     OW24304   6.345   2.706   1.306
 7802SOL    HW124305   6.301   2.775   1.363
 7802SOL    HW224306   6.419   2.662   1.358
 7803SOL     OW24307   4.119   2.241   6.376
 7803SOL    HW124308   4.072   2.324   6.406
 7803SOL    HW224309   4.137   2.183   6.455
 7804SOL     OW24310   4.498   2.357   5.198
 7804SOL    HW124311   4.517   2.452   5.171
 7804SOL    HW224312   4.576   2.320   5.247
 7805SOL     OW24313   5.385   3.252   1.507
 7805SOL    HW124314   5.423   3.191   1.576
 7805SOL    HW224315   5.303   3.210   1.467
 7806SOL     OW24316   5.880   1.275   6.070
 7806SOL    HW124317   5.786   1.242   6.073
 7806SOL    HW224318   5.898   1.332   6.151
 7807SOL     OW24319   0.923   4.071   6.397
 7807SOL    HW124320   0.888   4.055   6.305
 7807SOL    HW224321   0.962   3.986   6.433
 7808SOL     OW24322   5.769   3.016   4.099
 7808SOL    HW124323   5.692   2.992   4.041
 7808SOL    HW224324   5.757   3.109   4.134
 7809SOL     OW24325   4.605   4.905   4.982
 7809SOL    HW124326   4.606   4.991   4.930
 7809SOL    HW224327   4.554   4.836   4.931
 7810SOL     OW24328   3.494   6.836   5.106
 7810SOL    HW124329   3.577   6.839   5.051
 7810SOL    HW224330   3.441   6.755   5.082
 7811SOL     OW24331   1.334   5.366   1.556
 7811SOL    HW124332   1.272   5.440   1.585
 7811SOL    HW224333   1.300   5.279   1.590
 7812SOL     OW24334   0.697   2.690   4.327
 7812SOL    HW124335   0.644   2.620   4.279
 7812SOL    HW224336   0.650   2.716   4.411
 7813SOL     OW24337   4.234   2.110   0.829
 7813SOL    HW124338   4.137   2.100   0.807
 7813SOL    HW224339   4.245   2.130   0.926
 7814SOL     OW24340   6.673   3.130   3.165
 7814SOL    HW124341   6.612   3.187   3.109
 7814SOL    HW224342   6.697   3.179   3.248
 7815SOL     OW24343   5.669   1.884   4.330
 7815SOL    HW124344   5.629   1.939   4.403
 7815SOL    HW224345   5.768   1.898   4.329
 7816SOL     OW24346   1.867   2.275   6.320
 7816SOL    HW124347   1.949   2.285   6.263
 7816SOL    HW224348   1.789   2.316   6.273
 7817SOL     OW24349   4.581   4.385   4.253
 7817SOL    HW124350   4.620   4.349   4.338
 7817SOL    HW224351   4.504   4.444   4.274
 7818SOL     OW24352   5.234   0.139   2.504
 7818SOL    HW124353   5.263   0.144   2.600
 7818SOL    HW224354   5.315   0.134   2.445
 7819SOL     OW24355   6.912   3.960   3.807
 7819SOL    HW124356   6.957   3.878   3.843
 7819SOL    HW224357   6.928   4.037   3.869
 7820SOL     OW24358   1.378   1.463   5.625
 7820SOL    HW124359   1.401   1.388   5.687
 7820SOL    HW224360   1.462   1.510   5.597
 7821SOL     OW24361   5.392   5.147   0.202
 7821SOL    HW124362   5.400   5.057   0.159
 7821SOL    HW224363   5.456   5.153   0.279
 7822SOL     OW24364   0.805   1.100   7.026
 7822SOL    HW124365   0.823   1.147   0.085
 7822SOL    HW224366   0.709   1.075   7.020
 7823SOL     OW24367   3.051   3.566   5.904
 7823SOL    HW124368   2.985   3.624   5.953
 7823SOL    HW224369   3.003   3.510   5.837
 7824SOL     OW24370   5.759   0.807   3.956
 7824SOL    HW124371   5.770   0.785   3.859
 7824SOL    HW224372   5.837   0.774   4.008
 7825SOL     OW24373   1.083   3.342   1.115
 7825SOL    HW124374   1.037   3.414   1.063
 7825SOL    HW224375   1.035   3.255   1.102
 7826SOL     OW24376   6.305   1.705   6.595
 7826SOL    HW124377   6.400   1.736   6.601
 7826SOL    HW224378   6.251   1.752   6.666
 7827SOL     OW24379   2.956   4.244   0.843
 7827SOL    HW124380   2.970   4.155   0.887
 7827SOL    HW224381   2.870   4.284   0.874
 7828SOL     OW24382   0.695   5.456   0.433
 7828SOL    HW124383   0.720   5.416   0.521
 7828SOL    HW224384   0.626   5.398   0.388
 7829SOL     OW24385   2.443   3.183   0.113
 7829SOL    HW124386   2.466   3.279   0.100
 7829SOL    HW224387   2.430   3.139   0.024
 7830SOL     OW24388   4.291   3.629   5.949
 7830SOL    HW124389   4.221   3.565   5.980
 7830SOL    HW224390   4.302   3.701   6.016
 7831SOL     OW24391   1.485   5.827   1.005
 7831SOL    HW124392   1.406   5.770   0.980
 7831SOL    HW224393   1.495   5.828   1.105
 7832SOL     OW24394   3.839   1.346   4.384
 7832SOL    HW124395   3.834   1.253   4.350
 7832SOL    HW224396   3.791   1.408   4.322
 7833SOL     OW24397   0.545   0.977   6.999
 7833SOL    HW124398   0.459   1.004   0.013
 7833SOL    HW224399   0.559   0.879   7.010
 7834SOL     OW24400   0.446   1.048   3.860
 7834SOL    HW124401   0.404   1.139   3.870
 7834SOL    HW224402   0.376   0.978   3.869
 7835SOL     OW24403   2.350   2.370   4.779
 7835SOL    HW124404   2.429   2.422   4.748
 7835SOL    HW224405   2.318   2.406   4.867
 7836SOL     OW24406   3.127   2.885   5.248
 7836SOL    HW124407   3.161   2.792   5.238
 7836SOL    HW224408   3.170   2.928   5.327
 7837SOL     OW24409   6.864   5.577   1.291
 7837SOL    HW124410   6.780   5.556   1.241
 7837SOL    HW224411   6.942   5.531   1.247
 7838SOL     OW24412   4.008   6.152   0.458
 7838SOL    HW124413   3.913   6.121   0.456
 7838SOL    HW224414   4.029   6.191   0.547
 7839SOL     OW24415   6.027   4.724   4.979
 7839SOL    HW124416   5.966   4.757   5.051
 7839SOL    HW224417   6.104   4.674   5.021
 7840SOL     OW24418   5.011   2.825   4.662
 7840SOL    HW124419   5.094   2.829   4.718
 7840SOL    HW224420   4.940   2.882   4.703
 7841SOL     OW24421   4.691   1.601   6.839
 7841SOL    HW124422   4.728   1.665   6.905
 7841SOL    HW224423   4.681   1.646   6.750
 7842SOL     OW24424   1.751   1.468   2.514
 7842SOL    HW124425   1.770   1.426   2.603
 7842SOL    HW224426   1.754   1.567   2.522
 7843SOL     OW24427   4.761   4.670   1.878
 7843SOL    HW124428   4.697   4.596   1.854
 7843SOL    HW224429   4.784   4.664   1.975
 7844SOL     OW24430   4.607   6.834   3.472
 7844SOL    HW124431   4.557   6.893   3.409
 7844SOL    HW224432   4.573   6.740   3.464
 7845SOL     OW24433   5.813   1.571   4.429
 7845SOL    HW124434   5.836   1.553   4.333
 7845SOL    HW224435   5.860   1.653   4.460
 7846SOL     OW24436   1.134   1.572   1.952
 7846SOL    HW124437   1.124   1.473   1.940
 7846SOL    HW224438   1.146   1.616   1.863
 7847SOL     OW24439   6.533   1.784   2.329
 7847SOL    HW124440   6.526   1.770   2.428
 7847SOL    HW224441   6.629   1.779   2.302
 7848SOL     OW24442   2.810   2.920   0.734
 7848SOL    HW124443   2.769   2.911   0.825
 7848SOL    HW224444   2.749   2.972   0.675
 7849SOL     OW24445   4.930   3.747   3.332
 7849SOL    HW124446   4.996   3.674   3.350
 7849SOL    HW224447   4.914   3.798   3.416
 7850SOL     OW24448   0.797   1.601   3.656
 7850SOL    HW124449   0.822   1.626   3.749
 7850SOL    HW224450   0.772   1.504   3.653
 7851SOL     OW24451   6.520   0.605   1.170
 7851SOL    HW124452   6.515   0.568   1.263
 7851SOL    HW224453   6.605   0.575   1.127
 7852SOL     OW24454   2.855   0.606   5.585
 7852SOL    HW124455   2.845   0.573   5.679
 7852SOL    HW224456   2.909   0.541   5.532
 7853SOL     OW24457   4.253   1.439   2.049
 7853SOL    HW124458   4.286   1.359   2.098
 7853SOL    HW224459   4.163   1.465   2.085
 7854SOL     OW24460   2.939   3.177   0.089
 7854SOL    HW124461   2.886   3.145   0.168
 7854SOL    HW224462   3.037   3.172   0.110
 7855SOL     OW24463   3.138   5.837   5.856
 7855SOL    HW124464   3.156   5.784   5.773
 7855SOL    HW224465   3.051   5.809   5.895
 7856SOL     OW24466   5.682   5.181   4.898
 7856SOL    HW124467   5.663   5.163   4.802
 7856SOL    HW224468   5.759   5.124   4.928
 7857SOL     OW24469   6.049   2.667   5.445
 7857SOL    HW124470   6.040   2.665   5.544
 7857SOL    HW224471   6.114   2.738   5.418
 7858SOL     OW24472   5.036   4.923   3.664
 7858SOL    HW124473   4.982   4.979   3.727
 7858SOL    HW224474   5.088   4.982   3.603
 7859SOL     OW24475   5.996   3.186   5.687
 7859SOL    HW124476   5.926   3.216   5.623
 7859SOL    HW224477   6.001   3.250   5.764
 7860SOL     OW24478   4.481   0.177   2.791
 7860SOL    HW124479   4.503   0.220   2.703
 7860SOL    HW224480   4.529   0.090   2.799
 7861SOL     OW24481   3.988   5.151   1.780
 7861SOL    HW124482   4.049   5.219   1.741
 7861SOL    HW224483   4.002   5.146   1.879
 7862SOL     OW24484   3.120   4.257   1.582
 7862SOL    HW124485   3.045   4.197   1.553
 7862SOL    HW224486   3.153   4.228   1.672
 7863SOL     OW24487   6.715   6.114   3.797
 7863SOL    HW124488   6.697   6.029   3.846
 7863SOL    HW224489   6.722   6.190   3.862
 7864SOL     OW24490   0.218   6.688   5.610
 7864SOL    HW124491   0.188   6.677   5.705
 7864SOL    HW224492   0.177   6.617   5.553
 7865SOL     OW24493   5.403   6.952   4.449
 7865SOL    HW124494   5.333   7.024   4.458
 7865SOL    HW224495   5.374   6.886   4.379
 7866SOL     OW24496   2.104   2.388   6.881
 7866SOL    HW124497   2.194   2.363   6.917
 7866SOL    HW224498   2.033   2.354   6.943
 7867SOL     OW24499   5.722   6.716   2.587
 7867SOL    HW124500   5.785   6.782   2.544
 7867SOL    HW224501   5.628   6.742   2.566
 7868SOL     OW24502   5.883   6.469   2.248
 7868SOL    HW124503   5.881   6.369   2.239
 7868SOL    HW224504   5.805   6.508   2.199
 7869SOL     OW24505   5.540   3.153   6.649
 7869SOL    HW124506   5.493   3.152   6.561
 7869SOL    HW224507   5.577   3.245   6.666
 7870SOL     OW24508   4.457   5.097   4.461
 7870SOL    HW124509   4.414   5.011   4.488
 7870SOL    HW224510   4.388   5.169   4.459
 7871SOL     OW24511   5.568   3.212   2.549
 7871SOL    HW124512   5.644   3.231   2.487
 7871SOL    HW224513   5.588   3.251   2.639
 7872SOL     OW24514   2.333   4.323   2.917
 7872SOL    HW124515   2.347   4.377   2.834
 7872SOL    HW224516   2.379   4.367   2.994
 7873SOL     OW24517   5.782   0.907   5.265
 7873SOL    HW124518   5.809   0.835   5.329
 7873SOL    HW224519   5.685   0.927   5.277
 7874SOL     OW24520   5.393   1.594   0.771
 7874SOL    HW124521   5.416   1.555   0.682
 7874SOL    HW224522   5.297   1.575   0.793
 7875SOL     OW24523   4.712   2.482   6.485
 7875SOL    HW124524   4.645   2.447   6.420
 7875SOL    HW224525   4.738   2.575   6.460
 7876SOL     OW24526   0.017   0.025   5.425
 7876SOL    HW124527   7.003   6.964   5.406
 7876SOL    HW224528   7.014   0.058   5.514
 7877SOL     OW24529   6.865   2.950   3.107
 7877SOL    HW124530   6.793   3.014   3.135
 7877SOL    HW224531   6.885   2.963   3.010
 7878SOL     OW24532   5.090   5.062   4.228
 7878SOL    HW124533   5.086   5.009   4.144
 7878SOL    HW224534   5.034   5.018   4.299
 7879SOL     OW24535   4.436   5.573   3.406
 7879SOL    HW124536   4.486   5.658   3.395
 7879SOL    HW224537   4.499   5.499   3.430
 7880SOL     OW24538   2.224   5.293   1.466
 7880SOL    HW124539   2.198   5.230   1.393
 7880SOL    HW224540   2.324   5.297   1.473
 7881SOL     OW24541   5.629   4.019   4.859
 7881SOL    HW124542   5.659   3.958   4.786
 7881SOL    HW224543   5.553   4.076   4.827
 7882SOL     OW24544   1.102   3.699   2.226
 7882SOL    HW124545   1.004   3.678   2.230
 7882SOL    HW224546   1.121   3.779   2.284
 7883SOL     OW24547   1.525   6.775   1.049
 7883SOL    HW124548   1.435   6.813   1.068
 7883SOL    HW224549   1.538   6.691   1.102
 7884SOL     OW24550   2.060   3.693   3.888
 7884SOL    HW124551   2.108   3.625   3.944
 7884SOL    HW224552   2.064   3.665   3.792
 7885SOL     OW24553   5.960   6.490   1.449
 7885SOL    HW124554   6.021   6.566   1.474
 7885SOL    HW224555   5.942   6.435   1.530
 7886SOL     OW24556   3.842   5.394   1.529
 7886SOL    HW124557   3.820   5.474   1.473
 7886SOL    HW224558   3.786   5.316   1.499
 7887SOL     OW24559   3.351   2.592   5.314
 7887SOL    HW124560   3.396   2.661   5.259
 7887SOL    HW224561   3.297   2.532   5.255
 7888SOL     OW24562   7.019   0.509   5.022
 7888SOL    HW124563   0.079   0.463   5.032
 7888SOL    HW224564   7.010   0.580   5.092
 7889SOL     OW24565   0.934   5.065   6.878
 7889SOL    HW124566   0.985   5.044   6.794
 7889SOL    HW224567   0.965   5.152   6.915
 7890SOL     OW24568   0.411   3.157   3.511
 7890SOL    HW124569   0.380   3.065   3.490
 7890SOL    HW224570   0.482   3.153   3.581
 7891SOL     OW24571   1.866   4.288   4.597
 7891SOL    HW124572   1.908   4.288   4.688
 7891SOL    HW224573   1.861   4.382   4.563
 7892SOL     OW24574   1.966   1.815   4.166
 7892SOL    HW124575   1.981   1.913   4.173
 7892SOL    HW224576   1.988   1.785   4.073
 7893SOL     OW24577   6.249   6.799   1.718
 7893SOL    HW124578   6.319   6.847   1.771
 7893SOL    HW224579   6.248   6.702   1.744
 7894SOL     OW24580   3.146   0.591   1.098
 7894SOL    HW124581   3.063   0.544   1.067
 7894SOL    HW224582   3.172   0.659   1.030
 7895SOL     OW24583   5.008   0.538   4.932
 7895SOL    HW124584   5.069   0.556   4.855
 7895SOL    HW224585   4.921   0.586   4.918
 7896SOL     OW24586   4.572   2.771   0.890
 7896SOL    HW124587   4.656   2.768   0.945
 7896SOL    HW224588   4.571   2.694   0.827
 7897SOL     OW24589   3.321   2.175   1.468
 7897SOL    HW124590   3.335   2.219   1.557
 7897SOL    HW224591   3.408   2.134   1.438
 7898SOL     OW24592   3.943   6.899   3.932
 7898SOL    HW124593   3.887   6.944   3.863
 7898SOL    HW224594   4.022   6.956   3.955
 7899SOL     OW24595   5.641   0.060   1.219
 7899SOL    HW124596   5.690   0.035   1.134
 7899SOL    HW224597   5.581   0.137   1.201
 7900SOL     OW24598   1.126   5.598   1.638
 7900SOL    HW124599   1.070   5.535   1.691
 7900SOL    HW224600   1.068   5.668   1.597
 7901SOL     OW24601   3.784   0.872   6.685
 7901SOL    HW124602   3.876   0.860   6.649
 7901SOL    HW224603   3.788   0.908   6.778
 7902SOL     OW24604   6.581   6.279   1.982
 7902SOL    HW124605   6.596   6.264   1.884
 7902SOL    HW224606   6.618   6.202   2.034
 7903SOL     OW24607   4.624   1.927   3.175
 7903SOL    HW124608   4.583   1.863   3.110
 7903SOL    HW224609   4.619   1.888   3.267
 7904SOL     OW24610   6.127   6.532   2.738
 7904SOL    HW124611   6.124   6.542   2.639
 7904SOL    HW224612   6.041   6.564   2.778
 7905SOL     OW24613   5.910   2.564   0.816
 7905SOL    HW124614   5.959   2.508   0.749
 7905SOL    HW224615   5.901   2.513   0.902
 7906SOL     OW24616   0.615   5.131   0.728
 7906SOL    HW124617   0.617   5.059   0.659
 7906SOL    HW224618   0.668   5.209   0.695
 7907SOL     OW24619   5.833   1.977   3.840
 7907SOL    HW124620   5.781   2.003   3.921
 7907SOL    HW224621   5.930   1.994   3.855
 7908SOL     OW24622   1.821   0.812   5.782
 7908SOL    HW124623   1.800   0.878   5.853
 7908SOL    HW224624   1.743   0.752   5.768
 7909SOL     OW24625   5.089   4.380   4.036
 7909SOL    HW124626   5.009   4.416   4.084
 7909SOL    HW224627   5.153   4.455   4.017
 7910SOL     OW24628   2.687   3.356   0.280
 7910SOL    HW124629   2.650   3.372   0.188
 7910SOL    HW224630   2.648   3.272   0.317
 7911SOL     OW24631   0.628   4.735   0.253
 7911SOL    HW124632   0.548   4.788   0.279
 7911SOL    HW224633   0.660   4.764   0.162
 7912SOL     OW24634   6.185   4.395   1.267
 7912SOL    HW124635   6.167   4.324   1.199
 7912SOL    HW224636   6.190   4.354   1.358
 7913SOL     OW24637   1.381   4.228   1.509
 7913SOL    HW124638   1.351   4.192   1.597
 7913SOL    HW224639   1.464   4.179   1.480
 7914SOL     OW24640   0.010   4.768   0.619
 7914SOL    HW124641   0.043   4.760   0.713
 7914SOL    HW224642   7.002   4.860   0.603
 7915SOL     OW24643   4.716   2.150   1.763
 7915SOL    HW124644   4.696   2.079   1.830
 7915SOL    HW224645   4.643   2.219   1.765
 7916SOL     OW24646   0.052   6.772   6.025
 7916SOL    HW124647   0.004   6.757   5.939
 7916SOL    HW224648   7.026   6.735   6.101
 7917SOL     OW24649   3.238   3.005   5.036
 7917SOL    HW124650   3.222   2.960   5.124
 7917SOL    HW224651   3.301   2.950   4.982
 7918SOL     OW24652   6.903   1.418   4.735
 7918SOL    HW124653   6.893   1.517   4.746
 7918SOL    HW224654   6.838   1.384   4.667
 7919SOL     OW24655   1.224   4.485   3.303
 7919SOL    HW124656   1.159   4.428   3.254
 7919SOL    HW224657   1.285   4.427   3.358
 7920SOL     OW24658   6.729   0.395   0.336
 7920SOL    HW124659   6.739   0.388   0.435
 7920SOL    HW224660   6.773   0.317   0.292
 7921SOL     OW24661   5.908   6.335   1.664
 7921SOL    HW124662   5.867   6.358   1.752
 7921SOL    HW224663   5.989   6.279   1.678
 7922SOL     OW24664   0.204   6.229   1.118
 7922SOL    HW124665   0.121   6.255   1.068
 7922SOL    HW224666   0.224   6.133   1.102
 7923SOL     OW24667   4.073   0.868   6.612
 7923SOL    HW124668   4.108   0.788   6.660
 7923SOL    HW224669   4.148   0.934   6.598
 7924SOL     OW24670   5.185   0.079   2.184
 7924SOL    HW124671   5.181   0.164   2.132
 7924SOL    HW224672   5.152   0.004   2.128
 7925SOL     OW24673   0.843   0.315   0.328
 7925SOL    HW124674   0.753   0.357   0.339
 7925SOL    HW224675   0.844   0.261   0.244
 7926SOL     OW24676   3.958   1.883   6.694
 7926SOL    HW124677   3.941   1.953   6.765
 7926SOL    HW224678   3.870   1.855   6.655
 7927SOL     OW24679   4.430   5.876   3.037
 7927SOL    HW124680   4.405   5.840   2.947
 7927SOL    HW224681   4.382   5.963   3.052
 7928SOL     OW24682   1.632   1.903   4.233
 7928SOL    HW124683   1.728   1.884   4.254
 7928SOL    HW224684   1.585   1.931   4.317
 7929SOL     OW24685   4.337   3.991   5.437
 7929SOL    HW124686   4.359   3.907   5.487
 7929SOL    HW224687   4.407   4.008   5.368
 7930SOL     OW24688   4.296   5.073   5.130
 7930SOL    HW124689   4.297   4.990   5.074
 7930SOL    HW224690   4.251   5.147   5.080
 7931SOL     OW24691   3.156   2.993   6.670
 7931SOL    HW124692   3.182   3.087   6.689
 7931SOL    HW224693   3.066   2.991   6.626
 7932SOL     OW24694   1.123   6.604   6.548
 7932SOL    HW124695   1.108   6.512   6.513
 7932SOL    HW224696   1.216   6.634   6.527
 7933SOL     OW24697   6.899   6.859   6.539
 7933SOL    HW124698   6.875   6.945   6.494
 7933SOL    HW224699   6.950   6.878   6.623
 7934SOL     OW24700   1.264   5.006   6.114
 7934SOL    HW124701   1.211   4.924   6.093
 7934SOL    HW224702   1.349   4.981   6.159
 7935SOL     OW24703   5.726   6.220   1.121
 7935SOL    HW124704   5.706   6.296   1.183
 7935SOL    HW224705   5.645   6.161   1.114
 7936SOL     OW24706   3.217   5.727   1.724
 7936SOL    HW124707   3.234   5.742   1.627
 7936SOL    HW224708   3.206   5.629   1.741
 7937SOL     OW24709   6.659   5.884   3.942
 7937SOL    HW124710   6.749   5.862   3.980
 7937SOL    HW224711   6.591   5.884   4.015
 7938SOL     OW24712   6.268   6.034   3.899
 7938SOL    HW124713   6.277   5.973   3.977
 7938SOL    HW224714   6.200   5.998   3.835
 7939SOL     OW24715   1.928   2.464   4.430
 7939SOL    HW124716   1.904   2.552   4.389
 7939SOL    HW224717   1.981   2.479   4.513
 7940SOL     OW24718   1.609   3.972   1.917
 7940SOL    HW124719   1.624   3.926   2.004
 7940SOL    HW224720   1.695   3.976   1.866
 7941SOL     OW24721   6.096   6.712   1.197
 7941SOL    HW124722   6.191   6.682   1.187
 7941SOL    HW224723   6.074   6.717   1.295
 7942SOL     OW24724   6.736   5.105   2.412
 7942SOL    HW124725   6.690   5.018   2.394
 7942SOL    HW224726   6.783   5.136   2.329
 7943SOL     OW24727   0.452   3.983   6.418
 7943SOL    HW124728   0.396   4.055   6.460
 7943SOL    HW224729   0.392   3.915   6.376
 7944SOL     OW24730   0.856   2.607   0.800
 7944SOL    HW124731   0.915   2.638   0.725
 7944SOL    HW224732   0.776   2.667   0.806
 7945SOL     OW24733   6.406   5.422   1.286
 7945SOL    HW124734   6.395   5.346   1.349
 7945SOL    HW224735   6.333   5.421   1.218
 7946SOL     OW24736   3.965   0.419   5.931
 7946SOL    HW124737   4.047   0.435   5.875
 7946SOL    HW224738   3.988   0.360   6.008
 7947SOL     OW24739   3.533   1.273   5.727
 7947SOL    HW124740   3.620   1.309   5.693
 7947SOL    HW224741   3.491   1.216   5.656
 7948SOL     OW24742   1.187   6.445   1.142
 7948SOL    HW124743   1.243   6.412   1.067
 7948SOL    HW224744   1.226   6.529   1.179
 7949SOL     OW24745   4.836   4.181   5.552
 7949SOL    HW124746   4.887   4.113   5.498
 7949SOL    HW224747   4.843   4.158   5.649
 7950SOL     OW24748   4.963   5.275   3.882
 7950SOL    HW124749   4.944   5.177   3.877
 7950SOL    HW224750   5.058   5.289   3.909
 7951SOL     OW24751   2.007   4.792   2.400
 7951SOL    HW124752   1.911   4.796   2.370
 7951SOL    HW224753   2.012   4.746   2.489
 7952SOL     OW24754   6.954   3.426   6.447
 7952SOL    HW124755   0.012   3.374   6.451
 7952SOL    HW224756   6.888   3.385   6.510
 7953SOL     OW24757   3.280   2.136   3.322
 7953SOL    HW124758   3.260   2.105   3.229
 7953SOL    HW224759   3.378   2.127   3.340
 7954SOL     OW24760   3.564   4.564   5.781
 7954SOL    HW124761   3.640   4.608   5.829
 7954SOL    HW224762   3.489   4.549   5.845
 7955SOL     OW24763   3.000   1.055   6.739
 7955SOL    HW124764   3.023   0.966   6.780
 7955SOL    HW224765   2.935   1.102   6.798
 7956SOL     OW24766   4.707   6.182   1.905
 7956SOL    HW124767   4.675   6.175   1.999
 7956SOL    HW224768   4.718   6.091   1.865
 7957SOL     OW24769   1.022   0.442   1.493
 7957SOL    HW124770   1.047   0.376   1.564
 7957SOL    HW224771   0.974   0.395   1.419
 7958SOL     OW24772   3.987   4.898   5.162
 7958SOL    HW124773   3.917   4.924   5.096
 7958SOL    HW224774   4.065   4.857   5.115
 7959SOL     OW24775   4.932   5.471   0.750
 7959SOL    HW124776   5.030   5.461   0.732
 7959SOL    HW224777   4.881   5.463   0.664
 7960SOL     OW24778   2.509   1.784   5.913
 7960SOL    HW124779   2.596   1.746   5.945
 7960SOL    HW224780   2.521   1.822   5.822
 7961SOL     OW24781   0.113   1.255   0.755
 7961SOL    HW124782   0.086   1.218   0.844
 7961SOL    HW224783   0.210   1.276   0.756
 7962SOL     OW24784   1.557   0.686   5.749
 7962SOL    HW124785   1.568   0.601   5.801
 7962SOL    HW224786   1.481   0.676   5.685
 7963SOL     OW24787   6.557   6.624   4.626
 7963SOL    HW124788   6.646   6.655   4.593
 7963SOL    HW224789   6.493   6.701   4.627
 7964SOL     OW24790   6.988   4.034   2.810
 7964SOL    HW124791   6.993   4.021   2.909
 7964SOL    HW224792   6.892   4.030   2.781
 7965SOL     OW24793   4.069   2.470   6.056
 7965SOL    HW124794   3.970   2.481   6.046
 7965SOL    HW224795   4.116   2.550   6.018
 7966SOL     OW24796   2.364   2.775   5.904
 7966SOL    HW124797   2.365   2.706   5.832
 7966SOL    HW224798   2.325   2.736   5.987
 7967SOL     OW24799   3.743   6.435   2.640
 7967SOL    HW124800   3.821   6.486   2.676
 7967SOL    HW224801   3.691   6.494   2.578
 7968SOL     OW24802   1.144   2.442   3.891
 7968SOL    HW124803   1.224   2.381   3.883
 7968SOL    HW224804   1.097   2.422   3.976
 7969SOL     OW24805   4.644   5.849   0.740
 7969SOL    HW124806   4.657   5.784   0.815
 7969SOL    HW224807   4.696   5.932   0.757
 7970SOL     OW24808   6.670   2.590   2.236
 7970SOL    HW124809   6.613   2.668   2.262
 7970SOL    HW224810   6.742   2.577   2.305
 7971SOL     OW24811   3.053   2.045   1.031
 7971SOL    HW124812   2.956   2.021   1.036
 7971SOL    HW224813   3.073   2.082   0.940
 7972SOL     OW24814   2.203   3.158   0.274
 7972SOL    HW124815   2.282   3.170   0.214
 7972SOL    HW224816   2.143   3.087   0.236
 7973SOL     OW24817   4.359   4.897   4.660
 7973SOL    HW124818   4.386   4.848   4.743
 7973SOL    HW224819   4.284   4.849   4.616
 7974SOL     OW24820   5.987   0.842   5.082
 7974SOL    HW124821   6.071   0.842   5.136
 7974SOL    HW224822   5.910   0.868   5.140
 7975SOL     OW24823   6.050   1.349   2.053
 7975SOL    HW124824   6.128   1.338   1.992
 7975SOL    HW224825   5.983   1.410   2.011
 7976SOL     OW24826   0.444   0.502   6.402
 7976SOL    HW124827   0.471   0.422   6.347
 7976SOL    HW224828   0.498   0.505   6.486
 7977SOL     OW24829   4.842   5.835   2.908
 7977SOL    HW124830   4.831   5.752   2.963
 7977SOL    HW224831   4.848   5.811   2.812
 7978SOL     OW24832   6.197   2.882   6.229
 7978SOL    HW124833   6.158   2.941   6.299
 7978SOL    HW224834   6.127   2.863   6.160
 7979SOL     OW24835   4.147   6.246   5.718
 7979SOL    HW124836   4.122   6.328   5.666
 7979SOL    HW224837   4.126   6.164   5.665
 7980SOL     OW24838   3.173   5.637   0.060
 7980SOL    HW124839   3.250   5.575   0.068
 7980SOL    HW224840   3.152   5.652   6.991
 7981SOL     OW24841   0.735   4.843   1.947
 7981SOL    HW124842   0.731   4.941   1.928
 7981SOL    HW224843   0.700   4.825   2.038
 7982SOL     OW24844   2.175   1.209   0.062
 7982SOL    HW124845   2.271   1.216   0.091
 7982SOL    HW224846   2.131   1.135   0.111
 7983SOL     OW24847   6.717   2.097   1.529
 7983SOL    HW124848   6.666   2.011   1.523
 7983SOL    HW224849   6.799   2.091   1.471
 7984SOL     OW24850   1.030   1.313   0.964
 7984SOL    HW124851   1.102   1.302   1.033
 7984SOL    HW224852   0.955   1.251   0.984
 7985SOL     OW24853   3.360   0.601   4.516
 7985SOL    HW124854   3.385   0.506   4.501
 7985SOL    HW224855   3.434   0.661   4.483
 7986SOL     OW24856   3.169   1.149   6.384
 7986SOL    HW124857   3.082   1.100   6.377
 7986SOL    HW224858   3.245   1.084   6.382
 7987SOL     OW24859   1.892   2.353   0.006
 7987SOL    HW124860   1.866   2.424   0.071
 7987SOL    HW224861   1.831   2.356   6.955
 7988SOL     OW24862   0.343   2.134   3.317
 7988SOL    HW124863   0.301   2.043   3.315
 7988SOL    HW224864   0.272   2.204   3.308
 7989SOL     OW24865   2.892   3.378   6.749
 7989SOL    HW124866   2.945   3.463   6.747
 7989SOL    HW224867   2.952   3.301   6.771
 7990SOL     OW24868   0.927   4.764   4.262
 7990SOL    HW124869   0.893   4.707   4.188
 7990SOL    HW224870   0.980   4.708   4.326
 7991SOL     OW24871   5.469   0.011   3.435
 7991SOL    HW124872   5.440   0.102   3.407
 7991SOL    HW224873   5.458   6.976   3.358
 7992SOL     OW24874   0.765   6.916   0.922
 7992SOL    HW124875   0.806   7.007   0.921
 7992SOL    HW224876   0.665   6.924   0.924
 7993SOL     OW24877   0.443   0.044   0.708
 7993SOL    HW124878   0.473   0.081   0.796
 7993SOL    HW224879   0.379   0.108   0.665
 7994SOL     OW24880   4.075   6.805   3.469
 7994SOL    HW124881   4.133   6.844   3.540
 7994SOL    HW224882   4.105   6.839   3.379
 7995SOL     OW24883   5.593   6.147   3.758
 7995SOL    HW124884   5.637   6.191   3.681
 7995SOL    HW224885   5.504   6.110   3.730
 7996SOL     OW24886   2.574   7.018   4.854
 7996SOL    HW124887   2.481   0.026   4.855
 7996SOL    HW224888   2.595   6.976   4.942
 7997SOL     OW24889   0.260   1.333   1.378
 7997SOL    HW124890   0.245   1.431   1.364
 7997SOL    HW224891   0.212   1.303   1.460
 7998SOL     OW24892   2.909   0.094   0.301
 7998SOL    HW124893   2.829   0.146   0.332
 7998SOL    HW224894   2.982   0.103   0.369
 7999SOL     OW24895   0.833   0.643   5.992
 7999SOL    HW124896   0.909   0.655   6.057
 7999SOL    HW224897   0.809   0.731   5.952
 8000SOL     OW24898   4.789   0.276   0.089
 8000SOL    HW124899   4.874   0.226   0.073
 8000SOL    HW224900   4.761   0.322   0.004
 8001SOL     OW24901   4.516   6.251   1.432
 8001SOL    HW124902   4.513   6.305   1.516
 8001SOL    HW224903   4.521   6.313   1.353
 8002SOL     OW24904   2.018   1.079   6.270
 8002SOL    HW124905   1.941   1.137   6.245
 8002SOL    HW224906   1.985   0.988   6.297
 8003SOL     OW24907   2.846   5.378   2.052
 8003SOL    HW124908   2.786   5.414   1.981
 8003SOL    HW224909   2.873   5.284   2.029
 8004SOL     OW24910   2.246   2.928   2.542
 8004SOL    HW124911   2.318   2.867   2.508
 8004SOL    HW224912   2.220   2.993   2.471
 8005SOL     OW24913   3.059   1.297   2.622
 8005SOL    HW124914   3.052   1.365   2.549
 8005SOL    HW224915   2.995   1.320   2.695
 8006SOL     OW24916   1.961   6.666   5.887
 8006SOL    HW124917   2.032   6.616   5.938
 8006SOL    HW224918   1.871   6.638   5.918
 8007SOL     OW24919   6.406   1.018   5.315
 8007SOL    HW124920   6.499   1.051   5.335
 8007SOL    HW224921   6.381   0.947   5.381
 8008SOL     OW24922   4.884   5.660   6.570
 8008SOL    HW124923   4.792   5.623   6.580
 8008SOL    HW224924   4.948   5.605   6.624
 8009SOL     OW24925   6.009   0.429   1.630
 8009SOL    HW124926   5.943   0.354   1.630
 8009SOL    HW224927   6.037   0.449   1.537
 8010SOL     OW24928   1.954   1.586   5.571
 8010SOL    HW124929   1.888   1.659   5.590
 8010SOL    HW224930   1.960   1.571   5.472
 8011SOL     OW24931   3.141   2.705   0.949
 8011SOL    HW124932   3.101   2.621   0.913
 8011SOL    HW224933   3.161   2.692   1.046
 8012SOL     OW24934   1.802   4.128   0.231
 8012SOL    HW124935   1.761   4.211   0.193
 8012SOL    HW224936   1.781   4.050   0.171
 8013SOL     OW24937   1.480   5.225   3.507
 8013SOL    HW124938   1.488   5.146   3.569
 8013SOL    HW224939   1.472   5.193   3.413
 8014SOL     OW24940   1.075   6.214   5.038
 8014SOL    HW124941   1.001   6.191   5.102
 8014SOL    HW224942   1.136   6.280   5.082
 8015SOL     OW24943   3.474   0.612   6.406
 8015SOL    HW124944   3.521   0.659   6.481
 8015SOL    HW224945   3.445   0.679   6.338
 8016SOL     OW24946   4.971   0.377   5.502
 8016SOL    HW124947   4.972   0.410   5.596
 8016SOL    HW224948   4.958   0.454   5.439
 8017SOL     OW24949   5.966   0.190   0.532
 8017SOL    HW124950   6.066   0.194   0.540
 8017SOL    HW224951   5.941   0.166   0.438
 8018SOL     OW24952   3.253   2.078   6.599
 8018SOL    HW124953   3.240   2.050   6.694
 8018SOL    HW224954   3.340   2.042   6.565
 8019SOL     OW24955   2.358   4.715   0.112
 8019SOL    HW124956   2.294   4.780   0.154
 8019SOL    HW224957   2.329   4.622   0.133
 8020SOL     OW24958   6.063   0.426   0.441
 8020SOL    HW124959   6.046   0.333   0.409
 8020SOL    HW224960   6.159   0.434   0.468
 8021SOL     OW24961   1.463   2.849   0.958
 8021SOL    HW124962   1.556   2.885   0.965
 8021SOL    HW224963   1.404   2.896   1.024
 8022SOL     OW24964   6.103   0.076   2.726
 8022SOL    HW124965   6.177   0.112   2.669
 8022SOL    HW224966   6.093   0.133   2.807
 8023SOL     OW24967   5.395   5.189   2.933
 8023SOL    HW124968   5.442   5.242   3.003
 8023SOL    HW224969   5.361   5.251   2.862
 8024SOL     OW24970   1.087   4.493   6.125
 8024SOL    HW124971   1.055   4.416   6.070
 8024SOL    HW224972   1.124   4.460   6.212
 8025SOL     OW24973   2.091   5.901   6.879
 8025SOL    HW124974   2.151   5.830   6.841
 8025SOL    HW224975   2.031   5.935   6.807
 8026SOL     OW24976   6.711   4.188   0.184
 8026SOL    HW124977   6.771   4.153   0.256
 8026SOL    HW224978   6.749   4.165   0.095
 8027SOL     OW24979   4.640   0.461   5.074
 8027SOL    HW124980   4.701   0.536   5.046
 8027SOL    HW224981   4.551   0.497   5.099
 8028SOL     OW24982   4.095   6.009   5.599
 8028SOL    HW124983   4.120   5.989   5.504
 8028SOL    HW224984   3.999   5.988   5.614
 8029SOL     OW24985   4.803   2.760   1.042
 8029SOL    HW124986   4.873   2.732   1.108
 8029SOL    HW224987   4.847   2.796   0.960
 8030SOL     OW24988   4.254   4.509   0.419
 8030SOL    HW124989   4.216   4.422   0.449
 8030SOL    HW224990   4.183   4.564   0.375
 8031SOL     OW24991   6.648   6.313   2.720
 8031SOL    HW124992   6.723   6.378   2.721
 8031SOL    HW224993   6.580   6.341   2.653
 8032SOL     OW24994   6.303   4.074   1.308
 8032SOL    HW124995   6.243   4.110   1.379
 8032SOL    HW224996   6.397   4.071   1.342
 8033SOL     OW24997   5.291   1.693   6.257
 8033SOL    HW124998   5.369   1.703   6.319
 8033SOL    HW224999   5.257   1.783   6.231
 8034SOL     OW25000   4.657   0.367   4.518
 8034SOL    HW125001   4.698   0.292   4.570
 8034SOL    HW225002   4.574   0.397   4.564
 8035SOL     OW25003   5.008   1.659   4.335
 8035SOL    HW125004   5.083   1.634   4.395
 8035SOL    HW225005   4.990   1.583   4.271
 8036SOL     OW25006   6.586   3.997   3.912
 8036SOL    HW125007   6.541   3.923   3.861
 8036SOL    HW225008   6.679   4.010   3.877
 8037SOL     OW25009   1.552   3.413   0.338
 8037SOL    HW125010   1.568   3.508   0.362
 8037SOL    HW225011   1.628   3.357   0.372
 8038SOL     OW25012   4.457   6.977   2.359
 8038SOL    HW125013   4.487   6.930   2.276
 8038SOL    HW225014   4.448   0.047   2.340
 8039SOL     OW25015   0.900   1.892   5.096
 8039SOL    HW125016   0.914   1.918   5.191
 8039SOL    HW225017   0.913   1.973   5.037
 8040SOL     OW25018   1.230   5.316   0.159
 8040SOL    HW125019   1.321   5.341   0.127
 8040SOL    HW225020   1.203   5.377   0.234
 8041SOL     OW25021   2.919   1.364   2.843
 8041SOL    HW125022   2.826   1.333   2.823
 8041SOL    HW225023   2.916   1.443   2.904
 8042SOL     OW25024   3.196   3.053   4.048
 8042SOL    HW125025   3.215   3.138   3.999
 8042SOL    HW225026   3.189   3.072   4.146
 8043SOL     OW25027   3.355   6.416   1.152
 8043SOL    HW125028   3.270   6.454   1.190
 8043SOL    HW225029   3.433   6.461   1.194
 8044SOL     OW25030   4.243   2.585   1.463
 8044SOL    HW125031   4.323   2.583   1.403
 8044SOL    HW225032   4.225   2.679   1.491
 8045SOL     OW25033   5.562   2.060   3.497
 8045SOL    HW125034   5.502   2.007   3.436
 8045SOL    HW225035   5.508   2.130   3.543
 8046SOL     OW25036   0.963   4.705   1.634
 8046SOL    HW125037   1.062   4.717   1.641
 8046SOL    HW225038   0.936   4.623   1.685
 8047SOL     OW25039   4.170   5.928   5.365
 8047SOL    HW125040   4.254   5.876   5.355
 8047SOL    HW225041   4.112   5.915   5.285
 8048SOL     OW25042   5.076   1.650   6.030
 8048SOL    HW125043   5.053   1.680   6.123
 8048SOL    HW225044   5.102   1.729   5.975
 8049SOL     OW25045   0.362   0.601   0.401
 8049SOL    HW125046   0.415   0.604   0.485
 8049SOL    HW225047   0.417   0.638   0.326
 8050SOL     OW25048   1.870   3.110   3.267
 8050SOL    HW125049   1.858   3.130   3.365
 8050SOL    HW225050   1.960   3.144   3.238
 8051SOL     OW25051   4.598   5.675   4.085
 8051SOL    HW125052   4.638   5.627   4.007
 8051SOL    HW225053   4.559   5.762   4.055
 8052SOL     OW25054   3.634   1.637   0.930
 8052SOL    HW125055   3.642   1.553   0.875
 8052SOL    HW225056   3.559   1.628   0.995
 8053SOL     OW25057   3.011   3.322   4.202
 8053SOL    HW125058   2.991   3.353   4.295
 8053SOL    HW225059   2.947   3.365   4.138
 8054SOL     OW25060   6.193   4.998   5.008
 8054SOL    HW125061   6.251   4.940   5.065
 8054SOL    HW225062   6.133   5.052   5.068
 8055SOL     OW25063   0.588   0.429   5.195
 8055SOL    HW125064   0.665   0.443   5.257
 8055SOL    HW225065   0.571   0.331   5.184
 8056SOL     OW25066   2.266   1.314   3.506
 8056SOL    HW125067   2.335   1.267   3.452
 8056SOL    HW225068   2.202   1.246   3.543
 8057SOL     OW25069   2.986   2.239   3.061
 8057SOL    HW125070   2.912   2.282   3.113
 8057SOL    HW225071   2.994   2.283   2.972
 8058SOL     OW25072   4.064   0.117   3.347
 8058SOL    HW125073   4.144   0.061   3.324
 8058SOL    HW225074   4.042   0.177   3.270
 8059SOL     OW25075   2.678   1.816   4.996
 8059SOL    HW125076   2.777   1.822   4.985
 8059SOL    HW225077   2.644   1.900   5.037
 8060SOL     OW25078   6.446   1.993   5.649
 8060SOL    HW125079   6.363   1.939   5.639
 8060SOL    HW225080   6.469   2.001   5.746
 8061SOL     OW25081   0.041   0.492   2.478
 8061SOL    HW125082   7.015   0.489   2.562
 8061SOL    HW225083   0.128   0.445   2.494
 8062SOL     OW25084   3.603   4.967   4.413
 8062SOL    HW125085   3.606   4.994   4.317
 8062SOL    HW225086   3.512   4.985   4.450
 8063SOL     OW25087   2.073   1.928   1.831
 8063SOL    HW125088   1.987   1.925   1.779
 8063SOL    HW225089   2.063   1.993   1.907
 8064SOL     OW25090   5.955   2.828   1.620
 8064SOL    HW125091   5.885   2.822   1.692
 8064SOL    HW225092   6.045   2.813   1.661
 8065SOL     OW25093   2.376   5.482   4.299
 8065SOL    HW125094   2.281   5.509   4.284
 8065SOL    HW225095   2.385   5.438   4.389
 8066SOL     OW25096   1.241   1.654   5.431
 8066SOL    HW125097   1.304   1.654   5.508
 8066SOL    HW225098   1.169   1.587   5.447
 8067SOL     OW25099   5.102   2.633   2.299
 8067SOL    HW125100   5.098   2.533   2.305
 8067SOL    HW225101   5.177   2.659   2.237
 8068SOL     OW25102   6.943   4.497   1.673
 8068SOL    HW125103   6.933   4.399   1.655
 8068SOL    HW225104   7.021   4.532   1.621
 8069SOL     OW25105   2.883   5.752   0.962
 8069SOL    HW125106   2.799   5.756   1.016
 8069SOL    HW225107   2.892   5.836   0.908
 8070SOL     OW25108   4.265   3.470   1.011
 8070SOL    HW125109   4.176   3.495   0.972
 8070SOL    HW225110   4.323   3.430   0.940
 8071SOL     OW25111   3.376   6.470   4.583
 8071SOL    HW125112   3.365   6.569   4.575
 8071SOL    HW225113   3.343   6.439   4.672
 8072SOL     OW25114   3.953   1.775   0.993
 8072SOL    HW125115   3.993   1.754   0.904
 8072SOL    HW225116   3.919   1.869   0.993
 8073SOL     OW25117   2.949   5.429   5.185
 8073SOL    HW125118   2.958   5.463   5.092
 8073SOL    HW225119   2.890   5.348   5.185
 8074SOL     OW25120   3.041   2.804   0.688
 8074SOL    HW125121   3.063   2.742   0.762
 8074SOL    HW225122   2.944   2.828   0.691
 8075SOL     OW25123   7.015   0.080   0.441
 8075SOL    HW125124   0.054   0.047   0.374
 8075SOL    HW225125   0.033   0.097   0.528
 8076SOL     OW25126   6.237   0.835   5.187
 8076SOL    HW125127   6.277   0.754   5.146
 8076SOL    HW225128   6.302   0.911   5.180
 8077SOL     OW25129   3.212   6.174   2.736
 8077SOL    HW125130   3.254   6.099   2.684
 8077SOL    HW225131   3.197   6.252   2.676
 8078SOL     OW25132   6.752   2.361   0.784
 8078SOL    HW125133   6.694   2.348   0.703
 8078SOL    HW225134   6.722   2.299   0.857
 8079SOL     OW25135   5.808   1.674   3.927
 8079SOL    HW125136   5.757   1.611   3.986
 8079SOL    HW225137   5.767   1.676   3.836
 8080SOL     OW25138   1.188   2.571   1.523
 8080SOL    HW125139   1.247   2.499   1.488
 8080SOL    HW225140   1.213   2.658   1.481
 8081SOL     OW25141   6.253   5.691   5.577
 8081SOL    HW125142   6.280   5.614   5.519
 8081SOL    HW225143   6.332   5.720   5.632
 8082SOL     OW25144   4.387   6.857   2.820
 8082SOL    HW125145   4.332   6.859   2.737
 8082SOL    HW225146   4.483   6.874   2.797
 8083SOL     OW25147   5.037   2.747   2.825
 8083SOL    HW125148   4.940   2.746   2.848
 8083SOL    HW225149   5.049   2.776   2.730
 8084SOL     OW25150   3.863   6.165   0.063
 8084SOL    HW125151   3.820   6.233   0.003
 8084SOL    HW225152   3.846   6.189   0.158
 8085SOL     OW25153   6.794   6.489   2.124
 8085SOL    HW125154   6.852   6.429   2.179
 8085SOL    HW225155   6.698   6.463   2.136
 8086SOL     OW25156   5.819   0.484   2.769
 8086SOL    HW125157   5.916   0.489   2.790
 8086SOL    HW225158   5.806   0.456   2.674
 8087SOL     OW25159   2.351   0.907   6.752
 8087SOL    HW125160   2.369   1.005   6.743
 8087SOL    HW225161   2.272   0.883   6.695
 8088SOL     OW25162   5.577   1.840   1.654
 8088SOL    HW125163   5.664   1.877   1.686
 8088SOL    HW225164   5.575   1.841   1.554
 8089SOL     OW25165   6.061   2.910   0.909
 8089SOL    HW125166   5.973   2.862   0.905
 8089SOL    HW225167   6.060   2.986   0.845
 8090SOL     OW25168   4.408   2.213   0.013
 8090SOL    HW125169   4.487   2.164   0.051
 8090SOL    HW225170   4.359   2.260   0.086
 8091SOL     OW25171   2.179   3.541   5.104
 8091SOL    HW125172   2.169   3.638   5.127
 8091SOL    HW225173   2.217   3.492   5.182
 8092SOL     OW25174   5.640   2.173   5.128
 8092SOL    HW125175   5.614   2.257   5.177
 8092SOL    HW225176   5.572   2.102   5.145
 8093SOL     OW25177   4.073   5.078   2.877
 8093SOL    HW125178   4.072   5.150   2.807
 8093SOL    HW225179   4.167   5.052   2.896
 8094SOL     OW25180   1.110   3.219   4.895
 8094SOL    HW125181   1.187   3.242   4.836
 8094SOL    HW225182   1.033   3.189   4.839
 8095SOL     OW25183   0.589   4.965   4.158
 8095SOL    HW125184   0.656   4.923   4.219
 8095SOL    HW225185   0.565   5.056   4.192
 8096SOL     OW25186   1.834   6.654   3.347
 8096SOL    HW125187   1.881   6.588   3.289
 8096SOL    HW225188   1.901   6.701   3.405
 8097SOL     OW25189   4.024   6.974   4.253
 8097SOL    HW125190   3.992   6.980   4.348
 8097SOL    HW225191   4.064   6.884   4.237
 8098SOL     OW25192   1.799   6.249   3.309
 8098SOL    HW125193   1.706   6.263   3.344
 8098SOL    HW225194   1.797   6.177   3.239
 8099SOL     OW25195   3.931   6.463   4.799
 8099SOL    HW125196   3.853   6.401   4.811
 8099SOL    HW225197   3.995   6.452   4.876
 8100SOL     OW25198   6.821   1.073   0.980
 8100SOL    HW125199   6.768   0.995   0.944
 8100SOL    HW225200   6.799   1.086   1.077
 8101SOL     OW25201   2.194   6.221   2.387
 8101SOL    HW125202   2.202   6.318   2.413
 8101SOL    HW225203   2.206   6.212   2.288
 8102SOL     OW25204   1.143   4.117   3.526
 8102SOL    HW125205   1.213   4.167   3.476
 8102SOL    HW225206   1.162   4.123   3.624
 8103SOL     OW25207   2.794   6.953   1.423
 8103SOL    HW125208   2.711   6.957   1.367
 8103SOL    HW225209   2.873   6.936   1.364
 8104SOL     OW25210   2.818   0.427   6.272
 8104SOL    HW125211   2.854   0.520   6.280
 8104SOL    HW225212   2.748   0.412   6.342
 8105SOL     OW25213   0.838   2.798   3.367
 8105SOL    HW125214   0.740   2.800   3.343
 8105SOL    HW225215   0.890   2.839   3.293
 8106SOL     OW25216   2.785   6.043   2.770
 8106SOL    HW125217   2.807   5.948   2.790
 8106SOL    HW225218   2.860   6.102   2.801
 8107SOL     OW25219   0.731   4.919   4.384
 8107SOL    HW125220   0.805   4.862   4.348
 8107SOL    HW225221   0.769   5.004   4.420
 8108SOL     OW25222   5.959   2.925   5.735
 8108SOL    HW125223   5.871   2.901   5.693
 8108SOL    HW225224   5.965   3.025   5.744
 8109SOL     OW25225   0.914   3.659   4.506
 8109SOL    HW125226   1.004   3.619   4.488
 8109SOL    HW225227   0.874   3.616   4.588
 8110SOL     OW25228   3.360   5.954   1.265
 8110SOL    HW125229   3.292   5.943   1.192
 8110SOL    HW225230   3.449   5.921   1.234
 8111SOL     OW25231   5.473   0.957   5.095
 8111SOL    HW125232   5.508   0.875   5.050
 8111SOL    HW225233   5.479   1.035   5.033
 8112SOL     OW25234   2.713   2.279   4.185
 8112SOL    HW125235   2.668   2.222   4.254
 8112SOL    HW225236   2.746   2.221   4.110
 8113SOL     OW25237   1.926   3.575   0.385
 8113SOL    HW125238   1.830   3.589   0.410
 8113SOL    HW225239   1.982   3.574   0.468
 8114SOL     OW25240   1.397   3.721   2.659
 8114SOL    HW125241   1.409   3.704   2.561
 8114SOL    HW225242   1.486   3.715   2.704
 8115SOL     OW25243   3.788   0.509   0.426
 8115SOL    HW125244   3.716   0.440   0.430
 8115SOL    HW225245   3.833   0.505   0.336
 8116SOL     OW25246   4.368   4.972   6.140
 8116SOL    HW125247   4.346   4.978   6.043
 8116SOL    HW225248   4.312   5.037   6.191
 8117SOL     OW25249   1.739   0.136   3.293
 8117SOL    HW125250   1.723   0.173   3.385
 8117SOL    HW225251   1.734   0.036   3.297
 8118SOL     OW25252   5.380   4.823   5.995
 8118SOL    HW125253   5.452   4.802   5.929
 8118SOL    HW225254   5.304   4.759   5.984
 8119SOL     OW25255   4.961   4.980   6.538
 8119SOL    HW125256   4.951   5.077   6.558
 8119SOL    HW225257   5.019   4.968   6.457
 8120SOL     OW25258   3.261   5.187   0.782
 8120SOL    HW125259   3.206   5.107   0.806
 8120SOL    HW225260   3.207   5.247   0.723
 8121SOL     OW25261   0.145   5.340   1.882
 8121SOL    HW125262   0.184   5.418   1.930
 8121SOL    HW225263   0.047   5.336   1.899
 8122SOL     OW25264   0.653   5.243   3.134
 8122SOL    HW125265   0.669   5.300   3.054
 8122SOL    HW225266   0.711   5.161   3.130
 8123SOL     OW25267   6.902   1.302   6.512
 8123SOL    HW125268   6.848   1.283   6.594
 8123SOL    HW225269   6.896   1.225   6.449
 8124SOL     OW25270   5.944   6.633   0.922
 8124SOL    HW125271   5.891   6.548   0.927
 8124SOL    HW225272   5.975   6.657   1.014
 8125SOL     OW25273   1.578   1.272   3.168
 8125SOL    HW125274   1.672   1.241   3.154
 8125SOL    HW225275   1.516   1.217   3.112
 8126SOL     OW25276   4.887   4.682   2.643
 8126SOL    HW125277   4.890   4.618   2.720
 8126SOL    HW225278   4.843   4.639   2.565
 8127SOL     OW25279   2.608   4.457   6.117
 8127SOL    HW125280   2.513   4.475   6.092
 8127SOL    HW225281   2.613   4.377   6.177
 8128SOL     OW25282   2.500   1.386   1.584
 8128SOL    HW125283   2.444   1.338   1.651
 8128SOL    HW225284   2.543   1.466   1.627
 8129SOL     OW25285   4.449   0.890   6.414
 8129SOL    HW125286   4.450   0.877   6.513
 8129SOL    HW225287   4.437   0.987   6.393
 8130SOL     OW25288   7.025   3.194   6.258
 8130SOL    HW125289   6.991   3.109   6.297
 8130SOL    HW225290   0.097   3.195   6.262
 8131SOL     OW25291   3.173   2.125   0.794
 8131SOL    HW125292   3.240   2.199   0.804
 8131SOL    HW225293   3.103   2.152   0.727
 8132SOL     OW25294   5.818   6.780   6.132
 8132SOL    HW125295   5.839   6.698   6.079
 8132SOL    HW225296   5.894   6.800   6.194
 8133SOL     OW25297   3.054   4.870   1.376
 8133SOL    HW125298   3.141   4.903   1.413
 8133SOL    HW225299   3.053   4.883   1.276
 8134SOL     OW25300   6.357   2.792   5.690
 8134SOL    HW125301   6.261   2.813   5.671
 8134SOL    HW225302   6.362   2.711   5.747
 8135SOL     OW25303   2.883   6.664   1.414
 8135SOL    HW125304   2.811   6.611   1.370
 8135SOL    HW225305   2.845   6.750   1.447
 8136SOL     OW25306   4.687   5.452   3.520
 8136SOL    HW125307   4.711   5.389   3.594
 8136SOL    HW225308   4.771   5.481   3.473
 8137SOL     OW25309   2.863   2.206   5.302
 8137SOL    HW125310   2.923   2.285   5.319
 8137SOL    HW225311   2.919   2.126   5.280
 8138SOL     OW25312   5.713   1.713   6.967
 8138SOL    HW125313   5.701   1.674   6.875
 8138SOL    HW225314   5.810   1.722   6.987
 8139SOL     OW25315   6.738   1.320   2.480
 8139SOL    HW125316   6.658   1.378   2.493
 8139SOL    HW225317   6.754   1.266   2.562
 8140SOL     OW25318   4.991   0.743   1.135
 8140SOL    HW125319   5.067   0.680   1.118
 8140SOL    HW225320   5.021   0.816   1.196
 8141SOL     OW25321   4.928   6.367   4.929
 8141SOL    HW125322   4.914   6.461   4.961
 8141SOL    HW225323   5.018   6.334   4.959
 8142SOL     OW25324   0.873   5.605   0.002
 8142SOL    HW125325   0.832   5.682   6.982
 8142SOL    HW225326   0.968   5.594   7.002
 8143SOL     OW25327   6.570   4.033   1.388
 8143SOL    HW125328   6.655   4.079   1.413
 8143SOL    HW225329   6.578   3.935   1.407
 8144SOL     OW25330   6.252   6.647   6.421
 8144SOL    HW125331   6.283   6.610   6.333
 8144SOL    HW225332   6.312   6.615   6.494
 8145SOL     OW25333   5.510   5.865   1.545
 8145SOL    HW125334   5.452   5.941   1.515
 8145SOL    HW225335   5.555   5.889   1.631
 8146SOL     OW25336   4.733   0.679   4.753
 8146SOL    HW125337   4.651   0.623   4.763
 8146SOL    HW225338   4.762   0.712   4.844
 8147SOL     OW25339   6.351   2.080   1.076
 8147SOL    HW125340   6.322   2.015   1.146
 8147SOL    HW225341   6.279   2.148   1.061
 8148SOL     OW25342   5.197   4.048   0.925
 8148SOL    HW125343   5.132   3.984   0.966
 8148SOL    HW225344   5.190   4.136   0.970
 8149SOL     OW25345   3.158   6.383   2.574
 8149SOL    HW125346   3.107   6.414   2.494
 8149SOL    HW225347   3.254   6.411   2.565
 8150SOL     OW25348   1.896   4.074   1.211
 8150SOL    HW125349   1.933   3.981   1.216
 8150SOL    HW225350   1.880   4.108   1.304
 8151SOL     OW25351   5.986   2.736   1.353
 8151SOL    HW125352   5.918   2.752   1.281
 8151SOL    HW225353   5.957   2.784   1.436
 8152SOL     OW25354   6.929   2.221   2.494
 8152SOL    HW125355   6.959   2.128   2.516
 8152SOL    HW225356   6.871   2.255   2.567
 8153SOL     OW25357   2.194   6.739   3.835
 8153SOL    HW125358   2.201   6.839   3.828
 8153SOL    HW225359   2.266   6.705   3.896
 8154SOL     OW25360   3.215   5.314   2.157
 8154SOL    HW125361   3.293   5.280   2.104
 8154SOL    HW225362   3.215   5.272   2.248
 8155SOL     OW25363   1.580   4.117   2.256
 8155SOL    HW125364   1.522   4.185   2.211
 8155SOL    HW225365   1.669   4.113   2.210
 8156SOL     OW25366   5.459   0.244   1.024
 8156SOL    HW125367   5.532   0.198   0.974
 8156SOL    HW225368   5.373   0.231   0.975
 8157SOL     OW25369   6.862   5.405   6.353
 8157SOL    HW125370   6.853   5.344   6.431
 8157SOL    HW225371   6.810   5.488   6.370
 8158SOL     OW25372   4.680   5.045   0.920
 8158SOL    HW125373   4.751   5.036   0.990
 8158SOL    HW225374   4.643   5.138   0.922
 8159SOL     OW25375   3.115   5.599   2.517
 8159SOL    HW125376   3.054   5.634   2.447
 8159SOL    HW225377   3.067   5.529   2.571
 8160SOL     OW25378   5.490   0.638   3.738
 8160SOL    HW125379   5.481   0.566   3.670
 8160SOL    HW225380   5.435   0.717   3.710
 8161SOL     OW25381   5.764   1.796   6.161
 8161SOL    HW125382   5.706   1.717   6.185
 8161SOL    HW225383   5.836   1.806   6.230
 8162SOL     OW25384   5.475   6.321   6.124
 8162SOL    HW125385   5.521   6.233   6.113
 8162SOL    HW225386   5.451   6.357   6.034
 8163SOL     OW25387   2.617   3.971   5.346
 8163SOL    HW125388   2.708   3.994   5.311
 8163SOL    HW225389   2.566   3.922   5.276
 8164SOL     OW25390   5.391   2.920   0.612
 8164SOL    HW125391   5.412   2.845   0.549
 8164SOL    HW225392   5.368   3.002   0.560
 8165SOL     OW25393   0.740   3.427   6.499
 8165SOL    HW125394   0.772   3.463   6.412
 8165SOL    HW225395   0.767   3.489   6.573
 8166SOL     OW25396   1.657   0.207   2.760
 8166SOL    HW125397   1.636   0.190   2.856
 8166SOL    HW225398   1.584   0.263   2.720
 8167SOL     OW25399   6.318   0.072   4.711
 8167SOL    HW125400   6.371   0.143   4.664
 8167SOL    HW225401   6.230   0.110   4.740
 8168SOL     OW25402   2.209   1.729   3.596
 8168SOL    HW125403   2.211   1.711   3.497
 8168SOL    HW225404   2.248   1.651   3.644
 8169SOL     OW25405   5.205   1.847   0.917
 8169SOL    HW125406   5.173   1.826   1.009
 8169SOL    HW225407   5.206   1.763   0.862
 8170SOL     OW25408   1.109   5.346   2.723
 8170SOL    HW125409   1.161   5.265   2.750
 8170SOL    HW225410   1.024   5.350   2.776
 8171SOL     OW25411   1.483   1.653   6.490
 8171SOL    HW125412   1.510   1.560   6.515
 8171SOL    HW225413   1.557   1.697   6.440
 8172SOL     OW25414   0.952   2.051   2.258
 8172SOL    HW125415   0.930   2.110   2.180
 8172SOL    HW225416   1.050   2.058   2.278
 8173SOL     OW25417   5.056   0.699   2.059
 8173SOL    HW125418   4.986   0.767   2.040
 8173SOL    HW225419   5.025   0.609   2.027
 8174SOL     OW25420   6.115   3.310   0.902
 8174SOL    HW125421   6.201   3.350   0.868
 8174SOL    HW225422   6.089   3.233   0.844
 8175SOL     OW25423   6.809   2.264   5.628
 8175SOL    HW125424   6.881   2.232   5.690
 8175SOL    HW225425   6.743   2.191   5.613
 8176SOL     OW25426   2.802   5.107   1.971
 8176SOL    HW125427   2.787   5.046   2.049
 8176SOL    HW225428   2.723   5.103   1.910
 8177SOL     OW25429   2.908   6.378   4.055
 8177SOL    HW125430   2.928   6.319   4.133
 8177SOL    HW225431   2.864   6.324   3.983
 8178SOL     OW25432   2.791   5.772   6.628
 8178SOL    HW125433   2.810   5.869   6.639
 8178SOL    HW225434   2.820   5.722   6.710
 8179SOL     OW25435   4.915   2.061   5.568
 8179SOL    HW125436   4.974   2.017   5.635
 8179SOL    HW225437   4.827   2.013   5.563
 8180SOL     OW25438   6.499   0.172   5.098
 8180SOL    HW125439   6.466   0.259   5.133
 8180SOL    HW225440   6.427   0.103   5.107
 8181SOL     OW25441   1.925   1.537   1.119
 8181SOL    HW125442   1.958   1.478   1.046
 8181SOL    HW225443   1.989   1.612   1.134
 8182SOL     OW25444   4.556   3.328   6.129
 8182SOL    HW125445   4.476   3.273   6.154
 8182SOL    HW225446   4.532   3.425   6.130
 8183SOL     OW25447   0.070   2.635   4.288
 8183SOL    HW125448   0.094   2.565   4.221
 8183SOL    HW225449   7.006   2.669   4.270
 8184SOL     OW25450   5.542   1.731   5.907
 8184SOL    HW125451   5.583   1.699   5.993
 8184SOL    HW225452   5.605   1.794   5.862
 8185SOL     OW25453   2.181   6.526   0.573
 8185SOL    HW125454   2.142   6.599   0.629
 8185SOL    HW225455   2.142   6.529   0.482
 8186SOL     OW25456   3.849   5.928   5.650
 8186SOL    HW125457   3.792   5.854   5.687
 8186SOL    HW225458   3.807   5.963   5.567
 8187SOL     OW25459   1.633   2.416   5.581
 8187SOL    HW125460   1.710   2.480   5.586
 8187SOL    HW225461   1.548   2.467   5.592
 8188SOL     OW25462   5.507   2.958   2.647
 8188SOL    HW125463   5.514   3.048   2.604
 8188SOL    HW225464   5.435   2.905   2.602
 8189SOL     OW25465   4.608   4.563   2.774
 8189SOL    HW125466   4.669   4.490   2.744
 8189SOL    HW225467   4.513   4.532   2.767
 8190SOL     OW25468   3.835   5.273   3.695
 8190SOL    HW125469   3.738   5.295   3.680
 8190SOL    HW225470   3.847   5.174   3.692
 8191SOL     OW25471   3.672   6.609   2.441
 8191SOL    HW125472   3.727   6.554   2.378
 8191SOL    HW225473   3.625   6.681   2.391
 8192SOL     OW25474   3.704   5.562   1.001
 8192SOL    HW125475   3.652   5.515   0.930
 8192SOL    HW225476   3.685   5.520   1.090
 8193SOL     OW25477   6.801   6.700   4.471
 8193SOL    HW125478   6.828   6.611   4.509
 8193SOL    HW225479   6.879   6.763   4.474
 8194SOL     OW25480   5.790   2.459   1.051
 8194SOL    HW125481   5.810   2.443   1.148
 8194SOL    HW225482   5.695   2.486   1.041
 8195SOL     OW25483   1.018   6.967   1.536
 8195SOL    HW125484   1.034   6.982   1.633
 8195SOL    HW225485   0.924   6.934   1.522
 8196SOL     OW25486   3.710   6.855   6.013
 8196SOL    HW125487   3.611   6.848   6.021
 8196SOL    HW225488   3.735   6.952   6.002
 8197SOL     OW25489   4.161   1.690   6.442
 8197SOL    HW125490   4.244   1.720   6.396
 8197SOL    HW225491   4.082   1.709   6.384
 8198SOL     OW25492   3.740   6.342   3.503
 8198SOL    HW125493   3.712   6.424   3.453
 8198SOL    HW225494   3.769   6.272   3.439
 8199SOL     OW25495   6.057   3.220   6.191
 8199SOL    HW125496   6.052   3.160   6.270
 8199SOL    HW225497   6.147   3.214   6.150
 8200SOL     OW25498   4.795   3.958   1.583
 8200SOL    HW125499   4.733   3.994   1.653
 8200SOL    HW225500   4.754   3.972   1.492
 8201SOL     OW25501   5.756   0.493   4.200
 8201SOL    HW125502   5.700   0.539   4.133
 8201SOL    HW225503   5.752   0.542   4.287
 8202SOL     OW25504   0.082   5.372   4.781
 8202SOL    HW125505   7.024   5.422   4.769
 8202SOL    HW225506   0.156   5.420   4.734
 8203SOL     OW25507   4.541   2.529   0.762
 8203SOL    HW125508   4.620   2.512   0.821
 8203SOL    HW225509   4.466   2.469   0.789
 8204SOL     OW25510   2.912   5.431   0.071
 8204SOL    HW125511   2.996   5.484   0.056
 8204SOL    HW225512   2.856   5.475   0.141
 8205SOL     OW25513   0.428   4.635   1.089
 8205SOL    HW125514   0.481   4.719   1.080
 8205SOL    HW225515   0.471   4.562   1.036
 8206SOL     OW25516   4.488   2.305   5.936
 8206SOL    HW125517   4.508   2.401   5.917
 8206SOL    HW225518   4.395   2.297   5.973
 8207SOL     OW25519   3.732   4.081   5.678
 8207SOL    HW125520   3.744   4.009   5.610
 8207SOL    HW225521   3.798   4.154   5.661
 8208SOL     OW25522   1.844   6.802   1.531
 8208SOL    HW125523   1.752   6.835   1.552
 8208SOL    HW225524   1.906   6.880   1.522
 8209SOL     OW25525   1.182   1.576   5.815
 8209SOL    HW125526   1.108   1.573   5.747
 8209SOL    HW225527   1.266   1.542   5.774
 8210SOL     OW25528   2.603   0.836   1.405
 8210SOL    HW125529   2.506   0.832   1.426
 8210SOL    HW225530   2.650   0.759   1.447
 8211SOL     OW25531   3.868   3.774   3.143
 8211SOL    HW125532   3.889   3.847   3.078
 8211SOL    HW225533   3.770   3.756   3.141
 8212SOL     OW25534   3.253   1.518   0.937
 8212SOL    HW125535   3.173   1.464   0.964
 8212SOL    HW225536   3.241   1.551   0.844
 8213SOL     OW25537   5.438   4.704   2.195
 8213SOL    HW125538   5.411   4.781   2.252
 8213SOL    HW225539   5.369   4.689   2.124
 8214SOL     OW25540   0.954   5.521   4.416
 8214SOL    HW125541   0.956   5.621   4.417
 8214SOL    HW225542   0.886   5.487   4.480
 8215SOL     OW25543   3.141   5.708   6.488
 8215SOL    HW125544   3.060   5.658   6.457
 8215SOL    HW225545   3.136   5.720   6.587
 8216SOL     OW25546   5.006   6.338   3.272
 8216SOL    HW125547   5.063   6.343   3.354
 8216SOL    HW225548   4.925   6.282   3.291
 8217SOL     OW25549   2.195   3.870   2.355
 8217SOL    HW125550   2.097   3.890   2.356
 8217SOL    HW225551   2.210   3.784   2.305
 8218SOL     OW25552   1.264   6.978   4.727
 8218SOL    HW125553   1.331   6.927   4.781
 8218SOL    HW225554   1.312   0.011   4.664
 8219SOL     OW25555   3.805   3.082   1.747
 8219SOL    HW125556   3.743   3.150   1.788
 8219SOL    HW225557   3.756   2.996   1.735
 8220SOL     OW25558   3.231   3.914   5.160
 8220SOL    HW125559   3.199   4.006   5.137
 8220SOL    HW225560   3.330   3.914   5.169
 8221SOL     OW25561   6.363   5.258   3.422
 8221SOL    HW125562   6.452   5.303   3.420
 8221SOL    HW225563   6.336   5.234   3.329
 8222SOL     OW25564   4.839   1.989   1.571
 8222SOL    HW125565   4.801   2.064   1.625
 8222SOL    HW225566   4.804   1.994   1.478
 8223SOL     OW25567   0.708   4.194   5.634
 8223SOL    HW125568   0.686   4.226   5.726
 8223SOL    HW225569   0.695   4.269   5.569
 8224SOL     OW25570   5.499   2.691   1.808
 8224SOL    HW125571   5.448   2.687   1.722
 8224SOL    HW225572   5.597   2.679   1.789
 8225SOL     OW25573   3.808   1.402   1.681
 8225SOL    HW125574   3.829   1.310   1.714
 8225SOL    HW225575   3.737   1.442   1.739
 8226SOL     OW25576   3.357   0.154   0.644
 8226SOL    HW125577   3.286   0.223   0.630
 8226SOL    HW225578   3.315   0.070   0.679
 8227SOL     OW25579   6.972   1.486   2.472
 8227SOL    HW125580   7.006   1.471   2.380
 8227SOL    HW225581   6.875   1.460   2.477
 8228SOL     OW25582   0.933   1.886   5.887
 8228SOL    HW125583   0.917   1.788   5.900
 8228SOL    HW225584   0.887   1.937   5.960
 8229SOL     OW25585   3.848   4.669   0.954
 8229SOL    HW125586   3.877   4.764   0.943
 8229SOL    HW225587   3.834   4.649   1.051
 8230SOL     OW25588   4.072   0.181   5.689
 8230SOL    HW125589   4.102   0.275   5.704
 8230SOL    HW225590   4.077   0.129   5.774
 8231SOL     OW25591   3.391   2.307   1.700
 8231SOL    HW125592   3.449   2.238   1.741
 8231SOL    HW225593   3.436   2.396   1.704
 8232SOL     OW25594   5.527   1.783   2.041
 8232SOL    HW125595   5.506   1.714   2.110
 8232SOL    HW225596   5.625   1.798   2.038
 8233SOL     OW25597   1.392   7.012   6.377
 8233SOL    HW125598   1.434   6.939   6.324
 8233SOL    HW225599   1.298   6.987   6.400
 8234SOL     OW25600   2.868   4.173   6.837
 8234SOL    HW125601   2.896   4.086   6.879
 8234SOL    HW225602   2.949   4.221   6.803
 8235SOL     OW25603   7.010   3.367   6.822
 8235SOL    HW125604   0.071   3.333   6.849
 8235SOL    HW225605   6.995   3.457   6.861
 8236SOL     OW25606   6.847   4.886   6.551
 8236SOL    HW125607   6.891   4.893   6.640
 8236SOL    HW225608   6.794   4.802   6.545
 8237SOL     OW25609   4.891   6.052   6.153
 8237SOL    HW125610   4.906   5.957   6.125
 8237SOL    HW225611   4.804   6.058   6.202
 8238SOL     OW25612   0.568   6.150   6.764
 8238SOL    HW125613   0.468   6.146   6.763
 8238SOL    HW225614   0.604   6.079   6.703
 8239SOL     OW25615   1.208   0.959   4.722
 8239SOL    HW125616   1.191   1.047   4.679
 8239SOL    HW225617   1.130   0.899   4.707
 8240SOL     OW25618   3.100   3.910   3.160
 8240SOL    HW125619   3.183   3.953   3.124
 8240SOL    HW225620   3.077   3.951   3.248
 8241SOL     OW25621   2.857   4.762   5.799
 8241SOL    HW125622   2.878   4.830   5.729
 8241SOL    HW225623   2.940   4.736   5.847
 8242SOL     OW25624   0.808   3.557   4.755
 8242SOL    HW125625   0.829   3.506   4.839
 8242SOL    HW225626   0.787   3.652   4.779
 8243SOL     OW25627   0.132   3.843   0.873
 8243SOL    HW125628   0.094   3.936   0.881
 8243SOL    HW225629   0.161   3.812   0.963
 8244SOL     OW25630   0.887   0.181   4.131
 8244SOL    HW125631   0.924   0.267   4.165
 8244SOL    HW225632   0.931   0.157   4.045
 8245SOL     OW25633   3.703   1.577   2.973
 8245SOL    HW125634   3.770   1.651   2.961
 8245SOL    HW225635   3.745   1.503   3.025
 8246SOL     OW25636   0.490   4.560   6.464
 8246SOL    HW125637   0.439   4.637   6.427
 8246SOL    HW225638   0.490   4.485   6.397
 8247SOL     OW25639   2.298   6.139   3.138
 8247SOL    HW125640   2.347   6.214   3.182
 8247SOL    HW225641   2.229   6.103   3.201
 8248SOL     OW25642   0.626   4.599   4.935
 8248SOL    HW125643   0.674   4.511   4.943
 8248SOL    HW225644   0.687   4.666   4.894
 8249SOL     OW25645   2.442   1.364   5.742
 8249SOL    HW125646   2.461   1.391   5.647
 8249SOL    HW225647   2.457   1.442   5.803
 8250SOL     OW25648   3.035   2.312   1.100
 8250SOL    HW125649   3.037   2.213   1.088
 8250SOL    HW225650   3.103   2.339   1.168
 8251SOL     OW25651   5.327   1.240   4.936
 8251SOL    HW125652   5.286   1.281   5.018
 8251SOL    HW225653   5.258   1.235   4.864
 8252SOL     OW25654   3.945   1.607   0.052
 8252SOL    HW125655   3.879   1.678   0.075
 8252SOL    HW225656   3.909   1.518   0.079
 8253SOL     OW25657   3.678   5.820   6.797
 8253SOL    HW125658   3.579   5.810   6.791
 8253SOL    HW225659   3.720   5.731   6.816
 8254SOL     OW25660   4.768   4.461   5.607
 8254SOL    HW125661   4.838   4.390   5.598
 8254SOL    HW225662   4.723   4.453   5.696
 8255SOL     OW25663   1.209   6.964   5.538
 8255SOL    HW125664   1.207   6.967   5.438
 8255SOL    HW225665   1.189   0.027   5.574
 8256SOL     OW25666   6.891   6.588   2.990
 8256SOL    HW125667   6.865   6.680   3.022
 8256SOL    HW225668   6.832   6.521   3.035
 8257SOL     OW25669   5.557   3.970   4.013
 8257SOL    HW125670   5.605   3.969   3.925
 8257SOL    HW225671   5.551   3.877   4.048
 8258SOL     OW25672   4.809   2.984   1.657
 8258SOL    HW125673   4.752   3.024   1.729
 8258SOL    HW225674   4.891   2.945   1.697
 8259SOL     OW25675   3.714   2.287   5.624
 8259SOL    HW125676   3.727   2.192   5.595
 8259SOL    HW225677   3.664   2.337   5.554
 8260SOL     OW25678   1.870   6.364   1.739
 8260SOL    HW125679   1.880   6.462   1.718
 8260SOL    HW225680   1.957   6.318   1.723
 8261SOL     OW25681   5.388   6.457   2.961
 8261SOL    HW125682   5.291   6.462   2.938
 8261SOL    HW225683   5.442   6.489   2.883
 8262SOL     OW25684   0.672   4.912   0.512
 8262SOL    HW125685   0.709   4.945   0.425
 8262SOL    HW225686   0.739   4.852   0.555
 8263SOL     OW25687   6.923   2.974   6.865
 8263SOL    HW125688   6.850   3.036   6.837
 8263SOL    HW225689   7.012   3.017   6.848
 8264SOL     OW25690   0.785   6.522   1.422
 8264SOL    HW125691   0.833   6.464   1.357
 8264SOL    HW225692   0.706   6.564   1.376
 8265SOL     OW25693   5.226   0.301   1.990
 8265SOL    HW125694   5.150   0.342   1.939
 8265SOL    HW225695   5.296   0.270   1.926
 8266SOL     OW25696   2.611   0.756   4.620
 8266SOL    HW125697   2.684   0.698   4.584
 8266SOL    HW225698   2.599   0.836   4.561
 8267SOL     OW25699   1.584   4.437   1.625
 8267SOL    HW125700   1.533   4.520   1.646
 8267SOL    HW225701   1.522   4.359   1.623
 8268SOL     OW25702   3.251   5.848   6.295
 8268SOL    HW125703   3.240   5.772   6.232
 8268SOL    HW225704   3.232   5.817   6.389
 8269SOL     OW25705   4.503   2.454   2.947
 8269SOL    HW125706   4.544   2.501   3.025
 8269SOL    HW225707   4.551   2.369   2.929
 8270SOL     OW25708   3.057   5.786   5.350
 8270SOL    HW125709   3.129   5.727   5.314
 8270SOL    HW225710   2.968   5.747   5.325
 8271SOL     OW25711   6.556   6.571   3.589
 8271SOL    HW125712   6.511   6.483   3.606
 8271SOL    HW225713   6.572   6.581   3.490
 8272SOL     OW25714   6.474   1.338   2.225
 8272SOL    HW125715   6.467   1.238   2.221
 8272SOL    HW225716   6.382   1.377   2.230
 8273SOL     OW25717   3.058   0.837   0.260
 8273SOL    HW125718   3.077   0.871   0.168
 8273SOL    HW225719   2.961   0.812   0.266
 8274SOL     OW25720   4.336   5.033   5.674
 8274SOL    HW125721   4.384   4.950   5.647
 8274SOL    HW225722   4.314   5.087   5.593
 8275SOL     OW25723   6.063   0.448   4.190
 8275SOL    HW125724   6.119   0.384   4.138
 8275SOL    HW225725   5.983   0.400   4.228
 8276SOL     OW25726   6.898   2.109   5.171
 8276SOL    HW125727   6.887   2.077   5.265
 8276SOL    HW225728   6.830   2.179   5.151
 8277SOL     OW25729   1.214   6.272   5.631
 8277SOL    HW125730   1.180   6.180   5.650
 8277SOL    HW225731   1.314   6.271   5.637
 8278SOL     OW25732   3.165   1.676   6.874
 8278SOL    HW125733   3.100   1.663   6.949
 8278SOL    HW225734   3.122   1.650   6.787
 8279SOL     OW25735   6.397   5.905   5.024
 8279SOL    HW125736   6.460   5.982   5.011
 8279SOL    HW225737   6.310   5.940   5.059
 8280SOL     OW25738   3.669   2.621   0.724
 8280SOL    HW125739   3.739   2.685   0.756
 8280SOL    HW225740   3.579   2.664   0.730
 8281SOL     OW25741   2.392   4.474   2.049
 8281SOL    HW125742   2.408   4.456   2.146
 8281SOL    HW225743   2.344   4.561   2.038
 8282SOL     OW25744   2.965   3.948   6.936
 8282SOL    HW125745   3.051   3.930   6.887
 8282SOL    HW225746   2.934   3.864   6.981
 8283SOL     OW25747   1.391   4.807   4.242
 8283SOL    HW125748   1.433   4.717   4.257
 8283SOL    HW225749   1.459   4.878   4.260
 8284SOL     OW25750   1.865   4.124   2.091
 8284SOL    HW125751   1.890   4.029   2.072
 8284SOL    HW225752   1.925   4.161   2.162
 8285SOL     OW25753   4.316   3.433   5.489
 8285SOL    HW125754   4.221   3.453   5.464
 8285SOL    HW225755   4.378   3.480   5.426
 8286SOL     OW25756   5.374   1.927   4.905
 8286SOL    HW125757   5.336   1.916   4.997
 8286SOL    HW225758   5.348   2.017   4.869
 8287SOL     OW25759   0.869   5.508   4.056
 8287SOL    HW125760   0.818   5.593   4.069
 8287SOL    HW225761   0.830   5.437   4.114
 8288SOL     OW25762   1.142   2.850   2.759
 8288SOL    HW125763   1.233   2.890   2.747
 8288SOL    HW225764   1.151   2.758   2.797
 8289SOL     OW25765   6.173   0.233   6.655
 8289SOL    HW125766   6.105   0.258   6.724
 8289SOL    HW225767   6.265   0.256   6.688
 8290SOL     OW25768   4.855   1.723   1.339
 8290SOL    HW125769   4.835   1.727   1.241
 8290SOL    HW225770   4.775   1.756   1.390
 8291SOL     OW25771   5.959   5.604   6.292
 8291SOL    HW125772   5.963   5.694   6.337
 8291SOL    HW225773   5.866   5.586   6.261
 8292SOL     OW25774   2.573   5.816   6.992
 8292SOL    HW125775   2.516   5.776   0.037
 8292SOL    HW225776   2.514   5.847   6.918
 8293SOL     OW25777   1.790   4.385   1.438
 8293SOL    HW125778   1.856   4.455   1.412
 8293SOL    HW225779   1.745   4.412   1.524
 8294SOL     OW25780   6.187   3.336   4.441
 8294SOL    HW125781   6.251   3.274   4.485
 8294SOL    HW225782   6.235   3.389   4.371
 8295SOL     OW25783   4.903   3.243   3.249
 8295SOL    HW125784   5.003   3.237   3.246
 8295SOL    HW225785   4.876   3.339   3.241
 8296SOL     OW25786   3.441   5.494   0.147
 8296SOL    HW125787   3.500   5.456   0.218
 8296SOL    HW225788   3.467   5.588   0.129
 8297SOL     OW25789   6.651   3.186   2.308
 8297SOL    HW125790   6.703   3.104   2.284
 8297SOL    HW225791   6.712   3.254   2.347
 8298SOL     OW25792   6.880   0.373   0.803
 8298SOL    HW125793   6.975   0.402   0.810
 8298SOL    HW225794   6.864   0.335   0.711
 8299SOL     OW25795   0.128   2.878   1.315
 8299SOL    HW125796   0.191   2.859   1.240
 8299SOL    HW225797   0.116   2.795   1.370
 8300SOL     OW25798   0.076   0.025   4.694
 8300SOL    HW125799   0.101   0.012   4.790
 8300SOL    HW225800   7.012   0.063   4.688
 8301SOL     OW25801   4.603   0.671   0.008
 8301SOL    HW125802   4.685   0.696   6.984
 8301SOL    HW225803   4.607   0.575   0.033
 8302SOL     OW25804   4.810   6.938   5.611
 8302SOL    HW125805   4.800   6.843   5.582
 8302SOL    HW225806   4.906   6.957   5.630
 8303SOL     OW25807   6.806   0.285   3.211
 8303SOL    HW125808   6.839   0.315   3.300
 8303SOL    HW225809   6.787   0.187   3.213
 8304SOL     OW25810   5.264   4.783   1.698
 8304SOL    HW125811   5.310   4.777   1.609
 8304SOL    HW225812   5.165   4.789   1.683
 8305SOL     OW25813   4.163   4.727   4.347
 8305SOL    HW125814   4.138   4.746   4.441
 8305SOL    HW225815   4.091   4.762   4.286
 8306SOL     OW25816   6.472   1.062   3.301
 8306SOL    HW125817   6.452   1.090   3.208
 8306SOL    HW225818   6.537   1.127   3.342
 8307SOL     OW25819   3.651   5.291   1.871
 8307SOL    HW125820   3.667   5.221   1.802
 8307SOL    HW225821   3.675   5.381   1.834
 8308SOL     OW25822   1.979   5.259   0.407
 8308SOL    HW125823   1.973   5.160   0.419
 8308SOL    HW225824   2.070   5.290   0.433
 8309SOL     OW25825   5.967   5.118   2.966
 8309SOL    HW125826   5.894   5.051   2.953
 8309SOL    HW225827   5.975   5.141   3.063
 8310SOL     OW25828   1.570   5.210   0.614
 8310SOL    HW125829   1.578   5.172   0.706
 8310SOL    HW225830   1.524   5.299   0.619
 8311SOL     OW25831   5.920   0.582   4.597
 8311SOL    HW125832   5.962   0.494   4.616
 8311SOL    HW225833   5.976   0.655   4.636
 8312SOL     OW25834   5.456   1.026   6.457
 8312SOL    HW125835   5.465   1.110   6.404
 8312SOL    HW225836   5.377   0.974   6.423
 8313SOL     OW25837   5.341   0.539   5.653
 8313SOL    HW125838   5.400   0.556   5.732
 8313SOL    HW225839   5.344   0.442   5.630
 8314SOL     OW25840   6.010   6.715   6.555
 8314SOL    HW125841   5.923   6.711   6.507
 8314SOL    HW225842   6.084   6.685   6.495
 8315SOL     OW25843   3.885   2.993   2.816
 8315SOL    HW125844   3.878   3.093   2.813
 8315SOL    HW225845   3.929   2.966   2.901
 8316SOL     OW25846   1.908   3.310   1.116
 8316SOL    HW125847   1.818   3.327   1.156
 8316SOL    HW225848   1.977   3.362   1.166
 8317SOL     OW25849   1.985   1.907   3.013
 8317SOL    HW125850   2.077   1.927   3.045
 8317SOL    HW225851   1.921   1.914   3.090
 8318SOL     OW25852   4.124   1.783   6.019
 8318SOL    HW125853   4.063   1.807   5.943
 8318SOL    HW225854   4.169   1.697   6.000
 8319SOL     OW25855   1.355   0.292   0.555
 8319SOL    HW125856   1.439   0.252   0.519
 8319SOL    HW225857   1.277   0.255   0.504
 8320SOL     OW25858   3.340   4.071   3.251
 8320SOL    HW125859   3.435   4.065   3.283
 8320SOL    HW225860   3.338   4.105   3.158
 8321SOL     OW25861   6.899   0.080   6.891
 8321SOL    HW125862   6.947   0.146   6.949
 8321SOL    HW225863   6.936   0.084   6.799
 8322SOL     OW25864   6.806   2.073   0.470
 8322SOL    HW125865   6.810   2.017   0.552
 8322SOL    HW225866   6.717   2.062   0.426
 8323SOL     OW25867   3.523   4.787   1.356
 8323SOL    HW125868   3.444   4.725   1.354
 8323SOL    HW225869   3.558   4.793   1.449
 8324SOL     OW25870   5.306   0.523   0.567
 8324SOL    HW125871   5.402   0.540   0.590
 8324SOL    HW225872   5.261   0.609   0.545
 8325SOL     OW25873   0.595   3.573   5.425
 8325SOL    HW125874   0.644   3.652   5.462
 8325SOL    HW225875   0.625   3.556   5.331
 8326SOL     OW25876   4.408   4.127   6.508
 8326SOL    HW125877   4.361   4.147   6.594
 8326SOL    HW225878   4.343   4.134   6.432
 8327SOL     OW25879   1.120   0.792   5.617
 8327SOL    HW125880   1.133   0.786   5.518
 8327SOL    HW225881   1.042   0.851   5.637
 8328SOL     OW25882   2.366   6.556   6.611
 8328SOL    HW125883   2.383   6.460   6.590
 8328SOL    HW225884   2.434   6.588   6.678
 8329SOL     OW25885   0.131   2.188   5.107
 8329SOL    HW125886   0.052   2.146   5.151
 8329SOL    HW225887   0.153   2.138   5.023
 8330SOL     OW25888   3.296   1.443   6.674
 8330SOL    HW125889   3.293   1.530   6.624
 8330SOL    HW225890   3.207   1.398   6.668
 8331SOL     OW25891   3.643   0.979   0.642
 8331SOL    HW125892   3.646   0.932   0.554
 8331SOL    HW225893   3.734   0.979   0.683
 8332SOL     OW25894   5.706   5.492   1.890
 8332SOL    HW125895   5.783   5.476   1.828
 8332SOL    HW225896   5.716   5.435   1.972
 8333SOL     OW25897   1.592   4.587   6.551
 8333SOL    HW125898   1.676   4.623   6.512
 8333SOL    HW225899   1.589   4.488   6.537
 8334SOL     OW25900   3.073   2.057   5.985
 8334SOL    HW125901   3.023   2.077   5.901
 8334SOL    HW225902   3.172   2.056   5.966
 8335SOL     OW25903   3.714   1.845   6.906
 8335SOL    HW125904   3.767   1.929   6.892
 8335SOL    HW225905   3.720   1.819   7.003
 8336SOL     OW25906   0.723   3.892   2.790
 8336SOL    HW125907   0.715   3.800   2.827
 8336SOL    HW225908   0.797   3.941   2.838
 8337SOL     OW25909   0.352   0.131   4.098
 8337SOL    HW125910   0.304   0.085   4.023
 8337SOL    HW225911   0.450   0.113   4.090
 8338SOL     OW25912   3.682   5.545   1.769
 8338SOL    HW125913   3.669   5.550   1.670
 8338SOL    HW225914   3.776   5.569   1.792
 8339SOL     OW25915   0.084   1.122   1.596
 8339SOL    HW125916   0.086   1.193   1.667
 8339SOL    HW225917   7.024   1.074   1.599
 8340SOL     OW25918   5.189   3.736   0.650
 8340SOL    HW125919   5.154   3.755   0.742
 8340SOL    HW225920   5.198   3.821   0.599
 8341SOL     OW25921   3.989   0.301   6.973
 8341SOL    HW125922   4.050   0.235   7.017
 8341SOL    HW225923   3.948   0.259   6.892
 8342SOL     OW25924   4.199   6.381   0.407
 8342SOL    HW125925   4.162   6.303   0.356
 8342SOL    HW225926   4.127   6.420   0.464
 8343SOL     OW25927   6.827   5.512   3.697
 8343SOL    HW125928   6.903   5.574   3.681
 8343SOL    HW225929   6.862   5.419   3.711
 8344SOL     OW25930   6.745   4.775   4.564
 8344SOL    HW125931   6.767   4.690   4.610
 8344SOL    HW225932   6.786   4.776   4.473
 8345SOL     OW25933   4.042   2.257   3.279
 8345SOL    HW125934   3.994   2.193   3.220
 8345SOL    HW225935   4.119   2.297   3.229
 8346SOL     OW25936   4.038   4.206   6.967
 8346SOL    HW125937   4.023   4.292   6.919
 8346SOL    HW225938   3.953   4.176   7.010
 8347SOL     OW25939   3.383   6.562   5.917
 8347SOL    HW125940   3.423   6.470   5.918
 8347SOL    HW225941   3.406   6.610   6.001
 8348SOL     OW25942   1.918   0.949   1.545
 8348SOL    HW125943   1.825   0.921   1.523
 8348SOL    HW225944   1.959   0.994   1.466
 8349SOL     OW25945   1.151   6.518   2.231
 8349SOL    HW125946   1.110   6.473   2.151
 8349SOL    HW225947   1.231   6.467   2.261
 8350SOL     OW25948   2.891   6.816   6.353
 8350SOL    HW125949   2.933   6.866   6.277
 8350SOL    HW225950   2.835   6.741   6.316
 8351SOL     OW25951   5.374   5.574   4.789
 8351SOL    HW125952   5.384   5.667   4.755
 8351SOL    HW225953   5.375   5.574   4.889
 8352SOL     OW25954   1.372   6.821   2.951
 8352SOL    HW125955   1.471   6.828   2.958
 8352SOL    HW225956   1.337   6.895   2.894
 8353SOL     OW25957   0.916   3.147   0.731
 8353SOL    HW125958   0.826   3.169   0.693
 8353SOL    HW225959   0.951   3.064   0.687
 8354SOL     OW25960   3.570   0.019   4.120
 8354SOL    HW125961   3.520   0.031   4.034
 8354SOL    HW225962   3.590   6.950   4.134
 8355SOL     OW25963   1.974   1.362   4.437
 8355SOL    HW125964   1.906   1.430   4.412
 8355SOL    HW225965   1.930   1.273   4.449
 8356SOL     OW25966   1.371   6.175   1.111
 8356SOL    HW125967   1.425   6.196   1.192
 8356SOL    HW225968   1.278   6.150   1.138
 8357SOL     OW25969   3.808   6.984   5.691
 8357SOL    HW125970   3.858   7.012   5.609
 8357SOL    HW225971   3.873   6.963   5.764
 8358SOL     OW25972   1.034   3.033   4.468
 8358SOL    HW125973   1.090   2.951   4.477
 8358SOL    HW225974   0.989   3.034   4.379
 8359SOL     OW25975   3.043   1.521   5.057
 8359SOL    HW125976   2.965   1.492   5.002
 8359SOL    HW225977   3.039   1.620   5.072
 8360SOL     OW25978   4.659   6.921   0.748
 8360SOL    HW125979   4.720   6.882   0.679
 8360SOL    HW225980   4.584   6.968   0.704
 8361SOL     OW25981   3.444   0.672   0.781
 8361SOL    HW125982   3.525   0.613   0.782
 8361SOL    HW225983   3.469   0.765   0.804
 8362SOL     OW25984   5.564   1.794   0.677
 8362SOL    HW125985   5.496   1.744   0.731
 8362SOL    HW225986   5.532   1.800   0.582
 8363SOL     OW25987   4.969   2.314   0.297
 8363SOL    HW125988   4.939   2.228   0.257
 8363SOL    HW225989   5.068   2.313   0.309
 8364SOL     OW25990   6.951   2.552   3.876
 8364SOL    HW125991   7.017   2.609   3.827
 8364SOL    HW225992   6.859   2.588   3.861
 8365SOL     OW25993   1.797   2.020   2.365
 8365SOL    HW125994   1.888   2.060   2.353
 8365SOL    HW225995   1.735   2.088   2.404
 8366SOL     OW25996   3.227   5.452   0.907
 8366SOL    HW125997   3.283   5.369   0.904
 8366SOL    HW225998   3.136   5.431   0.871
 8367SOL     OW25999   3.499   5.583   5.026
 8367SOL    HW126000   3.559   5.663   5.033
 8367SOL    HW226001   3.405   5.613   5.008
 8368SOL     OW26002   0.613   5.909   0.266
 8368SOL    HW126003   0.581   6.000   0.240
 8368SOL    HW226004   0.705   5.895   0.230
 8369SOL     OW26005   0.816   0.614   6.698
 8369SOL    HW126006   0.892   0.641   6.758
 8369SOL    HW226007   0.755   0.553   6.749
 8370SOL     OW26008   2.312   1.232   6.011
 8370SOL    HW126009   2.323   1.242   5.912
 8370SOL    HW226010   2.298   1.135   6.033
 8371SOL     OW26011   2.653   3.950   0.482
 8371SOL    HW126012   2.701   3.869   0.515
 8371SOL    HW226013   2.712   4.000   0.419
 8372SOL     OW26014   1.655   5.928   1.616
 8372SOL    HW126015   1.741   5.877   1.615
 8372SOL    HW226016   1.642   5.970   1.706
 8373SOL     OW26017   1.912   6.850   4.425
 8373SOL    HW126018   1.897   6.778   4.358
 8373SOL    HW226019   1.988   6.908   4.395
 8374SOL     OW26020   0.365   0.218   4.821
 8374SOL    HW126021   0.455   0.254   4.797
 8374SOL    HW226022   0.309   0.211   4.738
 8375SOL     OW26023   3.803   6.434   5.626
 8375SOL    HW126024   3.766   6.363   5.685
 8375SOL    HW226025   3.790   6.523   5.669
 8376SOL     OW26026   1.459   1.256   3.786
 8376SOL    HW126027   1.541   1.263   3.731
 8376SOL    HW226028   1.411   1.171   3.765
 8377SOL     OW26029   5.609   6.242   0.072
 8377SOL    HW126030   5.650   6.314   0.128
 8377SOL    HW226031   5.682   6.185   0.034
 8378SOL     OW26032   3.452   4.930   3.145
 8378SOL    HW126033   3.400   4.980   3.215
 8378SOL    HW226034   3.394   4.916   3.065
 8379SOL     OW26035   4.973   3.179   1.944
 8379SOL    HW126036   4.928   3.243   1.881
 8379SOL    HW226037   4.904   3.137   2.003
 8380SOL     OW26038   0.233   6.996   0.338
 8380SOL    HW126039   0.173   6.921   0.309
 8380SOL    HW226040   0.328   6.968   0.329
 8381SOL     OW26041   7.011   2.059   3.691
 8381SOL    HW126042   6.977   2.026   3.603
 8381SOL    HW226043   6.949   2.129   3.727
 8382SOL     OW26044   2.288   6.634   1.624
 8382SOL    HW126045   2.270   6.600   1.532
 8382SOL    HW226046   2.299   6.734   1.621
 8383SOL     OW26047   3.140   0.142   6.020
 8383SOL    HW126048   3.228   0.132   6.067
 8383SOL    HW226049   3.154   0.184   5.930
 8384SOL     OW26050   6.241   1.699   1.557
 8384SOL    HW126051   6.256   1.783   1.609
 8384SOL    HW226052   6.173   1.716   1.486
 8385SOL     OW26053   4.297   2.402   0.170
 8385SOL    HW126054   4.235   2.402   0.249
 8385SOL    HW226055   4.258   2.458   0.097
 8386SOL     OW26056   2.171   6.027   1.636
 8386SOL    HW126057   2.148   5.972   1.556
 8386SOL    HW226058   2.152   5.975   1.719
 8387SOL     OW26059   1.172   1.899   1.248
 8387SOL    HW126060   1.245   1.949   1.201
 8387SOL    HW226061   1.172   1.925   1.345
 8388SOL     OW26062   1.836   6.732   1.050
 8388SOL    HW126063   1.933   6.736   1.026
 8388SOL    HW226064   1.782   6.734   0.966
 8389SOL     OW26065   0.083   2.910   4.183
 8389SOL    HW126066   0.115   2.990   4.234
 8389SOL    HW226067   0.109   2.827   4.233
 8390SOL     OW26068   4.050   6.545   0.042
 8390SOL    HW126069   4.031   6.554   6.973
 8390SOL    HW226070   4.138   6.498   0.055
 8391SOL     OW26071   4.639   5.170   1.210
 8391SOL    HW126072   4.570   5.233   1.247
 8391SOL    HW226073   4.609   5.076   1.225
 8392SOL     OW26074   6.578   5.289   5.368
 8392SOL    HW126075   6.487   5.257   5.341
 8392SOL    HW226076   6.647   5.233   5.322
 8393SOL     OW26077   0.620   0.163   4.049
 8393SOL    HW126078   0.709   0.156   4.095
 8393SOL    HW226079   0.585   0.256   4.059
 8394SOL     OW26080   0.242   3.211   1.606
 8394SOL    HW126081   0.330   3.165   1.592
 8394SOL    HW226082   0.257   3.302   1.644
 8395SOL     OW26083   1.485   6.023   4.077
 8395SOL    HW126084   1.409   5.967   4.108
 8395SOL    HW226085   1.501   6.096   4.144
 8396SOL     OW26086   4.638   4.664   2.439
 8396SOL    HW126087   4.637   4.581   2.383
 8396SOL    HW226088   4.554   4.668   2.494
 8397SOL     OW26089   2.694   1.120   3.365
 8397SOL    HW126090   2.756   1.111   3.287
 8397SOL    HW226091   2.739   1.088   3.448
 8398SOL     OW26092   4.369   2.351   6.309
 8398SOL    HW126093   4.419   2.318   6.389
 8398SOL    HW226094   4.273   2.325   6.317
 8399SOL     OW26095   5.812   0.104   0.077
 8399SOL    HW126096   5.765   0.018   0.099
 8399SOL    HW226097   5.875   0.089   0.000
 8400SOL     OW26098   1.400   0.451   3.705
 8400SOL    HW126099   1.326   0.483   3.645
 8400SOL    HW226100   1.480   0.510   3.693
 8401SOL     OW26101   3.365   1.907   6.306
 8401SOL    HW126102   3.270   1.926   6.279
 8401SOL    HW226103   3.416   1.873   6.227
 8402SOL     OW26104   4.024   1.909   5.424
 8402SOL    HW126105   3.958   1.862   5.481
 8402SOL    HW226106   4.107   1.853   5.416
 8403SOL     OW26107   1.055   1.901   3.141
 8403SOL    HW126108   1.061   1.908   3.241
 8403SOL    HW226109   1.139   1.861   3.105
 8404SOL     OW26110   4.245   5.945   6.431
 8404SOL    HW126111   4.256   5.876   6.359
 8404SOL    HW226112   4.315   6.015   6.420
 8405SOL     OW26113   2.519   0.836   5.737
 8405SOL    HW126114   2.564   0.800   5.655
 8405SOL    HW226115   2.505   0.935   5.725
 8406SOL     OW26116   4.967   6.757   1.012
 8406SOL    HW126117   5.010   6.756   1.102
 8406SOL    HW226118   5.023   6.810   0.949
 8407SOL     OW26119   4.736   6.365   4.253
 8407SOL    HW126120   4.762   6.275   4.219
 8407SOL    HW226121   4.797   6.391   4.328
 8408SOL     OW26122   4.866   3.028   2.311
 8408SOL    HW126123   4.814   3.027   2.226
 8408SOL    HW226124   4.959   2.997   2.294
 8409SOL     OW26125   6.256   3.183   3.412
 8409SOL    HW126126   6.316   3.161   3.335
 8409SOL    HW226127   6.248   3.282   3.421
 8410SOL     OW26128   4.922   0.332   1.666
 8410SOL    HW126129   4.907   0.281   1.751
 8410SOL    HW226130   4.856   0.300   1.597
 8411SOL     OW26131   0.741   5.668   6.535
 8411SOL    HW126132   0.725   5.605   6.458
 8411SOL    HW226133   0.654   5.688   6.580
 8412SOL     OW26134   3.970   2.135   2.151
 8412SOL    HW126135   3.908   2.058   2.132
 8412SOL    HW226136   3.916   2.219   2.160
 8413SOL     OW26137   4.231   5.053   7.024
 8413SOL    HW126138   4.281   4.967   7.023
 8413SOL    HW226139   4.223   5.086   0.090
 8414SOL     OW26140   4.251   5.599   3.198
 8414SOL    HW126141   4.329   5.616   3.259
 8414SOL    HW226142   4.220   5.685   3.158
 8415SOL     OW26143   6.598   5.401   3.406
 8415SOL    HW126144   6.644   5.431   3.489
 8415SOL    HW226145   6.620   5.464   3.331
 8416SOL     OW26146   5.658   3.946   2.702
 8416SOL    HW126147   5.621   3.931   2.794
 8416SOL    HW226148   5.619   3.879   2.639
 8417SOL     OW26149   1.328   5.422   6.117
 8417SOL    HW126150   1.390   5.375   6.179
 8417SOL    HW226151   1.269   5.355   6.072
 8418SOL     OW26152   5.924   5.334   1.084
 8418SOL    HW126153   5.937   5.384   0.998
 8418SOL    HW226154   5.829   5.307   1.093
 8419SOL     OW26155   5.297   1.221   2.731
 8419SOL    HW126156   5.326   1.200   2.825
 8419SOL    HW226157   5.302   1.137   2.676
 8420SOL     OW26158   4.462   6.715   0.528
 8420SOL    HW126159   4.451   6.658   0.446
 8420SOL    HW226160   4.371   6.744   0.560
 8421SOL     OW26161   2.899   5.825   0.575
 8421SOL    HW126162   2.809   5.791   0.603
 8421SOL    HW226163   2.913   5.806   0.478
 8422SOL     OW26164   4.599   0.885   1.169
 8422SOL    HW126165   4.505   0.864   1.195
 8422SOL    HW226166   4.603   0.900   1.070
 8423SOL     OW26167   3.853   4.830   5.639
 8423SOL    HW126168   3.871   4.825   5.737
 8423SOL    HW226169   3.757   4.808   5.621
 8424SOL     OW26170   2.289   2.385   2.498
 8424SOL    HW126171   2.277   2.471   2.449
 8424SOL    HW226172   2.201   2.339   2.507
 8425SOL     OW26173   5.268   5.709   0.529
 8425SOL    HW126174   5.225   5.619   0.541
 8425SOL    HW226175   5.344   5.700   0.465
 8426SOL     OW26176   3.270   3.324   4.037
 8426SOL    HW126177   3.186   3.328   4.091
 8426SOL    HW226178   3.322   3.409   4.051
 8427SOL     OW26179   2.739   3.406   5.277
 8427SOL    HW126180   2.700   3.331   5.331
 8427SOL    HW226181   2.774   3.369   5.191
 8428SOL     OW26182   0.281   4.211   1.802
 8428SOL    HW126183   0.194   4.199   1.850
 8428SOL    HW226184   0.356   4.188   1.864
 8429SOL     OW26185   2.265   4.152   3.481
 8429SOL    HW126186   2.263   4.251   3.470
 8429SOL    HW226187   2.321   4.129   3.561
 8430SOL     OW26188   3.636   5.355   4.226
 8430SOL    HW126189   3.709   5.310   4.175
 8430SOL    HW226190   3.674   5.430   4.281
 8431SOL     OW26191   3.419   5.060   0.961
 8431SOL    HW126192   3.357   5.126   0.919
 8431SOL    HW226193   3.503   5.106   0.990
 8432SOL     OW26194   5.308   0.060   6.260
 8432SOL    HW126195   5.317   0.126   6.186
 8432SOL    HW226196   5.274   7.001   6.224
 8433SOL     OW26197   6.270   1.911   0.564
 8433SOL    HW126198   6.206   1.983   0.588
 8433SOL    HW226199   6.249   1.829   0.618
 8434SOL     OW26200   3.326   7.001   4.959
 8434SOL    HW126201   3.379   6.941   5.019
 8434SOL    HW226202   3.334   0.067   4.990
 8435SOL     OW26203   5.655   0.634   1.233
 8435SOL    HW126204   5.631   0.561   1.169
 8435SOL    HW226205   5.733   0.686   1.196
 8436SOL     OW26206   3.188   0.209   4.338
 8436SOL    HW126207   3.170   0.307   4.326
 8436SOL    HW226208   3.176   0.184   4.434
 8437SOL     OW26209   1.706   0.294   3.537
 8437SOL    HW126210   1.788   0.272   3.590
 8437SOL    HW226211   1.631   0.233   3.565
 8438SOL     OW26212   2.619   4.973   2.108
 8438SOL    HW126213   2.543   4.922   2.150
 8438SOL    HW226214   2.595   4.998   2.014
 8439SOL     OW26215   5.995   5.044   2.439
 8439SOL    HW126216   6.024   5.071   2.531
 8439SOL    HW226217   6.021   5.115   2.373
 8440SOL     OW26218   0.999   1.712   3.407
 8440SOL    HW126219   1.010   1.811   3.417
 8440SOL    HW226220   1.025   1.667   3.492
 8441SOL     OW26221   5.839   6.741   0.182
 8441SOL    HW126222   5.894   6.771   0.261
 8441SOL    HW226223   5.752   6.791   0.182
 8442SOL     OW26224   2.981   2.189   5.740
 8442SOL    HW126225   2.922   2.268   5.753
 8442SOL    HW226226   3.070   2.219   5.705
 8443SOL     OW26227   1.461   6.017   3.798
 8443SOL    HW126228   1.396   6.089   3.824
 8443SOL    HW226229   1.508   5.984   3.880
 8444SOL     OW26230   3.501   6.022   3.690
 8444SOL    HW126231   3.437   6.072   3.748
 8444SOL    HW226232   3.456   5.998   3.604
 8445SOL     OW26233   3.451   5.596   1.536
 8445SOL    HW126234   3.439   5.496   1.531
 8445SOL    HW226235   3.379   5.640   1.482
 8446SOL     OW26236   4.840   4.861   0.147
 8446SOL    HW126237   4.805   4.921   0.075
 8446SOL    HW226238   4.831   4.766   0.119
 8447SOL     OW26239   5.473   2.518   2.007
 8447SOL    HW126240   5.417   2.437   1.991
 8447SOL    HW226241   5.465   2.581   1.929
 8448SOL     OW26242   5.294   5.507   4.308
 8448SOL    HW126243   5.305   5.530   4.211
 8448SOL    HW226244   5.379   5.527   4.357
 8449SOL     OW26245   6.250   2.821   3.992
 8449SOL    HW126246   6.293   2.731   3.991
 8449SOL    HW226247   6.306   2.884   3.938
 8450SOL     OW26248   1.073   6.022   1.811
 8450SOL    HW126249   1.162   6.061   1.790
 8450SOL    HW226250   1.011   6.036   1.733
 8451SOL     OW26251   4.697   2.821   0.568
 8451SOL    HW126252   4.612   2.873   0.563
 8451SOL    HW226253   4.680   2.726   0.545
 8452SOL     OW26254   6.372   1.102   2.621
 8452SOL    HW126255   6.438   1.040   2.579
 8452SOL    HW226256   6.419   1.162   2.685
 8453SOL     OW26257   0.035   4.367   6.500
 8453SOL    HW126258   6.969   4.355   6.467
 8453SOL    HW226259   0.033   4.379   6.599
 8454SOL     OW26260   0.106   6.724   0.930
 8454SOL    HW126261   0.095   6.722   1.029
 8454SOL    HW226262   0.069   6.810   0.894
 8455SOL     OW26263   5.753   2.311   1.866
 8455SOL    HW126264   5.660   2.283   1.843
 8455SOL    HW226265   5.751   2.398   1.915
 8456SOL     OW26266   4.824   5.629   3.065
 8456SOL    HW126267   4.767   5.617   3.146
 8456SOL    HW226268   4.830   5.543   3.015
 8457SOL     OW26269   6.975   6.629   4.929
 8457SOL    HW126270   0.026   6.661   4.877
 8457SOL    HW226271   6.927   6.707   4.968
 8458SOL     OW26272   2.610   1.533   6.979
 8458SOL    HW126273   2.563   1.481   0.022
 8458SOL    HW226274   2.585   1.498   6.889
 8459SOL     OW26275   3.158   6.308   2.141
 8459SOL    HW126276   3.143   6.210   2.154
 8459SOL    HW226277   3.197   6.347   2.224
 8460SOL     OW26278   4.882   2.980   5.618
 8460SOL    HW126279   4.898   2.910   5.549
 8460SOL    HW226280   4.800   3.032   5.595
 8461SOL     OW26281   0.286   3.956   3.282
 8461SOL    HW126282   0.203   4.010   3.267
 8461SOL    HW226283   0.270   3.891   3.357
 8462SOL     OW26284   3.670   2.313   7.022
 8462SOL    HW126285   3.644   2.225   0.034
 8462SOL    HW226286   3.590   2.372   7.016
 8463SOL     OW26287   6.057   6.804   0.385
 8463SOL    HW126288   6.101   6.718   0.359
 8463SOL    HW226289   6.122   6.861   0.435
 8464SOL     OW26290   5.679   3.494   5.806
 8464SOL    HW126291   5.656   3.585   5.841
 8464SOL    HW226292   5.595   3.439   5.800
 8465SOL     OW26293   1.741   2.907   0.977
 8465SOL    HW126294   1.793   2.823   0.991
 8465SOL    HW226295   1.803   2.981   0.950
 8466SOL     OW26296   0.628   0.109   5.209
 8466SOL    HW126297   0.575   0.036   5.254
 8466SOL    HW226298   0.626   0.095   5.110
 8467SOL     OW26299   4.021   0.234   1.321
 8467SOL    HW126300   4.011   0.332   1.303
 8467SOL    HW226301   3.933   0.195   1.347
 8468SOL     OW26302   4.393   2.597   0.395
 8468SOL    HW126303   4.469   2.532   0.390
 8468SOL    HW226304   4.390   2.651   0.311
 8469SOL     OW26305   3.548   1.526   5.430
 8469SOL    HW126306   3.514   1.447   5.482
 8469SOL    HW226307   3.639   1.505   5.395
 8470SOL     OW26308   0.739   4.951   7.007
 8470SOL    HW126309   0.711   4.860   6.978
 8470SOL    HW226310   0.819   4.980   6.954
 8471SOL     OW26311   3.977   0.417   4.470
 8471SOL    HW126312   4.039   0.475   4.523
 8471SOL    HW226313   3.944   0.343   4.529
 8472SOL     OW26314   6.492   0.736   5.386
 8472SOL    HW126315   6.495   0.736   5.486
 8472SOL    HW226316   6.397   0.732   5.355
 8473SOL     OW26317   6.868   6.119   0.845
 8473SOL    HW126318   6.782   6.073   0.865
 8473SOL    HW226319   6.945   6.066   0.882
 8474SOL     OW26320   3.464   3.351   2.534
 8474SOL    HW126321   3.366   3.346   2.553
 8474SOL    HW226322   3.483   3.305   2.447
 8475SOL     OW26323   6.986   2.107   3.383
 8475SOL    HW126324   0.053   2.130   3.362
 8475SOL    HW226325   6.942   2.067   3.303
 8476SOL     OW26326   6.525   2.153   0.713
 8476SOL    HW126327   6.554   2.157   0.809
 8476SOL    HW226328   6.479   2.239   0.689
 8477SOL     OW26329   4.633   6.778   2.470
 8477SOL    HW126330   4.586   6.690   2.481
 8477SOL    HW226331   4.573   6.842   2.421
 8478SOL     OW26332   1.546   0.197   6.410
 8478SOL    HW126333   1.542   0.236   6.502
 8478SOL    HW226334   1.487   0.116   6.406
 8479SOL     OW26335   0.845   2.480   1.048
 8479SOL    HW126336   0.748   2.499   1.062
 8479SOL    HW226337   0.870   2.506   0.954
 8480SOL     OW26338   5.156   2.380   6.983
 8480SOL    HW126339   5.197   2.461   7.024
 8480SOL    HW226340   5.063   2.368   7.017
 8481SOL     OW26341   5.205   2.833   4.833
 8481SOL    HW126342   5.198   2.740   4.870
 8481SOL    HW226343   5.188   2.899   4.907
 8482SOL     OW26344   4.776   6.179   2.405
 8482SOL    HW126345   4.725   6.093   2.417
 8482SOL    HW226346   4.787   6.196   2.307
 8483SOL     OW26347   3.533   6.754   1.844
 8483SOL    HW126348   3.498   6.806   1.922
 8483SOL    HW226349   3.594   6.811   1.790
 8484SOL     OW26350   0.178   6.161   3.776
 8484SOL    HW126351   0.234   6.086   3.812
 8484SOL    HW226352   0.105   6.123   3.718
 8485SOL     OW26353   3.277   2.784   0.429
 8485SOL    HW126354   3.180   2.769   0.413
 8485SOL    HW226355   3.290   2.859   0.493
 8486SOL     OW26356   2.486   1.816   1.997
 8486SOL    HW126357   2.574   1.787   1.959
 8486SOL    HW226358   2.496   1.834   2.095
 8487SOL     OW26359   5.970   1.232   5.273
 8487SOL    HW126360   5.925   1.146   5.300
 8487SOL    HW226361   5.906   1.308   5.283
 8488SOL     OW26362   4.977   6.350   0.968
 8488SOL    HW126363   4.950   6.443   0.942
 8488SOL    HW226364   4.989   6.295   0.886
 8489SOL     OW26365   5.811   1.981   1.713
 8489SOL    HW126366   5.819   1.997   1.812
 8489SOL    HW226367   5.901   1.965   1.674
 8490SOL     OW26368   4.236   6.862   4.518
 8490SOL    HW126369   4.165   6.798   4.490
 8490SOL    HW226370   4.323   6.837   4.475
 8491SOL     OW26371   2.571   5.644   1.575
 8491SOL    HW126372   2.628   5.594   1.510
 8491SOL    HW226373   2.551   5.586   1.654
 8492SOL     OW26374   5.489   3.955   5.217
 8492SOL    HW126375   5.572   3.913   5.254
 8492SOL    HW226376   5.488   4.052   5.241
 8493SOL     OW26377   2.114   2.492   6.371
 8493SOL    HW126378   2.086   2.432   6.445
 8493SOL    HW226379   2.206   2.466   6.341
 8494SOL     OW26380   4.014   5.567   1.848
 8494SOL    HW126381   4.035   5.498   1.778
 8494SOL    HW226382   4.046   5.657   1.817
 8495SOL     OW26383   6.426   5.010   2.045
 8495SOL    HW126384   6.352   5.067   2.008
 8495SOL    HW226385   6.393   4.917   2.058
 8496SOL     OW26386   1.439   2.206   2.123
 8496SOL    HW126387   1.505   2.141   2.160
 8496SOL    HW226388   1.482   2.261   2.051
 8497SOL     OW26389   6.965   0.602   3.648
 8497SOL    HW126390   0.032   0.614   3.619
 8497SOL    HW226391   6.960   0.610   3.748
 8498SOL     OW26392   6.258   5.965   3.328
 8498SOL    HW126393   6.262   5.869   3.357
 8498SOL    HW226394   6.166   5.987   3.296
 8499SOL     OW26395   2.054   4.603   6.651
 8499SOL    HW126396   2.127   4.651   6.701
 8499SOL    HW226397   1.982   4.578   6.715
 8500SOL     OW26398   1.280   6.369   5.139
 8500SOL    HW126399   1.379   6.350   5.133
 8500SOL    HW226400   1.255   6.380   5.235
 8501SOL     OW26401   0.502   2.657   6.814
 8501SOL    HW126402   0.454   2.569   6.814
 8501SOL    HW226403   0.525   2.683   6.721
 8502SOL     OW26404   0.621   3.546   1.325
 8502SOL    HW126405   0.527   3.581   1.317
 8502SOL    HW226406   0.620   3.446   1.323
 8503SOL     OW26407   0.491   6.211   3.994
 8503SOL    HW126408   0.440   6.134   3.956
 8503SOL    HW226409   0.531   6.184   4.082
 8504SOL     OW26410   2.349   4.830   2.509
 8504SOL    HW126411   2.261   4.816   2.554
 8504SOL    HW226412   2.412   4.875   2.572
 8505SOL     OW26413   5.959   3.172   3.498
 8505SOL    HW126414   6.034   3.236   3.479
 8505SOL    HW226415   5.877   3.201   3.448
 8506SOL     OW26416   1.046   0.683   6.852
 8506SOL    HW126417   1.021   0.779   6.841
 8506SOL    HW226418   1.143   0.671   6.835
 8507SOL     OW26419   3.928   0.736   4.748
 8507SOL    HW126420   4.020   0.709   4.720
 8507SOL    HW226421   3.877   0.767   4.669
 8508SOL     OW26422   5.277   1.676   4.856
 8508SOL    HW126423   5.291   1.774   4.860
 8508SOL    HW226424   5.365   1.629   4.845
 8509SOL     OW26425   4.524   1.149   4.289
 8509SOL    HW126426   4.579   1.089   4.231
 8509SOL    HW226427   4.432   1.111   4.299
 8510SOL     OW26428   5.699   4.188   2.519
 8510SOL    HW126429   5.755   4.121   2.469
 8510SOL    HW226430   5.637   4.140   2.580
 8511SOL     OW26431   5.972   4.665   2.375
 8511SOL    HW126432   5.923   4.750   2.354
 8511SOL    HW226433   5.967   4.647   2.473
 8512SOL     OW26434   2.879   1.836   2.449
 8512SOL    HW126435   2.859   1.921   2.400
 8512SOL    HW226436   2.946   1.783   2.398
 8513SOL     OW26437   6.532   5.116   0.852
 8513SOL    HW126438   6.604   5.141   0.788
 8513SOL    HW226439   6.481   5.198   0.878
 8514SOL     OW26440   2.367   2.336   4.342
 8514SOL    HW126441   2.410   2.258   4.387
 8514SOL    HW226442   2.436   2.386   4.288
 8515SOL     OW26443   4.714   2.029   1.339
 8515SOL    HW126444   4.714   2.015   1.240
 8515SOL    HW226445   4.620   2.025   1.373
 8516SOL     OW26446   6.615   1.909   2.052
 8516SOL    HW126447   6.645   1.951   1.966
 8516SOL    HW226448   6.559   1.829   2.031
 8517SOL     OW26449   0.870   2.579   6.485
 8517SOL    HW126450   0.838   2.487   6.510
 8517SOL    HW226451   0.792   2.634   6.455
 8518SOL     OW26452   4.417   4.827   0.039
 8518SOL    HW126453   4.346   4.763   0.011
 8518SOL    HW226454   4.502   4.806   7.019
 8519SOL     OW26455   1.659   4.868   2.030
 8519SOL    HW126456   1.719   4.798   2.069
 8519SOL    HW226457   1.701   4.907   1.948
 8520SOL     OW26458   3.469   2.594   0.484
 8520SOL    HW126459   3.457   2.577   0.582
 8520SOL    HW226460   3.399   2.659   0.453
 8521SOL     OW26461   1.375   4.659   6.084
 8521SOL    HW126462   1.282   4.693   6.073
 8521SOL    HW226463   1.398   4.654   6.181
 8522SOL     OW26464   1.351   5.774   1.675
 8522SOL    HW126465   1.419   5.703   1.689
 8522SOL    HW226466   1.263   5.732   1.651
 8523SOL     OW26467   3.270   0.077   6.342
 8523SOL    HW126468   3.181   0.122   6.335
 8523SOL    HW226469   3.324   0.120   6.415
 8524SOL     OW26470   1.071   2.375   4.902
 8524SOL    HW126471   0.989   2.335   4.943
 8524SOL    HW226472   1.088   2.465   4.941
 8525SOL     OW26473   6.011   4.159   3.155
 8525SOL    HW126474   6.062   4.228   3.104
 8525SOL    HW226475   6.029   4.069   3.116
 8526SOL     OW26476   3.576   5.149   0.020
 8526SOL    HW126477   3.566   5.147   0.120
 8526SOL    HW226478   3.553   5.239   7.013
 8527SOL     OW26479   3.288   0.480   5.234
 8527SOL    HW126480   3.361   0.421   5.269
 8527SOL    HW226481   3.312   0.575   5.249
 8528SOL     OW26482   4.889   2.684   6.376
 8528SOL    HW126483   4.810   2.744   6.360
 8528SOL    HW226484   4.930   2.658   6.289
 8529SOL     OW26485   0.648   7.015   0.515
 8529SOL    HW126486   0.616   6.978   0.428
 8529SOL    HW226487   0.571   0.024   0.567
 8530SOL     OW26488   2.269   4.071   5.333
 8530SOL    HW126489   2.321   4.033   5.257
 8530SOL    HW226490   2.293   4.023   5.417
 8531SOL     OW26491   6.803   4.179   1.430
 8531SOL    HW126492   6.739   4.250   1.401
 8531SOL    HW226493   6.869   4.161   1.357
 8532SOL     OW26494   4.086   4.827   4.622
 8532SOL    HW126495   4.047   4.748   4.671
 8532SOL    HW226496   4.015   4.896   4.609
 8533SOL     OW26497   1.903   0.182   5.764
 8533SOL    HW126498   1.980   0.245   5.764
 8533SOL    HW226499   1.916   0.114   5.691
 8534SOL     OW26500   6.616   3.443   4.166
 8534SOL    HW126501   6.534   3.480   4.121
 8534SOL    HW226502   6.602   3.442   4.265
 8535SOL     OW26503   0.283   2.165   4.848
 8535SOL    HW126504   0.357   2.217   4.806
 8535SOL    HW226505   0.321   2.094   4.908
 8536SOL     OW26506   6.141   2.192   4.955
 8536SOL    HW126507   6.131   2.116   4.890
 8536SOL    HW226508   6.148   2.155   5.048
 8537SOL     OW26509   5.341   1.570   2.504
 8537SOL    HW126510   5.284   1.490   2.523
 8537SOL    HW226511   5.400   1.551   2.426
 8538SOL     OW26512   1.239   1.644   6.057
 8538SOL    HW126513   1.229   1.743   6.066
 8538SOL    HW226514   1.225   1.618   5.961
 8539SOL     OW26515   6.448   1.543   1.946
 8539SOL    HW126516   6.484   1.583   1.862
 8539SOL    HW226517   6.386   1.468   1.923
 8540SOL     OW26518   3.972   1.662   0.396
 8540SOL    HW126519   4.002   1.582   0.344
 8540SOL    HW226520   3.885   1.642   0.441
 8541SOL     OW26521   3.209   2.043   4.303
 8541SOL    HW126522   3.135   2.101   4.269
 8541SOL    HW226523   3.205   1.955   4.256
 8542SOL     OW26524   2.404   4.727   5.815
 8542SOL    HW126525   2.445   4.788   5.882
 8542SOL    HW226526   2.476   4.678   5.766
 8543SOL     OW26527   3.047   1.306   6.947
 8543SOL    HW126528   2.993   1.362   7.011
 8543SOL    HW226529   3.141   1.338   6.946
 8544SOL     OW26530   5.361   2.801   4.409
 8544SOL    HW126531   5.421   2.721   4.412
 8544SOL    HW226532   5.397   2.867   4.343
 8545SOL     OW26533   4.573   6.994   4.792
 8545SOL    HW126534   4.582   6.907   4.743
 8545SOL    HW226535   4.632   6.993   4.872
 8546SOL     OW26536   0.689   6.899   2.800
 8546SOL    HW126537   0.632   6.928   2.876
 8546SOL    HW226538   0.672   6.802   2.780
 8547SOL     OW26539   0.897   0.142   6.656
 8547SOL    HW126540   0.831   0.216   6.653
 8547SOL    HW226541   0.882   0.087   6.739
 8548SOL     OW26542   6.815   3.100   6.023
 8548SOL    HW126543   6.866   3.183   6.048
 8548SOL    HW226544   6.832   3.079   5.926
 8549SOL     OW26545   0.922   2.739   4.155
 8549SOL    HW126546   0.887   2.714   4.065
 8549SOL    HW226547   0.845   2.753   4.218
 8550SOL     OW26548   0.995   5.202   0.454
 8550SOL    HW126549   0.980   5.257   0.372
 8550SOL    HW226550   0.976   5.106   0.433
 8551SOL     OW26551   2.835   3.061   0.326
 8551SOL    HW126552   2.744   3.047   0.288
 8551SOL    HW226553   2.880   2.973   0.340
 8552SOL     OW26554   2.190   0.749   2.780
 8552SOL    HW126555   2.148   0.786   2.697
 8552SOL    HW226556   2.123   0.692   2.828
 8553SOL     OW26557   4.007   4.577   6.674
 8553SOL    HW126558   3.996   4.667   6.717
 8553SOL    HW226559   3.942   4.568   6.599
 8554SOL     OW26560   0.308   5.566   0.420
 8554SOL    HW126561   0.242   5.567   0.496
 8554SOL    HW226562   0.386   5.624   0.443
 8555SOL     OW26563   3.230   0.886   3.610
 8555SOL    HW126564   3.241   0.985   3.613
 8555SOL    HW226565   3.168   0.861   3.536
 8556SOL     OW26566   2.295   6.725   5.426
 8556SOL    HW126567   2.271   6.695   5.518
 8556SOL    HW226568   2.386   6.692   5.402
 8557SOL     OW26569   6.060   6.699   2.278
 8557SOL    HW126570   6.011   6.756   2.344
 8557SOL    HW226571   6.009   6.615   2.262
 8558SOL     OW26572   2.454   5.627   3.370
 8558SOL    HW126573   2.532   5.564   3.364
 8558SOL    HW226574   2.443   5.674   3.282
 8559SOL     OW26575   2.154   0.017   2.614
 8559SOL    HW126576   2.224   0.033   2.684
 8559SOL    HW226577   2.125   6.949   2.618
 8560SOL     OW26578   1.272   6.048   2.057
 8560SOL    HW126579   1.338   6.017   2.124
 8560SOL    HW226580   1.180   6.019   2.084
 8561SOL     OW26581   3.775   0.185   3.036
 8561SOL    HW126582   3.796   0.254   2.966
 8561SOL    HW226583   3.692   0.136   3.010
 8562SOL     OW26584   4.130   6.416   6.355
 8562SOL    HW126585   4.078   6.351   6.299
 8562SOL    HW226586   4.159   6.371   6.439
 8563SOL     OW26587   0.864   4.815   1.398
 8563SOL    HW126588   0.922   4.824   1.317
 8563SOL    HW226589   0.920   4.786   1.476
 8564SOL     OW26590   3.009   0.142   4.892
 8564SOL    HW126591   2.934   0.200   4.860
 8564SOL    HW226592   3.083   0.199   4.928
 8565SOL     OW26593   3.793   5.127   0.968
 8565SOL    HW126594   3.845   5.196   0.917
 8565SOL    HW226595   3.719   5.171   1.018
 8566SOL     OW26596   0.330   6.348   1.507
 8566SOL    HW126597   0.250   6.292   1.488
 8566SOL    HW226598   0.302   6.441   1.529
 8567SOL     OW26599   6.892   1.932   2.499
 8567SOL    HW126600   6.960   1.877   2.547
 8567SOL    HW226601   6.845   1.877   2.431
 8568SOL     OW26602   5.317   1.714   6.841
 8568SOL    HW126603   5.318   1.623   6.884
 8568SOL    HW226604   5.223   1.749   6.841
 8569SOL     OW26605   4.809   1.471   5.703
 8569SOL    HW126606   4.867   1.514   5.634
 8569SOL    HW226607   4.790   1.377   5.677
 8570SOL     OW26608   1.343   1.607   4.016
 8570SOL    HW126609   1.330   1.549   4.097
 8570SOL    HW226610   1.331   1.553   3.933
 8571SOL     OW26611   0.232   5.932   5.861
 8571SOL    HW126612   0.310   5.899   5.808
 8571SOL    HW226613   0.264   5.988   5.937
 8572SOL     OW26614   2.226   4.526   5.839
 8572SOL    HW126615   2.234   4.493   5.934
 8572SOL    HW226616   2.279   4.610   5.828
 8573SOL     OW26617   2.986   6.146   6.391
 8573SOL    HW126618   2.995   6.163   6.293
 8573SOL    HW226619   3.042   6.212   6.441
 8574SOL     OW26620   6.397   7.028   6.452
 8574SOL    HW126621   6.469   6.959   6.465
 8574SOL    HW226622   6.315   7.001   6.503
 8575SOL     OW26623   2.168   2.110   3.463
 8575SOL    HW126624   2.078   2.134   3.497
 8575SOL    HW226625   2.223   2.070   3.537
 8576SOL     OW26626   1.578   4.537   4.497
 8576SOL    HW126627   1.603   4.633   4.511
 8576SOL    HW226628   1.486   4.522   4.532
 8577SOL     OW26629   1.645   6.680   5.129
 8577SOL    HW126630   1.740   6.710   5.130
 8577SOL    HW226631   1.587   6.754   5.163
 8578SOL     OW26632   6.278   5.629   4.845
 8578SOL    HW126633   6.327   5.548   4.876
 8578SOL    HW226634   6.209   5.654   4.912
 8579SOL     OW26635   1.749   6.838   2.067
 8579SOL    HW126636   1.696   6.917   2.035
 8579SOL    HW226637   1.687   6.769   2.104
 8580SOL     OW26638   1.882   6.107   0.893
 8580SOL    HW126639   1.895   6.204   0.915
 8580SOL    HW226640   1.876   6.054   0.978
 8581SOL     OW26641   3.400   4.019   1.535
 8581SOL    HW126642   3.348   4.105   1.536
 8581SOL    HW226643   3.340   3.944   1.505
 8582SOL     OW26644   4.728   4.230   4.804
 8582SOL    HW126645   4.818   4.271   4.817
 8582SOL    HW226646   4.738   4.134   4.780
 8583SOL     OW26647   4.262   0.258   4.354
 8583SOL    HW126648   4.248   0.191   4.426
 8583SOL    HW226649   4.190   0.326   4.356
 8584SOL     OW26650   0.598   6.134   6.247
 8584SOL    HW126651   0.598   6.218   6.302
 8584SOL    HW226652   0.653   6.147   6.165
 8585SOL     OW26653   6.287   1.443   6.697
 8585SOL    HW126654   6.336   1.447   6.784
 8585SOL    HW226655   6.316   1.519   6.639
 8586SOL     OW26656   3.251   6.463   1.899
 8586SOL    HW126657   3.207   6.411   1.826
 8586SOL    HW226658   3.214   6.434   1.987
 8587SOL     OW26659   0.975   0.805   4.698
 8587SOL    HW126660   0.900   0.783   4.760
 8587SOL    HW226661   1.035   0.725   4.690
 8588SOL     OW26662   4.229   1.163   0.248
 8588SOL    HW126663   4.186   1.102   0.181
 8588SOL    HW226664   4.317   1.195   0.212
 8589SOL     OW26665   5.668   2.696   5.402
 8589SOL    HW126666   5.597   2.626   5.408
 8589SOL    HW226667   5.737   2.668   5.335
 8590SOL     OW26668   0.331   0.180   2.761
 8590SOL    HW126669   0.318   0.271   2.720
 8590SOL    HW226670   0.426   0.151   2.747
 8591SOL     OW26671   0.369   3.960   0.287
 8591SOL    HW126672   0.277   3.961   0.324
 8591SOL    HW226673   0.435   3.947   0.361
 8592SOL     OW26674   5.681   2.029   6.550
 8592SOL    HW126675   5.640   2.119   6.563
 8592SOL    HW226676   5.636   1.983   6.473
 8593SOL     OW26677   3.165   1.362   0.321
 8593SOL    HW126678   3.103   1.366   0.243
 8593SOL    HW226679   3.121   1.313   0.396
 8594SOL     OW26680   5.052   2.500   5.440
 8594SOL    HW126681   4.994   2.422   5.414
 8594SOL    HW226682   5.143   2.488   5.401
 8595SOL     OW26683   0.611   0.873   3.707
 8595SOL    HW126684   0.579   0.961   3.744
 8595SOL    HW226685   0.683   0.890   3.640
 8596SOL     OW26686   1.251   4.528   3.018
 8596SOL    HW126687   1.182   4.587   2.975
 8596SOL    HW226688   1.205   4.453   3.066
 8597SOL     OW26689   4.468   1.951   1.780
 8597SOL    HW126690   4.413   2.034   1.778
 8597SOL    HW226691   4.490   1.927   1.875
 8598SOL     OW26692   5.744   0.360   0.124
 8598SOL    HW126693   5.834   0.403   0.131
 8598SOL    HW226694   5.755   0.263   0.102
 8599SOL     OW26695   1.846   2.251   4.281
 8599SOL    HW126696   1.757   2.264   4.236
 8599SOL    HW226697   1.864   2.327   4.342
 8600SOL     OW26698   5.326   3.636   6.522
 8600SOL    HW126699   5.417   3.675   6.507
 8600SOL    HW226700   5.274   3.638   6.436
 8601SOL     OW26701   1.043   1.455   3.929
 8601SOL    HW126702   1.143   1.465   3.927
 8601SOL    HW226703   1.009   1.491   4.016
 8602SOL     OW26704   2.901   6.382   2.756
 8602SOL    HW126705   2.981   6.410   2.704
 8602SOL    HW226706   2.920   6.296   2.802
 8603SOL     OW26707   5.162   5.930   0.959
 8603SOL    HW126708   5.238   5.894   0.906
 8603SOL    HW226709   5.192   6.012   1.009
 8604SOL     OW26710   1.075   2.407   5.415
 8604SOL    HW126711   1.145   2.337   5.426
 8604SOL    HW226712   1.003   2.373   5.354
 8605SOL     OW26713   2.060   5.494   4.226
 8605SOL    HW126714   2.045   5.396   4.242
 8605SOL    HW226715   1.993   5.527   4.160
 8606SOL     OW26716   2.087   3.284   6.692
 8606SOL    HW126717   2.123   3.330   6.773
 8606SOL    HW226718   2.041   3.351   6.633
 8607SOL     OW26719   3.380   4.819   6.067
 8607SOL    HW126720   3.335   4.872   5.994
 8607SOL    HW226721   3.354   4.856   6.156
 8608SOL     OW26722   3.009   4.815   2.351
 8608SOL    HW126723   2.962   4.797   2.265
 8608SOL    HW226724   2.954   4.781   2.427
 8609SOL     OW26725   5.024   0.475   3.014
 8609SOL    HW126726   5.030   0.500   2.917
 8609SOL    HW226727   5.069   0.545   3.070
 8610SOL     OW26728   1.321   1.686   3.282
 8610SOL    HW126729   1.222   1.686   3.296
 8610SOL    HW226730   1.345   1.762   3.221
 8611SOL     OW26731   2.859   1.947   4.239
 8611SOL    HW126732   2.891   2.040   4.220
 8611SOL    HW226733   2.929   1.882   4.210
 8612SOL     OW26734   2.465   3.090   1.015
 8612SOL    HW126735   2.511   3.159   1.070
 8612SOL    HW226736   2.379   3.127   0.979
 8613SOL     OW26737   2.977   1.664   2.031
 8613SOL    HW126738   3.006   1.756   2.004
 8613SOL    HW226739   2.996   1.600   1.956
 8614SOL     OW26740   1.172   2.760   3.823
 8614SOL    HW126741   1.079   2.773   3.788
 8614SOL    HW226742   1.190   2.662   3.830
 8615SOL     OW26743   4.444   2.036   5.325
 8615SOL    HW126744   4.406   1.997   5.409
 8615SOL    HW226745   4.371   2.051   5.259
 8616SOL     OW26746   3.120   4.549   1.683
 8616SOL    HW126747   3.117   4.643   1.717
 8616SOL    HW226748   3.058   4.493   1.737
 8617SOL     OW26749   5.854   1.471   5.293
 8617SOL    HW126750   5.907   1.540   5.244
 8617SOL    HW226751   5.863   1.485   5.391
 8618SOL     OW26752   6.275   5.231   1.106
 8618SOL    HW126753   6.207   5.186   1.163
 8618SOL    HW226754   6.342   5.163   1.075
 8619SOL     OW26755   4.109   4.971   1.986
 8619SOL    HW126756   4.160   4.911   2.047
 8619SOL    HW226757   4.053   5.034   2.040
 8620SOL     OW26758   1.711   6.900   3.308
 8620SOL    HW126759   1.745   6.812   3.340
 8620SOL    HW226760   1.618   6.915   3.342
 8621SOL     OW26761   5.665   1.959   2.484
 8621SOL    HW126762   5.757   1.945   2.448
 8621SOL    HW226763   5.628   1.871   2.514
 8622SOL     OW26764   4.759   3.704   1.221
 8622SOL    HW126765   4.844   3.674   1.264
 8622SOL    HW226766   4.686   3.639   1.241
 8623SOL     OW26767   1.346   3.741   4.609
 8623SOL    HW126768   1.367   3.790   4.525
 8623SOL    HW226769   1.296   3.657   4.587
 8624SOL     OW26770   2.072   3.840   4.733
 8624SOL    HW126771   2.104   3.748   4.758
 8624SOL    HW226772   2.061   3.846   4.634
 8625SOL     OW26773   4.564   1.363   6.153
 8625SOL    HW126774   4.651   1.357   6.203
 8625SOL    HW226775   4.574   1.321   6.063
 8626SOL     OW26776   3.987   2.441   6.526
 8626SOL    HW126777   4.008   2.534   6.497
 8626SOL    HW226778   4.014   2.428   6.622
 8627SOL     OW26779   0.938   1.587   2.534
 8627SOL    HW126780   0.841   1.608   2.523
 8627SOL    HW226781   0.951   1.531   2.615
 8628SOL     OW26782   6.218   6.570   0.360
 8628SOL    HW126783   6.181   6.493   0.412
 8628SOL    HW226784   6.231   6.542   0.265
 8629SOL     OW26785   2.038   6.261   4.952
 8629SOL    HW126786   2.075   6.353   4.963
 8629SOL    HW226787   2.111   6.199   4.924
 8630SOL     OW26788   5.671   3.758   4.278
 8630SOL    HW126789   5.675   3.667   4.320
 8630SOL    HW226790   5.587   3.767   4.226
 8631SOL     OW26791   0.526   5.512   6.560
 8631SOL    HW126792   0.601   5.449   6.539
 8631SOL    HW226793   0.461   5.467   6.620
 8632SOL     OW26794   4.424   4.826   5.324
 8632SOL    HW126795   4.340   4.869   5.357
 8632SOL    HW226796   4.503   4.878   5.357
 8633SOL     OW26797   5.401   1.954   5.963
 8633SOL    HW126798   5.448   2.019   5.904
 8633SOL    HW226799   5.442   1.864   5.952
 8634SOL     OW26800   4.968   3.796   7.017
 8634SOL    HW126801   4.939   3.716   6.964
 8634SOL    HW226802   5.065   3.815   6.998
 8635SOL     OW26803   4.941   3.177   6.520
 8635SOL    HW126804   4.841   3.177   6.521
 8635SOL    HW226805   4.974   3.271   6.512
 8636SOL     OW26806   5.790   5.834   0.978
 8636SOL    HW126807   5.844   5.905   1.024
 8636SOL    HW226808   5.702   5.823   1.025
 8637SOL     OW26809   2.794   0.943   0.051
 8637SOL    HW126810   2.884   0.937   0.009
 8637SOL    HW226811   2.724   0.913   7.014
 8638SOL     OW26812   3.351   2.110   5.000
 8638SOL    HW126813   3.321   2.026   5.046
 8638SOL    HW226814   3.280   2.180   5.010
 8639SOL     OW26815   5.436   2.445   0.301
 8639SOL    HW126816   5.522   2.424   0.347
 8639SOL    HW226817   5.449   2.438   0.202
 8640SOL     OW26818   4.401   3.455   0.347
 8640SOL    HW126819   4.368   3.360   0.348
 8640SOL    HW226820   4.468   3.466   0.273
 8641SOL     OW26821   4.199   4.693   4.017
 8641SOL    HW126822   4.249   4.771   4.055
 8641SOL    HW226823   4.254   4.610   4.029
 8642SOL     OW26824   0.913   6.057   4.370
 8642SOL    HW126825   0.935   6.142   4.418
 8642SOL    HW226826   0.963   6.053   4.283
 8643SOL     OW26827   2.741   0.731   5.920
 8643SOL    HW126828   2.716   0.753   6.014
 8643SOL    HW226829   2.691   0.792   5.858
 8644SOL     OW26830   5.624   2.368   5.446
 8644SOL    HW126831   5.558   2.335   5.512
 8644SOL    HW226832   5.716   2.340   5.473
 8645SOL     OW26833   4.198   4.354   0.938
 8645SOL    HW126834   4.246   4.436   0.969
 8645SOL    HW226835   4.236   4.274   0.984
 8646SOL     OW26836   0.185   1.788   0.578
 8646SOL    HW126837   0.258   1.759   0.639
 8646SOL    HW226838   0.100   1.742   0.603
 8647SOL     OW26839   2.497   5.084   6.658
 8647SOL    HW126840   2.511   5.013   6.727
 8647SOL    HW226841   2.529   5.172   6.694
 8648SOL     OW26842   6.783   0.023   2.685
 8648SOL    HW126843   6.828   6.964   2.706
 8648SOL    HW226844   6.704   0.007   2.626
 8649SOL     OW26845   5.238   6.023   6.890
 8649SOL    HW126846   5.156   5.977   6.924
 8649SOL    HW226847   5.309   6.021   6.961
 8650SOL     OW26848   1.609   5.115   4.550
 8650SOL    HW126849   1.618   5.037   4.612
 8650SOL    HW226850   1.658   5.193   4.588
 8651SOL     OW26851   4.302   1.475   0.529
 8651SOL    HW126852   4.233   1.545   0.510
 8651SOL    HW226853   4.292   1.443   0.623
 8652SOL     OW26854   1.795   5.094   3.429
 8652SOL    HW126855   1.759   5.046   3.349
 8652SOL    HW226856   1.721   5.120   3.490
 8653SOL     OW26857   6.650   1.201   6.272
 8653SOL    HW126858   6.687   1.279   6.222
 8653SOL    HW226859   6.557   1.222   6.302
 8654SOL     OW26860   0.849   4.845   2.425
 8654SOL    HW126861   0.846   4.885   2.517
 8654SOL    HW226862   0.860   4.746   2.432
 8655SOL     OW26863   6.233   0.285   3.998
 8655SOL    HW126864   6.172   0.284   3.918
 8655SOL    HW226865   6.303   0.355   3.986
 8656SOL     OW26866   6.685   0.309   1.820
 8656SOL    HW126867   6.730   0.395   1.841
 8656SOL    HW226868   6.726   0.235   1.873
 8657SOL     OW26869   5.059   5.623   0.046
 8657SOL    HW126870   5.128   5.558   0.014
 8657SOL    HW226871   5.050   5.615   0.145
 8658SOL     OW26872   6.235   6.478   0.091
 8658SOL    HW126873   6.295   6.401   0.112
 8658SOL    HW226874   6.261   6.518   0.003
 8659SOL     OW26875   4.912   2.440   1.975
 8659SOL    HW126876   4.909   2.343   1.996
 8659SOL    HW226877   4.832   2.485   2.015
 8660SOL     OW26878   6.907   3.667   1.950
 8660SOL    HW126879   6.843   3.616   1.893
 8660SOL    HW226880   6.892   3.765   1.937
 8661SOL     OW26881   6.906   3.818   1.324
 8661SOL    HW126882   6.906   3.917   1.336
 8661SOL    HW226883   6.999   3.783   1.340
 8662SOL     OW26884   4.500   5.739   1.997
 8662SOL    HW126885   4.541   5.649   1.982
 8662SOL    HW226886   4.401   5.729   2.013
 8663SOL     OW26887   2.775   5.365   2.516
 8663SOL    HW126888   2.873   5.352   2.529
 8663SOL    HW226889   2.758   5.402   2.425
 8664SOL     OW26890   1.867   6.231   1.411
 8664SOL    HW126891   1.930   6.171   1.460
 8664SOL    HW226892   1.836   6.186   1.327
 8665SOL     OW26893   5.730   5.349   5.301
 8665SOL    HW126894   5.689   5.337   5.211
 8665SOL    HW226895   5.676   5.297   5.369
 8666SOL     OW26896   5.806   0.691   3.677
 8666SOL    HW126897   5.719   0.642   3.684
 8666SOL    HW226898   5.838   0.689   3.583
 8667SOL     OW26899   3.921   1.735   3.873
 8667SOL    HW126900   3.826   1.707   3.858
 8667SOL    HW226901   3.978   1.699   3.799
 8668SOL     OW26902   5.343   3.669   3.226
 8668SOL    HW126903   5.349   3.727   3.307
 8668SOL    HW226904   5.252   3.629   3.219
 8669SOL     OW26905   0.538   6.693   6.587
 8669SOL    HW126906   0.592   6.618   6.548
 8669SOL    HW226907   0.522   6.675   6.684
 8670SOL     OW26908   3.940   5.150   5.656
 8670SOL    HW126909   3.920   5.100   5.572
 8670SOL    HW226910   4.024   5.114   5.697
 8671SOL     OW26911   5.255   1.344   3.287
 8671SOL    HW126912   5.189   1.395   3.233
 8671SOL    HW226913   5.346   1.383   3.274
 8672SOL     OW26914   0.880   4.968   3.844
 8672SOL    HW126915   0.907   5.044   3.903
 8672SOL    HW226916   0.782   4.955   3.849
 8673SOL     OW26917   5.601   2.219   7.012
 8673SOL    HW126918   5.513   2.181   6.980
 8673SOL    HW226919   5.637   2.161   0.057
 8674SOL     OW26920   5.162   5.583   2.652
 8674SOL    HW126921   5.164   5.683   2.654
 8674SOL    HW226922   5.230   5.551   2.586
 8675SOL     OW26923   4.303   1.789   5.145
 8675SOL    HW126924   4.243   1.719   5.106
 8675SOL    HW226925   4.257   1.878   5.141
 8676SOL     OW26926   5.768   6.715   3.140
 8676SOL    HW126927   5.861   6.678   3.151
 8676SOL    HW226928   5.701   6.642   3.157
 8677SOL     OW26929   2.157   5.386   6.340
 8677SOL    HW126930   2.125   5.351   6.252
 8677SOL    HW226931   2.177   5.310   6.401
 8678SOL     OW26932   0.544   0.325   1.235
 8678SOL    HW126933   0.500   0.414   1.243
 8678SOL    HW226934   0.582   0.314   1.144
 8679SOL     OW26935   1.018   1.286   3.288
 8679SOL    HW126936   1.012   1.193   3.325
 8679SOL    HW226937   1.113   1.315   3.286
 8680SOL     OW26938   6.689   3.319   0.069
 8680SOL    HW126939   6.666   3.405   0.024
 8680SOL    HW226940   6.646   3.315   0.159
 8681SOL     OW26941   4.771   5.648   1.529
 8681SOL    HW126942   4.771   5.649   1.629
 8681SOL    HW226943   4.681   5.619   1.496
 8682SOL     OW26944   5.706   0.310   2.541
 8682SOL    HW126945   5.669   0.229   2.494
 8682SOL    HW226946   5.711   0.386   2.476
 8683SOL     OW26947   1.661   2.724   5.204
 8683SOL    HW126948   1.670   2.665   5.124
 8683SOL    HW226949   1.596   2.798   5.186
 8684SOL     OW26950   5.946   2.489   4.540
 8684SOL    HW126951   5.848   2.468   4.529
 8684SOL    HW226952   5.978   2.451   4.626
 8685SOL     OW26953   6.267   1.910   6.117
 8685SOL    HW126954   6.206   1.990   6.109
 8685SOL    HW226955   6.287   1.894   6.213
 8686SOL     OW26956   6.558   0.956   2.494
 8686SOL    HW126957   6.606   0.994   2.415
 8686SOL    HW226958   6.623   0.942   2.569
 8687SOL     OW26959   5.177   5.166   2.147
 8687SOL    HW126960   5.174   5.265   2.160
 8687SOL    HW226961   5.090   5.126   2.174
 8688SOL     OW26962   0.966   5.324   6.200
 8688SOL    HW126963   0.986   5.421   6.184
 8688SOL    HW226964   0.867   5.311   6.205
 8689SOL     OW26965   3.617   2.671   1.171
 8689SOL    HW126966   3.696   2.610   1.182
 8689SOL    HW226967   3.638   2.760   1.212
 8690SOL     OW26968   1.487   3.576   3.457
 8690SOL    HW126969   1.542   3.539   3.531
 8690SOL    HW226970   1.409   3.515   3.439
 8691SOL     OW26971   3.731   1.821   6.544
 8691SOL    HW126972   3.652   1.882   6.552
 8691SOL    HW226973   3.714   1.755   6.471
 8692SOL     OW26974   3.068   1.725   4.517
 8692SOL    HW126975   3.140   1.781   4.557
 8692SOL    HW226976   2.980   1.771   4.528
 8693SOL     OW26977   5.649   6.917   0.223
 8693SOL    HW126978   5.628   6.977   0.300
 8693SOL    HW226979   5.579   6.927   0.153
 8694SOL     OW26980   5.529   1.539   4.910
 8694SOL    HW126981   5.543   1.496   4.999
 8694SOL    HW226982   5.579   1.488   4.840
 8695SOL     OW26983   4.580   3.251   5.835
 8695SOL    HW126984   4.568   3.300   5.921
 8695SOL    HW226985   4.586   3.153   5.854
 8696SOL     OW26986   2.631   5.437   5.106
 8696SOL    HW126987   2.587   5.395   5.026
 8696SOL    HW226988   2.569   5.431   5.185
 8697SOL     OW26989   0.266   4.213   6.465
 8697SOL    HW126990   0.171   4.239   6.452
 8697SOL    HW226991   0.302   4.258   6.547
 8698SOL     OW26992   5.129   6.004   5.146
 8698SOL    HW126993   5.107   5.915   5.106
 8698SOL    HW226994   5.064   6.026   5.218
 8699SOL     OW26995   1.183   3.257   4.544
 8699SOL    HW126996   1.254   3.225   4.606
 8699SOL    HW226997   1.145   3.179   4.494
 8700SOL     OW26998   1.080   0.588   4.910
 8700SOL    HW126999   1.142   0.531   4.857
 8700SOL    HW227000   1.016   0.530   4.961
 8701SOL     OW27001   1.218   1.336   6.935
 8701SOL    HW127002   1.145   1.402   6.920
 8701SOL    HW227003   1.180   1.243   6.933
 8702SOL     OW27004   5.259   5.213   1.866
 8702SOL    HW127005   5.193   5.177   1.801
 8702SOL    HW227006   5.220   5.214   1.958
 8703SOL     OW27007   2.770   5.177   0.514
 8703SOL    HW127008   2.756   5.170   0.415
 8703SOL    HW227009   2.792   5.087   0.551
 8704SOL     OW27010   0.867   4.077   3.486
 8704SOL    HW127011   0.851   4.080   3.584
 8704SOL    HW227012   0.942   4.140   3.462
 8705SOL     OW27013   4.939   1.202   6.521
 8705SOL    HW127014   5.015   1.186   6.459
 8705SOL    HW227015   4.910   1.297   6.515
 8706SOL     OW27016   4.791   2.005   6.911
 8706SOL    HW127017   4.724   1.958   6.968
 8706SOL    HW227018   4.747   2.038   6.828
 8707SOL     OW27019   0.582   1.884   5.686
 8707SOL    HW127020   0.548   1.809   5.744
 8707SOL    HW227021   0.642   1.846   5.615
 8708SOL     OW27022   4.161   1.353   3.571
 8708SOL    HW127023   4.121   1.361   3.663
 8708SOL    HW227024   4.231   1.281   3.572
 8709SOL     OW27025   6.456   6.881   6.729
 8709SOL    HW127026   6.367   6.838   6.713
 8709SOL    HW227027   6.523   6.811   6.755
 8710SOL     OW27028   1.480   3.005   3.172
 8710SOL    HW127029   1.504   2.993   3.268
 8710SOL    HW227030   1.388   3.044   3.165
 8711SOL     OW27031   1.807   6.835   2.489
 8711SOL    HW127032   1.828   6.930   2.465
 8711SOL    HW227033   1.708   6.821   2.486
 8712SOL     OW27034   3.422   1.857   4.112
 8712SOL    HW127035   3.459   1.923   4.177
 8712SOL    HW227036   3.412   1.768   4.157
 8713SOL     OW27037   0.009   3.317   2.474
 8713SOL    HW127038   6.949   3.365   2.472
 8713SOL    HW227039   0.029   3.280   2.383
 8714SOL     OW27040   1.045   0.223   5.977
 8714SOL    HW127041   0.951   0.256   5.967
 8714SOL    HW227042   1.074   0.181   5.891
 8715SOL     OW27043   3.857   0.720   1.198
 8715SOL    HW127044   3.918   0.665   1.140
 8715SOL    HW227045   3.874   0.817   1.181
 8716SOL     OW27046   0.132   0.126   0.689
 8716SOL    HW127047   0.157   0.070   0.768
 8716SOL    HW227048   0.123   0.221   0.717
 8717SOL     OW27049   2.874   3.983   5.256
 8717SOL    HW127050   2.932   4.042   5.201
 8717SOL    HW227051   2.921   3.959   5.340
 8718SOL     OW27052   1.337   3.056   5.400
 8718SOL    HW127053   1.257   3.081   5.346
 8718SOL    HW227054   1.393   3.138   5.417
 8719SOL     OW27055   4.105   0.276   0.532
 8719SOL    HW127056   4.170   0.200   0.536
 8719SOL    HW227057   4.026   0.249   0.476
 8720SOL     OW27058   0.972   6.268   6.467
 8720SOL    HW127059   0.978   6.289   6.369
 8720SOL    HW227060   1.064   6.253   6.503
 8721SOL     OW27061   6.579   2.398   1.766
 8721SOL    HW127062   6.552   2.330   1.834
 8721SOL    HW227063   6.676   2.418   1.776
 8722SOL     OW27064   3.528   1.296   1.296
 8722SOL    HW127065   3.624   1.321   1.285
 8722SOL    HW227066   3.476   1.331   1.218
 8723SOL     OW27067   4.852   6.471   2.016
 8723SOL    HW127068   4.785   6.398   2.025
 8723SOL    HW227069   4.910   6.474   2.097
 8724SOL     OW27070   5.655   6.585   4.405
 8724SOL    HW127071   5.585   6.602   4.474
 8724SOL    HW227072   5.637   6.642   4.325
 8725SOL     OW27073   1.975   5.654   5.645
 8725SOL    HW127074   2.039   5.587   5.608
 8725SOL    HW227075   1.943   5.623   5.735
 8726SOL     OW27076   0.197   0.790   3.236
 8726SOL    HW127077   0.170   0.873   3.188
 8726SOL    HW227078   0.281   0.754   3.196
 8727SOL     OW27079   6.452   0.007   1.745
 8727SOL    HW127080   6.424   0.054   1.829
 8727SOL    HW227081   6.400   0.043   1.667
 8728SOL     OW27082   6.269   0.964   1.978
 8728SOL    HW127083   6.312   1.010   2.056
 8728SOL    HW227084   6.282   1.018   1.895
 8729SOL     OW27085   3.369   4.853   5.475
 8729SOL    HW127086   3.375   4.898   5.386
 8729SOL    HW227087   3.445   4.884   5.532
 8730SOL     OW27088   5.305   3.480   2.575
 8730SOL    HW127089   5.277   3.537   2.498
 8730SOL    HW227090   5.311   3.385   2.546
 8731SOL     OW27091   0.628   3.339   2.984
 8731SOL    HW127092   0.551   3.398   2.959
 8731SOL    HW227093   0.619   3.311   3.080
 8732SOL     OW27094   5.372   4.859   1.949
 8732SOL    HW127095   5.378   4.891   1.854
 8732SOL    HW227096   5.285   4.812   1.963
 8733SOL     OW27097   1.557   6.086   0.942
 8733SOL    HW127098   1.486   6.136   0.991
 8733SOL    HW227099   1.538   5.988   0.945
 8734SOL     OW27100   0.989   3.340   2.727
 8734SOL    HW127101   0.925   3.411   2.697
 8734SOL    HW227102   0.949   3.289   2.803
 8735SOL     OW27103   0.800   3.298   6.879
 8735SOL    HW127104   0.877   3.326   6.822
 8735SOL    HW227105   0.789   3.363   6.954
 8736SOL     OW27106   0.370   5.357   1.666
 8736SOL    HW127107   0.426   5.438   1.651
 8736SOL    HW227108   0.359   5.342   1.765
 8737SOL     OW27109   1.809   6.610   0.289
 8737SOL    HW127110   1.799   6.632   0.192
 8737SOL    HW227111   1.763   6.523   0.309
 8738SOL     OW27112   2.601   5.617   4.322
 8738SOL    HW127113   2.571   5.710   4.341
 8738SOL    HW227114   2.522   5.562   4.294
 8739SOL     OW27115   5.887   5.835   6.020
 8739SOL    HW127116   5.903   5.871   5.928
 8739SOL    HW227117   5.828   5.754   6.015
 8740SOL     OW27118   3.995   1.366   4.598
 8740SOL    HW127119   3.939   1.354   4.516
 8740SOL    HW227120   4.028   1.461   4.602
 8741SOL     OW27121   2.230   1.156   2.648
 8741SOL    HW127122   2.212   1.166   2.550
 8741SOL    HW227123   2.204   1.241   2.695
 8742SOL     OW27124   4.706   0.023   1.812
 8742SOL    HW127125   4.705   0.023   1.712
 8742SOL    HW227126   4.651   0.098   1.846
 8743SOL     OW27127   1.149   6.946   1.801
 8743SOL    HW127128   1.086   6.982   1.870
 8743SOL    HW227129   1.243   6.965   1.829
 8744SOL     OW27130   4.239   2.743   0.561
 8744SOL    HW127131   4.297   2.689   0.500
 8744SOL    HW227132   4.170   2.791   0.508
 8745SOL     OW27133   6.221   1.705   6.323
 8745SOL    HW127134   6.221   1.734   6.419
 8745SOL    HW227135   6.219   1.605   6.318
 8746SOL     OW27136   4.604   5.160   4.871
 8746SOL    HW127137   4.657   5.236   4.834
 8746SOL    HW227138   4.508   5.185   4.877
 8747SOL     OW27139   6.747   1.474   2.863
 8747SOL    HW127140   6.719   1.554   2.915
 8747SOL    HW227141   6.838   1.489   2.824
 8748SOL     OW27142   0.315   1.909   4.572
 8748SOL    HW127143   0.224   1.914   4.529
 8748SOL    HW227144   0.344   2.002   4.597
 8749SOL     OW27145   2.105   0.399   5.230
 8749SOL    HW127146   2.130   0.302   5.233
 8749SOL    HW227147   2.170   0.452   5.284
 8750SOL     OW27148   3.502   4.255   5.731
 8750SOL    HW127149   3.522   4.351   5.752
 8750SOL    HW227150   3.583   4.212   5.692
 8751SOL     OW27151   6.199   1.844   1.958
 8751SOL    HW127152   6.270   1.778   1.982
 8751SOL    HW227153   6.115   1.794   1.936
 8752SOL     OW27154   3.170   3.161   6.323
 8752SOL    HW127155   3.148   3.071   6.287
 8752SOL    HW227156   3.254   3.195   6.280
 8753SOL     OW27157   2.990   1.761   6.502
 8753SOL    HW127158   3.087   1.767   6.528
 8753SOL    HW227159   2.982   1.744   6.404
 8754SOL     OW27160   1.509   4.054   5.040
 8754SOL    HW127161   1.605   4.055   5.069
 8754SOL    HW227162   1.495   4.124   4.970
 8755SOL     OW27163   2.064   1.139   1.332
 8755SOL    HW127164   2.061   1.055   1.278
 8755SOL    HW227165   1.992   1.201   1.300
 8756SOL     OW27166   1.999   3.072   3.754
 8756SOL    HW127167   2.095   3.042   3.760
 8756SOL    HW227168   1.940   3.001   3.792
 8757SOL     OW27169   3.977   5.404   6.818
 8757SOL    HW127170   3.955   5.368   6.727
 8757SOL    HW227171   4.072   5.381   6.841
 8758SOL     OW27172   4.905   5.903   3.254
 8758SOL    HW127173   4.915   5.981   3.191
 8758SOL    HW227174   4.880   5.822   3.202
 8759SOL     OW27175   4.810   2.956   0.021
 8759SOL    HW127176   4.815   2.917   0.113
 8759SOL    HW227177   4.885   2.920   6.994
 8760SOL     OW27178   3.050   1.095   5.058
 8760SOL    HW127179   2.956   1.063   5.059
 8760SOL    HW227180   3.074   1.129   4.967
 8761SOL     OW27181   6.221   2.261   1.402
 8761SOL    HW127182   6.187   2.355   1.400
 8761SOL    HW227183   6.320   2.261   1.409
 8762SOL     OW27184   0.726   4.700   3.785
 8762SOL    HW127185   0.690   4.783   3.826
 8762SOL    HW227186   0.650   4.644   3.752
 8763SOL     OW27187   6.064   6.840   6.272
 8763SOL    HW127188   6.046   6.805   6.365
 8763SOL    HW227189   6.101   6.932   6.278
 8764SOL     OW27190   4.662   0.390   5.529
 8764SOL    HW127191   4.682   0.323   5.458
 8764SOL    HW227192   4.725   0.377   5.606
 8765SOL     OW27193   5.110   0.718   3.901
 8765SOL    HW127194   5.113   0.639   3.839
 8765SOL    HW227195   5.018   0.725   3.940
 8766SOL     OW27196   4.633   4.268   5.051
 8766SOL    HW127197   4.535   4.277   5.065
 8766SOL    HW227198   4.651   4.244   4.956
 8767SOL     OW27199   5.795   5.845   2.777
 8767SOL    HW127200   5.796   5.897   2.863
 8767SOL    HW227201   5.872   5.781   2.776
 8768SOL     OW27202   1.571   2.714   0.132
 8768SOL    HW127203   1.543   2.742   0.224
 8768SOL    HW227204   1.586   2.796   0.076
 8769SOL     OW27205   0.108   0.631   2.938
 8769SOL    HW127206   0.178   0.630   3.009
 8769SOL    HW227207   0.070   0.539   2.928
 8770SOL     OW27208   4.569   4.441   2.262
 8770SOL    HW127209   4.538   4.377   2.192
 8770SOL    HW227210   4.621   4.392   2.331
 8771SOL     OW27211   1.600   1.932   6.384
 8771SOL    HW127212   1.635   2.013   6.432
 8771SOL    HW227213   1.665   1.857   6.394
 8772SOL     OW27214   4.291   0.514   6.384
 8772SOL    HW127215   4.345   0.587   6.342
 8772SOL    HW227216   4.329   0.493   6.474
 8773SOL     OW27217   5.248   2.783   3.807
 8773SOL    HW127218   5.285   2.711   3.749
 8773SOL    HW227219   5.224   2.746   3.897
 8774SOL     OW27220   1.395   0.888   0.217
 8774SOL    HW127221   1.401   0.875   0.316
 8774SOL    HW227222   1.485   0.879   0.176
 8775SOL     OW27223   5.452   1.191   5.687
 8775SOL    HW127224   5.489   1.234   5.769
 8775SOL    HW227225   5.525   1.141   5.640
 8776SOL     OW27226   4.595   3.263   0.563
 8776SOL    HW127227   4.652   3.249   0.644
 8776SOL    HW227228   4.636   3.334   0.505
 8777SOL     OW27229   6.252   4.325   3.076
 8777SOL    HW127230   6.340   4.280   3.059
 8777SOL    HW227231   6.261   4.423   3.060
 8778SOL     OW27232   5.408   2.963   6.048
 8778SOL    HW127233   5.316   2.969   6.087
 8778SOL    HW227234   5.438   3.054   6.018
 8779SOL     OW27235   2.461   5.284   2.184
 8779SOL    HW127236   2.377   5.256   2.230
 8779SOL    HW227237   2.512   5.203   2.154
 8780SOL     OW27238   0.610   0.044   3.145
 8780SOL    HW127239   0.663   0.075   3.223
 8780SOL    HW227240   0.585   0.122   3.088
 8781SOL     OW27241   5.136   0.788   4.342
 8781SOL    HW127242   5.230   0.786   4.376
 8781SOL    HW227243   5.078   0.834   4.410
 8782SOL     OW27244   6.891   0.675   2.131
 8782SOL    HW127245   6.949   0.608   2.176
 8782SOL    HW227246   6.947   0.750   2.096
 8783SOL     OW27247   6.421   4.298   3.337
 8783SOL    HW127248   6.426   4.397   3.322
 8783SOL    HW227249   6.508   4.266   3.376
 8784SOL     OW27250   0.037   6.370   5.999
 8784SOL    HW127251   7.007   6.370   6.080
 8784SOL    HW227252   7.010   6.397   5.919
 8785SOL     OW27253   5.942   4.957   0.077
 8785SOL    HW127254   5.868   4.896   0.047
 8785SOL    HW227255   6.030   4.913   0.058
 8786SOL     OW27256   2.698   1.200   0.679
 8786SOL    HW127257   2.757   1.281   0.688
 8786SOL    HW227258   2.725   1.132   0.748
 8787SOL     OW27259   3.069   1.700   2.271
 8787SOL    HW127260   3.160   1.662   2.286
 8787SOL    HW227261   3.039   1.679   2.178
 8788SOL     OW27262   0.118   0.791   5.581
 8788SOL    HW127263   0.195   0.728   5.572
 8788SOL    HW227264   0.032   0.742   5.562
 8789SOL     OW27265   6.326   5.198   5.365
 8789SOL    HW127266   6.247   5.181   5.306
 8789SOL    HW227267   6.370   5.111   5.387
 8790SOL     OW27268   6.277   0.342   6.409
 8790SOL    HW127269   6.217   0.318   6.485
 8790SOL    HW227270   6.237   0.307   6.324
 8791SOL     OW27271   5.811   6.695   5.195
 8791SOL    HW127272   5.719   6.717   5.228
 8791SOL    HW227273   5.851   6.776   5.153
 8792SOL     OW27274   2.994   5.081   2.971
 8792SOL    HW127275   3.066   5.146   2.995
 8792SOL    HW227276   2.922   5.083   3.041
 8793SOL     OW27277   0.701   4.482   2.089
 8793SOL    HW127278   0.710   4.384   2.105
 8793SOL    HW227279   0.776   4.513   2.031
 8794SOL     OW27280   5.322   0.168   2.766
 8794SOL    HW127281   5.263   0.126   2.835
 8794SOL    HW227282   5.418   0.146   2.785
 8795SOL     OW27283   0.893   4.389   5.829
 8795SOL    HW127284   0.894   4.390   5.729
 8795SOL    HW227285   0.933   4.475   5.863
 8796SOL     OW27286   4.920   2.283   3.772
 8796SOL    HW127287   4.827   2.275   3.739
 8796SOL    HW227288   4.949   2.197   3.814
 8797SOL     OW27289   0.217   0.451   6.555
 8797SOL    HW127290   0.235   0.354   6.565
 8797SOL    HW227291   0.284   0.492   6.493
 8798SOL     OW27292   4.905   6.362   6.451
 8798SOL    HW127293   4.850   6.440   6.481
 8798SOL    HW227294   4.951   6.384   6.365
 8799SOL     OW27295   2.247   5.172   3.617
 8799SOL    HW127296   2.182   5.248   3.619
 8799SOL    HW227297   2.341   5.208   3.617
 8800SOL     OW27298   5.962   4.733   6.109
 8800SOL    HW127299   6.051   4.718   6.067
 8800SOL    HW227300   5.893   4.680   6.061
 8801SOL     OW27301   0.162   1.518   4.707
 8801SOL    HW127302   0.176   1.615   4.727
 8801SOL    HW227303   0.064   1.499   4.701
 8802SOL     OW27304   1.997   6.490   6.134
 8802SOL    HW127305   2.025   6.580   6.167
 8802SOL    HW227306   1.902   6.494   6.105
 8803SOL     OW27307   6.773   6.936   0.228
 8803SOL    HW127308   6.783   6.843   0.192
 8803SOL    HW227309   6.711   6.935   0.306
 8804SOL     OW27310   2.223   6.576   1.378
 8804SOL    HW127311   2.132   6.537   1.387
 8804SOL    HW227312   2.288   6.503   1.355
 8805SOL     OW27313   3.573   6.279   3.164
 8805SOL    HW127314   3.645   6.210   3.166
 8805SOL    HW227315   3.571   6.327   3.252
 8806SOL     OW27316   3.238   4.566   0.766
 8806SOL    HW127317   3.248   4.533   0.860
 8806SOL    HW227318   3.329   4.571   0.723
 8807SOL     OW27319   5.043   1.638   0.523
 8807SOL    HW127320   5.126   1.686   0.496
 8807SOL    HW227321   5.017   1.574   0.450
 8808SOL     OW27322   6.577   2.651   6.855
 8808SOL    HW127323   6.655   2.591   6.835
 8808SOL    HW227324   6.544   2.691   6.770
 8809SOL     OW27325   3.295   4.919   3.927
 8809SOL    HW127326   3.285   5.016   3.904
 8809SOL    HW227327   3.377   4.882   3.883
 8810SOL     OW27328   6.073   0.424   5.246
 8810SOL    HW127329   6.029   0.342   5.283
 8810SOL    HW227330   6.062   0.500   5.311
 8811SOL     OW27331   3.480   1.212   3.003
 8811SOL    HW127332   3.452   1.134   3.059
 8811SOL    HW227333   3.405   1.239   2.943
 8812SOL     OW27334   1.722   0.849   0.809
 8812SOL    HW127335   1.710   0.781   0.881
 8812SOL    HW227336   1.651   0.918   0.815
 8813SOL     OW27337   1.956   5.684   3.118
 8813SOL    HW127338   1.998   5.673   3.208
 8813SOL    HW227339   2.006   5.755   3.067
 8814SOL     OW27340   6.672   0.038   0.641
 8814SOL    HW127341   6.733   6.999   0.683
 8814SOL    HW227342   6.628   0.092   0.713
 8815SOL     OW27343   5.022   6.985   1.458
 8815SOL    HW127344   5.079   0.010   1.521
 8815SOL    HW227345   5.081   6.931   1.397
 8816SOL     OW27346   0.843   6.646   6.939
 8816SOL    HW127347   0.900   6.609   7.012
 8816SOL    HW227348   0.900   6.694   6.873
 8817SOL     OW27349   6.966   4.194   3.954
 8817SOL    HW127350   6.958   4.283   3.998
 8817SOL    HW227351   6.963   4.122   4.023
 8818SOL     OW27352   0.915   5.203   3.971
 8818SOL    HW127353   0.861   5.189   4.055
 8818SOL    HW227354   0.894   5.293   3.932
 8819SOL     OW27355   5.332   5.327   5.541
 8819SOL    HW127356   5.315   5.275   5.458
 8819SOL    HW227357   5.356   5.264   5.615
 8820SOL     OW27358   2.982   0.826   5.448
 8820SOL    HW127359   2.944   0.763   5.516
 8820SOL    HW227360   3.078   0.843   5.469
 8821SOL     OW27361   2.114   5.838   0.834
 8821SOL    HW127362   2.043   5.834   0.764
 8821SOL    HW227363   2.074   5.823   0.924
 8822SOL     OW27364   0.981   1.179   4.003
 8822SOL    HW127365   0.917   1.139   4.068
 8822SOL    HW227366   0.958   1.275   3.987
 8823SOL     OW27367   2.694   1.090   2.702
 8823SOL    HW127368   2.794   1.086   2.702
 8823SOL    HW227369   2.665   1.158   2.635
 8824SOL     OW27370   1.655   1.217   0.235
 8824SOL    HW127371   1.565   1.244   0.270
 8824SOL    HW227372   1.648   1.127   0.192
 8825SOL     OW27373   1.498   0.901   2.218
 8825SOL    HW127374   1.498   0.948   2.306
 8825SOL    HW227375   1.404   0.896   2.183
 8826SOL     OW27376   0.787   3.992   0.457
 8826SOL    HW127377   0.825   3.916   0.510
 8826SOL    HW227378   0.692   3.971   0.432
 8827SOL     OW27379   4.360   0.363   3.258
 8827SOL    HW127380   4.277   0.396   3.213
 8827SOL    HW227381   4.431   0.347   3.189
 8828SOL     OW27382   3.839   5.276   6.596
 8828SOL    HW127383   3.808   5.212   6.667
 8828SOL    HW227384   3.813   5.240   6.506
 8829SOL     OW27385   5.420   2.034   1.179
 8829SOL    HW127386   5.465   2.095   1.244
 8829SOL    HW227387   5.372   1.961   1.229
 8830SOL     OW27388   2.177   1.712   2.259
 8830SOL    HW127389   2.242   1.783   2.286
 8830SOL    HW227390   2.084   1.748   2.263
 8831SOL     OW27391   5.170   2.591   3.526
 8831SOL    HW127392   5.126   2.657   3.465
 8831SOL    HW227393   5.148   2.498   3.496
 8832SOL     OW27394   0.002   6.537   3.780
 8832SOL    HW127395   0.018   6.633   3.803
 8832SOL    HW227396   7.004   6.487   3.863
 8833SOL     OW27397   2.553   5.456   6.499
 8833SOL    HW127398   2.557   5.436   6.597
 8833SOL    HW227399   2.563   5.370   6.448
 8834SOL     OW27400   5.855   4.087   4.437
 8834SOL    HW127401   5.907   4.163   4.399
 8834SOL    HW227402   5.861   4.008   4.377
 8835SOL     OW27403   5.304   1.038   5.905
 8835SOL    HW127404   5.317   1.106   5.832
 8835SOL    HW227405   5.208   1.011   5.908
 8836SOL     OW27406   5.184   2.056   0.612
 8836SOL    HW127407   5.152   2.149   0.629
 8836SOL    HW227408   5.261   2.035   0.673
 8837SOL     OW27409   0.005   6.887   2.821
 8837SOL    HW127410   6.983   6.901   2.906
 8837SOL    HW227411   0.093   6.844   2.840
 8838SOL     OW27412   1.901   4.694   3.907
 8838SOL    HW127413   1.960   4.740   3.973
 8838SOL    HW227414   1.901   4.746   3.821
 8839SOL     OW27415   4.268   5.530   1.537
 8839SOL    HW127416   4.281   5.549   1.439
 8839SOL    HW227417   4.357   5.529   1.582
 8840SOL     OW27418   6.958   0.739   2.728
 8840SOL    HW127419   0.005   0.718   2.791
 8840SOL    HW227420   6.916   0.654   2.697
 8841SOL     OW27421   0.693   1.389   4.548
 8841SOL    HW127422   0.785   1.393   4.586
 8841SOL    HW227423   0.650   1.303   4.574
 8842SOL     OW27424   3.222   3.113   3.317
 8842SOL    HW127425   3.287   3.081   3.385
 8842SOL    HW227426   3.239   3.066   3.230
 8843SOL     OW27427   1.695   3.390   4.571
 8843SOL    HW127428   1.616   3.449   4.587
 8843SOL    HW227429   1.735   3.411   4.482
 8844SOL     OW27430   0.362   1.682   5.062
 8844SOL    HW127431   0.326   1.710   5.151
 8844SOL    HW227432   0.459   1.706   5.057
 8845SOL     OW27433   2.704   3.653   1.265
 8845SOL    HW127434   2.741   3.731   1.214
 8845SOL    HW227435   2.749   3.647   1.354
 8846SOL     OW27436   3.839   4.974   4.560
 8846SOL    HW127437   3.759   4.972   4.500
 8846SOL    HW227438   3.832   5.054   4.621
 8847SOL     OW27439   2.612   1.152   2.985
 8847SOL    HW127440   2.628   1.138   2.887
 8847SOL    HW227441   2.515   1.169   3.000
 8848SOL     OW27442   2.625   2.399   2.455
 8848SOL    HW127443   2.646   2.394   2.357
 8848SOL    HW227444   2.527   2.411   2.468
 8849SOL     OW27445   3.756   5.640   3.533
 8849SOL    HW127446   3.755   5.630   3.632
 8849SOL    HW227447   3.708   5.563   3.491
 8850SOL     OW27448   2.027   0.810   6.558
 8850SOL    HW127449   1.940   0.783   6.516
 8850SOL    HW227450   2.023   0.907   6.583
 8851SOL     OW27451   0.724   5.001   2.235
 8851SOL    HW127452   0.765   4.952   2.312
 8851SOL    HW227453   0.795   5.030   2.172
 8852SOL     OW27454   4.050   4.015   6.079
 8852SOL    HW127455   4.011   4.095   6.126
 8852SOL    HW227456   4.149   4.015   6.091
 8853SOL     OW27457   3.341   0.804   6.251
 8853SOL    HW127458   3.247   0.823   6.225
 8853SOL    HW227459   3.384   0.887   6.284
 8854SOL     OW27460   3.040   1.700   6.236
 8854SOL    HW127461   3.046   1.799   6.249
 8854SOL    HW227462   3.127   1.658   6.261
 8855SOL     OW27463   0.098   6.114   0.297
 8855SOL    HW127464   0.012   6.106   0.348
 8855SOL    HW227465   0.139   6.023   0.287
 8856SOL     OW27466   6.277   0.609   6.291
 8856SOL    HW127467   6.339   0.682   6.262
 8856SOL    HW227468   6.322   0.551   6.358
 8857SOL     OW27469   6.599   2.076   3.749
 8857SOL    HW127470   6.636   2.072   3.657
 8857SOL    HW227471   6.504   2.108   3.745
 8858SOL     OW27472   1.424   2.606   5.314
 8858SOL    HW127473   1.400   2.548   5.235
 8858SOL    HW227474   1.519   2.637   5.304
 8859SOL     OW27475   6.603   0.898   4.073
 8859SOL    HW127476   6.562   0.962   4.139
 8859SOL    HW227477   6.556   0.810   4.079
 8860SOL     OW27478   0.793   3.081   2.827
 8860SOL    HW127479   0.770   2.994   2.784
 8860SOL    HW227480   0.718   3.111   2.886
 8861SOL     OW27481   3.712   2.013   6.124
 8861SOL    HW127482   3.806   2.008   6.157
 8861SOL    HW227483   3.669   1.924   6.132
 8862SOL     OW27484   6.391   0.201   3.337
 8862SOL    HW127485   6.373   0.205   3.239
 8862SOL    HW227486   6.414   0.108   3.363
 8863SOL     OW27487   1.303   5.285   4.296
 8863SOL    HW127488   1.276   5.254   4.205
 8863SOL    HW227489   1.402   5.299   4.299
 8864SOL     OW27490   3.307   3.218   6.110
 8864SOL    HW127491   3.332   3.122   6.101
 8864SOL    HW227492   3.296   3.259   6.019
 8865SOL     OW27493   2.644   1.499   5.943
 8865SOL    HW127494   2.717   1.562   5.968
 8865SOL    HW227495   2.627   1.436   6.019
 8866SOL     OW27496   5.264   6.909   3.124
 8866SOL    HW127497   5.268   6.809   3.117
 8866SOL    HW227498   5.355   6.947   3.107
 8867SOL     OW27499   5.215   3.436   2.265
 8867SOL    HW127500   5.118   3.414   2.250
 8867SOL    HW227501   5.255   3.366   2.325
 8868SOL     OW27502   6.427   2.655   0.465
 8868SOL    HW127503   6.382   2.663   0.554
 8868SOL    HW227504   6.525   2.669   0.476
 8869SOL     OW27505   4.255   5.762   4.620
 8869SOL    HW127506   4.317   5.684   4.625
 8869SOL    HW227507   4.299   5.838   4.572
 8870SOL     OW27508   4.268   0.494   0.201
 8870SOL    HW127509   4.346   0.487   0.139
 8870SOL    HW227510   4.211   0.412   0.193
 8871SOL     OW27511   1.532   0.519   4.035
 8871SOL    HW127512   1.582   0.543   3.952
 8871SOL    HW227513   1.477   0.437   4.019
 8872SOL     OW27514   1.628   4.719   5.095
 8872SOL    HW127515   1.544   4.749   5.049
 8872SOL    HW227516   1.708   4.753   5.046
 8873SOL     OW27517   0.830   5.625   2.539
 8873SOL    HW127518   0.778   5.558   2.591
 8873SOL    HW227519   0.772   5.663   2.467
 8874SOL     OW27520   2.928   6.054   1.638
 8874SOL    HW127521   3.007   6.033   1.697
 8874SOL    HW227522   2.872   6.124   1.683
 8875SOL     OW27523   6.133   3.457   4.816
 8875SOL    HW127524   6.129   3.544   4.766
 8875SOL    HW227525   6.072   3.462   4.895
 8876SOL     OW27526   1.676   0.012   4.455
 8876SOL    HW127527   1.711   0.103   4.433
 8876SOL    HW227528   1.749   6.972   4.445
 8877SOL     OW27529   2.789   0.727   3.708
 8877SOL    HW127530   2.733   0.681   3.777
 8877SOL    HW227531   2.881   0.741   3.745
 8878SOL     OW27532   6.390   5.274   6.900
 8878SOL    HW127533   6.373   5.237   6.809
 8878SOL    HW227534   6.447   5.356   6.893
 8879SOL     OW27535   5.069   4.212   1.759
 8879SOL    HW127536   4.973   4.206   1.789
 8879SOL    HW227537   5.128   4.169   1.827
 8880SOL     OW27538   5.855   5.386   4.618
 8880SOL    HW127539   5.900   5.473   4.641
 8880SOL    HW227540   5.756   5.399   4.616
 8881SOL     OW27541   6.838   0.168   4.351
 8881SOL    HW127542   6.844   0.178   4.450
 8881SOL    HW227543   6.802   0.078   4.328
 8882SOL     OW27544   5.496   1.224   0.618
 8882SOL    HW127545   5.538   1.261   0.535
 8882SOL    HW227546   5.409   1.271   0.635
 8883SOL     OW27547   2.108   6.736   6.178
 8883SOL    HW127548   2.173   6.729   6.254
 8883SOL    HW227549   2.089   6.833   6.159
 8884SOL     OW27550   6.329   4.129   6.297
 8884SOL    HW127551   6.258   4.060   6.304
 8884SOL    HW227552   6.393   4.120   6.373
 8885SOL     OW27553   0.452   3.148   0.537
 8885SOL    HW127554   0.398   3.081   0.588
 8885SOL    HW227555   0.548   3.142   0.566
 8886SOL     OW27556   3.126   6.395   4.856
 8886SOL    HW127557   3.144   6.479   4.908
 8886SOL    HW227558   3.039   6.356   4.886
 8887SOL     OW27559   3.424   1.559   1.381
 8887SOL    HW127560   3.419   1.594   1.475
 8887SOL    HW227561   3.460   1.466   1.381
 8888SOL     OW27562   1.366   1.711   6.976
 8888SOL    HW127563   1.420   1.753   6.902
 8888SOL    HW227564   1.285   1.767   6.992
 8889SOL     OW27565   5.983   0.535   5.482
 8889SOL    HW127566   6.026   0.482   5.554
 8889SOL    HW227567   6.021   0.627   5.480
 8890SOL     OW27568   6.448   5.576   4.046
 8890SOL    HW127569   6.499   5.547   3.965
 8890SOL    HW227570   6.351   5.585   4.022
 8891SOL     OW27571   5.187   3.261   5.832
 8891SOL    HW127572   5.285   3.276   5.842
 8891SOL    HW227573   5.168   3.163   5.836
 8892SOL     OW27574   3.870   5.693   3.296
 8892SOL    HW127575   3.847   5.666   3.389
 8892SOL    HW227576   3.793   5.741   3.255
 8893SOL     OW27577   1.056   6.239   3.700
 8893SOL    HW127578   1.020   6.200   3.616
 8893SOL    HW227579   1.021   6.332   3.711
 8894SOL     OW27580   4.620   2.567   6.014
 8894SOL    HW127581   4.573   2.567   6.102
 8894SOL    HW227582   4.634   2.661   5.984
 8895SOL     OW27583   6.850   2.056   2.199
 8895SOL    HW127584   6.783   2.002   2.149
 8895SOL    HW227585   6.810   2.090   2.284
 8896SOL     OW27586   2.156   3.383   5.666
 8896SOL    HW127587   2.072   3.359   5.617
 8896SOL    HW227588   2.217   3.304   5.670
 8897SOL     OW27589   2.158   2.885   3.164
 8897SOL    HW127590   2.238   2.854   3.214
 8897SOL    HW227591   2.139   2.981   3.186
 8898SOL     OW27592   5.249   3.845   3.481
 8898SOL    HW127593   5.333   3.791   3.486
 8898SOL    HW227594   5.263   3.923   3.419
 8899SOL     OW27595   2.286   5.181   1.028
 8899SOL    HW127596   2.241   5.119   0.964
 8899SOL    HW227597   2.378   5.148   1.048
 8900SOL     OW27598   6.215   3.300   2.465
 8900SOL    HW127599   6.240   3.396   2.456
 8900SOL    HW227600   6.275   3.244   2.406
 8901SOL     OW27601   1.838   0.913   4.547
 8901SOL    HW127602   1.814   0.947   4.637
 8901SOL    HW227603   1.937   0.919   4.534
 8902SOL     OW27604   2.584   0.456   0.687
 8902SOL    HW127605   2.487   0.472   0.707
 8902SOL    HW227606   2.619   0.385   0.748
 8903SOL     OW27607   1.303   1.502   4.972
 8903SOL    HW127608   1.284   1.565   4.897
 8903SOL    HW227609   1.234   1.430   4.972
 8904SOL     OW27610   5.674   6.279   3.982
 8904SOL    HW127611   5.622   6.284   4.067
 8904SOL    HW227612   5.620   6.230   3.913
 8905SOL     OW27613   1.744   4.473   3.632
 8905SOL    HW127614   1.740   4.481   3.533
 8905SOL    HW227615   1.837   4.491   3.664
 8906SOL     OW27616   0.164   6.380   0.240
 8906SOL    HW127617   0.146   6.282   0.249
 8906SOL    HW227618   0.147   6.426   0.327
 8907SOL     OW27619   3.040   2.193   4.598
 8907SOL    HW127620   3.057   2.146   4.511
 8907SOL    HW227621   3.127   2.222   4.637
 8908SOL     OW27622   0.775   3.876   6.731
 8908SOL    HW127623   0.867   3.906   6.708
 8908SOL    HW227624   0.708   3.927   6.676
 8909SOL     OW27625   2.576   0.731   5.487
 8909SOL    HW127626   2.675   0.723   5.497
 8909SOL    HW227627   2.554   0.818   5.441
 8910SOL     OW27628   0.228   2.673   5.946
 8910SOL    HW127629   0.181   2.760   5.935
 8910SOL    HW227630   0.323   2.689   5.975
 8911SOL     OW27631   4.189   2.192   4.859
 8911SOL    HW127632   4.273   2.139   4.867
 8911SOL    HW227633   4.199   2.278   4.910
 8912SOL     OW27634   3.770   2.950   0.151
 8912SOL    HW127635   3.727   3.039   0.139
 8912SOL    HW227636   3.699   2.883   0.176
 8913SOL     OW27637   4.839   5.009   6.052
 8913SOL    HW127638   4.800   4.919   6.073
 8913SOL    HW227639   4.835   5.067   6.133
 8914SOL     OW27640   4.178   0.095   4.543
 8914SOL    HW127641   4.081   0.110   4.526
 8914SOL    HW227642   4.204   0.003   4.516
 8915SOL     OW27643   0.552   2.751   3.626
 8915SOL    HW127644   0.500   2.821   3.674
 8915SOL    HW227645   0.587   2.685   3.693
 8916SOL     OW27646   0.313   3.782   0.685
 8916SOL    HW127647   0.240   3.810   0.747
 8916SOL    HW227648   0.294   3.690   0.651
 8917SOL     OW27649   6.948   3.573   6.997
 8917SOL    HW127650   6.961   3.672   7.000
 8917SOL    HW227651   7.008   3.529   0.035
 8918SOL     OW27652   6.110   3.882   1.472
 8918SOL    HW127653   6.181   3.857   1.406
 8918SOL    HW227654   6.023   3.842   1.444
 8919SOL     OW27655   3.973   4.492   0.174
 8919SOL    HW127656   3.948   4.486   0.271
 8919SOL    HW227657   3.934   4.414   0.125
 8920SOL     OW27658   0.600   0.396   0.414
 8920SOL    HW127659   0.574   0.492   0.403
 8920SOL    HW227660   0.518   0.339   0.413
 8921SOL     OW27661   2.160   1.939   2.683
 8921SOL    HW127662   2.107   1.868   2.637
 8921SOL    HW227663   2.097   2.004   2.726
 8922SOL     OW27664   3.418   5.339   1.480
 8922SOL    HW127665   3.506   5.295   1.498
 8922SOL    HW227666   3.374   5.294   1.402
 8923SOL     OW27667   1.811   3.358   6.304
 8923SOL    HW127668   1.899   3.328   6.342
 8923SOL    HW227669   1.761   3.411   6.372
 8924SOL     OW27670   3.392   5.933   5.955
 8924SOL    HW127671   3.299   5.935   5.917
 8924SOL    HW227672   3.434   5.844   5.936
 8925SOL     OW27673   0.879   1.377   2.328
 8925SOL    HW127674   0.889   1.288   2.373
 8925SOL    HW227675   0.923   1.448   2.384
 8926SOL     OW27676   6.415   4.128   5.802
 8926SOL    HW127677   6.336   4.112   5.742
 8926SOL    HW227678   6.390   4.107   5.897
 8927SOL     OW27679   1.217   1.558   4.306
 8927SOL    HW127680   1.176   1.649   4.312
 8927SOL    HW227681   1.145   1.489   4.316
 8928SOL     OW27682   6.892   0.732   6.257
 8928SOL    HW127683   6.946   0.774   6.184
 8928SOL    HW227684   6.947   0.663   6.304
 8929SOL     OW27685   6.035   3.161   4.263
 8929SOL    HW127686   6.096   3.201   4.331
 8929SOL    HW227687   5.957   3.119   4.309
 8930SOL     OW27688   1.495   4.103   3.797
 8930SOL    HW127689   1.515   4.011   3.764
 8930SOL    HW227690   1.581   4.150   3.817
 8931SOL     OW27691   3.230   2.957   0.886
 8931SOL    HW127692   3.170   2.882   0.913
 8931SOL    HW227693   3.319   2.946   0.928
 8932SOL     OW27694   5.944   0.276   1.012
 8932SOL    HW127695   5.924   0.187   1.051
 8932SOL    HW227696   5.885   0.292   0.933
 8933SOL     OW27697   1.789   3.060   6.339
 8933SOL    HW127698   1.839   3.146   6.343
 8933SOL    HW227699   1.836   2.991   6.394
 8934SOL     OW27700   3.333   4.985   4.543
 8934SOL    HW127701   3.298   5.079   4.550
 8934SOL    HW227702   3.256   4.922   4.533
 8935SOL     OW27703   6.184   3.927   1.095
 8935SOL    HW127704   6.136   4.008   1.063
 8935SOL    HW227705   6.262   3.955   1.152
 8936SOL     OW27706   1.260   3.169   1.881
 8936SOL    HW127707   1.353   3.184   1.913
 8936SOL    HW227708   1.245   3.071   1.867
 8937SOL     OW27709   0.303   0.123   5.086
 8937SOL    HW127710   0.328   0.152   4.994
 8937SOL    HW227711   0.337   0.031   5.102
 8938SOL     OW27712   0.161   1.530   0.666
 8938SOL    HW127713   0.146   1.434   0.686
 8938SOL    HW227714   0.258   1.547   0.652
 8939SOL     OW27715   5.785   4.544   4.386
 8939SOL    HW127716   5.689   4.570   4.391
 8939SOL    HW227717   5.799   4.456   4.431
 8940SOL     OW27718   5.553   1.020   1.543
 8940SOL    HW127719   5.495   0.956   1.494
 8940SOL    HW227720   5.497   1.076   1.604
 8941SOL     OW27721   6.177   2.513   3.493
 8941SOL    HW127722   6.102   2.446   3.503
 8941SOL    HW227723   6.261   2.475   3.532
 8942SOL     OW27724   0.257   5.429   5.863
 8942SOL    HW127725   0.279   5.334   5.886
 8942SOL    HW227726   0.159   5.444   5.877
 8943SOL     OW27727   3.939   5.440   0.366
 8943SOL    HW127728   3.901   5.532   0.377
 8943SOL    HW227729   3.889   5.392   0.294
 8944SOL     OW27730   5.039   6.314   4.156
 8944SOL    HW127731   5.035   6.265   4.243
 8944SOL    HW227732   5.126   6.363   4.149
 8945SOL     OW27733   0.312   1.285   3.397
 8945SOL    HW127734   0.237   1.221   3.412
 8945SOL    HW227735   0.286   1.376   3.431
 8946SOL     OW27736   3.890   0.387   4.116
 8946SOL    HW127737   3.939   0.357   4.035
 8946SOL    HW227738   3.868   0.308   4.174
 8947SOL     OW27739   2.561   3.428   5.721
 8947SOL    HW127740   2.566   3.349   5.660
 8947SOL    HW227741   2.488   3.413   5.789
 8948SOL     OW27742   5.950   5.769   3.371
 8948SOL    HW127743   5.986   5.746   3.461
 8948SOL    HW227744   5.902   5.857   3.377
 8949SOL     OW27745   3.841   6.223   0.742
 8949SOL    HW127746   3.799   6.226   0.833
 8949SOL    HW227747   3.790   6.161   0.683
 8950SOL     OW27748   3.368   3.444   0.519
 8950SOL    HW127749   3.377   3.495   0.433
 8950SOL    HW227750   3.293   3.483   0.572
 8951SOL     OW27751   2.255   1.260   4.560
 8951SOL    HW127752   2.158   1.282   4.550
 8951SOL    HW227753   2.282   1.195   4.489
 8952SOL     OW27754   0.480   4.878   3.374
 8952SOL    HW127755   0.543   4.914   3.442
 8952SOL    HW227756   0.462   4.947   3.304
 8953SOL     OW27757   0.759   4.630   0.565
 8953SOL    HW127758   0.797   4.586   0.483
 8953SOL    HW227759   0.688   4.571   0.603
 8954SOL     OW27760   6.840   0.682   4.540
 8954SOL    HW127761   6.887   0.637   4.617
 8954SOL    HW227762   6.882   0.771   4.524
 8955SOL     OW27763   6.862   4.766   3.243
 8955SOL    HW127764   6.916   4.837   3.286
 8955SOL    HW227765   6.886   4.760   3.146
 8956SOL     OW27766   2.134   1.411   5.715
 8956SOL    HW127767   2.181   1.480   5.771
 8956SOL    HW227768   2.066   1.457   5.657
 8957SOL     OW27769   1.949   4.559   1.130
 8957SOL    HW127770   1.910   4.472   1.101
 8957SOL    HW227771   1.960   4.559   1.229
 8958SOL     OW27772   0.734   2.334   5.652
 8958SOL    HW127773   0.776   2.374   5.733
 8958SOL    HW227774   0.745   2.395   5.574
 8959SOL     OW27775   1.749   4.420   3.068
 8959SOL    HW127776   1.664   4.457   3.030
 8959SOL    HW227777   1.732   4.384   3.160
 8960SOL     OW27778   5.231   5.820   4.009
 8960SOL    HW127779   5.215   5.760   3.930
 8960SOL    HW227780   5.171   5.900   4.003
 8961SOL     OW27781   3.619   1.367   3.574
 8961SOL    HW127782   3.622   1.267   3.576
 8961SOL    HW227783   3.671   1.404   3.651
 8962SOL     OW27784   6.247   5.260   2.464
 8962SOL    HW127785   6.287   5.198   2.396
 8962SOL    HW227786   6.225   5.347   2.421
 8963SOL     OW27787   3.874   7.012   4.498
 8963SOL    HW127788   3.867   6.916   4.526
 8963SOL    HW227789   3.783   0.022   4.485
 8964SOL     OW27790   5.950   2.662   2.891
 8964SOL    HW127791   5.937   2.653   2.792
 8964SOL    HW227792   6.037   2.621   2.917
 8965SOL     OW27793   2.522   5.534   0.076
 8965SOL    HW127794   2.614   5.571   0.085
 8965SOL    HW227795   2.514   5.451   0.132
 8966SOL     OW27796   6.467   4.182   0.406
 8966SOL    HW127797   6.548   4.124   0.403
 8966SOL    HW227798   6.493   4.277   0.387
 8967SOL     OW27799   3.635   0.529   1.823
 8967SOL    HW127800   3.561   0.493   1.767
 8967SOL    HW227801   3.718   0.536   1.769
 8968SOL     OW27802   4.427   5.682   2.725
 8968SOL    HW127803   4.483   5.599   2.737
 8968SOL    HW227804   4.341   5.672   2.775
 8969SOL     OW27805   0.197   0.473   3.606
 8969SOL    HW127806   0.216   0.570   3.590
 8969SOL    HW227807   0.247   0.418   3.539
 8970SOL     OW27808   2.478   3.141   6.863
 8970SOL    HW127809   2.524   3.225   6.836
 8970SOL    HW227810   2.398   3.127   6.806
 8971SOL     OW27811   5.974   5.416   0.834
 8971SOL    HW127812   5.934   5.437   0.744
 8971SOL    HW227813   6.068   5.451   0.837
 8972SOL     OW27814   4.338   4.027   0.823
 8972SOL    HW127815   4.402   3.961   0.784
 8972SOL    HW227816   4.346   4.026   0.922
 8973SOL     OW27817   6.494   3.560   3.265
 8973SOL    HW127818   6.499   3.651   3.304
 8973SOL    HW227819   6.553   3.498   3.316
 8974SOL     OW27820   1.478   3.355   3.973
 8974SOL    HW127821   1.516   3.342   3.881
 8974SOL    HW227822   1.553   3.352   4.040
 8975SOL     OW27823   0.567   6.665   6.861
 8975SOL    HW127824   0.534   6.758   6.874
 8975SOL    HW227825   0.663   6.659   6.887
 8976SOL     OW27826   6.928   5.418   0.369
 8976SOL    HW127827   6.983   5.363   0.432
 8976SOL    HW227828   6.883   5.358   0.303
 8977SOL     OW27829   6.518   3.100   6.492
 8977SOL    HW127830   6.554   3.191   6.508
 8977SOL    HW227831   6.443   3.081   6.555
 8978SOL     OW27832   5.312   6.751   4.324
 8978SOL    HW127833   5.354   6.663   4.347
 8978SOL    HW227834   5.253   6.740   4.244
 8979SOL     OW27835   0.827   4.941   5.846
 8979SOL    HW127836   0.828   5.027   5.795
 8979SOL    HW227837   0.827   4.960   5.944
 8980SOL     OW27838   4.801   2.551   5.738
 8980SOL    HW127839   4.899   2.538   5.748
 8980SOL    HW227840   4.752   2.479   5.787
 8981SOL     OW27841   4.586   1.813   5.237
 8981SOL    HW127842   4.521   1.756   5.188
 8981SOL    HW227843   4.538   1.893   5.274
 8982SOL     OW27844   1.048   1.576   1.475
 8982SOL    HW127845   1.018   1.590   1.381
 8982SOL    HW227846   0.975   1.529   1.526
 8983SOL     OW27847   0.378   5.832   0.113
 8983SOL    HW127848   0.458   5.825   0.173
 8983SOL    HW227849   0.401   5.887   0.033
 8984SOL     OW27850   5.968   6.238   3.911
 8984SOL    HW127851   5.971   6.206   4.006
 8984SOL    HW227852   5.873   6.261   3.887
 8985SOL     OW27853   2.135   1.690   0.794
 8985SOL    HW127854   2.145   1.595   0.822
 8985SOL    HW227855   2.157   1.750   0.871
 8986SOL     OW27856   4.421   5.025   2.537
 8986SOL    HW127857   4.401   5.100   2.600
 8986SOL    HW227858   4.354   5.025   2.463
 8987SOL     OW27859   3.609   0.667   1.090
 8987SOL    HW127860   3.690   0.695   1.142
 8987SOL    HW227861   3.638   0.618   1.008
 8988SOL     OW27862   1.679   4.483   0.319
 8988SOL    HW127863   1.650   4.444   0.232
 8988SOL    HW227864   1.664   4.417   0.392
 8989SOL     OW27865   4.832   4.085   2.088
 8989SOL    HW127866   4.737   4.091   2.118
 8989SOL    HW227867   4.843   4.136   2.003
 8990SOL     OW27868   2.251   5.695   2.016
 8990SOL    HW127869   2.285   5.601   2.017
 8990SOL    HW227870   2.328   5.759   2.017
 8991SOL     OW27871   2.402   1.192   0.282
 8991SOL    HW127872   2.465   1.115   0.291
 8991SOL    HW227873   2.367   1.217   0.373
 8992SOL     OW27874   6.944   2.410   6.549
 8992SOL    HW127875   7.003   2.336   6.584
 8992SOL    HW227876   6.991   2.458   6.475
 8993SOL     OW27877   4.629   2.496   2.464
 8993SOL    HW127878   4.545   2.469   2.510
 8993SOL    HW227879   4.662   2.582   2.502
 8994SOL     OW27880   0.555   5.762   4.505
 8994SOL    HW127881   0.462   5.798   4.502
 8994SOL    HW227882   0.566   5.706   4.587
 8995SOL     OW27883   1.439   2.499   6.082
 8995SOL    HW127884   1.438   2.565   6.157
 8995SOL    HW227885   1.347   2.487   6.046
 8996SOL     OW27886   6.870   4.852   2.015
 8996SOL    HW127887   6.965   4.823   2.016
 8996SOL    HW227888   6.865   4.948   1.987
 8997SOL     OW27889   3.945   1.740   6.236
 8997SOL    HW127890   4.022   1.755   6.174
 8997SOL    HW227891   3.921   1.827   6.280
 8998SOL     OW27892   0.279   3.132   4.271
 8998SOL    HW127893   0.373   3.098   4.261
 8998SOL    HW227894   0.279   3.215   4.327
 8999SOL     OW27895   4.615   0.462   0.197
 8999SOL    HW127896   4.701   0.413   0.188
 8999SOL    HW227897   4.624   0.536   0.264
 9000SOL     OW27898   2.309   4.191   6.263
 9000SOL    HW127899   2.396   4.162   6.223
 9000SOL    HW227900   2.321   4.281   6.305
 9001SOL     OW27901   0.653   5.387   2.898
 9001SOL    HW127902   0.674   5.343   2.811
 9001SOL    HW227903   0.631   5.483   2.883
 9002SOL     OW27904   0.156   5.038   5.116
 9002SOL    HW127905   0.141   4.943   5.143
 9002SOL    HW227906   0.195   5.041   5.024
 9003SOL     OW27907   5.498   2.306   1.059
 9003SOL    HW127908   5.453   2.217   1.069
 9003SOL    HW227909   5.544   2.329   1.145
 9004SOL     OW27910   4.621   6.618   1.542
 9004SOL    HW127911   4.650   6.606   1.637
 9004SOL    HW227912   4.683   6.682   1.496
 9005SOL     OW27913   5.937   1.842   4.525
 9005SOL    HW127914   5.911   1.936   4.548
 9005SOL    HW227915   6.033   1.841   4.495
 9006SOL     OW27916   2.098   6.120   0.006
 9006SOL    HW127917   2.085   6.024   7.008
 9006SOL    HW227918   2.186   6.130   0.054
 9007SOL     OW27919   3.737   5.923   3.674
 9007SOL    HW127920   3.647   5.960   3.700
 9007SOL    HW227921   3.725   5.830   3.638
 9008SOL     OW27922   6.496   4.931   2.741
 9008SOL    HW127923   6.529   4.921   2.647
 9008SOL    HW227924   6.574   4.925   2.804
 9009SOL     OW27925   2.313   0.056   0.670
 9009SOL    HW127926   2.338   6.987   0.671
 9009SOL    HW227927   2.237   0.070   0.607
 9010SOL     OW27928   1.033   6.783   4.779
 9010SOL    HW127929   1.110   6.837   4.747
 9010SOL    HW227930   1.065   6.693   4.809
 9011SOL     OW27931   4.281   1.999   2.120
 9011SOL    HW127932   4.312   2.063   2.050
 9011SOL    HW227933   4.213   1.937   2.081
 9012SOL     OW27934   3.221   4.246   0.796
 9012SOL    HW127935   3.123   4.254   0.815
 9012SOL    HW227936   3.242   4.294   0.711
 9013SOL     OW27937   6.592   6.401   4.456
 9013SOL    HW127938   6.585   6.311   4.500
 9013SOL    HW227939   6.569   6.472   4.522
 9014SOL     OW27940   1.131   0.736   0.261
 9014SOL    HW127941   1.106   0.790   0.341
 9014SOL    HW227942   1.189   0.790   0.201
 9015SOL     OW27943   6.027   1.281   1.077
 9015SOL    HW127944   5.957   1.232   1.025
 9015SOL    HW227945   5.984   1.323   1.158
 9016SOL     OW27946   0.775   6.330   6.847
 9016SOL    HW127947   0.768   6.430   6.845
 9016SOL    HW227948   0.685   6.291   6.828
 9017SOL     OW27949   4.900   2.855   1.923
 9017SOL    HW127950   4.897   2.793   2.001
 9017SOL    HW227951   4.855   2.941   1.948
 9018SOL     OW27952   4.419   1.121   5.321
 9018SOL    HW127953   4.354   1.166   5.261
 9018SOL    HW227954   4.503   1.101   5.270
 9019SOL     OW27955   0.499   0.683   0.819
 9019SOL    HW127956   0.502   0.782   0.828
 9019SOL    HW227957   0.404   0.651   0.832
 9020SOL     OW27958   1.236   3.763   1.351
 9020SOL    HW127959   1.292   3.818   1.290
 9020SOL    HW227960   1.276   3.762   1.442
 9021SOL     OW27961   6.808   0.577   3.916
 9021SOL    HW127962   6.846   0.486   3.935
 9021SOL    HW227963   6.727   0.567   3.859
 9022SOL     OW27964   2.789   1.037   1.331
 9022SOL    HW127965   2.858   0.964   1.336
 9022SOL    HW227966   2.699   1.000   1.353
 9023SOL     OW27967   3.385   3.067   2.613
 9023SOL    HW127968   3.397   3.163   2.639
 9023SOL    HW227969   3.309   3.059   2.548
 9024SOL     OW27970   0.573   5.330   5.317
 9024SOL    HW127971   0.646   5.278   5.272
 9024SOL    HW227972   0.568   5.422   5.276
 9025SOL     OW27973   6.934   5.774   0.188
 9025SOL    HW127974   6.920   5.764   0.286
 9025SOL    HW227975   0.001   5.753   0.165
 9026SOL     OW27976   3.882   3.375   2.108
 9026SOL    HW127977   3.812   3.408   2.171
 9026SOL    HW227978   3.839   3.339   2.026
 9027SOL     OW27979   1.632   1.704   3.294
 9027SOL    HW127980   1.686   1.644   3.353
 9027SOL    HW227981   1.541   1.665   3.282
 9028SOL     OW27982   2.460   3.344   6.687
 9028SOL    HW127983   2.469   3.443   6.702
 9028SOL    HW227984   2.418   3.327   6.598
 9029SOL     OW27985   3.363   5.662   5.389
 9029SOL    HW127986   3.302   5.647   5.311
 9029SOL    HW227987   3.376   5.576   5.438
 9030SOL     OW27988   2.140   1.055   3.499
 9030SOL    HW127989   2.179   1.105   3.422
 9030SOL    HW227990   2.158   0.957   3.489
 9031SOL     OW27991   4.651   5.539   5.172
 9031SOL    HW127992   4.595   5.460   5.147
 9031SOL    HW227993   4.673   5.535   5.270
 9032SOL     OW27994   3.022   3.083   0.782
 9032SOL    HW127995   3.105   3.031   0.802
 9032SOL    HW227996   2.949   3.019   0.757
 9033SOL     OW27997   2.240   4.422   3.483
 9033SOL    HW127998   2.201   4.499   3.433
 9033SOL    HW227999   2.215   4.428   3.580
 9034SOL     OW28000   3.178   0.148   4.596
 9034SOL    HW128001   3.116   0.213   4.638
 9034SOL    HW228002   3.192   0.070   4.657
 9035SOL     OW28003   1.015   6.100   5.696
 9035SOL    HW128004   0.915   6.108   5.689
 9035SOL    HW228005   1.047   6.149   5.777
 9036SOL     OW28006   1.655   0.718   4.831
 9036SOL    HW128007   1.665   0.627   4.871
 9036SOL    HW228008   1.570   0.760   4.864
 9037SOL     OW28009   1.411   4.124   5.657
 9037SOL    HW128010   1.469   4.061   5.708
 9037SOL    HW228011   1.460   4.158   5.577
 9038SOL     OW28012   4.429   0.532   5.765
 9038SOL    HW128013   4.429   0.608   5.831
 9038SOL    HW228014   4.520   0.493   5.759
 9039SOL     OW28015   2.339   4.939   4.667
 9039SOL    HW128016   2.297   4.880   4.735
 9039SOL    HW228017   2.388   4.884   4.600
 9040SOL     OW28018   2.795   1.811   2.949
 9040SOL    HW128019   2.838   1.847   2.866
 9040SOL    HW228020   2.826   1.865   3.028
 9041SOL     OW28021   0.840   2.210   2.075
 9041SOL    HW128022   0.772   2.189   2.005
 9041SOL    HW228023   0.825   2.303   2.110
 9042SOL     OW28024   3.430   6.830   3.965
 9042SOL    HW128025   3.465   6.842   3.873
 9042SOL    HW228026   3.331   6.846   3.966
 9043SOL     OW28027   2.476   1.318   6.430
 9043SOL    HW128028   2.451   1.365   6.515
 9043SOL    HW228029   2.395   1.308   6.373
 9044SOL     OW28030   5.993   1.667   1.888
 9044SOL    HW128031   6.052   1.624   1.820
 9044SOL    HW228032   5.922   1.602   1.917
 9045SOL     OW28033   3.439   1.714   2.895
 9045SOL    HW128034   3.484   1.647   2.955
 9045SOL    HW228035   3.478   1.804   2.910
 9046SOL     OW28036   3.236   3.577   4.248
 9046SOL    HW128037   3.228   3.499   4.310
 9046SOL    HW228038   3.151   3.629   4.249
 9047SOL     OW28039   1.653   3.387   5.451
 9047SOL    HW128040   1.748   3.357   5.460
 9047SOL    HW228041   1.645   3.451   5.374
 9048SOL     OW28042   5.947   2.644   6.239
 9048SOL    HW128043   5.885   2.721   6.224
 9048SOL    HW228044   5.894   2.561   6.254
 9049SOL     OW28045   3.872   0.162   6.770
 9049SOL    HW128046   3.926   0.107   6.707
 9049SOL    HW228047   3.788   0.113   6.793
 9050SOL     OW28048   0.296   4.487   5.815
 9050SOL    HW128049   0.327   4.533   5.898
 9050SOL    HW228050   0.370   4.488   5.747
 9051SOL     OW28051   4.409   5.921   0.568
 9051SOL    HW128052   4.496   5.919   0.617
 9051SOL    HW228053   4.338   5.880   0.627
 9052SOL     OW28054   1.773   2.495   3.182
 9052SOL    HW128055   1.805   2.495   3.277
 9052SOL    HW228056   1.818   2.570   3.133
 9053SOL     OW28057   2.048   1.625   2.918
 9053SOL    HW128058   2.003   1.634   3.006
 9053SOL    HW228059   2.106   1.705   2.901
 9054SOL     OW28060   1.372   0.217   2.182
 9054SOL    HW128061   1.434   0.140   2.194
 9054SOL    HW228062   1.281   0.193   2.216
 9055SOL     OW28063   6.678   4.229   3.456
 9055SOL    HW128064   6.688   4.200   3.551
 9055SOL    HW228065   6.723   4.317   3.442
 9056SOL     OW28066   6.272   0.140   1.554
 9056SOL    HW128067   6.188   0.135   1.500
 9056SOL    HW228068   6.296   0.235   1.571
 9057SOL     OW28069   6.155   5.413   5.834
 9057SOL    HW128070   6.081   5.355   5.867
 9057SOL    HW228071   6.134   5.446   5.742
 9058SOL     OW28072   1.796   1.906   3.746
 9058SOL    HW128073   1.816   1.824   3.693
 9058SOL    HW228074   1.710   1.893   3.796
 9059SOL     OW28075   1.082   1.302   4.310
 9059SOL    HW128076   1.019   1.241   4.260
 9059SOL    HW228077   1.090   1.271   4.405
 9060SOL     OW28078   0.266   2.712   2.241
 9060SOL    HW128079   0.300   2.720   2.147
 9060SOL    HW228080   0.342   2.729   2.305
 9061SOL     OW28081   3.655   5.596   2.183
 9061SOL    HW128082   3.749   5.564   2.172
 9061SOL    HW228083   3.614   5.608   2.093
 9062SOL     OW28084   1.571   5.342   2.066
 9062SOL    HW128085   1.487   5.340   2.011
 9062SOL    HW228086   1.579   5.256   2.117
 9063SOL     OW28087   2.240   6.498   2.471
 9063SOL    HW128088   2.273   6.566   2.404
 9063SOL    HW228089   2.303   6.495   2.548
 9064SOL     OW28090   5.896   3.973   4.995
 9064SOL    HW128091   5.874   3.941   5.087
 9064SOL    HW228092   5.827   4.038   4.964
 9065SOL     OW28093   3.261   6.261   6.937
 9065SOL    HW128094   3.273   6.225   6.845
 9065SOL    HW228095   3.307   6.350   6.944
 9066SOL     OW28096   5.951   0.536   0.197
 9066SOL    HW128097   6.018   0.593   0.151
 9066SOL    HW228098   5.976   0.524   0.293
 9067SOL     OW28099   6.473   0.289   4.609
 9067SOL    HW128100   6.404   0.359   4.627
 9067SOL    HW228101   6.511   0.303   4.517
 9068SOL     OW28102   3.035   0.429   4.957
 9068SOL    HW128103   2.956   0.490   4.966
 9068SOL    HW228104   3.106   0.474   4.902
 9069SOL     OW28105   2.804   2.240   1.756
 9069SOL    HW128106   2.881   2.281   1.805
 9069SOL    HW228107   2.812   2.261   1.659
 9070SOL     OW28108   1.203   3.578   5.728
 9070SOL    HW128109   1.237   3.597   5.635
 9070SOL    HW228110   1.253   3.500   5.765
 9071SOL     OW28111   4.984   6.995   0.462
 9071SOL    HW128112   4.999   6.990   0.363
 9071SOL    HW228113   5.071   7.009   0.508
 9072SOL     OW28114   5.871   1.173   2.210
 9072SOL    HW128115   5.948   1.197   2.150
 9072SOL    HW228116   5.858   1.246   2.278
 9073SOL     OW28117   3.346   6.401   0.849
 9073SOL    HW128118   3.371   6.408   0.946
 9073SOL    HW228119   3.349   6.305   0.821
 9074SOL     OW28120   1.954   0.849   1.870
 9074SOL    HW128121   1.895   0.907   1.813
 9074SOL    HW228122   1.926   0.753   1.861
 9075SOL     OW28123   0.668   0.229   1.721
 9075SOL    HW128124   0.704   0.322   1.713
 9075SOL    HW228125   0.584   0.222   1.667
 9076SOL     OW28126   5.917   1.834   4.900
 9076SOL    HW128127   5.832   1.826   4.848
 9076SOL    HW228128   5.919   1.920   4.950
 9077SOL     OW28129   5.831   0.768   6.759
 9077SOL    HW128130   5.800   0.773   6.854
 9077SOL    HW228131   5.920   0.721   6.756
 9078SOL     OW28132   4.670   3.687   6.987
 9078SOL    HW128133   4.649   3.630   0.038
 9078SOL    HW228134   4.701   3.777   7.018
 9079SOL     OW28135   2.211   6.281   4.242
 9079SOL    HW128136   2.310   6.268   4.245
 9079SOL    HW228137   2.168   6.226   4.314
 9080SOL     OW28138   6.044   2.031   0.670
 9080SOL    HW128139   5.972   1.964   0.650
 9080SOL    HW228140   6.007   2.102   0.730
 9081SOL     OW28141   3.877   6.711   2.616
 9081SOL    HW128142   3.839   6.769   2.688
 9081SOL    HW228143   3.804   6.688   2.551
 9082SOL     OW28144   3.130   6.782   5.673
 9082SOL    HW128145   3.169   6.786   5.766
 9082SOL    HW228146   3.075   6.864   5.657
 9083SOL     OW28147   3.979   4.290   5.923
 9083SOL    HW128148   3.964   4.280   5.824
 9083SOL    HW228149   3.906   4.245   5.973
 9084SOL     OW28150   3.354   3.648   5.809
 9084SOL    HW128151   3.426   3.714   5.831
 9084SOL    HW228152   3.382   3.593   5.729
 9085SOL     OW28153   1.477   4.792   0.589
 9085SOL    HW128154   1.556   4.763   0.644
 9085SOL    HW228155   1.441   4.878   0.625
 9086SOL     OW28156   0.413   4.825   0.614
 9086SOL    HW128157   0.373   4.901   0.665
 9086SOL    HW228158   0.490   4.858   0.560
 9087SOL     OW28159   4.505   2.461   1.877
 9087SOL    HW128160   4.545   2.551   1.896
 9087SOL    HW228161   4.430   2.471   1.811
 9088SOL     OW28162   6.296   6.040   1.079
 9088SOL    HW128163   6.364   6.074   1.145
 9088SOL    HW228164   6.204   6.053   1.116
 9089SOL     OW28165   5.199   6.204   4.958
 9089SOL    HW128166   5.212   6.137   5.031
 9089SOL    HW228167   5.171   6.156   4.874
 9090SOL     OW28168   6.432   6.046   3.689
 9090SOL    HW128169   6.518   6.093   3.707
 9090SOL    HW228170   6.371   6.058   3.768
 9091SOL     OW28171   2.641   3.246   1.128
 9091SOL    HW128172   2.719   3.192   1.162
 9091SOL    HW228173   2.646   3.339   1.165
 9092SOL     OW28174   0.019   1.960   0.830
 9092SOL    HW128175   6.988   1.981   0.752
 9092SOL    HW228176   0.028   2.041   0.888
 9093SOL     OW28177   1.227   6.546   6.005
 9093SOL    HW128178   1.129   6.561   6.014
 9093SOL    HW228179   1.274   6.588   6.083
 9094SOL     OW28180   5.972   5.221   2.709
 9094SOL    HW128181   5.992   5.201   2.805
 9094SOL    HW228182   5.888   5.173   2.683
 9095SOL     OW28183   4.574   3.901   6.488
 9095SOL    HW128184   4.510   3.970   6.522
 9095SOL    HW228185   4.648   3.889   6.554
 9096SOL     OW28186   5.621   3.876   2.105
 9096SOL    HW128187   5.571   3.927   2.035
 9096SOL    HW228188   5.712   3.853   2.071
 9097SOL     OW28189   1.323   2.019   6.468
 9097SOL    HW128190   1.275   1.932   6.455
 9097SOL    HW228191   1.421   2.006   6.450
 9098SOL     OW28192   3.460   2.397   6.639
 9098SOL    HW128193   3.541   2.339   6.630
 9098SOL    HW228194   3.487   2.493   6.633
 9099SOL     OW28195   2.773   2.672   6.837
 9099SOL    HW128196   2.771   2.745   6.769
 9099SOL    HW228197   2.847   2.608   6.815
 9100SOL     OW28198   0.426   3.673   4.010
 9100SOL    HW128199   0.445   3.692   4.107
 9100SOL    HW228200   0.511   3.677   3.958
 9101SOL     OW28201   2.404   2.301   2.949
 9101SOL    HW128202   2.395   2.212   2.903
 9101SOL    HW228203   2.354   2.299   3.036
 9102SOL     OW28204   2.875   0.226   1.922
 9102SOL    HW128205   2.816   0.206   1.844
 9102SOL    HW228206   2.850   0.314   1.961
 9103SOL     OW28207   6.214   3.222   6.618
 9103SOL    HW128208   6.302   3.264   6.643
 9103SOL    HW228209   6.140   3.269   6.666
 9104SOL     OW28210   6.402   6.416   2.137
 9104SOL    HW128211   6.390   6.355   2.215
 9104SOL    HW228212   6.454   6.369   2.066
 9105SOL     OW28213   1.579   1.633   0.139
 9105SOL    HW128214   1.495   1.636   0.084
 9105SOL    HW228215   1.659   1.638   0.079
 9106SOL     OW28216   6.687   3.544   6.896
 9106SOL    HW128217   6.784   3.562   6.909
 9106SOL    HW228218   6.635   3.628   6.910
 9107SOL     OW28219   3.338   1.297   6.143
 9107SOL    HW128220   3.320   1.204   6.110
 9107SOL    HW228221   3.393   1.292   6.227
 9108SOL     OW28222   4.725   3.881   5.556
 9108SOL    HW128223   4.650   3.948   5.559
 9108SOL    HW228224   4.691   3.795   5.517
 9109SOL     OW28225   0.061   2.338   2.780
 9109SOL    HW128226   7.013   2.359   2.720
 9109SOL    HW228227   0.132   2.408   2.771
 9110SOL     OW28228   2.092   3.660   3.625
 9110SOL    HW128229   2.119   3.580   3.570
 9110SOL    HW228230   2.097   3.742   3.568
 9111SOL     OW28231   4.949   1.901   0.589
 9111SOL    HW128232   5.018   1.951   0.642
 9111SOL    HW228233   4.969   1.803   0.592
 9112SOL     OW28234   0.420   5.172   3.720
 9112SOL    HW128235   0.399   5.090   3.774
 9112SOL    HW228236   0.485   5.148   3.648
 9113SOL     OW28237   4.892   1.062   2.560
 9113SOL    HW128238   4.937   1.007   2.630
 9113SOL    HW228239   4.908   1.159   2.579
 9114SOL     OW28240   0.230   4.145   2.189
 9114SOL    HW128241   0.163   4.167   2.119
 9114SOL    HW228242   0.302   4.088   2.150
 9115SOL     OW28243   6.874   5.512   4.751
 9115SOL    HW128244   6.831   5.599   4.729
 9115SOL    HW228245   6.818   5.462   4.818
 9116SOL     OW28246   6.523   0.956   1.751
 9116SOL    HW128247   6.559   0.960   1.845
 9116SOL    HW228248   6.556   0.872   1.707
 9117SOL     OW28249   5.634   2.616   0.744
 9117SOL    HW128250   5.614   2.630   0.647
 9117SOL    HW228251   5.729   2.588   0.755
 9118SOL     OW28252   6.473   3.645   0.176
 9118SOL    HW128253   6.389   3.627   0.125
 9118SOL    HW228254   6.509   3.734   0.149
 9119SOL     OW28255   4.471   0.417   2.379
 9119SOL    HW128256   4.406   0.492   2.390
 9119SOL    HW228257   4.558   0.442   2.422
 9120SOL     OW28258   6.798   1.846   5.928
 9120SOL    HW128259   6.745   1.899   5.994
 9120SOL    HW228260   6.756   1.854   5.838
 9121SOL     OW28261   4.332   1.019   4.888
 9121SOL    HW128262   4.303   0.979   4.975
 9121SOL    HW228263   4.403   0.961   4.847
 9122SOL     OW28264   2.236   4.125   2.236
 9122SOL    HW128265   2.231   4.025   2.238
 9122SOL    HW228266   2.259   4.154   2.143
 9123SOL     OW28267   2.865   0.578   3.488
 9123SOL    HW128268   2.840   0.628   3.405
 9123SOL    HW228269   2.855   0.637   3.568
 9124SOL     OW28270   5.451   6.036   0.349
 9124SOL    HW128271   5.356   6.011   0.332
 9124SOL    HW228272   5.458   6.135   0.363
 9125SOL     OW28273   4.764   3.920   0.656
 9125SOL    HW128274   4.843   3.971   0.621
 9125SOL    HW228275   4.781   3.822   0.649
 9126SOL     OW28276   6.049   3.721   1.223
 9126SOL    HW128277   6.103   3.791   1.175
 9126SOL    HW228278   6.039   3.641   1.165
 9127SOL     OW28279   0.100   1.863   6.476
 9127SOL    HW128280   0.068   1.903   6.562
 9127SOL    HW228281   0.031   1.878   6.405
 9128SOL     OW28282   6.177   1.676   5.312
 9128SOL    HW128283   6.099   1.691   5.251
 9128SOL    HW228284   6.196   1.578   5.317
 9129SOL     OW28285   0.108   2.378   0.508
 9129SOL    HW128286   0.063   2.303   0.556
 9129SOL    HW228287   0.149   2.345   0.424
 9130SOL     OW28288   0.079   3.335   5.878
 9130SOL    HW128289   0.058   3.255   5.935
 9130SOL    HW228290   0.004   3.401   5.885
 9131SOL     OW28291   5.637   3.134   5.657
 9131SOL    HW128292   5.673   3.041   5.662
 9131SOL    HW228293   5.677   3.181   5.579
 9132SOL     OW28294   0.283   5.930   4.492
 9132SOL    HW128295   0.230   5.911   4.409
 9132SOL    HW228296   0.229   5.986   4.555
 9133SOL     OW28297   3.353   6.623   1.697
 9133SOL    HW128298   3.442   6.648   1.734
 9133SOL    HW228299   3.305   6.566   1.764
 9134SOL     OW28300   4.002   5.775   1.205
 9134SOL    HW128301   4.038   5.864   1.177
 9134SOL    HW228302   4.040   5.704   1.147
 9135SOL     OW28303   6.706   6.937   1.678
 9135SOL    HW128304   6.776   7.005   1.703
 9135SOL    HW228305   6.630   6.943   1.742
 9136SOL     OW28306   5.164   6.587   0.127
 9136SOL    HW128307   5.188   6.502   0.081
 9136SOL    HW228308   5.170   6.663   0.062
 9137SOL     OW28309   5.357   1.019   0.449
 9137SOL    HW128310   5.442   0.980   0.484
 9137SOL    HW228311   5.290   1.025   0.522
 9138SOL     OW28312   0.105   6.052   6.426
 9138SOL    HW128313   0.181   6.117   6.421
 9138SOL    HW228314   0.110   5.990   6.348
 9139SOL     OW28315   2.178   1.691   3.330
 9139SOL    HW128316   2.235   1.717   3.252
 9139SOL    HW228317   2.090   1.657   3.298
 9140SOL     OW28318   0.030   3.155   2.709
 9140SOL    HW128319   0.093   3.084   2.677
 9140SOL    HW228320   0.027   3.229   2.642
 9141SOL     OW28321   5.210   0.203   0.891
 9141SOL    HW128322   5.232   0.179   0.797
 9141SOL    HW228323   5.147   0.281   0.892
 9142SOL     OW28324   0.605   2.623   1.125
 9142SOL    HW128325   0.636   2.717   1.133
 9142SOL    HW228326   0.519   2.611   1.176
 9143SOL     OW28327   6.465   2.896   0.305
 9143SOL    HW128328   6.474   2.801   0.336
 9143SOL    HW228329   6.391   2.903   0.238
 9144SOL     OW28330   2.550   5.058   4.353
 9144SOL    HW128331   2.508   5.149   4.360
 9144SOL    HW228332   2.564   5.022   4.445
 9145SOL     OW28333   0.329   5.680   6.437
 9145SOL    HW128334   0.395   5.621   6.483
 9145SOL    HW228335   0.243   5.631   6.425
 9146SOL     OW28336   5.598   2.963   3.900
 9146SOL    HW128337   5.583   3.057   3.868
 9146SOL    HW228338   5.651   2.913   3.832
 9147SOL     OW28339   6.109   6.726   5.802
 9147SOL    HW128340   6.166   6.646   5.786
 9147SOL    HW228341   6.155   6.788   5.866
 9148SOL     OW28342   5.455   6.296   1.420
 9148SOL    HW128343   5.548   6.272   1.447
 9148SOL    HW228344   5.457   6.347   1.335
 9149SOL     OW28345   5.387   3.770   2.538
 9149SOL    HW128346   5.447   3.755   2.459
 9149SOL    HW228347   5.348   3.862   2.533
 9150SOL     OW28348   3.566   5.266   1.056
 9150SOL    HW128349   3.564   5.317   1.142
 9150SOL    HW228350   3.561   5.330   0.979
 9151SOL     OW28351   1.995   4.711   3.415
 9151SOL    HW128352   2.073   4.709   3.478
 9151SOL    HW228353   2.027   4.705   3.321
 9152SOL     OW28354   2.285   4.364   4.859
 9152SOL    HW128355   2.249   4.271   4.868
 9152SOL    HW228356   2.343   4.385   4.937
 9153SOL     OW28357   0.275   2.890   6.622
 9153SOL    HW128358   0.322   2.806   6.647
 9153SOL    HW228359   0.262   2.893   6.523
 9154SOL     OW28360   5.588   4.952   6.411
 9154SOL    HW128361   5.509   4.950   6.350
 9154SOL    HW228362   5.669   4.920   6.361
 9155SOL     OW28363   1.941   3.917   2.382
 9155SOL    HW128364   1.929   3.919   2.283
 9155SOL    HW228365   1.852   3.911   2.427
 9156SOL     OW28366   0.984   2.185   0.490
 9156SOL    HW128367   1.055   2.196   0.421
 9156SOL    HW228368   1.019   2.211   0.579
 9157SOL     OW28369   2.318   4.222   6.634
 9157SOL    HW128370   2.371   4.196   6.714
 9157SOL    HW228371   2.235   4.165   6.628
 9158SOL     OW28372   6.088   3.472   4.193
 9158SOL    HW128373   6.017   3.460   4.124
 9158SOL    HW228374   6.045   3.498   4.280
 9159SOL     OW28375   1.552   1.031   2.432
 9159SOL    HW128376   1.591   0.981   2.509
 9159SOL    HW228377   1.513   1.117   2.465
 9160SOL     OW28378   0.130   7.022   6.096
 9160SOL    HW128379   0.077   6.946   6.060
 9160SOL    HW228380   0.227   6.997   6.099
 9161SOL     OW28381   5.236   5.316   3.947
 9161SOL    HW128382   5.271   5.236   3.996
 9161SOL    HW228383   5.289   5.397   3.974
 9162SOL     OW28384   4.458   0.917   3.775
 9162SOL    HW128385   4.481   0.826   3.739
 9162SOL    HW228386   4.530   0.982   3.749
 9163SOL     OW28387   0.469   2.585   4.188
 9163SOL    HW128388   0.424   2.670   4.214
 9163SOL    HW228389   0.460   2.518   4.262
 9164SOL     OW28390   2.382   0.458   0.227
 9164SOL    HW128391   2.329   0.445   0.310
 9164SOL    HW228392   2.435   0.376   0.207
 9165SOL     OW28393   6.392   1.164   5.550
 9165SOL    HW128394   6.355   1.256   5.561
 9165SOL    HW228395   6.470   1.167   5.488
 9166SOL     OW28396   4.244   6.206   1.356
 9166SOL    HW128397   4.189   6.278   1.399
 9166SOL    HW228398   4.341   6.222   1.377
 9167SOL     OW28399   2.098   2.254   6.162
 9167SOL    HW128400   2.089   2.155   6.149
 9167SOL    HW228401   2.145   2.294   6.084
 9168SOL     OW28402   6.501   6.105   5.965
 9168SOL    HW128403   6.470   6.013   5.938
 9168SOL    HW228404   6.574   6.097   6.032
 9169SOL     OW28405   6.798   0.009   6.355
 9169SOL    HW128406   6.745   0.079   6.402
 9169SOL    HW228407   6.842   0.049   6.274
 9170SOL     OW28408   1.769   0.325   0.001
 9170SOL    HW128409   1.848   0.322   6.968
 9170SOL    HW228410   1.743   0.421   0.016
 9171SOL     OW28411   3.255   5.950   0.513
 9171SOL    HW128412   3.266   5.953   0.413
 9171SOL    HW228413   3.263   5.856   0.544
 9172SOL     OW28414   5.113   0.944   3.451
 9172SOL    HW128415   5.140   0.850   3.470
 9172SOL    HW228416   5.013   0.950   3.445
 9173SOL     OW28417   5.822   4.566   5.939
 9173SOL    HW128418   5.736   4.600   5.901
 9173SOL    HW228419   5.881   4.536   5.865
 9174SOL     OW28420   6.875   5.002   0.536
 9174SOL    HW128421   6.832   4.929   0.483
 9174SOL    HW228422   6.825   5.015   0.621
 9175SOL     OW28423   1.548   6.282   6.310
 9175SOL    HW128424   1.555   6.376   6.276
 9175SOL    HW228425   1.595   6.220   6.247
 9176SOL     OW28426   2.124   1.130   2.383
 9176SOL    HW128427   2.153   1.136   2.287
 9176SOL    HW228428   2.044   1.187   2.398
 9177SOL     OW28429   1.122   4.041   4.175
 9177SOL    HW128430   1.213   4.052   4.134
 9177SOL    HW228431   1.064   4.119   4.149
 9178SOL     OW28432   2.131   5.253   0.099
 9178SOL    HW128433   2.165   5.346   0.113
 9178SOL    HW228434   2.042   5.256   0.054
 9179SOL     OW28435   1.745   5.462   3.904
 9179SOL    HW128436   1.648   5.442   3.895
 9179SOL    HW228437   1.797   5.376   3.911
 9180SOL     OW28438   6.183   2.146   3.130
 9180SOL    HW128439   6.272   2.140   3.085
 9180SOL    HW228440   6.186   2.095   3.216
 9181SOL     OW28441   6.270   2.051   4.313
 9181SOL    HW128442   6.276   2.066   4.412
 9181SOL    HW228443   6.178   2.075   4.282
 9182SOL     OW28444   2.847   0.391   2.903
 9182SOL    HW128445   2.896   0.444   2.972
 9182SOL    HW228446   2.902   0.385   2.820
 9183SOL     OW28447   4.702   4.456   0.298
 9183SOL    HW128448   4.795   4.483   0.323
 9183SOL    HW228449   4.636   4.506   0.356
 9184SOL     OW28450   4.439   2.587   1.298
 9184SOL    HW128451   4.457   2.615   1.203
 9184SOL    HW228452   4.508   2.628   1.358
 9185SOL     OW28453   6.448   6.610   5.178
 9185SOL    HW128454   6.463   6.568   5.088
 9185SOL    HW228455   6.355   6.647   5.182
 9186SOL     OW28456   5.881   6.984   4.355
 9186SOL    HW128457   5.805   0.019   4.372
 9186SOL    HW228458   5.855   6.892   4.383
 9187SOL     OW28459   3.322   2.255   0.327
 9187SOL    HW128460   3.266   2.271   0.245
 9187SOL    HW228461   3.285   2.178   0.378
 9188SOL     OW28462   2.258   0.374   1.677
 9188SOL    HW128463   2.262   0.466   1.715
 9188SOL    HW228464   2.332   0.319   1.716
 9189SOL     OW28465   3.514   5.775   2.445
 9189SOL    HW128466   3.511   5.677   2.464
 9189SOL    HW228467   3.456   5.795   2.367
 9190SOL     OW28468   1.142   3.167   5.722
 9190SOL    HW128469   1.134   3.250   5.668
 9190SOL    HW228470   1.200   3.101   5.673
 9191SOL     OW28471   5.651   1.130   6.828
 9191SOL    HW128472   5.649   1.066   6.905
 9191SOL    HW228473   5.650   1.079   6.742
 9192SOL     OW28474   6.748   2.370   6.206
 9192SOL    HW128475   6.813   2.446   6.196
 9192SOL    HW228476   6.798   2.284   6.207
 9193SOL     OW28477   3.706   3.268   4.522
 9193SOL    HW128478   3.771   3.191   4.522
 9193SOL    HW228479   3.747   3.345   4.473
 9194SOL     OW28480   3.651   0.755   2.224
 9194SOL    HW128481   3.647   0.850   2.192
 9194SOL    HW228482   3.560   0.726   2.253
 9195SOL     OW28483   1.251   3.305   2.739
 9195SOL    HW128484   1.267   3.307   2.838
 9195SOL    HW228485   1.154   3.295   2.721
 9196SOL     OW28486   5.923   6.542   3.658
 9196SOL    HW128487   5.915   6.585   3.748
 9196SOL    HW228488   5.947   6.445   3.669
 9197SOL     OW28489   3.091   4.785   0.659
 9197SOL    HW128490   3.048   4.761   0.572
 9197SOL    HW228491   3.153   4.712   0.688
 9198SOL     OW28492   6.582   4.557   6.277
 9198SOL    HW128493   6.542   4.467   6.260
 9198SOL    HW228494   6.603   4.601   6.190
 9199SOL     OW28495   6.706   2.888   5.469
 9199SOL    HW128496   6.777   2.819   5.464
 9199SOL    HW228497   6.745   2.979   5.452
 9200SOL     OW28498   2.926   6.313   5.762
 9200SOL    HW128499   2.958   6.403   5.734
 9200SOL    HW228500   2.971   6.243   5.708
 9201SOL     OW28501   6.813   3.323   6.654
 9201SOL    HW128502   6.893   3.351   6.708
 9201SOL    HW228503   6.769   3.245   6.698
 9202SOL     OW28504   0.839   5.897   3.768
 9202SOL    HW128505   0.922   5.945   3.799
 9202SOL    HW228506   0.864   5.808   3.730
 9203SOL     OW28507   6.276   3.195   5.850
 9203SOL    HW128508   6.276   3.168   5.946
 9203SOL    HW228509   6.208   3.267   5.836
 9204SOL     OW28510   4.980   3.560   4.356
 9204SOL    HW128511   4.921   3.532   4.280
 9204SOL    HW228512   4.985   3.486   4.423
 9205SOL     OW28513   5.093   5.431   3.133
 9205SOL    HW128514   5.108   5.528   3.153
 9205SOL    HW228515   5.056   5.422   3.040
 9206SOL     OW28516   3.318   6.541   3.436
 9206SOL    HW128517   3.273   6.545   3.525
 9206SOL    HW228518   3.333   6.634   3.402
 9207SOL     OW28519   4.328   4.460   0.110
 9207SOL    HW128520   4.281   4.490   0.194
 9207SOL    HW228521   4.398   4.394   0.134
 9208SOL     OW28522   5.235   4.138   2.749
 9208SOL    HW128523   5.156   4.095   2.706
 9208SOL    HW228524   5.317   4.121   2.694
 9209SOL     OW28525   4.840   1.114   1.243
 9209SOL    HW128526   4.850   1.172   1.163
 9209SOL    HW228527   4.783   1.035   1.221
 9210SOL     OW28528   1.472   1.530   0.905
 9210SOL    HW128529   1.534   1.598   0.866
 9210SOL    HW228530   1.422   1.571   0.981
 9211SOL     OW28531   6.443   2.757   6.242
 9211SOL    HW128532   6.432   2.664   6.206
 9211SOL    HW228533   6.353   2.799   6.254
 9212SOL     OW28534   5.578   4.219   4.140
 9212SOL    HW128535   5.503   4.266   4.186
 9212SOL    HW228536   5.555   4.122   4.129
 9213SOL     OW28537   4.898   4.977   4.412
 9213SOL    HW128538   4.859   4.984   4.320
 9213SOL    HW228539   4.836   5.021   4.477
 9214SOL     OW28540   0.161   2.869   4.771
 9214SOL    HW128541   0.067   2.902   4.767
 9214SOL    HW228542   0.206   2.884   4.683
 9215SOL     OW28543   1.247   4.645   2.087
 9215SOL    HW128544   1.204   4.711   2.148
 9215SOL    HW228545   1.215   4.553   2.110
 9216SOL     OW28546   2.045   6.770   3.462
 9216SOL    HW128547   2.132   6.802   3.422
 9216SOL    HW228548   2.064   6.706   3.536
 9217SOL     OW28549   6.694   3.134   6.825
 9217SOL    HW128550   6.612   3.076   6.831
 9217SOL    HW228551   6.689   3.206   6.894
 9218SOL     OW28552   3.837   0.940   6.940
 9218SOL    HW128553   3.815   1.034   6.917
 9218SOL    HW228554   3.936   0.929   6.944
 9219SOL     OW28555   5.143   3.718   6.743
 9219SOL    HW128556   5.204   3.689   6.668
 9219SOL    HW228557   5.071   3.650   6.756
 9220SOL     OW28558   1.102   6.420   1.949
 9220SOL    HW128559   1.193   6.382   1.932
 9220SOL    HW228560   1.080   6.486   1.878
 9221SOL     OW28561   1.957   0.236   3.652
 9221SOL    HW128562   2.049   0.271   3.636
 9221SOL    HW228563   1.913   0.288   3.726
 9222SOL     OW28564   2.512   5.930   5.335
 9222SOL    HW128565   2.585   5.995   5.352
 9222SOL    HW228566   2.424   5.970   5.360
 9223SOL     OW28567   1.329   2.501   4.144
 9223SOL    HW128568   1.335   2.412   4.188
 9223SOL    HW228569   1.376   2.570   4.199
 9224SOL     OW28570   0.871   5.183   3.485
 9224SOL    HW128571   0.923   5.102   3.511
 9224SOL    HW228572   0.871   5.248   3.560
 9225SOL     OW28573   3.236   6.218   5.989
 9225SOL    HW128574   3.335   6.210   5.996
 9225SOL    HW228575   3.194   6.133   6.020
 9226SOL     OW28576   0.518   6.903   1.417
 9226SOL    HW128577   0.533   6.810   1.385
 9226SOL    HW228578   0.420   6.921   1.424
 9227SOL     OW28579   2.253   6.025   1.011
 9227SOL    HW128580   2.193   6.029   0.931
 9227SOL    HW228581   2.247   5.935   1.053
 9228SOL     OW28582   2.900   1.579   6.954
 9228SOL    HW128583   2.945   1.575   6.865
 9228SOL    HW228584   2.809   1.538   6.946
 9229SOL     OW28585   0.642   4.804   5.270
 9229SOL    HW128586   0.586   4.759   5.340
 9229SOL    HW228587   0.733   4.821   5.307
 9230SOL     OW28588   4.856   3.116   3.491
 9230SOL    HW128589   4.889   3.179   3.421
 9230SOL    HW228590   4.925   3.045   3.507
 9231SOL     OW28591   1.312   3.621   5.476
 9231SOL    HW128592   1.300   3.717   5.450
 9231SOL    HW228593   1.316   3.564   5.394
 9232SOL     OW28594   2.999   5.315   6.525
 9232SOL    HW128595   2.948   5.400   6.515
 9232SOL    HW228596   3.095   5.331   6.502
 9233SOL     OW28597   6.133   6.426   1.253
 9233SOL    HW128598   6.194   6.409   1.331
 9233SOL    HW228599   6.041   6.448   1.287
 9234SOL     OW28600   3.288   5.672   0.570
 9234SOL    HW128601   3.220   5.599   0.576
 9234SOL    HW228602   3.352   5.664   0.647
 9235SOL     OW28603   2.168   2.608   3.595
 9235SOL    HW128604   2.116   2.682   3.551
 9235SOL    HW228605   2.107   2.556   3.656
 9236SOL     OW28606   2.250   4.434   6.373
 9236SOL    HW128607   2.238   4.501   6.446
 9236SOL    HW228608   2.163   4.386   6.358
 9237SOL     OW28609   0.594   5.898   2.783
 9237SOL    HW128610   0.548   5.949   2.855
 9237SOL    HW228611   0.662   5.956   2.739
 9238SOL     OW28612   2.383   3.181   6.064
 9238SOL    HW128613   2.379   3.260   6.003
 9238SOL    HW228614   2.472   3.177   6.108
 9239SOL     OW28615   0.283   3.504   5.937
 9239SOL    HW128616   0.280   3.551   6.026
 9239SOL    HW228617   0.204   3.443   5.929
 9240SOL     OW28618   4.876   2.728   2.152
 9240SOL    HW128619   4.806   2.663   2.180
 9240SOL    HW228620   4.951   2.727   2.218
 9241SOL     OW28621   0.293   4.965   6.793
 9241SOL    HW128622   0.327   4.893   6.853
 9241SOL    HW228623   0.239   5.030   6.846
 9242SOL     OW28624   1.238   4.162   0.625
 9242SOL    HW128625   1.167   4.097   0.653
 9242SOL    HW228626   1.298   4.118   0.558
 9243SOL     OW28627   0.218   0.237   1.215
 9243SOL    HW128628   0.304   0.262   1.260
 9243SOL    HW228629   0.225   0.256   1.117
 9244SOL     OW28630   3.565   5.487   6.074
 9244SOL    HW128631   3.609   5.573   6.047
 9244SOL    HW228632   3.519   5.447   5.995
 9245SOL     OW28633   0.719   5.770   4.035
 9245SOL    HW128634   0.773   5.846   3.998
 9245SOL    HW228635   0.661   5.804   4.109
 9246SOL     OW28636   6.366   0.007   2.896
 9246SOL    HW128637   6.341   0.068   2.821
 9246SOL    HW228638   6.319   6.948   2.885
 9247SOL     OW28639   2.397   5.931   2.966
 9247SOL    HW128640   2.456   5.961   2.891
 9247SOL    HW228641   2.373   6.009   3.023
 9248SOL     OW28642   3.078   1.812   4.155
 9248SOL    HW128643   3.154   1.747   4.145
 9248SOL    HW228644   3.046   1.840   4.064
 9249SOL     OW28645   3.665   4.995   1.270
 9249SOL    HW128646   3.627   4.907   1.298
 9249SOL    HW228647   3.722   4.981   1.188
 9250SOL     OW28648   5.650   2.647   4.498
 9250SOL    HW128649   5.603   2.678   4.580
 9250SOL    HW228650   5.629   2.551   4.481
 9251SOL     OW28651   3.937   1.811   2.905
 9251SOL    HW128652   3.967   1.813   2.810
 9251SOL    HW228653   4.016   1.798   2.965
 9252SOL     OW28654   5.571   0.977   4.770
 9252SOL    HW128655   5.634   0.993   4.846
 9252SOL    HW228656   5.620   0.986   4.683
 9253SOL     OW28657   5.483   5.544   5.565
 9253SOL    HW128658   5.566   5.501   5.529
 9253SOL    HW228659   5.404   5.487   5.543
 9254SOL     OW28660   5.248   4.961   3.252
 9254SOL    HW128661   5.237   5.056   3.223
 9254SOL    HW228662   5.178   4.939   3.321
 9255SOL     OW28663   4.705   3.750   0.425
 9255SOL    HW128664   4.607   3.754   0.405
 9255SOL    HW228665   4.753   3.819   0.369
 9256SOL     OW28666   3.367   0.223   2.856
 9256SOL    HW128667   3.451   0.272   2.835
 9256SOL    HW228668   3.289   0.285   2.848
 9257SOL     OW28669   0.129   4.368   3.610
 9257SOL    HW128670   0.150   4.270   3.614
 9257SOL    HW228671   0.071   4.393   3.688
 9258SOL     OW28672   3.908   3.983   2.543
 9258SOL    HW128673   4.001   3.962   2.574
 9258SOL    HW228674   3.856   3.898   2.535
 9259SOL     OW28675   0.439   1.994   0.678
 9259SOL    HW128676   0.399   1.916   0.727
 9259SOL    HW228677   0.371   2.066   0.668
 9260SOL     OW28678   6.312   1.409   5.570
 9260SOL    HW128679   6.372   1.490   5.568
 9260SOL    HW228680   6.234   1.427   5.630
 9261SOL     OW28681   3.243   1.254   0.728
 9261SOL    HW128682   3.299   1.189   0.677
 9261SOL    HW228683   3.154   1.264   0.683
 9262SOL     OW28684   6.611   4.853   4.821
 9262SOL    HW128685   6.635   4.813   4.732
 9262SOL    HW228686   6.534   4.916   4.809
 9263SOL     OW28687   4.719   0.427   1.886
 9263SOL    HW128688   4.666   0.344   1.900
 9263SOL    HW228689   4.689   0.472   1.802
 9264SOL     OW28690   5.164   4.473   0.677
 9264SOL    HW128691   5.260   4.468   0.707
 9264SOL    HW228692   5.145   4.565   0.643
 9265SOL     OW28693   3.900   2.473   6.979
 9265SOL    HW128694   3.895   2.572   6.980
 9265SOL    HW228695   3.810   2.434   7.001
 9266SOL     OW28696   1.022   6.314   0.557
 9266SOL    HW128697   0.951   6.330   0.625
 9266SOL    HW228698   0.989   6.249   0.488
 9267SOL     OW28699   0.229   2.225   4.517
 9267SOL    HW128700   0.310   2.187   4.473
 9267SOL    HW228701   0.166   2.260   4.447
 9268SOL     OW28702   1.065   5.739   2.509
 9268SOL    HW128703   0.971   5.707   2.516
 9268SOL    HW228704   1.079   5.817   2.569
 9269SOL     OW28705   3.970   1.009   6.216
 9269SOL    HW128706   3.988   0.949   6.138
 9269SOL    HW228707   4.057   1.041   6.253
 9270SOL     OW28708   4.451   6.303   6.187
 9270SOL    HW128709   4.442   6.305   6.088
 9270SOL    HW228710   4.473   6.394   6.221
 9271SOL     OW28711   6.300   0.182   0.951
 9271SOL    HW128712   6.226   0.144   1.006
 9271SOL    HW228713   6.271   0.268   0.910
 9272SOL     OW28714   0.680   6.034   5.344
 9272SOL    HW128715   0.668   5.993   5.254
 9272SOL    HW228716   0.685   5.962   5.413
 9273SOL     OW28717   6.318   6.349   2.725
 9273SOL    HW128718   6.382   6.343   2.802
 9273SOL    HW228719   6.246   6.414   2.747
 9274SOL     OW28720   6.558   1.462   0.544
 9274SOL    HW128721   6.584   1.375   0.585
 9274SOL    HW228722   6.607   1.474   0.458
 9275SOL     OW28723   6.202   1.147   6.863
 9275SOL    HW128724   6.124   1.182   6.811
 9275SOL    HW228725   6.267   1.104   6.801
 9276SOL     OW28726   1.695   3.902   1.481
 9276SOL    HW128727   1.634   3.836   1.437
 9276SOL    HW228728   1.761   3.854   1.538
 9277SOL     OW28729   4.141   4.253   0.453
 9277SOL    HW128730   4.139   4.245   0.553
 9277SOL    HW228731   4.058   4.300   0.422
 9278SOL     OW28732   2.054   0.378   6.107
 9278SOL    HW128733   2.110   0.316   6.161
 9278SOL    HW228734   2.052   0.468   6.151
 9279SOL     OW28735   3.233   0.432   1.936
 9279SOL    HW128736   3.215   0.522   1.896
 9279SOL    HW228737   3.307   0.388   1.886
 9280SOL     OW28738   2.330   1.802   2.833
 9280SOL    HW128739   2.423   1.823   2.804
 9280SOL    HW228740   2.265   1.854   2.776
 9281SOL     OW28741   2.733   3.725   6.783
 9281SOL    HW128742   2.677   3.729   6.866
 9281SOL    HW228743   2.824   3.692   6.806
 9282SOL     OW28744   6.118   0.533   3.351
 9282SOL    HW128745   6.043   0.469   3.335
 9282SOL    HW228746   6.183   0.527   3.274
 9283SOL     OW28747   5.323   0.736   4.099
 9283SOL    HW128748   5.237   0.726   4.050
 9283SOL    HW228749   5.316   0.811   4.164
 9284SOL     OW28750   2.865   3.428   5.751
 9284SOL    HW128751   2.866   3.472   5.661
 9284SOL    HW228752   2.791   3.360   5.754
 9285SOL     OW28753   5.025   3.113   0.857
 9285SOL    HW128754   5.091   3.188   0.852
 9285SOL    HW228755   5.073   3.027   0.869
 9286SOL     OW28756   5.956   5.805   0.674
 9286SOL    HW128757   5.861   5.793   0.701
 9286SOL    HW228758   6.015   5.751   0.734
 9287SOL     OW28759   3.156   5.079   6.927
 9287SOL    HW128760   3.096   5.126   6.862
 9287SOL    HW228761   3.149   5.124   7.016
 9288SOL     OW28762   4.625   1.520   2.849
 9288SOL    HW128763   4.686   1.574   2.791
 9288SOL    HW228764   4.547   1.576   2.875
 9289SOL     OW28765   3.919   0.589   1.736
 9289SOL    HW128766   4.000   0.603   1.794
 9289SOL    HW228767   3.915   0.662   1.667
 9290SOL     OW28768   5.476   0.238   3.020
 9290SOL    HW128769   5.490   0.326   2.976
 9290SOL    HW228770   5.545   0.173   2.987
 9291SOL     OW28771   1.172   4.988   5.660
 9291SOL    HW128772   1.157   5.051   5.736
 9291SOL    HW228773   1.246   5.022   5.603
 9292SOL     OW28774   2.070   3.210   6.378
 9292SOL    HW128775   2.075   3.208   6.278
 9292SOL    HW228776   2.155   3.175   6.417
 9293SOL     OW28777   6.084   3.048   6.420
 9293SOL    HW128778   6.144   3.108   6.474
 9293SOL    HW228779   5.999   3.032   6.470
 9294SOL     OW28780   4.633   6.953   6.086
 9294SOL    HW128781   4.655   0.008   6.036
 9294SOL    HW228782   4.673   6.874   6.039
 9295SOL     OW28783   6.363   1.069   4.946
 9295SOL    HW128784   6.285   1.091   5.005
 9295SOL    HW228785   6.330   1.027   4.861
 9296SOL     OW28786   1.024   5.701   6.521
 9296SOL    HW128787   1.050   5.706   6.424
 9296SOL    HW228788   0.924   5.709   6.529
 9297SOL     OW28789   1.017   6.692   3.290
 9297SOL    HW128790   1.011   6.732   3.199
 9297SOL    HW228791   0.925   6.680   3.328
 9298SOL     OW28792   1.229   6.566   6.946
 9298SOL    HW128793   1.150   6.510   6.920
 9298SOL    HW228794   1.205   6.623   7.024
 9299SOL     OW28795   0.436   2.486   4.454
 9299SOL    HW128796   0.364   2.483   4.523
 9299SOL    HW228797   0.524   2.467   4.498
 9300SOL     OW28798   0.594   4.200   5.918
 9300SOL    HW128799   0.611   4.219   6.015
 9300SOL    HW228800   0.639   4.114   5.893
 9301SOL     OW28801   5.692   5.421   5.008
 9301SOL    HW128802   5.679   5.331   4.965
 9301SOL    HW228803   5.604   5.468   5.011
 9302SOL     OW28804   2.060   2.705   3.863
 9302SOL    HW128805   1.989   2.774   3.852
 9302SOL    HW228806   2.056   2.666   3.955
 9303SOL     OW28807   2.671   3.824   0.945
 9303SOL    HW128808   2.666   3.727   0.920
 9303SOL    HW228809   2.765   3.848   0.968
 9304SOL     OW28810   3.967   4.583   1.690
 9304SOL    HW128811   4.050   4.542   1.651
 9304SOL    HW228812   3.898   4.512   1.704
 9305SOL     OW28813   3.522   1.427   0.703
 9305SOL    HW128814   3.428   1.412   0.734
 9305SOL    HW228815   3.580   1.351   0.732
 9306SOL     OW28816   0.981   3.884   5.282
 9306SOL    HW128817   0.962   3.982   5.270
 9306SOL    HW228818   1.080   3.869   5.272
 9307SOL     OW28819   0.693   3.774   0.787
 9307SOL    HW128820   0.642   3.860   0.782
 9307SOL    HW228821   0.770   3.786   0.850
 9308SOL     OW28822   1.217   3.807   0.578
 9308SOL    HW128823   1.176   3.730   0.627
 9308SOL    HW228824   1.152   3.883   0.574
 9309SOL     OW28825   3.767   5.333   6.167
 9309SOL    HW128826   3.838   5.384   6.216
 9309SOL    HW228827   3.697   5.397   6.134
 9310SOL     OW28828   5.736   5.833   5.565
 9310SOL    HW128829   5.748   5.740   5.531
 9310SOL    HW228830   5.807   5.892   5.526
 9311SOL     OW28831   4.423   4.777   1.486
 9311SOL    HW128832   4.330   4.810   1.468
 9311SOL    HW228833   4.437   4.767   1.584
 9312SOL     OW28834   1.078   3.586   1.233
 9312SOL    HW128835   1.118   3.501   1.200
 9312SOL    HW228836   1.149   3.644   1.274
 9313SOL     OW28837   0.080   0.476   1.565
 9313SOL    HW128838   0.046   0.569   1.553
 9313SOL    HW228839   0.065   0.447   1.659
 9314SOL     OW28840   6.578   4.229   6.858
 9314SOL    HW128841   6.581   4.329   6.862
 9314SOL    HW228842   6.576   4.199   6.763
 9315SOL     OW28843   6.958   0.114   5.667
 9315SOL    HW128844   0.020   0.138   5.704
 9315SOL    HW228845   6.899   0.083   5.742
 9316SOL     OW28846   5.380   6.697   5.868
 9316SOL    HW128847   5.308   6.629   5.853
 9316SOL    HW228848   5.462   6.653   5.904
 9317SOL     OW28849   5.181   5.652   3.813
 9317SOL    HW128850   5.239   5.678   3.736
 9317SOL    HW228851   5.113   5.585   3.783
 9318SOL     OW28852   6.160   1.428   6.278
 9318SOL    HW128853   6.242   1.378   6.252
 9318SOL    HW228854   6.114   1.381   6.354
 9319SOL     OW28855   2.235   2.867   0.065
 9319SOL    HW128856   2.326   2.864   0.025
 9319SOL    HW228857   2.173   2.914   0.003
 9320SOL     OW28858   3.740   0.812   4.944
 9320SOL    HW128859   3.705   0.906   4.940
 9320SOL    HW228860   3.770   0.784   4.853
 9321SOL     OW28861   0.853   0.403   4.870
 9321SOL    HW128862   0.873   0.315   4.912
 9321SOL    HW228863   0.780   0.392   4.803
 9322SOL     OW28864   6.908   3.531   5.922
 9322SOL    HW128865   6.947   3.624   5.920
 9322SOL    HW228866   6.893   3.503   6.016
 9323SOL     OW28867   1.177   1.361   5.457
 9323SOL    HW128868   1.258   1.400   5.501
 9323SOL    HW228869   1.197   1.268   5.426
 9324SOL     OW28870   1.185   4.767   1.816
 9324SOL    HW128871   1.216   4.700   1.884
 9324SOL    HW228872   1.233   4.751   1.730
 9325SOL     OW28873   5.977   1.253   6.733
 9325SOL    HW128874   6.001   1.344   6.766
 9325SOL    HW228875   5.878   1.243   6.730
 9326SOL     OW28876   2.623   4.572   0.116
 9326SOL    HW128877   2.649   4.519   0.036
 9326SOL    HW228878   2.548   4.633   0.093
 9327SOL     OW28879   4.705   0.201   2.592
 9327SOL    HW128880   4.795   0.160   2.608
 9327SOL    HW228881   4.717   0.299   2.572
 9328SOL     OW28882   2.476   0.771   4.296
 9328SOL    HW128883   2.426   0.738   4.216
 9328SOL    HW228884   2.486   0.696   4.361
 9329SOL     OW28885   5.855   3.788   0.946
 9329SOL    HW128886   5.757   3.770   0.937
 9329SOL    HW228887   5.896   3.722   1.009
 9330SOL     OW28888   6.803   0.322   5.567
 9330SOL    HW128889   6.847   0.237   5.596
 9330SOL    HW228890   6.871   0.395   5.563
 9331SOL     OW28891   2.638   0.627   6.452
 9331SOL    HW128892   2.724   0.676   6.433
 9331SOL    HW228893   2.590   0.671   6.527
 9332SOL     OW28894   3.804   4.691   0.503
 9332SOL    HW128895   3.826   4.619   0.569
 9332SOL    HW228896   3.748   4.653   0.429
 9333SOL     OW28897   3.754   4.816   6.727
 9333SOL    HW128898   3.706   4.766   6.800
 9333SOL    HW228899   3.775   4.752   6.653
 9334SOL     OW28900   5.016   6.551   4.340
 9334SOL    HW128901   5.040   6.628   4.398
 9334SOL    HW228902   5.090   6.536   4.274
 9335SOL     OW28903   1.407   1.239   6.696
 9335SOL    HW128904   1.373   1.269   6.785
 9335SOL    HW228905   1.330   1.207   6.640
 9336SOL     OW28906   3.896   0.060   4.998
 9336SOL    HW128907   3.821   0.125   4.983
 9336SOL    HW228908   3.975   0.108   5.035
 9337SOL     OW28909   4.362   0.544   5.119
 9337SOL    HW128910   4.372   0.540   5.219
 9337SOL    HW228911   4.273   0.583   5.096
 9338SOL     OW28912   6.189   6.988   1.148
 9338SOL    HW128913   6.289   6.988   1.140
 9338SOL    HW228914   6.159   6.898   1.181
 9339SOL     OW28915   5.906   6.735   6.952
 9339SOL    HW128916   5.858   6.728   0.011
 9339SOL    HW228917   6.002   6.756   6.968
 9340SOL     OW28918   3.856   4.999   3.690
 9340SOL    HW128919   3.780   4.941   3.660
 9340SOL    HW228920   3.910   4.950   3.758
 9341SOL     OW28921   6.072   5.088   1.267
 9341SOL    HW128922   6.034   5.086   1.359
 9341SOL    HW228923   6.012   5.038   1.204
 9342SOL     OW28924   3.027   7.026   4.228
 9342SOL    HW128925   3.063   0.091   4.233
 9342SOL    HW228926   3.033   6.984   4.319
 9343SOL     OW28927   4.789   4.212   1.838
 9343SOL    HW128928   4.744   4.158   1.766
 9343SOL    HW228929   4.720   4.250   1.899
 9344SOL     OW28930   5.323   6.268   1.671
 9344SOL    HW128931   5.375   6.309   1.746
 9344SOL    HW228932   5.360   6.301   1.583
 9345SOL     OW28933   6.732   5.188   1.453
 9345SOL    HW128934   6.710   5.095   1.483
 9345SOL    HW228935   6.703   5.200   1.358
 9346SOL     OW28936   4.971   1.179   2.052
 9346SOL    HW128937   5.000   1.267   2.089
 9346SOL    HW228938   5.026   1.106   2.091
 9347SOL     OW28939   3.889   4.354   0.407
 9347SOL    HW128940   3.860   4.330   0.314
 9347SOL    HW228941   3.812   4.347   0.469
 9348SOL     OW28942   2.677   5.600   1.973
 9348SOL    HW128943   2.686   5.697   1.948
 9348SOL    HW228944   2.662   5.593   2.072
 9349SOL     OW28945   5.696   5.134   1.929
 9349SOL    HW128946   5.753   5.169   2.003
 9349SOL    HW228947   5.691   5.034   1.936
 9350SOL     OW28948   6.729   2.348   5.102
 9350SOL    HW128949   6.750   2.416   5.171
 9350SOL    HW228950   6.711   2.393   5.015
 9351SOL     OW28951   3.515   0.035   6.158
 9351SOL    HW128952   3.452   0.017   6.234
 9351SOL    HW228953   3.479   0.108   6.101
 9352SOL     OW28954   3.271   1.553   6.295
 9352SOL    HW128955   3.231   1.462   6.306
 9352SOL    HW228956   3.313   1.559   6.204
 9353SOL     OW28957   0.481   4.576   0.741
 9353SOL    HW128958   0.474   4.675   0.728
 9353SOL    HW228959   0.389   4.537   0.747
 9354SOL     OW28960   0.307   2.211   6.053
 9354SOL    HW128961   0.290   2.163   5.968
 9354SOL    HW228962   0.241   2.181   6.122
 9355SOL     OW28963   0.721   1.658   4.405
 9355SOL    HW128964   0.630   1.699   4.412
 9355SOL    HW228965   0.721   1.569   4.450
 9356SOL     OW28966   4.672   5.942   2.496
 9356SOL    HW128967   4.625   5.913   2.413
 9356SOL    HW228968   4.604   5.966   2.566
 9357SOL     OW28969   1.923   3.865   6.497
 9357SOL    HW128970   1.970   3.903   6.418
 9357SOL    HW228971   1.829   3.842   6.472
 9358SOL     OW28972   6.802   3.415   2.413
 9358SOL    HW128973   6.836   3.485   2.350
 9358SOL    HW228974   6.748   3.459   2.485
 9359SOL     OW28975   1.625   3.796   5.357
 9359SOL    HW128976   1.570   3.879   5.352
 9359SOL    HW228977   1.679   3.796   5.440
 9360SOL     OW28978   1.127   5.540   6.913
 9360SOL    HW128979   1.089   5.594   6.837
 9360SOL    HW228980   1.189   5.598   6.966
 9361SOL     OW28981   1.829   5.605   2.321
 9361SOL    HW128982   1.853   5.650   2.406
 9361SOL    HW228983   1.777   5.668   2.263
 9362SOL     OW28984   2.117   3.747   2.954
 9362SOL    HW128985   2.216   3.746   2.942
 9362SOL    HW228986   2.080   3.655   2.942
 9363SOL     OW28987   3.583   7.023   2.532
 9363SOL    HW128988   3.570   0.084   2.488
 9363SOL    HW228989   3.558   6.950   2.468
 9364SOL     OW28990   4.321   3.213   6.288
 9364SOL    HW128991   4.305   3.309   6.309
 9364SOL    HW228992   4.235   3.171   6.259
 9365SOL     OW28993   2.455   1.964   4.846
 9365SOL    HW128994   2.463   1.967   4.746
 9365SOL    HW228995   2.537   1.922   4.885
 9366SOL     OW28996   3.279   6.582   6.348
 9366SOL    HW128997   3.265   6.678   6.369
 9366SOL    HW228998   3.232   6.526   6.417
 9367SOL     OW28999   0.445   6.951   2.923
 9367SOL    HW129000   0.396   6.870   2.889
 9367SOL    HW229001   0.379   7.015   2.962
 9368SOL     OW29002   2.960   1.043   2.715
 9368SOL    HW129003   3.013   1.041   2.801
 9368SOL    HW229004   2.975   1.131   2.670
 9369SOL     OW29005   6.888   6.025   4.684
 9369SOL    HW129006   6.832   5.945   4.663
 9369SOL    HW229007   6.922   6.019   4.778
 9370SOL     OW29008   4.885   0.361   3.343
 9370SOL    HW129009   4.790   0.333   3.359
 9370SOL    HW229010   4.888   0.459   3.323
 9371SOL     OW29011   2.687   5.430   0.559
 9371SOL    HW129012   2.737   5.344   0.558
 9371SOL    HW229013   2.733   5.495   0.620
 9372SOL     OW29014   5.573   0.001   2.738
 9372SOL    HW129015   5.606   7.025   2.644
 9372SOL    HW229016   5.580   6.939   2.780
 9373SOL     OW29017   4.989   2.035   2.677
 9373SOL    HW129018   4.891   2.057   2.676
 9373SOL    HW229019   5.024   2.041   2.770
 9374SOL     OW29020   0.848   3.757   0.273
 9374SOL    HW129021   0.833   3.736   0.370
 9374SOL    HW229022   0.864   3.856   0.263
 9375SOL     OW29023   0.358   1.170   1.639
 9375SOL    HW129024   0.264   1.137   1.628
 9375SOL    HW229025   0.396   1.133   1.724
 9376SOL     OW29026   2.617   3.962   1.379
 9376SOL    HW129027   2.658   4.048   1.408
 9376SOL    HW229028   2.590   3.908   1.459
 9377SOL     OW29029   1.671   5.761   4.257
 9377SOL    HW129030   1.587   5.757   4.203
 9377SOL    HW229031   1.648   5.757   4.354
 9378SOL     OW29032   1.877   1.433   3.998
 9378SOL    HW129033   1.936   1.428   4.078
 9378SOL    HW229034   1.781   1.435   4.027
 9379SOL     OW29035   4.887   6.084   5.841
 9379SOL    HW129036   4.972   6.072   5.791
 9379SOL    HW229037   4.907   6.098   5.938
 9380SOL     OW29038   4.741   5.571   4.911
 9380SOL    HW129039   4.720   5.537   5.003
 9380SOL    HW229040   4.672   5.637   4.883
 9381SOL     OW29041   3.927   2.843   6.098
 9381SOL    HW129042   3.903   2.939   6.083
 9381SOL    HW229043   3.847   2.786   6.079
 9382SOL     OW29044   3.810   0.765   3.466
 9382SOL    HW129045   3.878   0.729   3.403
 9382SOL    HW229046   3.843   0.756   3.560
 9383SOL     OW29047   0.145   5.670   4.656
 9383SOL    HW129048   0.143   5.681   4.557
 9383SOL    HW229049   0.213   5.731   4.696
 9384SOL     OW29050   4.158   0.749   1.927
 9384SOL    HW129051   4.154   0.817   1.999
 9384SOL    HW229052   4.212   0.671   1.957
 9385SOL     OW29053   4.237   0.794   3.387
 9385SOL    HW129054   4.278   0.872   3.341
 9385SOL    HW229055   4.199   0.822   3.475
 9386SOL     OW29056   1.663   5.903   5.144
 9386SOL    HW129057   1.719   5.949   5.213
 9386SOL    HW229058   1.599   5.841   5.189
 9387SOL     OW29059   2.985   1.556   6.700
 9387SOL    HW129060   2.934   1.610   6.634
 9387SOL    HW229061   3.001   1.464   6.663
 9388SOL     OW29062   3.235   6.389   3.243
 9388SOL    HW129063   3.276   6.442   3.317
 9388SOL    HW229064   3.307   6.337   3.196
 9389SOL     OW29065   2.193   0.362   3.569
 9389SOL    HW129066   2.243   0.296   3.512
 9389SOL    HW229067   2.135   0.419   3.510
 9390SOL     OW29068   4.804   4.765   6.135
 9390SOL    HW129069   4.821   4.704   6.057
 9390SOL    HW229070   4.708   4.759   6.161
 9391SOL     OW29071   2.161   1.765   5.373
 9391SOL    HW129072   2.247   1.765   5.322
 9391SOL    HW229073   2.137   1.859   5.397
 9392SOL     OW29074   5.769   5.949   5.187
 9392SOL    HW129075   5.676   5.983   5.170
 9392SOL    HW229076   5.818   6.015   5.243
 9393SOL     OW29077   3.086   6.588   0.060
 9393SOL    HW129078   3.113   6.572   6.993
 9393SOL    HW229079   3.160   6.635   0.108
 9394SOL     OW29080   6.634   0.693   1.765
 9394SOL    HW129081   6.707   0.659   1.824
 9394SOL    HW229082   6.607   0.622   1.701
 9395SOL     OW29083   3.226   1.751   1.309
 9395SOL    HW129084   3.271   1.839   1.292
 9395SOL    HW229085   3.291   1.689   1.354
 9396SOL     OW29086   2.236   4.148   4.099
 9396SOL    HW129087   2.217   4.052   4.118
 9396SOL    HW229088   2.265   4.193   4.184
 9397SOL     OW29089   4.430   0.174   6.428
 9397SOL    HW129090   4.337   0.207   6.408
 9397SOL    HW229091   4.496   0.245   6.406
 9398SOL     OW29092   6.726   1.221   4.941
 9398SOL    HW129093   6.741   1.316   4.971
 9398SOL    HW229094   6.744   1.213   4.843
 9399SOL     OW29095   0.936   2.996   5.463
 9399SOL    HW129096   1.022   2.974   5.509
 9399SOL    HW229097   0.860   2.984   5.527
 9400SOL     OW29098   4.498   1.056   1.355
 9400SOL    HW129099   4.541   1.029   1.441
 9400SOL    HW229100   4.554   1.025   1.279
 9401SOL     OW29101   6.594   0.683   3.358
 9401SOL    HW129102   6.632   0.665   3.267
 9401SOL    HW229103   6.495   0.694   3.351
 9402SOL     OW29104   1.093   4.950   2.824
 9402SOL    HW129105   1.120   4.957   2.728
 9402SOL    HW229106   1.011   5.005   2.840
 9403SOL     OW29107   6.435   1.030   2.202
 9403SOL    HW129108   6.374   1.032   2.282
 9403SOL    HW229109   6.530   1.024   2.233
 9404SOL     OW29110   1.181   3.123   0.515
 9404SOL    HW129111   1.229   3.210   0.528
 9404SOL    HW229112   1.197   3.065   0.595
 9405SOL     OW29113   2.304   4.404   3.826
 9405SOL    HW129114   2.285   4.310   3.797
 9405SOL    HW229115   2.219   4.455   3.833
 9406SOL     OW29116   6.764   2.767   5.988
 9406SOL    HW129117   6.710   2.739   5.909
 9406SOL    HW229118   6.709   2.826   6.047
 9407SOL     OW29119   2.917   4.821   3.565
 9407SOL    HW129120   2.981   4.897   3.572
 9407SOL    HW229121   2.895   4.788   3.657
 9408SOL     OW29122   6.777   3.073   5.726
 9408SOL    HW129123   6.771   3.172   5.716
 9408SOL    HW229124   6.686   3.033   5.713
 9409SOL     OW29125   5.798   5.431   0.389
 9409SOL    HW129126   5.747   5.432   0.302
 9409SOL    HW229127   5.896   5.432   0.370
 9410SOL     OW29128   2.190   0.784   2.258
 9410SOL    HW129129   2.264   0.779   2.191
 9410SOL    HW229130   2.117   0.721   2.232
 9411SOL     OW29131   3.604   3.541   2.640
 9411SOL    HW129132   3.556   3.622   2.607
 9411SOL    HW229133   3.555   3.459   2.609
 9412SOL     OW29134   0.933   1.113   2.466
 9412SOL    HW129135   1.013   1.121   2.407
 9412SOL    HW229136   0.940   1.030   2.521
 9413SOL     OW29137   4.125   6.027   3.855
 9413SOL    HW129138   4.129   5.970   3.773
 9413SOL    HW229139   4.037   6.074   3.859
 9414SOL     OW29140   3.121   1.126   2.953
 9414SOL    HW129141   3.126   1.129   3.053
 9414SOL    HW229142   3.103   1.218   2.918
 9415SOL     OW29143   2.499   6.959   2.598
 9415SOL    HW129144   2.517   0.018   2.644
 9415SOL    HW229145   2.540   6.960   2.507
 9416SOL     OW29146   0.033   2.008   6.740
 9416SOL    HW129147   0.025   1.913   6.771
 9416SOL    HW229148   6.979   2.058   6.765
 9417SOL     OW29149   4.265   0.467   0.973
 9417SOL    HW129150   4.218   0.389   0.932
 9417SOL    HW229151   4.327   0.435   1.045
 9418SOL     OW29152   3.224   0.713   1.416
 9418SOL    HW129153   3.288   0.653   1.369
 9418SOL    HW229154   3.274   0.789   1.458
 9419SOL     OW29155   2.795   4.013   5.693
 9419SOL    HW129156   2.701   4.029   5.662
 9419SOL    HW229157   2.859   4.042   5.622
 9420SOL     OW29158   5.615   4.328   6.124
 9420SOL    HW129159   5.605   4.422   6.155
 9420SOL    HW229160   5.679   4.279   6.184
 9421SOL     OW29161   2.416   6.191   4.493
 9421SOL    HW129162   2.489   6.163   4.431
 9421SOL    HW229163   2.382   6.282   4.468
 9422SOL     OW29164   2.737   5.347   2.842
 9422SOL    HW129165   2.711   5.268   2.898
 9422SOL    HW229166   2.745   5.318   2.746
 9423SOL     OW29167   2.697   6.560   3.658
 9423SOL    HW129168   2.646   6.638   3.621
 9423SOL    HW229169   2.785   6.552   3.610
 9424SOL     OW29170   5.014   2.191   5.083
 9424SOL    HW129171   4.934   2.251   5.081
 9424SOL    HW229172   5.058   2.197   5.172
 9425SOL     OW29173   5.410   3.846   1.203
 9425SOL    HW129174   5.384   3.942   1.197
 9425SOL    HW229175   5.329   3.788   1.193
 9426SOL     OW29176   3.394   1.824   6.037
 9426SOL    HW129177   3.380   1.872   5.951
 9426SOL    HW229178   3.403   1.726   6.019
 9427SOL     OW29179   2.288   5.398   3.302
 9427SOL    HW129180   2.339   5.475   3.341
 9427SOL    HW229181   2.200   5.390   3.348
 9428SOL     OW29182   6.610   1.165   1.604
 9428SOL    HW129183   6.528   1.205   1.564
 9428SOL    HW229184   6.584   1.097   1.672
 9429SOL     OW29185   2.134   4.137   3.235
 9429SOL    HW129186   2.186   4.129   3.320
 9429SOL    HW229187   2.134   4.232   3.204
 9430SOL     OW29188   0.458   3.374   4.810
 9430SOL    HW129189   0.540   3.359   4.866
 9430SOL    HW229190   0.468   3.326   4.723
 9431SOL     OW29191   6.573   4.181   0.691
 9431SOL    HW129192   6.532   4.182   0.600
 9431SOL    HW229193   6.631   4.100   0.701
 9432SOL     OW29194   5.717   0.292   3.452
 9432SOL    HW129195   5.682   0.261   3.541
 9432SOL    HW229196   5.676   0.380   3.429
 9433SOL     OW29197   2.991   6.122   3.446
 9433SOL    HW129198   2.983   6.173   3.361
 9433SOL    HW229199   2.903   6.122   3.494
 9434SOL     OW29200   5.187   5.690   2.021
 9434SOL    HW129201   5.255   5.757   2.051
 9434SOL    HW229202   5.209   5.660   1.928
 9435SOL     OW29203   0.811   2.683   3.931
 9435SOL    HW129204   0.806   2.777   3.895
 9435SOL    HW229205   0.766   2.621   3.867
 9436SOL     OW29206   1.627   2.956   1.243
 9436SOL    HW129207   1.702   2.949   1.309
 9436SOL    HW229208   1.663   2.942   1.150
 9437SOL     OW29209   1.381   6.083   2.943
 9437SOL    HW129210   1.346   6.081   3.037
 9437SOL    HW229211   1.322   6.027   2.884
 9438SOL     OW29212   0.690   6.861   1.786
 9438SOL    HW129213   0.733   6.771   1.779
 9438SOL    HW229214   0.607   6.854   1.840
 9439SOL     OW29215   0.506   3.213   0.262
 9439SOL    HW129216   0.477   3.185   0.353
 9439SOL    HW229217   0.482   3.141   0.196
 9440SOL     OW29218   3.924   4.816   3.354
 9440SOL    HW129219   3.983   4.755   3.301
 9440SOL    HW229220   3.973   4.849   3.434
 9441SOL     OW29221   5.990   4.253   5.657
 9441SOL    HW129222   6.004   4.336   5.711
 9441SOL    HW229223   6.031   4.266   5.567
 9442SOL     OW29224   4.585   3.515   1.282
 9442SOL    HW129225   4.562   3.418   1.278
 9442SOL    HW229226   4.623   3.537   1.372
 9443SOL     OW29227   2.549   4.948   1.066
 9443SOL    HW129228   2.580   5.023   1.124
 9443SOL    HW229229   2.604   4.867   1.085
 9444SOL     OW29230   1.520   3.544   0.828
 9444SOL    HW129231   1.544   3.622   0.887
 9444SOL    HW229232   1.422   3.529   0.831
 9445SOL     OW29233   6.160   3.212   3.065
 9445SOL    HW129234   6.161   3.113   3.052
 9445SOL    HW229235   6.254   3.246   3.066
 9446SOL     OW29236   6.051   5.576   4.673
 9446SOL    HW129237   6.079   5.561   4.767
 9446SOL    HW229238   6.052   5.674   4.652
 9447SOL     OW29239   5.997   5.037   3.783
 9447SOL    HW129240   6.028   5.055   3.877
 9447SOL    HW229241   5.982   4.939   3.772
 9448SOL     OW29242   0.055   0.292   6.212
 9448SOL    HW129243   6.997   0.251   6.182
 9448SOL    HW229244   0.131   0.254   6.159
 9449SOL     OW29245   5.494   0.409   0.364
 9449SOL    HW129246   5.417   0.425   0.426
 9449SOL    HW229247   5.480   0.322   0.316
 9450SOL     OW29248   2.211   5.781   4.432
 9450SOL    HW129249   2.182   5.705   4.490
 9450SOL    HW229250   2.140   5.800   4.364
 9451SOL     OW29251   4.448   6.781   5.603
 9451SOL    HW129252   4.544   6.809   5.612
 9451SOL    HW229253   4.413   6.755   5.693
 9452SOL     OW29254   2.312   3.896   0.106
 9452SOL    HW129255   2.329   3.904   0.007
 9452SOL    HW229256   2.287   3.985   0.142
 9453SOL     OW29257   2.659   4.648   2.771
 9453SOL    HW129258   2.674   4.664   2.868
 9453SOL    HW229259   2.620   4.557   2.757
 9454SOL     OW29260   3.613   4.080   6.466
 9454SOL    HW129261   3.532   4.038   6.425
 9454SOL    HW229262   3.690   4.017   6.459
 9455SOL     OW29263   2.265   2.081   3.944
 9455SOL    HW129264   2.269   2.068   3.845
 9455SOL    HW229265   2.172   2.106   3.971
 9456SOL     OW29266   0.034   3.463   1.057
 9456SOL    HW129267   0.045   3.413   0.971
 9456SOL    HW229268   6.965   3.475   1.076
 9457SOL     OW29269   1.806   3.670   3.955
 9457SOL    HW129270   1.901   3.691   3.931
 9457SOL    HW229271   1.771   3.741   4.016
 9458SOL     OW29272   0.788   3.592   6.703
 9458SOL    HW129273   0.808   3.689   6.710
 9458SOL    HW229274   0.712   3.569   6.765
 9459SOL     OW29275   5.447   4.563   3.804
 9459SOL    HW129276   5.432   4.516   3.717
 9459SOL    HW229277   5.515   4.635   3.791
 9460SOL     OW29278   1.831   3.438   3.687
 9460SOL    HW129279   1.842   3.531   3.721
 9460SOL    HW229280   1.916   3.387   3.703
 9461SOL     OW29281   0.183   1.876   1.522
 9461SOL    HW129282   0.202   1.911   1.430
 9461SOL    HW229283   0.235   1.931   1.589
 9462SOL     OW29284   1.999   3.507   3.216
 9462SOL    HW129285   2.026   3.500   3.120
 9462SOL    HW229286   2.011   3.602   3.247
 9463SOL     OW29287   6.068   0.455   1.374
 9463SOL    HW129288   6.139   0.517   1.340
 9463SOL    HW229289   6.061   0.377   1.312
 9464SOL     OW29290   6.245   0.671   1.353
 9464SOL    HW129291   6.184   0.691   1.276
 9464SOL    HW229292   6.222   0.730   1.430
 9465SOL     OW29293   0.572   4.215   1.640
 9465SOL    HW129294   0.630   4.163   1.703
 9465SOL    HW229295   0.478   4.213   1.674
 9466SOL     OW29296   3.713   4.823   5.322
 9466SOL    HW129297   3.786   4.873   5.277
 9466SOL    HW229298   3.716   4.727   5.293
 9467SOL     OW29299   1.627   2.515   1.343
 9467SOL    HW129300   1.564   2.437   1.341
 9467SOL    HW229301   1.576   2.598   1.363
 9468SOL     OW29302   5.675   3.599   6.209
 9468SOL    HW129303   5.770   3.573   6.193
 9468SOL    HW229304   5.661   3.693   6.178
 9469SOL     OW29305   6.655   5.053   1.930
 9469SOL    HW129306   6.652   4.999   1.846
 9469SOL    HW229307   6.576   5.030   1.987
 9470SOL     OW29308   5.030   3.428   6.433
 9470SOL    HW129309   4.955   3.493   6.423
 9470SOL    HW229310   5.050   3.387   6.343
 9471SOL     OW29311   6.471   2.359   3.906
 9471SOL    HW129312   6.445   2.339   3.811
 9471SOL    HW229313   6.465   2.275   3.960
 9472SOL     OW29314   6.364   2.890   4.933
 9472SOL    HW129315   6.441   2.939   4.974
 9472SOL    HW229316   6.331   2.941   4.853
 9473SOL     OW29317   2.703   5.092   0.275
 9473SOL    HW129318   2.783   5.053   0.230
 9473SOL    HW229319   2.632   5.111   0.207
 9474SOL     OW29320   6.909   3.137   0.113
 9474SOL    HW129321   6.828   3.190   0.087
 9474SOL    HW229322   6.981   3.152   0.046
 9475SOL     OW29323   3.704   3.334   6.733
 9475SOL    HW129324   3.759   3.388   6.796
 9475SOL    HW229325   3.753   3.249   6.711
 9476SOL     OW29326   4.079   3.743   4.097
 9476SOL    HW129327   4.106   3.663   4.150
 9476SOL    HW229328   4.047   3.715   4.007
 9477SOL     OW29329   0.914   2.704   0.416
 9477SOL    HW129330   0.991   2.688   0.355
 9477SOL    HW229331   0.836   2.650   0.387
 9478SOL     OW29332   5.127   3.371   0.987
 9478SOL    HW129333   5.073   3.378   1.071
 9478SOL    HW229334   5.208   3.316   1.004
 9479SOL     OW29335   4.612   6.416   0.260
 9479SOL    HW129336   4.703   6.414   0.218
 9479SOL    HW229337   4.584   6.323   0.282
 9480SOL     OW29338   5.543   4.704   0.737
 9480SOL    HW129339   5.545   4.737   0.831
 9480SOL    HW229340   5.533   4.605   0.736
 9481SOL     OW29341   4.813   3.044   2.852
 9481SOL    HW129342   4.843   3.139   2.861
 9481SOL    HW229343   4.793   3.007   2.943
 9482SOL     OW29344   0.446   1.319   2.348
 9482SOL    HW129345   0.395   1.403   2.365
 9482SOL    HW229346   0.488   1.324   2.257
 9483SOL     OW29347   1.684   0.671   0.995
 9483SOL    HW129348   1.595   0.671   1.041
 9483SOL    HW229349   1.742   0.601   1.037
 9484SOL     OW29350   4.529   0.394   4.291
 9484SOL    HW129351   4.594   0.398   4.367
 9484SOL    HW229352   4.443   0.353   4.324
 9485SOL     OW29353   0.626   0.929   0.827
 9485SOL    HW129354   0.607   1.005   0.889
 9485SOL    HW229355   0.725   0.919   0.816
 9486SOL     OW29356   3.786   6.387   0.970
 9486SOL    HW129357   3.723   6.315   1.000
 9486SOL    HW229358   3.733   6.468   0.942
 9487SOL     OW29359   3.282   3.802   3.962
 9487SOL    HW129360   3.321   3.834   4.048
 9487SOL    HW229361   3.253   3.881   3.907
 9488SOL     OW29362   2.893   0.167   1.408
 9488SOL    HW129363   2.891   0.068   1.425
 9488SOL    HW229364   2.944   0.185   1.324
 9489SOL     OW29365   4.356   4.172   1.072
 9489SOL    HW129366   4.331   4.131   1.160
 9489SOL    HW229367   4.456   4.182   1.067
 9490SOL     OW29368   5.744   5.254   2.357
 9490SOL    HW129369   5.655   5.277   2.396
 9490SOL    HW229370   5.748   5.155   2.340
 9491SOL     OW29371   5.712   4.685   3.777
 9491SOL    HW129372   5.787   4.629   3.812
 9491SOL    HW229373   5.750   4.756   3.718
 9492SOL     OW29374   3.424   2.985   4.667
 9492SOL    HW129375   3.401   3.078   4.637
 9492SOL    HW229376   3.444   2.928   4.587
 9493SOL     OW29377   2.609   5.736   4.807
 9493SOL    HW129378   2.521   5.695   4.833
 9493SOL    HW229379   2.593   5.809   4.740
 9494SOL     OW29380   5.049   2.842   2.519
 9494SOL    HW129381   5.058   2.790   2.434
 9494SOL    HW229382   4.969   2.901   2.514
 9495SOL     OW29383   6.616   1.680   3.019
 9495SOL    HW129384   6.547   1.659   3.087
 9495SOL    HW229385   6.600   1.773   2.983
 9496SOL     OW29386   5.883   3.702   1.429
 9496SOL    HW129387   5.794   3.701   1.385
 9496SOL    HW229388   5.955   3.704   1.359
 9497SOL     OW29389   5.732   0.162   6.242
 9497SOL    HW129390   5.691   0.076   6.211
 9497SOL    HW229391   5.792   0.144   6.320
 9498SOL     OW29392   5.093   6.722   4.567
 9498SOL    HW129393   5.083   6.806   4.515
 9498SOL    HW229394   5.005   6.697   4.607
 9499SOL     OW29395   2.240   4.846   6.409
 9499SOL    HW129396   2.304   4.874   6.338
 9499SOL    HW229397   2.290   4.799   6.482
 9500SOL     OW29398   4.785   6.972   1.003
 9500SOL    HW129399   4.835   6.886   1.015
 9500SOL    HW229400   4.733   6.968   0.918
 9501SOL     OW29401   2.992   1.326   5.234
 9501SOL    HW129402   3.021   1.235   5.203
 9501SOL    HW229403   3.022   1.394   5.167
 9502SOL     OW29404   5.867   2.641   5.249
 9502SOL    HW129405   5.926   2.643   5.330
 9502SOL    HW229406   5.880   2.555   5.201
 9503SOL     OW29407   0.889   1.887   1.485
 9503SOL    HW129408   0.877   1.836   1.570
 9503SOL    HW229409   0.986   1.908   1.473
 9504SOL     OW29410   7.027   2.856   0.740
 9504SOL    HW129411   6.973   2.776   0.764
 9504SOL    HW229412   0.057   2.882   0.818
 9505SOL     OW29413   5.209   4.258   4.544
 9505SOL    HW129414   5.246   4.345   4.578
 9505SOL    HW229415   5.264   4.225   4.468
 9506SOL     OW29416   1.268   2.614   6.542
 9506SOL    HW129417   1.197   2.546   6.559
 9506SOL    HW229418   1.230   2.706   6.558
 9507SOL     OW29419   0.709   1.246   2.560
 9507SOL    HW129420   0.760   1.169   2.523
 9507SOL    HW229421   0.764   1.329   2.554
 9508SOL     OW29422   6.063   1.793   1.385
 9508SOL    HW129423   6.007   1.724   1.340
 9508SOL    HW229424   6.029   1.884   1.362
 9509SOL     OW29425   0.780   0.982   3.547
 9509SOL    HW129426   0.853   1.015   3.607
 9509SOL    HW229427   0.708   1.050   3.542
 9510SOL     OW29428   1.986   3.760   3.330
 9510SOL    HW129429   2.048   3.829   3.368
 9510SOL    HW229430   1.928   3.802   3.260
 9511SOL     OW29431   1.528   0.197   1.181
 9511SOL    HW129432   1.575   0.114   1.150
 9511SOL    HW229433   1.595   0.261   1.219
 9512SOL     OW29434   6.144   1.499   1.716
 9512SOL    HW129435   6.170   1.574   1.655
 9512SOL    HW229436   6.069   1.447   1.675
 9513SOL     OW29437   2.063   4.029   6.315
 9513SOL    HW129438   2.045   3.958   6.248
 9513SOL    HW229439   2.140   4.085   6.285
 9514SOL     OW29440   1.645   5.198   5.822
 9514SOL    HW129441   1.619   5.105   5.794
 9514SOL    HW229442   1.697   5.193   5.907
 9515SOL     OW29443   1.857   5.813   0.730
 9515SOL    HW129444   1.795   5.889   0.746
 9515SOL    HW229445   1.810   5.726   0.748
 9516SOL     OW29446   6.163   4.725   6.776
 9516SOL    HW129447   6.191   4.684   6.862
 9516SOL    HW229448   6.092   4.669   6.733
 9517SOL     OW29449   1.796   4.749   1.038
 9517SOL    HW129450   1.861   4.824   1.054
 9517SOL    HW229451   1.839   4.662   1.064
 9518SOL     OW29452   1.733   1.802   0.292
 9518SOL    HW129453   1.675   1.766   0.219
 9518SOL    HW229454   1.796   1.731   0.323
 9519SOL     OW29455   3.551   3.827   4.859
 9519SOL    HW129456   3.500   3.849   4.776
 9519SOL    HW229457   3.649   3.827   4.840
 9520SOL     OW29458   1.926   1.654   3.157
 9520SOL    HW129459   1.889   1.580   3.213
 9520SOL    HW229460   1.896   1.742   3.194
 9521SOL     OW29461   4.860   5.656   1.811
 9521SOL    HW129462   4.930   5.585   1.818
 9521SOL    HW229463   4.901   5.745   1.827
 9522SOL     OW29464   2.602   5.472   1.252
 9522SOL    HW129465   2.695   5.490   1.221
 9522SOL    HW229466   2.554   5.558   1.268
 9523SOL     OW29467   2.792   4.766   4.801
 9523SOL    HW129468   2.878   4.817   4.802
 9523SOL    HW229469   2.790   4.704   4.880
 9524SOL     OW29470   3.491   2.963   1.762
 9524SOL    HW129471   3.555   2.937   1.834
 9524SOL    HW229472   3.519   2.920   1.676
 9525SOL     OW29473   2.513   3.280   5.481
 9525SOL    HW129474   2.567   3.196   5.472
 9525SOL    HW229475   2.433   3.261   5.538
 9526SOL     OW29476   5.262   5.700   1.734
 9526SOL    HW129477   5.257   5.797   1.759
 9526SOL    HW229478   5.227   5.688   1.641
 9527SOL     OW29479   0.866   0.432   3.253
 9527SOL    HW129480   0.931   0.386   3.314
 9527SOL    HW229481   0.773   0.404   3.277
 9528SOL     OW29482   0.451   1.274   6.970
 9528SOL    HW129483   0.452   1.208   6.895
 9528SOL    HW229484   0.484   1.362   6.937
 9529SOL     OW29485   6.222   3.073   5.075
 9529SOL    HW129486   6.285   3.003   5.041
 9529SOL    HW229487   6.273   3.135   5.135
 9530SOL     OW29488   1.673   3.835   2.160
 9530SOL    HW129489   1.649   3.744   2.127
 9530SOL    HW229490   1.773   3.842   2.167
 9531SOL     OW29491   4.931   5.100   3.125
 9531SOL    HW129492   4.846   5.077   3.077
 9531SOL    HW229493   5.009   5.073   3.069
 9532SOL     OW29494   0.354   6.913   2.379
 9532SOL    HW129495   0.389   6.892   2.287
 9532SOL    HW229496   0.426   6.897   2.446
 9533SOL     OW29497   6.595   7.015   5.709
 9533SOL    HW129498   6.516   0.026   5.662
 9533SOL    HW229499   6.652   6.966   5.643
 9534SOL     OW29500   6.804   3.124   5.404
 9534SOL    HW129501   6.893   3.118   5.448
 9534SOL    HW229502   6.808   3.188   5.328
 9535SOL     OW29503   2.744   1.375   5.638
 9535SOL    HW129504   2.680   1.432   5.585
 9535SOL    HW229505   2.702   1.352   5.726
 9536SOL     OW29506   2.773   4.770   5.301
 9536SOL    HW129507   2.815   4.731   5.383
 9536SOL    HW229508   2.766   4.699   5.231
 9537SOL     OW29509   2.679   6.535   2.710
 9537SOL    HW129510   2.766   6.487   2.723
 9537SOL    HW229511   2.695   6.632   2.696
 9538SOL     OW29512   6.430   1.795   3.475
 9538SOL    HW129513   6.353   1.839   3.429
 9538SOL    HW229514   6.512   1.802   3.419
 9539SOL     OW29515   2.325   3.752   5.354
 9539SOL    HW129516   2.383   3.671   5.362
 9539SOL    HW229517   2.349   3.800   5.269
 9540SOL     OW29518   6.083   4.250   4.182
 9540SOL    HW129519   6.078   4.333   4.237
 9540SOL    HW229520   5.999   4.241   4.127
 9541SOL     OW29521   3.204   1.468   5.489
 9541SOL    HW129522   3.195   1.564   5.464
 9541SOL    HW229523   3.119   1.436   5.530
 9542SOL     OW29524   5.236   3.917   4.667
 9542SOL    HW129525   5.266   3.898   4.574
 9542SOL    HW229526   5.186   3.838   4.703
 9543SOL     OW29527   3.682   1.070   4.946
 9543SOL    HW129528   3.735   1.149   4.916
 9543SOL    HW229529   3.593   1.100   4.980
 9544SOL     OW29530   0.468   1.033   3.333
 9544SOL    HW129531   0.423   1.102   3.275
 9544SOL    HW229532   0.561   1.018   3.300
 9545SOL     OW29533   6.050   5.352   3.891
 9545SOL    HW129534   6.038   5.335   3.793
 9545SOL    HW229535   6.098   5.275   3.933
 9546SOL     OW29536   3.308   2.984   5.448
 9546SOL    HW129537   3.302   3.084   5.442
 9546SOL    HW229538   3.307   2.957   5.544
 9547SOL     OW29539   2.569   6.150   4.272
 9547SOL    HW129540   2.604   6.105   4.190
 9547SOL    HW229541   2.592   6.247   4.269
 9548SOL     OW29542   5.825   6.223   5.327
 9548SOL    HW129543   5.844   6.284   5.250
 9548SOL    HW229544   5.777   6.272   5.399
 9549SOL     OW29545   2.880   3.098   1.225
 9549SOL    HW129546   2.970   3.142   1.226
 9549SOL    HW229547   2.888   3.007   1.186
 9550SOL     OW29548   0.499   1.374   0.571
 9550SOL    HW129549   0.533   1.288   0.533
 9550SOL    HW229550   0.563   1.448   0.548
 9551SOL     OW29551   6.471   1.106   3.777
 9551SOL    HW129552   6.452   1.132   3.682
 9551SOL    HW229553   6.401   1.043   3.810
 9552SOL     OW29554   1.387   6.062   2.559
 9552SOL    HW129555   1.468   6.004   2.557
 9552SOL    HW229556   1.307   6.009   2.588
 9553SOL     OW29557   6.207   4.020   6.715
 9553SOL    HW129558   6.111   4.029   6.690
 9553SOL    HW229559   6.220   4.046   6.810
 9554SOL     OW29560   2.235   0.891   1.917
 9554SOL    HW129561   2.283   0.823   1.860
 9554SOL    HW229562   2.136   0.884   1.900
 9555SOL     OW29563   1.174   1.084   2.328
 9555SOL    HW129564   1.154   0.998   2.280
 9555SOL    HW229565   1.203   1.153   2.262
 9556SOL     OW29566   2.257   2.368   1.274
 9556SOL    HW129567   2.247   2.425   1.193
 9556SOL    HW229568   2.354   2.353   1.293
 9557SOL     OW29569   6.981   0.418   3.020
 9557SOL    HW129570   0.024   0.348   3.012
 9557SOL    HW229571   6.915   0.391   3.091
 9558SOL     OW29572   6.627   6.143   4.538
 9558SOL    HW129573   6.541   6.106   4.502
 9558SOL    HW229574   6.703   6.112   4.481
 9559SOL     OW29575   0.410   4.060   1.244
 9559SOL    HW129576   0.508   4.046   1.233
 9559SOL    HW229577   0.372   4.099   1.160
 9560SOL     OW29578   1.596   1.346   2.813
 9560SOL    HW129579   1.534   1.424   2.800
 9560SOL    HW229580   1.688   1.379   2.833
 9561SOL     OW29581   1.038   6.420   0.255
 9561SOL    HW129582   1.132   6.418   0.290
 9561SOL    HW229583   1.040   6.417   0.155
 9562SOL     OW29584   3.297   0.227   5.064
 9562SOL    HW129585   3.321   0.304   5.006
 9562SOL    HW229586   3.255   0.260   5.148
 9563SOL     OW29587   6.566   6.913   0.428
 9563SOL    HW129588   6.522   6.833   0.468
 9563SOL    HW229589   6.579   6.983   0.499
 9564SOL     OW29590   2.744   6.924   6.926
 9564SOL    HW129591   2.708   6.837   6.961
 9564SOL    HW229592   2.673   6.971   6.875
 9565SOL     OW29593   4.287   6.192   5.277
 9565SOL    HW129594   4.255   6.285   5.298
 9565SOL    HW229595   4.209   6.135   5.251
 9566SOL     OW29596   2.742   5.241   6.931
 9566SOL    HW129597   2.802   5.288   6.996
 9566SOL    HW229598   2.669   5.194   6.981
 9567SOL     OW29599   6.411   4.422   6.712
 9567SOL    HW129600   6.330   4.392   6.763
 9567SOL    HW229601   6.385   4.496   6.650
 9568SOL     OW29602   4.460   2.683   6.902
 9568SOL    HW129603   4.519   2.687   6.822
 9568SOL    HW229604   4.503   2.627   6.973
 9569SOL     OW29605   0.381   0.419   2.666
 9569SOL    HW129606   0.340   0.502   2.702
 9569SOL    HW229607   0.429   0.439   2.581
 9570SOL     OW29608   0.986   2.696   2.240
 9570SOL    HW129609   1.035   2.763   2.296
 9570SOL    HW229610   1.047   2.621   2.217
 9571SOL     OW29611   2.562   3.709   6.987
 9571SOL    HW129612   2.482   3.754   6.948
 9571SOL    HW229613   2.588   3.756   0.043
 9572SOL     OW29614   1.765   5.552   0.772
 9572SOL    HW129615   1.743   5.478   0.709
 9572SOL    HW229616   1.788   5.513   0.861
 9573SOL     OW29617   0.822   1.626   6.696
 9573SOL    HW129618   0.854   1.698   6.757
 9573SOL    HW229619   0.724   1.638   6.679
 9574SOL     OW29620   3.663   3.096   3.990
 9574SOL    HW129621   3.747   3.076   4.041
 9574SOL    HW229622   3.640   3.193   4.001
 9575SOL     OW29623   5.965   1.046   0.769
 9575SOL    HW129624   5.974   0.972   0.836
 9575SOL    HW229625   5.968   1.009   0.677
 9576SOL     OW29626   3.268   0.657   2.475
 9576SOL    HW129627   3.280   0.756   2.467
 9576SOL    HW229628   3.177   0.632   2.442
 9577SOL     OW29629   1.374   0.929   3.875
 9577SOL    HW129630   1.473   0.919   3.883
 9577SOL    HW229631   1.348   0.932   3.779
 9578SOL     OW29632   6.896   3.426   3.383
 9578SOL    HW129633   6.830   3.499   3.363
 9578SOL    HW229634   6.943   3.446   3.469
 9579SOL     OW29635   1.911   5.154   2.780
 9579SOL    HW129636   1.954   5.217   2.715
 9579SOL    HW229637   1.955   5.164   2.869
 9580SOL     OW29638   4.471   3.006   0.507
 9580SOL    HW129639   4.517   3.095   0.500
 9580SOL    HW229640   4.439   2.993   0.600
 9581SOL     OW29641   1.516   5.247   6.258
 9581SOL    HW129642   1.521   5.147   6.262
 9581SOL    HW229643   1.603   5.286   6.288
 9582SOL     OW29644   4.453   4.724   4.833
 9582SOL    HW129645   4.415   4.671   4.909
 9582SOL    HW229646   4.500   4.663   4.770
 9583SOL     OW29647   2.698   3.568   0.841
 9583SOL    HW129648   2.797   3.575   0.840
 9583SOL    HW229649   2.670   3.479   0.804
 9584SOL     OW29650   6.178   6.843   6.962
 9584SOL    HW129651   6.203   6.812   6.870
 9584SOL    HW229652   6.259   6.883   7.006
 9585SOL     OW29653   6.343   0.837   3.031
 9585SOL    HW129654   6.257   0.816   2.985
 9585SOL    HW229655   6.329   0.840   3.130
 9586SOL     OW29656   6.039   3.849   1.989
 9586SOL    HW129657   6.082   3.779   2.047
 9586SOL    HW229658   5.945   3.822   1.967
 9587SOL     OW29659   6.159   0.575   2.253
 9587SOL    HW129660   6.137   0.523   2.171
 9587SOL    HW229661   6.250   0.615   2.243
 9588SOL     OW29662   0.580   1.832   2.168
 9588SOL    HW129663   0.611   1.916   2.213
 9588SOL    HW229664   0.642   1.757   2.191
 9589SOL     OW29665   2.871   5.715   6.196
 9589SOL    HW129666   2.839   5.635   6.248
 9589SOL    HW229667   2.849   5.798   6.247
 9590SOL     OW29668   0.415   4.900   2.161
 9590SOL    HW129669   0.465   4.985   2.149
 9590SOL    HW229670   0.465   4.840   2.223
 9591SOL     OW29671   3.084   6.083   0.041
 9591SOL    HW129672   3.149   6.156   0.021
 9591SOL    HW229673   3.024   6.070   6.991
 9592SOL     OW29674   3.675   4.781   1.599
 9592SOL    HW129675   3.757   4.728   1.577
 9592SOL    HW229676   3.621   4.732   1.667
 9593SOL     OW29677   6.269   1.300   4.477
 9593SOL    HW129678   6.355   1.346   4.496
 9593SOL    HW229679   6.193   1.363   4.494
 9594SOL     OW29680   0.842   5.934   3.395
 9594SOL    HW129681   0.812   5.967   3.306
 9594SOL    HW229682   0.791   5.852   3.419
 9595SOL     OW29683   2.054   4.534   4.336
 9595SOL    HW129684   2.012   4.456   4.290
 9595SOL    HW229685   1.987   4.577   4.397
 9596SOL     OW29686   6.862   5.689   0.457
 9596SOL    HW129687   6.900   5.602   0.425
 9596SOL    HW229688   6.791   5.671   0.525
 9597SOL     OW29689   0.200   4.540   0.721
 9597SOL    HW129690   0.143   4.547   0.803
 9597SOL    HW229691   0.178   4.615   0.658
 9598SOL     OW29692   0.798   3.868   4.790
 9598SOL    HW129693   0.882   3.891   4.840
 9598SOL    HW229694   0.795   3.919   4.705
 9599SOL     OW29695   3.337   0.772   5.245
 9599SOL    HW129696   3.434   0.776   5.269
 9599SOL    HW229697   3.302   0.865   5.232
 9600SOL     OW29698   1.797   6.895   6.199
 9600SOL    HW129699   1.884   6.891   6.151
 9600SOL    HW229700   1.782   6.987   6.234
 9601SOL     OW29701   6.321   4.168   6.959
 9601SOL    HW129702   6.415   4.166   6.924
 9601SOL    HW229703   6.273   4.247   6.921
 9602SOL     OW29704   6.238   4.846   6.254
 9602SOL    HW129705   6.220   4.782   6.329
 9602SOL    HW229706   6.203   4.936   6.277
 9603SOL     OW29707   2.870   6.961   4.753
 9603SOL    HW129708   2.922   0.008   4.794
 9603SOL    HW229709   2.776   6.962   4.788
 9604SOL     OW29710   4.919   0.182   0.964
 9604SOL    HW129711   5.000   0.162   0.909
 9604SOL    HW229712   4.892   0.100   1.014
 9605SOL     OW29713   6.966   4.560   5.205
 9605SOL    HW129714   7.023   4.600   5.277
 9605SOL    HW229715   6.909   4.488   5.244
 9606SOL     OW29716   0.906   6.404   4.811
 9606SOL    HW129717   0.977   6.472   4.792
 9606SOL    HW229718   0.867   6.422   4.901
 9607SOL     OW29719   1.115   2.466   2.149
 9607SOL    HW129720   1.115   2.484   2.051
 9607SOL    HW229721   1.209   2.455   2.181
 9608SOL     OW29722   6.879   6.461   2.747
 9608SOL    HW129723   6.891   6.520   2.827
 9608SOL    HW229724   6.944   6.385   2.752
 9609SOL     OW29725   1.396   3.830   4.970
 9609SOL    HW129726   1.441   3.782   4.894
 9609SOL    HW229727   1.451   3.908   4.997
 9610SOL     OW29728   1.598   4.003   4.496
 9610SOL    HW129729   1.503   3.985   4.468
 9610SOL    HW229730   1.599   4.078   4.562
 9611SOL     OW29731   0.353   6.449   1.097
 9611SOL    HW129732   0.335   6.518   1.166
 9611SOL    HW229733   0.289   6.373   1.108
 9612SOL     OW29734   6.032   3.207   1.602
 9612SOL    HW129735   6.109   3.193   1.664
 9612SOL    HW229736   6.058   3.182   1.509
 9613SOL     OW29737   4.892   6.093   3.609
 9613SOL    HW129738   4.954   6.139   3.673
 9613SOL    HW229739   4.928   6.002   3.588
 9614SOL     OW29740   3.866   3.707   1.371
 9614SOL    HW129741   3.861   3.638   1.299
 9614SOL    HW229742   3.885   3.797   1.330
 9615SOL     OW29743   1.030   6.670   2.424
 9615SOL    HW129744   1.060   6.610   2.350
 9615SOL    HW229745   1.070   6.640   2.510
 9616SOL     OW29746   4.093   4.005   0.258
 9616SOL    HW129747   4.150   3.973   0.334
 9616SOL    HW229748   4.149   4.012   0.176
 9617SOL     OW29749   0.907   3.840   4.087
 9617SOL    HW129750   0.974   3.905   4.123
 9617SOL    HW229751   0.954   3.766   4.040
 9618SOL     OW29752   4.070   6.638   6.192
 9618SOL    HW129753   4.082   6.558   6.251
 9618SOL    HW229754   3.982   6.682   6.213
 9619SOL     OW29755   1.305   0.338   0.829
 9619SOL    HW129756   1.319   0.320   0.731
 9619SOL    HW229757   1.383   0.303   0.880
 9620SOL     OW29758   5.102   1.615   6.564
 9620SOL    HW129759   5.107   1.618   6.664
 9620SOL    HW229760   5.143   1.699   6.526
 9621SOL     OW29761   1.470   1.285   2.540
 9621SOL    HW129762   1.458   1.345   2.461
 9621SOL    HW229763   1.524   1.331   2.610
 9622SOL     OW29764   5.972   1.825   6.337
 9622SOL    HW129765   5.981   1.924   6.329
 9622SOL    HW229766   6.062   1.783   6.324
 9623SOL     OW29767   4.228   5.433   5.791
 9623SOL    HW129768   4.164   5.478   5.728
 9623SOL    HW229769   4.201   5.453   5.885
 9624SOL     OW29770   5.272   3.970   5.033
 9624SOL    HW129771   5.361   3.942   5.069
 9624SOL    HW229772   5.235   3.897   4.976
 9625SOL     OW29773   5.362   4.181   0.089
 9625SOL    HW129774   5.398   4.273   0.079
 9625SOL    HW229775   5.363   4.155   0.186
 9626SOL     OW29776   2.370   6.083   5.776
 9626SOL    HW129777   2.441   6.135   5.823
 9626SOL    HW229778   2.333   6.137   5.700
 9627SOL     OW29779   0.101   4.034   4.790
 9627SOL    HW129780   0.180   3.973   4.779
 9627SOL    HW229781   0.019   3.989   4.755
 9628SOL     OW29782   6.094   3.681   0.821
 9628SOL    HW129783   6.146   3.764   0.802
 9628SOL    HW229784   5.996   3.703   0.824
 9629SOL     OW29785   6.580   5.809   2.890
 9629SOL    HW129786   6.521   5.765   2.823
 9629SOL    HW229787   6.525   5.857   2.957
 9630SOL     OW29788   6.259   6.125   5.571
 9630SOL    HW129789   6.321   6.199   5.597
 9630SOL    HW229790   6.226   6.141   5.477
 9631SOL     OW29791   4.481   1.924   0.772
 9631SOL    HW129792   4.403   1.979   0.803
 9631SOL    HW229793   4.474   1.909   0.674
 9632SOL     OW29794   2.230   5.193   2.270
 9632SOL    HW129795   2.185   5.268   2.319
 9632SOL    HW229796   2.213   5.107   2.319
 9633SOL     OW29797   3.837   4.042   0.239
 9633SOL    HW129798   3.807   3.958   0.194
 9633SOL    HW229799   3.937   4.042   0.245
 9634SOL     OW29800   0.129   5.485   3.432
 9634SOL    HW129801   0.211   5.541   3.423
 9634SOL    HW229802   0.053   5.542   3.465
 9635SOL     OW29803   1.373   4.528   5.312
 9635SOL    HW129804   1.452   4.518   5.372
 9635SOL    HW229805   1.395   4.591   5.237
 9636SOL     OW29806   4.072   1.572   5.787
 9636SOL    HW129807   4.065   1.645   5.720
 9636SOL    HW229808   3.993   1.575   5.848
 9637SOL     OW29809   3.717   2.873   1.343
 9637SOL    HW129810   3.808   2.839   1.316
 9637SOL    HW229811   3.713   2.881   1.443
 9638SOL     OW29812   6.818   3.366   5.704
 9638SOL    HW129813   6.858   3.411   5.784
 9638SOL    HW229814   6.743   3.422   5.668
 9639SOL     OW29815   4.324   2.173   1.870
 9639SOL    HW129816   4.262   2.182   1.792
 9639SOL    HW229817   4.288   2.224   1.948
 9640SOL     OW29818   3.268   0.414   2.332
 9640SOL    HW129819   3.357   0.419   2.287
 9640SOL    HW229820   3.265   0.482   2.406
 9641SOL     OW29821   6.145   6.080   2.039
 9641SOL    HW129822   6.094   6.018   1.980
 9641SOL    HW229823   6.159   6.037   2.128
 9642SOL     OW29824   1.458   6.481   4.222
 9642SOL    HW129825   1.393   6.414   4.186
 9642SOL    HW229826   1.452   6.483   4.322
 9643SOL     OW29827   5.194   4.048   3.932
 9643SOL    HW129828   5.267   4.040   3.865
 9643SOL    HW229829   5.169   3.957   3.965
 9644SOL     OW29830   1.338   6.004   5.748
 9644SOL    HW129831   1.432   5.982   5.774
 9644SOL    HW229832   1.275   5.961   5.813
 9645SOL     OW29833   2.678   4.617   4.610
 9645SOL    HW129834   2.717   4.673   4.683
 9645SOL    HW229835   2.598   4.568   4.644
 9646SOL     OW29836   2.545   5.065   1.849
 9646SOL    HW129837   2.466   5.005   1.837
 9646SOL    HW229838   2.549   5.131   1.773
 9647SOL     OW29839   0.091   6.723   3.441
 9647SOL    HW129840   0.013   6.670   3.407
 9647SOL    HW229841   0.079   6.740   3.539
 9648SOL     OW29842   4.078   2.316   0.361
 9648SOL    HW129843   4.158   2.257   0.372
 9648SOL    HW229844   4.058   2.362   0.448
 9649SOL     OW29845   2.287   4.409   0.060
 9649SOL    HW129846   2.271   4.457   7.002
 9649SOL    HW229847   2.377   4.364   0.057
 9650SOL     OW29848   4.789   4.383   2.678
 9650SOL    HW129849   4.800   4.348   2.584
 9650SOL    HW229850   4.839   4.324   2.741
 9651SOL     OW29851   5.344   1.230   1.022
 9651SOL    HW129852   5.312   1.321   1.046
 9651SOL    HW229853   5.422   1.237   0.960
 9652SOL     OW29854   1.076   5.070   1.540
 9652SOL    HW129855   1.034   5.155   1.507
 9652SOL    HW229856   1.067   5.066   1.640
 9653SOL     OW29857   4.622   4.823   4.444
 9653SOL    HW129858   4.646   4.760   4.518
 9653SOL    HW229859   4.597   4.912   4.483
 9654SOL     OW29860   3.033   3.384   3.069
 9654SOL    HW129861   3.031   3.460   3.133
 9654SOL    HW229862   2.994   3.302   3.111
 9655SOL     OW29863   6.978   2.199   0.680
 9655SOL    HW129864   6.945   2.132   0.613
 9655SOL    HW229865   6.900   2.249   0.717
 9656SOL     OW29866   4.482   2.870   1.154
 9656SOL    HW129867   4.394   2.913   1.132
 9656SOL    HW229868   4.522   2.832   1.071
 9657SOL     OW29869   5.546   3.605   2.685
 9657SOL    HW129870   5.570   3.547   2.608
 9657SOL    HW229871   5.489   3.681   2.653
 9658SOL     OW29872   5.492   1.576   2.208
 9658SOL    HW129873   5.514   1.488   2.168
 9658SOL    HW229874   5.393   1.587   2.216
 9659SOL     OW29875   0.938   3.207   0.402
 9659SOL    HW129876   0.980   3.281   0.350
 9659SOL    HW229877   1.006   3.167   0.464
 9660SOL     OW29878   0.710   6.808   3.150
 9660SOL    HW129879   0.712   6.781   3.246
 9660SOL    HW229880   0.655   6.891   3.140
 9661SOL     OW29881   3.745   6.367   1.680
 9661SOL    HW129882   3.742   6.462   1.648
 9661SOL    HW229883   3.742   6.305   1.602
 9662SOL     OW29884   4.475   3.681   6.736
 9662SOL    HW129885   4.476   3.639   6.645
 9662SOL    HW229886   4.553   3.648   6.789
 9663SOL     OW29887   0.012   5.689   2.709
 9663SOL    HW129888   6.960   5.681   2.769
 9663SOL    HW229889   0.009   5.615   2.641
 9664SOL     OW29890   5.907   5.039   4.065
 9664SOL    HW129891   5.970   5.106   4.104
 9664SOL    HW229892   5.817   5.047   4.109
 9665SOL     OW29893   5.768   6.723   6.405
 9665SOL    HW129894   5.769   6.767   6.315
 9665SOL    HW229895   5.742   6.627   6.395
 9666SOL     OW29896   6.512   3.843   1.888
 9666SOL    HW129897   6.471   3.874   1.803
 9666SOL    HW229898   6.540   3.921   1.943
 9667SOL     OW29899   4.028   3.749   0.210
 9667SOL    HW129900   4.056   3.843   0.228
 9667SOL    HW229901   3.933   3.736   0.238
 9668SOL     OW29902   0.642   0.749   6.367
 9668SOL    HW129903   0.551   0.720   6.335
 9668SOL    HW229904   0.711   0.718   6.303
 9669SOL     OW29905   2.242   6.695   2.104
 9669SOL    HW129906   2.178   6.667   2.034
 9669SOL    HW229907   2.192   6.724   2.186
 9670SOL     OW29908   0.262   4.898   5.777
 9670SOL    HW129909   0.195   4.860   5.714
 9670SOL    HW229910   0.348   4.914   5.729
 9671SOL     OW29911   6.803   4.381   0.472
 9671SOL    HW129912   6.723   4.412   0.419
 9671SOL    HW229913   6.807   4.281   0.470
 9672SOL     OW29914   1.879   4.805   3.658
 9672SOL    HW129915   1.941   4.883   3.654
 9672SOL    HW229916   1.885   4.753   3.573
 9673SOL     OW29917   3.737   3.639   0.899
 9673SOL    HW129918   3.704   3.609   0.810
 9673SOL    HW229919   3.674   3.708   0.936
 9674SOL     OW29920   4.049   6.590   3.652
 9674SOL    HW129921   4.140   6.585   3.693
 9674SOL    HW229922   4.041   6.675   3.600
 9675SOL     OW29923   5.536   2.358   6.342
 9675SOL    HW129924   5.505   2.444   6.302
 9675SOL    HW229925   5.636   2.354   6.342
 9676SOL     OW29926   1.360   3.350   5.812
 9676SOL    HW129927   1.321   3.259   5.798
 9676SOL    HW229928   1.449   3.356   5.768
 9677SOL     OW29929   6.430   5.067   4.836
 9677SOL    HW129930   6.417   5.092   4.740
 9677SOL    HW229931   6.343   5.037   4.875
 9678SOL     OW29932   2.884   3.500   4.035
 9678SOL    HW129933   2.813   3.472   3.970
 9678SOL    HW229934   2.943   3.568   3.993
 9679SOL     OW29935   2.472   0.165   3.603
 9679SOL    HW129936   2.449   0.068   3.614
 9679SOL    HW229937   2.490   0.205   3.693
 9680SOL     OW29938   4.462   0.299   3.909
 9680SOL    HW129939   4.412   0.270   3.991
 9680SOL    HW229940   4.462   0.226   3.842
 9681SOL     OW29941   2.584   2.323   0.711
 9681SOL    HW129942   2.496   2.349   0.751
 9681SOL    HW229943   2.578   2.231   0.672
 9682SOL     OW29944   4.827   3.886   3.886
 9682SOL    HW129945   4.818   3.892   3.787
 9682SOL    HW229946   4.798   3.796   3.917
 9683SOL     OW29947   3.291   6.757   2.008
 9683SOL    HW129948   3.195   6.769   1.984
 9683SOL    HW229949   3.321   6.665   1.983
 9684SOL     OW29950   0.962   3.569   5.835
 9684SOL    HW129951   0.960   3.541   5.931
 9684SOL    HW229952   1.055   3.560   5.799
 9685SOL     OW29953   4.725   3.983   0.907
 9685SOL    HW129954   4.741   3.978   0.808
 9685SOL    HW229955   4.724   4.078   0.936
 9686SOL     OW29956   0.583   3.063   5.979
 9686SOL    HW129957   0.523   3.126   5.929
 9686SOL    HW229958   0.668   3.109   6.002
 9687SOL     OW29959   1.006   1.020   3.744
 9687SOL    HW129960   1.053   0.936   3.769
 9687SOL    HW229961   0.992   1.077   3.825
 9688SOL     OW29962   1.031   3.004   1.218
 9688SOL    HW129963   0.984   3.048   1.295
 9688SOL    HW229964   1.001   3.045   1.132
 9689SOL     OW29965   1.178   4.624   6.478
 9689SOL    HW129966   1.109   4.680   6.432
 9689SOL    HW229967   1.184   4.651   6.574
 9690SOL     OW29968   6.018   6.049   6.649
 9690SOL    HW129969   6.091   6.063   6.715
 9690SOL    HW229970   5.980   6.138   6.621
 9691SOL     OW29971   2.902   3.870   1.145
 9691SOL    HW129972   2.890   3.925   1.228
 9691SOL    HW229973   2.923   3.930   1.068
 9692SOL     OW29974   3.903   6.206   1.888
 9692SOL    HW129975   3.843   6.129   1.912
 9692SOL    HW229976   3.864   6.256   1.811
 9693SOL     OW29977   5.842   4.295   2.748
 9693SOL    HW129978   5.802   4.265   2.661
 9693SOL    HW229979   5.915   4.233   2.774
 9694SOL     OW29980   3.461   1.272   1.561
 9694SOL    HW129981   3.505   1.277   1.471
 9694SOL    HW229982   3.486   1.185   1.605
 9695SOL     OW29983   0.074   2.473   3.530
 9695SOL    HW129984   0.159   2.526   3.521
 9695SOL    HW229985   7.026   2.526   3.494
 9696SOL     OW29986   5.363   2.720   1.159
 9696SOL    HW129987   5.440   2.734   1.096
 9696SOL    HW229988   5.295   2.661   1.115
 9697SOL     OW29989   0.228   5.637   6.879
 9697SOL    HW129990   0.310   5.581   6.882
 9697SOL    HW229991   0.215   5.682   6.967
 9698SOL     OW29992   5.762   2.273   6.082
 9698SOL    HW129993   5.716   2.344   6.028
 9698SOL    HW229994   5.697   2.201   6.104
 9699SOL     OW29995   6.279   5.882   7.025
 9699SOL    HW129996   6.283   5.938   0.080
 9699SOL    HW229997   6.258   5.939   6.946
 9700SOL     OW29998   5.633   5.727   5.319
 9700SOL    HW129999   5.692   5.808   5.315
 9700SOL    HW230000   5.674   5.660   5.380
 9701SOL     OW30001   4.724   4.719   5.529
 9701SOL    HW130002   4.735   4.620   5.537
 9701SOL    HW230003   4.808   4.759   5.494
 9702SOL     OW30004   3.750   1.785   0.134
 9702SOL    HW130005   3.653   1.772   0.158
 9702SOL    HW230006   3.788   1.859   0.189
 9703SOL     OW30007   5.019   3.591   3.819
 9703SOL    HW130008   5.115   3.585   3.791
 9703SOL    HW230009   5.001   3.527   3.893
 9704SOL     OW30010   3.128   6.568   1.249
 9704SOL    HW130011   3.132   6.604   1.342
 9704SOL    HW230012   3.057   6.617   1.197
 9705SOL     OW30013   5.421   4.001   6.302
 9705SOL    HW130014   5.406   4.006   6.204
 9705SOL    HW230015   5.451   4.090   6.336
 9706SOL     OW30016   2.260   2.679   0.854
 9706SOL    HW130017   2.340   2.658   0.798
 9706SOL    HW230018   2.288   2.736   0.932
 9707SOL     OW30019   6.315   4.599   2.597
 9707SOL    HW130020   6.242   4.531   2.607
 9707SOL    HW230021   6.274   4.688   2.578
 9708SOL     OW30022   1.089   1.361   3.590
 9708SOL    HW130023   1.128   1.318   3.508
 9708SOL    HW230024   0.992   1.338   3.597
 9709SOL     OW30025   5.368   5.863   2.558
 9709SOL    HW130026   5.364   5.867   2.657
 9709SOL    HW230027   5.302   5.927   2.519
 9710SOL     OW30028   6.541   1.398   1.220
 9710SOL    HW130029   6.464   1.399   1.157
 9710SOL    HW230030   6.512   1.432   1.309
 9711SOL     OW30031   3.274   5.336   5.242
 9711SOL    HW130032   3.225   5.422   5.228
 9711SOL    HW230033   3.303   5.329   5.338
 9712SOL     OW30034   5.604   3.631   6.485
 9712SOL    HW130035   5.624   3.650   6.389
 9712SOL    HW230036   5.645   3.703   6.541
 9713SOL     OW30037   1.778   4.396   3.354
 9713SOL    HW130038   1.798   4.300   3.335
 9713SOL    HW230039   1.863   4.449   3.351
 9714SOL     OW30040   4.525   6.474   6.691
 9714SOL    HW130041   4.570   6.387   6.712
 9714SOL    HW230042   4.465   6.461   6.611
 9715SOL     OW30043   5.935   3.964   6.933
 9715SOL    HW130044   6.029   3.948   6.964
 9715SOL    HW230045   5.898   3.879   6.895
 9716SOL     OW30046   3.411   4.563   6.774
 9716SOL    HW130047   3.320   4.602   6.792
 9716SOL    HW230048   3.429   4.566   6.675
 9717SOL     OW30049   4.995   6.867   5.990
 9717SOL    HW130050   5.068   6.898   5.930
 9717SOL    HW230051   5.025   6.785   6.040
 9718SOL     OW30052   5.299   3.139   0.489
 9718SOL    HW130053   5.308   3.230   0.448
 9718SOL    HW230054   5.287   3.071   0.416
 9719SOL     OW30055   6.236   0.955   5.569
 9719SOL    HW130056   6.285   1.041   5.573
 9719SOL    HW230057   6.254   0.901   5.651
 9720SOL     OW30058   1.110   4.248   1.909
 9720SOL    HW130059   1.024   4.202   1.884
 9720SOL    HW230060   1.125   4.240   2.007
 9721SOL     OW30061   0.385   1.661   0.731
 9721SOL    HW130062   0.327   1.639   0.810
 9721SOL    HW230063   0.479   1.633   0.750
 9722SOL     OW30064   4.534   1.136   4.690
 9722SOL    HW130065   4.583   1.215   4.653
 9722SOL    HW230066   4.574   1.112   4.779
 9723SOL     OW30067   3.712   6.517   3.318
 9723SOL    HW130068   3.674   6.609   3.307
 9723SOL    HW230069   3.785   6.503   3.250
 9724SOL     OW30070   1.774   4.992   6.886
 9724SOL    HW130071   1.753   4.933   6.808
 9724SOL    HW230072   1.689   5.032   6.921
 9725SOL     OW30073   4.718   5.728   6.216
 9725SOL    HW130074   4.726   5.820   6.254
 9725SOL    HW230075   4.767   5.723   6.129
 9726SOL     OW30076   4.657   1.317   4.056
 9726SOL    HW130077   4.570   1.267   4.051
 9726SOL    HW230078   4.675   1.342   4.151
 9727SOL     OW30079   1.437   2.512   7.010
 9727SOL    HW130080   1.476   2.430   0.024
 9727SOL    HW230081   1.486   2.593   0.014
 9728SOL     OW30082   0.815   0.462   5.803
 9728SOL    HW130083   0.720   0.477   5.772
 9728SOL    HW230084   0.834   0.522   5.881
 9729SOL     OW30085   1.298   3.786   3.248
 9729SOL    HW130086   1.239   3.782   3.168
 9729SOL    HW230087   1.251   3.746   3.326
 9730SOL     OW30088   1.853   4.839   3.072
 9730SOL    HW130089   1.924   4.910   3.078
 9730SOL    HW230090   1.844   4.809   2.977
 9731SOL     OW30091   5.164   4.930   1.019
 9731SOL    HW130092   5.138   4.837   0.996
 9731SOL    HW230093   5.207   4.932   1.109
 9732SOL     OW30094   0.190   5.095   2.164
 9732SOL    HW130095   0.262   5.055   2.222
 9732SOL    HW230096   0.224   5.105   2.071
 9733SOL     OW30097   4.974   5.152   0.485
 9733SOL    HW130098   4.955   5.100   0.568
 9733SOL    HW230099   4.918   5.118   0.410
 9734SOL     OW30100   6.293   1.445   0.641
 9734SOL    HW130101   6.372   1.481   0.591
 9734SOL    HW230102   6.267   1.357   0.602
 9735SOL     OW30103   2.120   3.419   3.463
 9735SOL    HW130104   2.100   3.333   3.511
 9735SOL    HW230105   2.056   3.431   3.388
 9736SOL     OW30106   6.088   1.484   5.699
 9736SOL    HW130107   6.000   1.519   5.667
 9736SOL    HW230108   6.110   1.524   5.787
 9737SOL     OW30109   5.430   2.384   3.081
 9737SOL    HW130110   5.445   2.431   3.168
 9737SOL    HW230111   5.356   2.430   3.031
 9738SOL     OW30112   2.280   0.108   0.304
 9738SOL    HW130113   2.325   0.103   0.215
 9738SOL    HW230114   2.182   0.127   0.291
 9739SOL     OW30115   4.893   5.835   1.026
 9739SOL    HW130116   4.977   5.875   0.989
 9739SOL    HW230117   4.856   5.895   1.097
 9740SOL     OW30118   0.238   1.012   3.462
 9740SOL    HW130119   0.331   1.016   3.425
 9740SOL    HW230120   0.178   0.968   3.396
 9741SOL     OW30121   3.552   1.822   2.416
 9741SOL    HW130122   3.531   1.915   2.446
 9741SOL    HW230123   3.541   1.759   2.493
 9742SOL     OW30124   3.741   1.539   0.531
 9742SOL    HW130125   3.723   1.494   0.444
 9742SOL    HW230126   3.655   1.548   0.582
 9743SOL     OW30127   6.875   3.516   4.258
 9743SOL    HW130128   6.823   3.463   4.192
 9743SOL    HW230129   6.822   3.596   4.287
 9744SOL     OW30130   1.413   6.826   2.059
 9744SOL    HW130131   1.481   6.784   1.998
 9744SOL    HW230132   1.384   6.760   2.128
 9745SOL     OW30133   5.014   2.303   6.434
 9745SOL    HW130134   5.043   2.325   6.341
 9745SOL    HW230135   4.930   2.352   6.456
 9746SOL     OW30136   6.160   0.558   5.799
 9746SOL    HW130137   6.173   0.528   5.893
 9746SOL    HW230138   6.200   0.491   5.736
 9747SOL     OW30139   2.740   1.756   1.880
 9747SOL    HW130140   2.824   1.704   1.864
 9747SOL    HW230141   2.749   1.848   1.841
 9748SOL     OW30142   6.734   6.882   3.826
 9748SOL    HW130143   6.684   6.810   3.875
 9748SOL    HW230144   6.678   6.965   3.824
 9749SOL     OW30145   1.851   0.274   4.288
 9749SOL    HW130146   1.913   0.340   4.247
 9749SOL    HW230147   1.809   0.313   4.370
 9750SOL     OW30148   6.041   4.500   3.289
 9750SOL    HW130149   6.090   4.431   3.236
 9750SOL    HW230150   5.946   4.471   3.302
 9751SOL     OW30151   2.604   0.705   0.852
 9751SOL    HW130152   2.700   0.687   0.829
 9751SOL    HW230153   2.546   0.641   0.801
 9752SOL     OW30154   3.848   2.282   5.236
 9752SOL    HW130155   3.753   2.253   5.228
 9752SOL    HW230156   3.898   2.253   5.155
 9753SOL     OW30157   6.859   5.694   6.630
 9753SOL    HW130158   6.923   5.745   6.573
 9753SOL    HW230159   6.910   5.642   6.698
 9754SOL     OW30160   1.984   0.282   0.714
 9754SOL    HW130161   2.020   0.206   0.659
 9754SOL    HW230162   1.895   0.256   0.752
 9755SOL     OW30163   3.515   3.626   4.232
 9755SOL    HW130164   3.509   3.711   4.180
 9755SOL    HW230165   3.424   3.594   4.257
 9756SOL     OW30166   6.116   2.632   6.467
 9756SOL    HW130167   6.078   2.637   6.374
 9756SOL    HW230168   6.130   2.536   6.491
 9757SOL     OW30169   6.046   4.484   4.308
 9757SOL    HW130170   5.949   4.508   4.301
 9757SOL    HW230171   6.101   4.567   4.301
 9758SOL     OW30172   2.628   0.359   6.484
 9758SOL    HW130173   2.567   0.320   6.552
 9758SOL    HW230174   2.613   0.458   6.478
 9759SOL     OW30175   1.291   0.504   0.168
 9759SOL    HW130176   1.219   0.573   0.169
 9759SOL    HW230177   1.338   0.503   0.257
 9760SOL     OW30178   5.055   3.017   5.820
 9760SOL    HW130179   4.984   3.016   5.749
 9760SOL    HW230180   5.015   2.990   5.908
 9761SOL     OW30181   0.400   1.648   2.054
 9761SOL    HW130182   0.453   1.730   2.077
 9761SOL    HW230183   0.456   1.566   2.069
 9762SOL     OW30184   3.128   1.880   4.760
 9762SOL    HW130185   3.200   1.835   4.812
 9762SOL    HW230186   3.039   1.857   4.800
 9763SOL     OW30187   5.021   1.774   2.661
 9763SOL    HW130188   5.021   1.873   2.649
 9763SOL    HW230189   5.025   1.729   2.572
 9764SOL     OW30190   6.948   2.815   3.352
 9764SOL    HW130191   6.894   2.872   3.290
 9764SOL    HW230192   6.907   2.819   3.444
 9765SOL     OW30193   6.747   6.506   3.805
 9765SOL    HW130194   6.835   6.542   3.774
 9765SOL    HW230195   6.675   6.540   3.744
 9766SOL     OW30196   2.697   0.592   2.313
 9766SOL    HW130197   2.682   0.657   2.238
 9766SOL    HW230198   2.669   0.634   2.400
 9767SOL     OW30199   3.769   1.420   5.663
 9767SOL    HW130200   3.854   1.367   5.663
 9767SOL    HW230201   3.769   1.484   5.740
 9768SOL     OW30202   5.698   0.932   1.872
 9768SOL    HW130203   5.682   0.861   1.803
 9768SOL    HW230204   5.762   1.000   1.835
 9769SOL     OW30205   4.166   0.557   4.596
 9769SOL    HW130206   4.199   0.641   4.553
 9769SOL    HW230207   4.243   0.503   4.629
 9770SOL     OW30208   3.958   1.219   5.823
 9770SOL    HW130209   3.999   1.258   5.905
 9770SOL    HW230210   3.903   1.139   5.848
 9771SOL     OW30211   2.710   6.069   0.344
 9771SOL    HW130212   2.702   6.104   0.251
 9771SOL    HW230213   2.737   6.143   0.405
 9772SOL     OW30214   1.550   6.005   1.369
 9772SOL    HW130215   1.523   6.101   1.374
 9772SOL    HW230216   1.611   5.984   1.446
 9773SOL     OW30217   4.995   5.518   4.293
 9773SOL    HW130218   5.087   5.557   4.280
 9773SOL    HW230219   4.991   5.429   4.248
 9774SOL     OW30220   0.078   5.641   2.139
 9774SOL    HW130221   0.096   5.543   2.151
 9774SOL    HW230222   0.103   5.690   2.223
 9775SOL     OW30223   3.291   0.693   3.248
 9775SOL    HW130224   3.302   0.652   3.158
 9775SOL    HW230225   3.361   0.658   3.310
 9776SOL     OW30226   0.961   4.486   5.368
 9776SOL    HW130227   0.991   4.525   5.281
 9776SOL    HW230228   1.032   4.501   5.437
 9777SOL     OW30229   5.856   6.107   0.022
 9777SOL    HW130230   5.847   6.008   0.037
 9777SOL    HW230231   5.917   6.145   0.092
 9778SOL     OW30232   0.472   1.409   3.973
 9778SOL    HW130233   0.400   1.384   3.909
 9778SOL    HW230234   0.465   1.506   3.995
 9779SOL     OW30235   0.851   1.740   3.894
 9779SOL    HW130236   0.886   1.665   3.949
 9779SOL    HW230237   0.927   1.799   3.865
 9780SOL     OW30238   2.359   2.476   0.531
 9780SOL    HW130239   2.433   2.422   0.491
 9780SOL    HW230240   2.396   2.563   0.565
 9781SOL     OW30241   2.266   2.781   4.739
 9781SOL    HW130242   2.332   2.731   4.796
 9781SOL    HW230243   2.268   2.878   4.763
 9782SOL     OW30244   0.296   0.860   1.175
 9782SOL    HW130245   0.351   0.939   1.201
 9782SOL    HW230246   0.335   0.777   1.215
 9783SOL     OW30247   4.392   2.381   3.356
 9783SOL    HW130248   4.326   2.313   3.390
 9783SOL    HW230249   4.416   2.443   3.430
 9784SOL     OW30250   2.941   2.440   6.022
 9784SOL    HW130251   2.988   2.372   5.966
 9784SOL    HW230252   2.957   2.421   6.119
 9785SOL     OW30253   1.088   2.314   5.877
 9785SOL    HW130254   1.181   2.341   5.853
 9785SOL    HW230255   1.091   2.231   5.934
 9786SOL     OW30256   2.749   4.366   0.250
 9786SOL    HW130257   2.694   4.424   0.190
 9786SOL    HW230258   2.689   4.310   0.307
 9787SOL     OW30259   3.337   3.791   2.861
 9787SOL    HW130260   3.238   3.786   2.875
 9787SOL    HW230261   3.377   3.702   2.884
 9788SOL     OW30262   1.001   7.002   3.435
 9788SOL    HW130263   1.064   6.941   3.483
 9788SOL    HW230264   1.024   7.005   3.338
 9789SOL     OW30265   1.968   5.826   0.501
 9789SOL    HW130266   1.929   5.802   0.589
 9789SOL    HW230267   1.969   5.745   0.442
 9790SOL     OW30268   6.471   4.880   6.538
 9790SOL    HW130269   6.376   4.904   6.559
 9790SOL    HW230270   6.514   4.955   6.488
 9791SOL     OW30271   0.090   0.734   0.491
 9791SOL    HW130272   0.112   0.824   0.530
 9791SOL    HW230273   0.174   0.690   0.460
 9792SOL     OW30274   3.794   4.277   0.125
 9792SOL    HW130275   3.787   4.195   0.183
 9792SOL    HW230276   3.724   4.273   0.054
 9793SOL     OW30277   3.999   0.076   2.789
 9793SOL    HW130278   3.968   0.004   2.852
 9793SOL    HW230279   4.083   0.117   2.825
 9794SOL     OW30280   0.125   4.092   6.874
 9794SOL    HW130281   0.132   4.177   6.822
 9794SOL    HW230282   0.184   4.097   6.954
 9795SOL     OW30283   1.997   1.761   4.537
 9795SOL    HW130284   1.969   1.855   4.517
 9795SOL    HW230285   2.071   1.761   4.603
 9796SOL     OW30286   3.174   3.071   2.444
 9796SOL    HW130287   3.080   3.046   2.463
 9796SOL    HW230288   3.189   3.071   2.345
 9797SOL     OW30289   1.789   5.667   0.110
 9797SOL    HW130290   1.721   5.737   0.089
 9797SOL    HW230291   1.751   5.603   0.178
 9798SOL     OW30292   2.969   0.340   2.676
 9798SOL    HW130293   2.936   0.252   2.710
 9798SOL    HW230294   2.914   0.368   2.598
 9799SOL     OW30295   3.079   3.933   5.439
 9799SOL    HW130296   3.157   3.950   5.380
 9799SOL    HW230297   3.087   3.843   5.481
 9800SOL     OW30298   4.249   5.150   4.751
 9800SOL    HW130299   4.257   5.198   4.663
 9800SOL    HW230300   4.288   5.059   4.743
 9801SOL     OW30301   4.566   4.277   0.140
 9801SOL    HW130302   4.509   4.212   0.191
 9801SOL    HW230303   4.627   4.324   0.203
 9802SOL     OW30304   7.001   4.499   1.958
 9802SOL    HW130305   6.975   4.493   1.861
 9802SOL    HW230306   0.035   4.576   1.971
 9803SOL     OW30307   1.664   2.206   6.494
 9803SOL    HW130308   1.757   2.211   6.456
 9803SOL    HW230309   1.614   2.289   6.472
 9804SOL     OW30310   1.183   5.899   3.337
 9804SOL    HW130311   1.084   5.890   3.335
 9804SOL    HW230312   1.223   5.817   3.379
 9805SOL     OW30313   1.147   6.583   3.895
 9805SOL    HW130314   1.232   6.588   3.948
 9805SOL    HW230315   1.167   6.550   3.803
 9806SOL     OW30316   1.132   1.277   6.638
 9806SOL    HW130317   1.077   1.302   6.717
 9806SOL    HW230318   1.080   1.214   6.580
 9807SOL     OW30319   3.213   4.553   0.396
 9807SOL    HW130320   3.289   4.587   0.451
 9807SOL    HW230321   3.152   4.498   0.453
 9808SOL     OW30322   3.875   0.400   5.271
 9808SOL    HW130323   3.793   0.380   5.324
 9808SOL    HW230324   3.854   0.466   5.199
 9809SOL     OW30325   1.212   3.037   6.549
 9809SOL    HW130326   1.222   3.010   6.645
 9809SOL    HW230327   1.255   3.126   6.535
 9810SOL     OW30328   1.832   2.853   3.879
 9810SOL    HW130329   1.804   2.773   3.826
 9810SOL    HW230330   1.792   2.848   3.971
 9811SOL     OW30331   5.484   4.829   3.240
 9811SOL    HW130332   5.405   4.889   3.257
 9811SOL    HW230333   5.477   4.791   3.148
 9812SOL     OW30334   3.347   2.619   5.874
 9812SOL    HW130335   3.352   2.622   5.775
 9812SOL    HW230336   3.323   2.527   5.904
 9813SOL     OW30337   5.226   1.320   0.654
 9813SOL    HW130338   5.211   1.355   0.561
 9813SOL    HW230339   5.183   1.382   0.720
 9814SOL     OW30340   6.642   0.070   6.955
 9814SOL    HW130341   6.739   0.066   6.931
 9814SOL    HW230342   6.609   0.164   6.945
 9815SOL     OW30343   5.577   4.026   4.455
 9815SOL    HW130344   5.643   4.080   4.403
 9815SOL    HW230345   5.622   3.987   4.536
 9816SOL     OW30346   0.753   1.193   6.203
 9816SOL    HW130347   0.674   1.165   6.149
 9816SOL    HW230348   0.722   1.240   6.286
 9817SOL     OW30349   3.331   0.073   3.514
 9817SOL    HW130350   3.343   0.095   3.417
 9817SOL    HW230351   3.247   0.117   3.548
 9818SOL     OW30352   1.172   0.602   3.662
 9818SOL    HW130353   1.141   0.683   3.711
 9818SOL    HW230354   1.193   0.529   3.728
 9819SOL     OW30355   4.807   3.085   3.763
 9819SOL    HW130356   4.765   3.162   3.810
 9819SOL    HW230357   4.815   3.105   3.666
 9820SOL     OW30358   4.292   3.205   6.712
 9820SOL    HW130359   4.274   3.110   6.688
 9820SOL    HW230360   4.244   3.265   6.648
 9821SOL     OW30361   5.087   0.843   6.257
 9821SOL    HW130362   5.059   0.905   6.331
 9821SOL    HW230363   5.008   0.789   6.228
 9822SOL     OW30364   2.190   6.093   3.530
 9822SOL    HW130365   2.119   6.161   3.550
 9822SOL    HW230366   2.274   6.139   3.501
 9823SOL     OW30367   2.518   1.403   0.177
 9823SOL    HW130368   2.604   1.415   0.227
 9823SOL    HW230369   2.469   1.325   0.215
 9824SOL     OW30370   1.671   4.920   4.769
 9824SOL    HW130371   1.723   4.855   4.823
 9824SOL    HW230372   1.669   5.009   4.816
 9825SOL     OW30373   4.987   5.623   5.105
 9825SOL    HW130374   4.895   5.637   5.068
 9825SOL    HW230375   5.020   5.532   5.081
 9826SOL     OW30376   4.463   5.339   5.666
 9826SOL    HW130377   4.464   5.388   5.580
 9826SOL    HW230378   4.374   5.350   5.710
 9827SOL     OW30379   2.062   3.341   3.804
 9827SOL    HW130380   2.080   3.379   3.894
 9827SOL    HW230381   2.028   3.247   3.812
 9828SOL     OW30382   2.380   2.573   5.702
 9828SOL    HW130383   2.446   2.514   5.749
 9828SOL    HW230384   2.347   2.526   5.619
 9829SOL     OW30385   3.773   5.672   6.351
 9829SOL    HW130386   3.777   5.756   6.296
 9829SOL    HW230387   3.685   5.627   6.336
 9830SOL     OW30388   6.059   2.409   2.295
 9830SOL    HW130389   6.042   2.324   2.246
 9830SOL    HW230390   6.001   2.481   2.259
 9831SOL     OW30391   2.487   5.335   1.470
 9831SOL    HW130392   2.561   5.274   1.498
 9831SOL    HW230393   2.521   5.402   1.404
 9832SOL     OW30394   5.029   5.647   2.409
 9832SOL    HW130395   5.079   5.622   2.492
 9832SOL    HW230396   4.931   5.646   2.428
 9833SOL     OW30397   3.003   3.531   4.850
 9833SOL    HW130398   2.938   3.502   4.919
 9833SOL    HW230399   3.095   3.532   4.889
 9834SOL     OW30400   2.526   4.308   5.268
 9834SOL    HW130401   2.509   4.213   5.242
 9834SOL    HW230402   2.489   4.324   5.359
 9835SOL     OW30403   4.000   3.357   5.121
 9835SOL    HW130404   3.992   3.368   5.022
 9835SOL    HW230405   3.962   3.438   5.166
 9836SOL     OW30406   6.647   4.428   3.916
 9836SOL    HW130407   6.612   4.357   3.977
 9836SOL    HW230408   6.683   4.504   3.970
 9837SOL     OW30409   3.370   7.011   2.720
 9837SOL    HW130410   3.456   6.996   2.671
 9837SOL    HW230411   3.367   0.077   2.754
 9838SOL     OW30412   1.601   6.863   0.048
 9838SOL    HW130413   1.655   6.778   0.044
 9838SOL    HW230414   1.540   6.860   0.127
 9839SOL     OW30415   5.194   0.236   3.893
 9839SOL    HW130416   5.290   0.263   3.905
 9839SOL    HW230417   5.141   0.263   3.973
 9840SOL     OW30418   5.484   1.517   0.517
 9840SOL    HW130419   5.580   1.496   0.535
 9840SOL    HW230420   5.461   1.491   0.424
 9841SOL     OW30421   1.385   4.792   4.970
 9841SOL    HW130422   1.381   4.880   4.922
 9841SOL    HW230423   1.325   4.795   5.050
 9842SOL     OW30424   3.399   3.403   1.762
 9842SOL    HW130425   3.365   3.429   1.852
 9842SOL    HW230426   3.455   3.477   1.725
 9843SOL     OW30427   6.024   1.109   1.564
 9843SOL    HW130428   6.038   1.076   1.471
 9843SOL    HW230429   5.952   1.055   1.608
 9844SOL     OW30430   6.332   0.762   2.492
 9844SOL    HW130431   6.425   0.799   2.488
 9844SOL    HW230432   6.272   0.815   2.433
 9845SOL     OW30433   2.161   2.824   2.877
 9845SOL    HW130434   2.132   2.914   2.845
 9845SOL    HW230435   2.196   2.832   2.971
 9846SOL     OW30436   3.824   2.986   2.061
 9846SOL    HW130437   3.842   2.985   2.159
 9846SOL    HW230438   3.817   3.081   2.030
 9847SOL     OW30439   3.653   2.894   3.494
 9847SOL    HW130440   3.741   2.935   3.471
 9847SOL    HW230441   3.660   2.843   3.579
 9848SOL     OW30442   4.048   3.075   5.202
 9848SOL    HW130443   4.003   3.029   5.126
 9848SOL    HW230444   4.034   3.174   5.194
 9849SOL     OW30445   1.058   6.767   6.817
 9849SOL    HW130446   1.094   6.707   6.746
 9849SOL    HW230447   1.133   6.815   6.862
 9850SOL     OW30448   6.242   6.777   4.403
 9850SOL    HW130449   6.310   6.847   4.379
 9850SOL    HW230450   6.175   6.769   4.329
 9851SOL     OW30451   6.566   0.685   4.593
 9851SOL    HW130452   6.575   0.627   4.674
 9851SOL    HW230453   6.652   0.685   4.542
 9852SOL     OW30454   3.640   1.747   3.859
 9852SOL    HW130455   3.620   1.746   3.761
 9852SOL    HW230456   3.556   1.762   3.911
 9853SOL     OW30457   4.875   3.729   4.577
 9853SOL    HW130458   4.905   3.683   4.494
 9853SOL    HW230459   4.865   3.662   4.651
 9854SOL     OW30460   6.462   5.708   5.236
 9854SOL    HW130461   6.437   5.765   5.157
 9854SOL    HW230462   6.379   5.670   5.276
 9855SOL     OW30463   1.810   3.836   0.903
 9855SOL    HW130464   1.813   3.867   0.808
 9855SOL    HW230465   1.902   3.840   0.943
 9856SOL     OW30466   5.012   3.988   4.463
 9856SOL    HW130467   5.109   4.000   4.485
 9856SOL    HW230468   4.974   3.914   4.518
 9857SOL     OW30469   4.831   2.371   2.607
 9857SOL    HW130470   4.915   2.425   2.611
 9857SOL    HW230471   4.771   2.408   2.536
 9858SOL     OW30472   0.155   0.840   1.755
 9858SOL    HW130473   0.160   0.818   1.658
 9858SOL    HW230474   0.224   0.909   1.777
 9859SOL     OW30475   6.439   6.491   2.961
 9859SOL    HW130476   6.367   6.553   2.993
 9859SOL    HW230477   6.487   6.533   2.885
 9860SOL     OW30478   1.608   1.624   3.683
 9860SOL    HW130479   1.706   1.611   3.668
 9860SOL    HW230480   1.591   1.636   3.781
 9861SOL     OW30481   2.906   0.321   3.578
 9861SOL    HW130482   2.887   0.250   3.511
 9861SOL    HW230483   2.877   0.410   3.542
 9862SOL     OW30484   3.587   3.061   6.689
 9862SOL    HW130485   3.517   3.113   6.639
 9862SOL    HW230486   3.562   3.056   6.786
 9863SOL     OW30487   3.394   6.599   2.589
 9863SOL    HW130488   3.335   6.675   2.561
 9863SOL    HW230489   3.479   6.602   2.537
 9864SOL     OW30490   3.887   6.362   3.735
 9864SOL    HW130491   3.960   6.431   3.731
 9864SOL    HW230492   3.834   6.365   3.651
 9865SOL     OW30493   1.521   0.262   4.311
 9865SOL    HW130494   1.447   0.327   4.327
 9865SOL    HW230495   1.552   0.270   4.216
 9866SOL     OW30496   4.862   4.201   6.525
 9866SOL    HW130497   4.858   4.107   6.558
 9866SOL    HW230498   4.770   4.242   6.527
 9867SOL     OW30499   6.875   1.776   0.969
 9867SOL    HW130500   6.850   1.708   0.899
 9867SOL    HW230501   6.940   1.841   0.930
 9868SOL     OW30502   0.916   3.527   5.536
 9868SOL    HW130503   0.904   3.546   5.634
 9868SOL    HW230504   0.886   3.607   5.483
 9869SOL     OW30505   0.931   2.431   1.472
 9869SOL    HW130506   0.946   2.334   1.490
 9869SOL    HW230507   1.012   2.483   1.497
 9870SOL     OW30508   3.729   5.931   2.517
 9870SOL    HW130509   3.716   6.028   2.541
 9870SOL    HW230510   3.641   5.890   2.497
 9871SOL     OW30511   6.885   5.710   6.130
 9871SOL    HW130512   6.800   5.671   6.097
 9871SOL    HW230513   6.961   5.676   6.074
 9872SOL     OW30514   2.616   5.373   4.777
 9872SOL    HW130515   2.701   5.425   4.776
 9872SOL    HW230516   2.635   5.278   4.753
 9873SOL     OW30517   2.282   2.589   0.145
 9873SOL    HW130518   2.271   2.683   0.177
 9873SOL    HW230519   2.233   2.527   0.207
 9874SOL     OW30520   5.708   3.290   5.181
 9874SOL    HW130521   5.639   3.359   5.199
 9874SOL    HW230522   5.721   3.281   5.082
 9875SOL     OW30523   5.830   5.959   1.634
 9875SOL    HW130524   5.922   5.934   1.604
 9875SOL    HW230525   5.825   5.952   1.734
 9876SOL     OW30526   6.063   0.653   3.810
 9876SOL    HW130527   6.029   0.680   3.900
 9876SOL    HW230528   6.005   0.693   3.740
 9877SOL     OW30529   6.410   5.272   4.186
 9877SOL    HW130530   6.507   5.266   4.208
 9877SOL    HW230531   6.399   5.296   4.090
 9878SOL     OW30532   2.755   3.817   6.039
 9878SOL    HW130533   2.730   3.791   5.946
 9878SOL    HW230534   2.799   3.740   6.084
 9879SOL     OW30535   5.282   5.735   5.546
 9879SOL    HW130536   5.358   5.676   5.569
 9879SOL    HW230537   5.223   5.691   5.478
 9880SOL     OW30538   3.887   0.619   0.126
 9880SOL    HW130539   3.795   0.650   0.104
 9880SOL    HW230540   3.934   0.593   0.042
 9881SOL     OW30541   1.727   1.238   4.283
 9881SOL    HW130542   1.650   1.217   4.343
 9881SOL    HW230543   1.701   1.308   4.217
 9882SOL     OW30544   1.805   3.863   4.796
 9882SOL    HW130545   1.778   3.831   4.887
 9882SOL    HW230546   1.904   3.863   4.788
 9883SOL     OW30547   1.170   6.241   0.827
 9883SOL    HW130548   1.239   6.278   0.889
 9883SOL    HW230549   1.139   6.313   0.765
 9884SOL     OW30550   4.711   2.433   1.472
 9884SOL    HW130551   4.635   2.380   1.510
 9884SOL    HW230552   4.682   2.528   1.459
 9885SOL     OW30553   0.119   1.752   4.919
 9885SOL    HW130554   0.086   1.786   5.007
 9885SOL    HW230555   0.204   1.701   4.933
 9886SOL     OW30556   1.338   5.309   1.953
 9886SOL    HW130557   1.247   5.339   1.927
 9886SOL    HW230558   1.348   5.211   1.935
 9887SOL     OW30559   4.285   0.753   0.265
 9887SOL    HW130560   4.279   0.657   0.239
 9887SOL    HW230561   4.200   0.781   0.310
 9888SOL     OW30562   5.500   4.881   2.475
 9888SOL    HW130563   5.562   4.922   2.409
 9888SOL    HW230564   5.436   4.950   2.508
 9889SOL     OW30565   5.885   4.874   0.526
 9889SOL    HW130566   5.974   4.884   0.571
 9889SOL    HW230567   5.867   4.954   0.470
 9890SOL     OW30568   0.680   2.809   1.372
 9890SOL    HW130569   0.604   2.751   1.402
 9890SOL    HW230570   0.760   2.751   1.355
 9891SOL     OW30571   5.739   3.077   1.324
 9891SOL    HW130572   5.823   3.097   1.375
 9891SOL    HW230573   5.749   2.989   1.278
 9892SOL     OW30574   1.437   4.605   2.345
 9892SOL    HW130575   1.381   4.556   2.278
 9892SOL    HW230576   1.500   4.666   2.298
 9893SOL     OW30577   0.078   0.772   2.389
 9893SOL    HW130578   0.118   0.755   2.299
 9893SOL    HW230579   0.028   0.690   2.419
 9894SOL     OW30580   3.203   2.288   0.075
 9894SOL    HW130581   3.116   2.241   0.062
 9894SOL    HW230582   3.262   2.271   7.024
 9895SOL     OW30583   5.310   3.829   5.383
 9895SOL    HW130584   5.210   3.829   5.391
 9895SOL    HW230585   5.337   3.884   5.305
 9896SOL     OW30586   5.806   1.353   1.255
 9896SOL    HW130587   5.760   1.396   1.177
 9896SOL    HW230588   5.738   1.313   1.316
 9897SOL     OW30589   6.136   6.892   2.106
 9897SOL    HW130590   6.073   6.917   2.032
 9897SOL    HW230591   6.096   6.819   2.161
 9898SOL     OW30592   0.993   4.794   6.355
 9898SOL    HW130593   0.950   4.845   6.430
 9898SOL    HW230594   0.972   4.839   6.268
 9899SOL     OW30595   1.085   5.017   1.832
 9899SOL    HW130596   1.108   4.924   1.803
 9899SOL    HW230597   1.164   5.059   1.877
 9900SOL     OW30598   1.569   3.030   2.344
 9900SOL    HW130599   1.479   3.073   2.353
 9900SOL    HW230600   1.595   3.027   2.247
 9901SOL     OW30601   3.017   0.803   6.823
 9901SOL    HW130602   3.110   0.770   6.842
 9901SOL    HW230603   2.968   0.734   6.771
 9902SOL     OW30604   3.637   4.356   1.436
 9902SOL    HW130605   3.673   4.263   1.427
 9902SOL    HW230606   3.674   4.399   1.518
 9903SOL     OW30607   5.495   1.579   1.505
 9903SOL    HW130608   5.507   1.677   1.491
 9903SOL    HW230609   5.451   1.564   1.594
 9904SOL     OW30610   0.317   3.834   6.215
 9904SOL    HW130611   0.233   3.797   6.254
 9904SOL    HW230612   0.303   3.854   6.118
 9905SOL     OW30613   2.390   0.446   5.871
 9905SOL    HW130614   2.333   0.369   5.846
 9905SOL    HW230615   2.453   0.419   5.944
 9906SOL     OW30616   1.956   3.355   0.828
 9906SOL    HW130617   1.934   3.331   0.922
 9906SOL    HW230618   2.051   3.331   0.809
 9907SOL     OW30619   1.360   0.597   1.443
 9907SOL    HW130620   1.344   0.501   1.464
 9907SOL    HW230621   1.448   0.607   1.396
 9908SOL     OW30622   6.389   2.634   5.034
 9908SOL    HW130623   6.314   2.578   5.068
 9908SOL    HW230624   6.361   2.730   5.032
 9909SOL     OW30625   4.021   1.130   2.525
 9909SOL    HW130626   4.004   1.220   2.486
 9909SOL    HW230627   4.100   1.088   2.480
 9910SOL     OW30628   1.451   5.425   1.265
 9910SOL    HW130629   1.435   5.390   1.357
 9910SOL    HW230630   1.414   5.518   1.257
 9911SOL     OW30631   2.505   5.877   1.677
 9911SOL    HW130632   2.584   5.917   1.723
 9911SOL    HW230633   2.532   5.790   1.634
 9912SOL     OW30634   3.617   1.234   0.885
 9912SOL    HW130635   3.572   1.258   0.971
 9912SOL    HW230636   3.695   1.174   0.903
 9913SOL     OW30637   6.330   3.123   0.724
 9913SOL    HW130638   6.231   3.109   0.726
 9913SOL    HW230639   6.359   3.150   0.632
 9914SOL     OW30640   6.803   7.019   5.868
 9914SOL    HW130641   6.831   6.924   5.860
 9914SOL    HW230642   6.716   0.004   5.821
 9915SOL     OW30643   5.907   0.688   3.409
 9915SOL    HW130644   5.923   0.785   3.389
 9915SOL    HW230645   5.987   0.635   3.381
 9916SOL     OW30646   2.079   2.450   3.251
 9916SOL    HW130647   2.078   2.549   3.241
 9916SOL    HW230648   2.009   2.422   3.317
 9917SOL     OW30649   3.793   3.847   5.796
 9917SOL    HW130650   3.890   3.866   5.812
 9917SOL    HW230651   3.747   3.931   5.770
 9918SOL     OW30652   1.423   2.925   2.788
 9918SOL    HW130653   1.461   2.886   2.704
 9918SOL    HW230654   1.496   2.938   2.855
 9919SOL     OW30655   2.593   5.455   1.754
 9919SOL    HW130656   2.666   5.400   1.714
 9919SOL    HW230657   2.631   5.515   1.824
 9920SOL     OW30658   4.730   0.502   2.437
 9920SOL    HW130659   4.765   0.583   2.484
 9920SOL    HW230660   4.792   0.478   2.363
 9921SOL     OW30661   4.471   6.514   4.484
 9921SOL    HW130662   4.383   6.482   4.519
 9921SOL    HW230663   4.458   6.599   4.433
 9922SOL     OW30664   3.849   4.234   1.033
 9922SOL    HW130665   3.864   4.199   0.941
 9922SOL    HW230666   3.817   4.328   1.029
 9923SOL     OW30667   6.230   3.646   0.027
 9923SOL    HW130668   6.145   3.595   0.009
 9923SOL    HW230669   6.211   3.745   0.020
 9924SOL     OW30670   5.463   1.553   3.249
 9924SOL    HW130671   5.486   1.618   3.322
 9924SOL    HW230672   5.379   1.582   3.203
 9925SOL     OW30673   0.385   4.867   3.727
 9925SOL    HW130674   0.358   4.902   3.637
 9925SOL    HW230675   0.323   4.793   3.754
 9926SOL     OW30676   4.127   2.707   0.911
 9926SOL    HW130677   4.142   2.685   1.007
 9926SOL    HW230678   4.213   2.736   0.869
 9927SOL     OW30679   0.906   1.112   0.483
 9927SOL    HW130680   0.992   1.159   0.500
 9927SOL    HW230681   0.861   1.154   0.404
 9928SOL     OW30682   5.276   4.436   3.291
 9928SOL    HW130683   5.190   4.485   3.279
 9928SOL    HW230684   5.310   4.453   3.384
 9929SOL     OW30685   3.670   4.100   4.206
 9929SOL    HW130686   3.712   4.076   4.294
 9929SOL    HW230687   3.729   4.164   4.157
 9930SOL     OW30688   0.457   6.747   6.261
 9930SOL    HW130689   0.372   6.725   6.308
 9930SOL    HW230690   0.504   6.663   6.235
 9931SOL     OW30691   6.651   5.776   4.427
 9931SOL    HW130692   6.656   5.699   4.363
 9931SOL    HW230693   6.570   5.766   4.485
 9932SOL     OW30694   2.855   2.524   5.715
 9932SOL    HW130695   2.895   2.608   5.680
 9932SOL    HW230696   2.817   2.540   5.806
 9933SOL     OW30697   1.832   6.760   4.033
 9933SOL    HW130698   1.860   6.850   4.000
 9933SOL    HW230699   1.846   6.755   4.132
 9934SOL     OW30700   0.133   2.195   6.305
 9934SOL    HW130701   0.144   2.211   6.403
 9934SOL    HW230702   0.118   2.098   6.288
 9935SOL     OW30703   2.659   0.287   1.499
 9935SOL    HW130704   2.739   0.251   1.452
 9935SOL    HW230705   2.584   0.298   1.433
 9936SOL     OW30706   6.402   4.741   0.707
 9936SOL    HW130707   6.337   4.666   0.701
 9936SOL    HW230708   6.353   4.828   0.697
 9937SOL     OW30709   0.386   1.626   1.697
 9937SOL    HW130710   0.339   1.706   1.734
 9937SOL    HW230711   0.343   1.543   1.733
 9938SOL     OW30712   5.606   4.950   3.960
 9938SOL    HW130713   5.599   5.047   3.934
 9938SOL    HW230714   5.618   4.895   3.877
 9939SOL     OW30715   3.480   2.887   0.991
 9939SOL    HW130716   3.492   2.801   1.041
 9939SOL    HW230717   3.523   2.961   1.042
 9940SOL     OW30718   1.133   0.072   2.256
 9940SOL    HW130719   1.186   0.000   2.300
 9940SOL    HW230720   1.071   0.114   2.323
 9941SOL     OW30721   3.251   4.342   6.055
 9941SOL    HW130722   3.314   4.420   6.051
 9941SOL    HW230723   3.185   4.348   5.981
 9942SOL     OW30724   3.812   5.301   2.377
 9942SOL    HW130725   3.760   5.243   2.440
 9942SOL    HW230726   3.764   5.306   2.289
 9943SOL     OW30727   0.954   4.960   6.602
 9943SOL    HW130728   0.880   5.021   6.573
 9943SOL    HW230729   1.033   4.975   6.543
 9944SOL     OW30730   0.861   4.467   6.815
 9944SOL    HW130731   0.933   4.430   6.756
 9944SOL    HW230732   0.773   4.427   6.788
 9945SOL     OW30733   4.561   5.873   0.091
 9945SOL    HW130734   4.559   5.783   0.048
 9945SOL    HW230735   4.476   5.922   0.071
 9946SOL     OW30736   6.678   6.816   3.540
 9946SOL    HW130737   6.621   6.735   3.559
 9946SOL    HW230738   6.745   6.827   3.613
 9947SOL     OW30739   2.796   2.301   4.665
 9947SOL    HW130740   2.847   2.314   4.580
 9947SOL    HW230741   2.841   2.231   4.721
 9948SOL     OW30742   6.701   5.147   4.996
 9948SOL    HW130743   6.786   5.153   4.944
 9948SOL    HW230744   6.626   5.122   4.935
 9949SOL     OW30745   0.230   4.865   3.969
 9949SOL    HW130746   0.212   4.959   3.996
 9949SOL    HW230747   0.310   4.830   4.018
 9950SOL     OW30748   5.959   5.822   6.482
 9950SOL    HW130749   6.054   5.804   6.458
 9950SOL    HW230750   5.953   5.909   6.531
 9951SOL     OW30751   0.901   2.501   3.389
 9951SOL    HW130752   0.876   2.598   3.382
 9951SOL    HW230753   0.961   2.488   3.468
 9952SOL     OW30754   1.578   4.332   0.524
 9952SOL    HW130755   1.602   4.236   0.535
 9952SOL    HW230756   1.513   4.358   0.595
 9953SOL     OW30757   6.410   1.703   4.234
 9953SOL    HW130758   6.492   1.689   4.289
 9953SOL    HW230759   6.432   1.688   4.138
 9954SOL     OW30760   1.203   6.954   5.281
 9954SOL    HW130761   1.175   0.021   5.271
 9954SOL    HW230762   1.122   6.895   5.283
 9955SOL     OW30763   4.620   4.124   6.740
 9955SOL    HW130764   4.660   4.199   6.793
 9955SOL    HW230765   4.521   4.125   6.752
 9956SOL     OW30766   0.356   5.172   4.176
 9956SOL    HW130767   0.289   5.159   4.103
 9956SOL    HW230768   0.441   5.208   4.138
 9957SOL     OW30769   6.075   0.109   1.370
 9957SOL    HW130770   6.095   0.082   1.276
 9957SOL    HW230771   5.977   0.105   1.386
 9958SOL     OW30772   2.969   5.948   0.261
 9958SOL    HW130773   2.873   5.973   0.278
 9958SOL    HW230774   3.000   5.993   0.177
 9959SOL     OW30775   4.123   3.604   3.495
 9959SOL    HW130776   4.093   3.610   3.400
 9959SOL    HW230777   4.220   3.579   3.498
 9960SOL     OW30778   0.571   0.101   2.683
 9960SOL    HW130779   0.621   0.036   2.741
 9960SOL    HW230780   0.570   0.067   2.588
 9961SOL     OW30781   1.153   5.116   4.461
 9961SOL    HW130782   1.071   5.173   4.469
 9961SOL    HW230783   1.226   5.168   4.418
 9962SOL     OW30784   4.769   0.666   2.668
 9962SOL    HW130785   4.786   0.572   2.697
 9962SOL    HW230786   4.824   0.728   2.724
 9963SOL     OW30787   2.361   2.394   6.291
 9963SOL    HW130788   2.443   2.373   6.344
 9963SOL    HW230789   2.385   2.455   6.215
 9964SOL     OW30790   4.255   4.224   5.989
 9964SOL    HW130791   4.164   4.209   5.950
 9964SOL    HW230792   4.322   4.228   5.915
 9965SOL     OW30793   4.266   5.036   5.393
 9965SOL    HW130794   4.168   5.018   5.406
 9965SOL    HW230795   4.286   5.046   5.295
 9966SOL     OW30796   2.675   5.486   2.238
 9966SOL    HW130797   2.749   5.440   2.190
 9966SOL    HW230798   2.593   5.428   2.236
 9967SOL     OW30799   5.786   5.715   1.506
 9967SOL    HW130800   5.688   5.734   1.499
 9967SOL    HW230801   5.831   5.790   1.554
 9968SOL     OW30802   3.290   4.968   5.861
 9968SOL    HW130803   3.359   5.027   5.817
 9968SOL    HW230804   3.267   4.892   5.799
 9969SOL     OW30805   1.046   2.457   4.150
 9969SOL    HW130806   1.143   2.479   4.147
 9969SOL    HW230807   0.992   2.541   4.136
 9970SOL     OW30808   6.253   4.359   2.117
 9970SOL    HW130809   6.301   4.406   2.191
 9970SOL    HW230810   6.155   4.374   2.127
 9971SOL     OW30811   2.496   4.275   0.322
 9971SOL    HW130812   2.467   4.179   0.328
 9971SOL    HW230813   2.442   4.330   0.384
 9972SOL     OW30814   3.637   4.626   0.311
 9972SOL    HW130815   3.587   4.541   0.295
 9972SOL    HW230816   3.612   4.693   0.241
 9973SOL     OW30817   4.415   2.070   4.926
 9973SOL    HW130818   4.499   2.083   4.979
 9973SOL    HW230819   4.438   2.031   4.837
 9974SOL     OW30820   5.801   3.056   3.687
 9974SOL    HW130821   5.859   3.069   3.607
 9974SOL    HW230822   5.859   3.036   3.767
 9975SOL     OW30823   7.015   4.527   0.425
 9975SOL    HW130824   7.023   4.574   0.513
 9975SOL    HW230825   6.937   4.464   0.428
 9976SOL     OW30826   7.009   5.195   5.789
 9976SOL    HW130827   0.062   5.209   5.732
 9976SOL    HW230828   7.026   5.119   5.852
 9977SOL     OW30829   6.804   5.052   6.119
 9977SOL    HW130830   6.712   5.042   6.157
 9977SOL    HW230831   6.799   5.045   6.019
 9978SOL     OW30832   6.223   1.942   3.319
 9978SOL    HW130833   6.184   1.958   3.409
 9978SOL    HW230834   6.188   1.856   3.282
 9979SOL     OW30835   6.430   4.894   6.030
 9979SOL    HW130836   6.449   4.986   5.996
 9979SOL    HW230837   6.376   4.900   6.114
 9980SOL     OW30838   1.487   1.357   7.017
 9980SOL    HW130839   1.388   1.360   7.000
 9980SOL    HW230840   1.512   1.430   0.052
 9981SOL     OW30841   2.440   1.767   1.172
 9981SOL    HW130842   2.526   1.745   1.124
 9981SOL    HW230843   2.405   1.685   1.217
 9982SOL     OW30844   0.740   1.085   3.292
 9982SOL    HW130845   0.758   1.037   3.378
 9982SOL    HW230846   0.780   1.177   3.296
 9983SOL     OW30847   1.401   1.956   1.878
 9983SOL    HW130848   1.466   2.007   1.934
 9983SOL    HW230849   1.314   1.949   1.926
 9984SOL     OW30850   1.000   7.006   0.486
 9984SOL    HW130851   0.937   0.045   0.524
 9984SOL    HW230852   1.068   6.981   0.554
 9985SOL     OW30853   2.615   0.770   1.801
 9985SOL    HW130854   2.712   0.760   1.823
 9985SOL    HW230855   2.584   0.862   1.828
 9986SOL     OW30856   5.349   4.100   6.732
 9986SOL    HW130857   5.299   4.041   6.669
 9986SOL    HW230858   5.433   4.133   6.688
 9987SOL     OW30859   5.337   1.505   2.845
 9987SOL    HW130860   5.431   1.533   2.826
 9987SOL    HW230861   5.331   1.405   2.844
 9988SOL     OW30862   0.233   5.246   5.262
 9988SOL    HW130863   0.198   5.181   5.194
 9988SOL    HW230864   0.330   5.229   5.278
 9989SOL     OW30865   5.331   3.759   2.974
 9989SOL    HW130866   5.400   3.829   2.956
 9989SOL    HW230867   5.335   3.733   3.071
 9990SOL     OW30868   2.609   6.854   3.051
 9990SOL    HW130869   2.695   6.901   3.034
 9990SOL    HW230870   2.534   6.903   3.005
 9991SOL     OW30871   1.468   3.300   5.163
 9991SOL    HW130872   1.512   3.386   5.188
 9991SOL    HW230873   1.500   3.272   5.072
 9992SOL     OW30874   4.863   3.621   0.694
 9992SOL    HW130875   4.843   3.530   0.732
 9992SOL    HW230876   4.925   3.611   0.616
 9993SOL     OW30877   4.304   0.264   2.540
 9993SOL    HW130878   4.275   0.314   2.621
 9993SOL    HW230879   4.374   0.316   2.492
 9994SOL     OW30880   0.083   3.591   4.138
 9994SOL    HW130881   7.014   3.596   4.162
 9994SOL    HW230882   0.132   3.666   4.181
 9995SOL     OW30883   3.188   6.915   2.993
 9995SOL    HW130884   3.174   6.816   2.990
 9995SOL    HW230885   3.262   6.940   2.930
 9996SOL     OW30886   2.724   2.624   1.101
 9996SOL    HW130887   2.748   2.527   1.100
 9996SOL    HW230888   2.760   2.666   1.185
 9997SOL     OW30889   4.041   2.378   1.138
 9997SOL    HW130890   4.026   2.385   1.039
 9997SOL    HW230891   3.954   2.389   1.186
 9998SOL     OW30892   6.902   3.868   2.282
 9998SOL    HW130893   6.920   3.941   2.216
 9998SOL    HW230894   6.970   3.873   2.356
 9999SOL     OW30895   6.462   4.602   4.928
 9999SOL    HW130896   6.417   4.561   4.850
 9999SOL    HW230897   6.483   4.698   4.908
10000SOL     OW30898   5.523   2.473   0.050
10000SOL    HW130899   5.573   2.531   7.014
10000SOL    HW230900   5.527   2.378   0.019
10001SOL     OW30901   4.785   1.298   1.893
10001SOL    HW130902   4.838   1.364   1.839
10001SOL    HW230903   4.848   1.232   1.935
10002SOL     OW30904   1.414   0.675   1.126
10002SOL    HW130905   1.348   0.604   1.100
10002SOL    HW230906   1.471   0.642   1.201
10003SOL     OW30907   4.345   1.694   3.660
10003SOL    HW130908   4.378   1.621   3.600
10003SOL    HW230909   4.258   1.667   3.702
10004SOL     OW30910   4.706   2.712   4.512
10004SOL    HW130911   4.660   2.727   4.600
10004SOL    HW230912   4.637   2.707   4.440
10005SOL     OW30913   4.745   6.227   3.411
10005SOL    HW130914   4.743   6.324   3.434
10005SOL    HW230915   4.796   6.177   3.481
10006SOL     OW30916   5.385   0.773   4.463
10006SOL    HW130917   5.447   0.701   4.492
10006SOL    HW230918   5.434   0.861   4.459
10007SOL     OW30919   0.677   4.346   4.953
10007SOL    HW130920   0.744   4.271   4.953
10007SOL    HW230921   0.597   4.319   4.900
10008SOL     OW30922   4.381   1.611   4.194
10008SOL    HW130923   4.455   1.623   4.260
10008SOL    HW230924   4.419   1.586   4.105
10009SOL     OW30925   2.087   3.968   1.693
10009SOL    HW130926   2.054   4.035   1.627
10009SOL    HW230927   2.137   3.896   1.645
10010SOL     OW30928   2.270   0.078   6.863
10010SOL    HW130929   2.185   0.043   6.823
10010SOL    HW230930   2.260   0.175   6.884
10011SOL     OW30931   6.474   2.499   4.824
10011SOL    HW130932   6.573   2.506   4.833
10011SOL    HW230933   6.429   2.544   4.901
10012SOL     OW30934   4.937   0.125   2.724
10012SOL    HW130935   4.908   0.039   2.682
10012SOL    HW230936   4.886   0.140   2.809
10013SOL     OW30937   1.832   1.616   4.341
10013SOL    HW130938   1.877   1.679   4.277
10013SOL    HW230939   1.850   1.645   4.435
10014SOL     OW30940   6.228   2.880   0.127
10014SOL    HW130941   6.136   2.895   0.091
10014SOL    HW230942   6.289   2.854   0.051
10015SOL     OW30943   2.938   4.354   0.439
10015SOL    HW130944   2.874   4.355   0.362
10015SOL    HW230945   2.994   4.271   0.434
10016SOL     OW30946   2.339   0.355   5.015
10016SOL    HW130947   2.291   0.333   5.100
10016SOL    HW230948   2.337   0.276   4.954
10017SOL     OW30949   2.103   2.590   2.370
10017SOL    HW130950   2.159   2.667   2.338
10017SOL    HW230951   2.066   2.612   2.461
10018SOL     OW30952   5.094   6.860   5.639
10018SOL    HW130953   5.159   6.806   5.586
10018SOL    HW230954   5.143   6.910   5.710
10019SOL     OW30955   1.424   1.901   2.873
10019SOL    HW130956   1.334   1.864   2.847
10019SOL    HW230957   1.491   1.876   2.804
10020SOL     OW30958   0.502   2.647   1.501
10020SOL    HW130959   0.451   2.658   1.586
10020SOL    HW230960   0.535   2.553   1.493
10021SOL     OW30961   0.470   3.019   1.558
10021SOL    HW130962   0.430   2.988   1.644
10021SOL    HW230963   0.560   2.976   1.546
10022SOL     OW30964   3.527   6.878   0.726
10022SOL    HW130965   3.569   6.792   0.756
10022SOL    HW230966   3.598   6.948   0.717
10023SOL     OW30967   1.804   5.177   6.054
10023SOL    HW130968   1.792   5.077   6.054
10023SOL    HW230969   1.738   5.218   6.117
10024SOL     OW30970   2.343   6.987   1.913
10024SOL    HW130971   2.355   6.898   1.868
10024SOL    HW230972   2.253   6.990   1.957
10025SOL     OW30973   1.248   0.970   1.830
10025SOL    HW130974   1.304   0.963   1.747
10025SOL    HW230975   1.161   1.014   1.807
10026SOL     OW30976   4.797   6.461   3.549
10026SOL    HW130977   4.773   6.463   3.646
10026SOL    HW230978   4.893   6.487   3.538
10027SOL     OW30979   0.597   4.003   4.946
10027SOL    HW130980   0.568   3.963   5.033
10027SOL    HW230981   0.685   3.964   4.919
10028SOL     OW30982   1.130   1.991   1.510
10028SOL    HW130983   1.120   2.087   1.536
10028SOL    HW230984   1.169   1.939   1.586
10029SOL     OW30985   3.442   1.919   3.646
10029SOL    HW130986   3.354   1.883   3.614
10029SOL    HW230987   3.426   1.975   3.728
10030SOL     OW30988   2.232   6.277   3.950
10030SOL    HW130989   2.189   6.237   4.031
10030SOL    HW230990   2.167   6.280   3.875
10031SOL     OW30991   5.736   5.137   3.800
10031SOL    HW130992   5.835   5.128   3.787
10031SOL    HW230993   5.694   5.170   3.715
10032SOL     OW30994   2.978   1.796   5.210
10032SOL    HW130995   3.041   1.857   5.258
10032SOL    HW230996   2.916   1.754   5.275
10033SOL     OW30997   4.635   2.198   3.977
10033SOL    HW130998   4.682   2.158   3.897
10033SOL    HW230999   4.703   2.223   4.046
10034SOL     OW31000   2.716   0.318   3.771
10034SOL    HW131001   2.779   0.315   3.694
10034SOL    HW231002   2.694   0.224   3.800
10035SOL     OW31003   6.662   4.687   1.919
10035SOL    HW131004   6.736   4.727   1.974
10035SOL    HW231005   6.581   4.745   1.925
10036SOL     OW31006   5.705   1.765   1.147
10036SOL    HW131007   5.686   1.753   1.050
10036SOL    HW231008   5.736   1.858   1.164
10037SOL     OW31009   5.967   1.012   1.309
10037SOL    HW131010   5.881   1.062   1.319
10037SOL    HW231011   5.964   0.928   1.363
10038SOL     OW31012   4.495   0.915   0.104
10038SOL    HW131013   4.428   0.901   0.178
10038SOL    HW231014   4.552   0.833   0.095
10039SOL     OW31015   3.566   0.301   3.653
10039SOL    HW131016   3.530   0.286   3.745
10039SOL    HW231017   3.507   0.257   3.586
10040SOL     OW31018   4.382   5.635   6.471
10040SOL    HW131019   4.375   5.711   6.536
10040SOL    HW231020   4.478   5.609   6.460
10041SOL     OW31021   4.036   6.143   6.535
10041SOL    HW131022   4.109   6.092   6.489
10041SOL    HW231023   3.968   6.173   6.468
10042SOL     OW31024   1.522   1.794   4.706
10042SOL    HW131025   1.591   1.862   4.681
10042SOL    HW231026   1.481   1.755   4.624
10043SOL     OW31027   6.791   1.849   5.015
10043SOL    HW131028   6.796   1.877   4.919
10043SOL    HW231029   6.870   1.886   5.064
10044SOL     OW31030   2.593   1.587   5.128
10044SOL    HW131031   2.605   1.651   5.053
10044SOL    HW231032   2.634   1.499   5.103
10045SOL     OW31033   3.654   0.701   3.099
10045SOL    HW131034   3.753   0.712   3.107
10045SOL    HW231035   3.630   0.605   3.109
10046SOL     OW31036   2.067   4.082   0.692
10046SOL    HW131037   2.058   4.107   0.788
10046SOL    HW231038   2.162   4.095   0.662
10047SOL     OW31039   1.171   3.535   4.492
10047SOL    HW131040   1.200   3.562   4.400
10047SOL    HW231041   1.183   3.437   4.503
10048SOL     OW31042   6.393   0.628   2.704
10048SOL    HW131043   6.360   0.678   2.624
10048SOL    HW231044   6.467   0.679   2.748
10049SOL     OW31045   1.033   1.911   6.289
10049SOL    HW131046   1.122   1.870   6.266
10049SOL    HW231047   0.961   1.844   6.272
10050SOL     OW31048   5.483   3.590   4.801
10050SOL    HW131049   5.571   3.547   4.783
10050SOL    HW231050   5.432   3.535   4.866
10051SOL     OW31051   6.273   3.890   5.535
10051SOL    HW131052   6.372   3.897   5.523
10051SOL    HW231053   6.240   3.804   5.496
10052SOL     OW31054   2.141   1.413   2.795
10052SOL    HW131055   2.228   1.376   2.830
10052SOL    HW231056   2.129   1.507   2.827
10053SOL     OW31057   4.002   5.398   3.152
10053SOL    HW131058   4.062   5.456   3.097
10053SOL    HW231059   3.954   5.454   3.219
10054SOL     OW31060   5.357   6.357   6.380
10054SOL    HW131061   5.430   6.328   6.442
10054SOL    HW231062   5.392   6.361   6.287
10055SOL     OW31063   6.316   1.357   4.942
10055SOL    HW131064   6.347   1.265   4.918
10055SOL    HW231065   6.293   1.360   5.039
10056SOL     OW31066   5.300   4.441   2.820
10056SOL    HW131067   5.343   4.351   2.814
10056SOL    HW231068   5.226   4.447   2.753
10057SOL     OW31069   4.105   2.448   5.622
10057SOL    HW131070   4.183   2.391   5.647
10057SOL    HW231071   4.092   2.446   5.523
10058SOL     OW31072   6.296   3.680   5.122
10058SOL    HW131073   6.237   3.746   5.169
10058SOL    HW231074   6.302   3.704   5.025
10059SOL     OW31075   0.219   1.524   6.859
10059SOL    HW131076   0.182   1.431   6.850
10059SOL    HW231077   0.262   1.535   6.948
10060SOL     OW31078   2.286   2.779   2.255
10060SOL    HW131079   2.373   2.751   2.216
10060SOL    HW231080   2.275   2.878   2.246
10061SOL     OW31081   4.920   1.814   3.930
10061SOL    HW131082   4.840   1.826   3.989
10061SOL    HW231083   4.963   1.903   3.913
10062SOL     OW31084   5.681   0.195   3.732
10062SOL    HW131085   5.605   0.251   3.766
10062SOL    HW231086   5.765   0.249   3.734
10063SOL     OW31087   2.670   1.269   4.529
10063SOL    HW131088   2.761   1.277   4.569
10063SOL    HW231089   2.629   1.360   4.522
10064SOL     OW31090   5.030   6.411   0.394
10064SOL    HW131091   4.992   6.386   0.305
10064SOL    HW231092   5.028   6.511   0.404
10065SOL     OW31093   2.598   0.540   2.970
10065SOL    HW131094   2.555   0.630   2.972
10065SOL    HW231095   2.696   0.549   2.987
10066SOL     OW31096   0.658   2.425   4.611
10066SOL    HW131097   0.602   2.464   4.685
10066SOL    HW231098   0.681   2.330   4.633
10067SOL     OW31099   0.611   3.292   5.400
10067SOL    HW131100   0.556   3.279   5.317
10067SOL    HW231101   0.602   3.387   5.431
10068SOL     OW31102   0.762   3.456   3.536
10068SOL    HW131103   0.823   3.400   3.481
10068SOL    HW231104   0.815   3.512   3.600
10069SOL     OW31105   3.292   4.971   1.455
10069SOL    HW131106   3.286   5.021   1.542
10069SOL    HW231107   3.387   4.947   1.437
10070SOL     OW31108   0.046   6.075   5.182
10070SOL    HW131109   0.081   6.167   5.199
10070SOL    HW231110   6.976   6.074   5.198
10071SOL     OW31111   6.782   6.021   4.319
10071SOL    HW131112   6.875   6.009   4.284
10071SOL    HW231113   6.755   5.940   4.371
10072SOL     OW31114   0.302   0.284   4.301
10072SOL    HW131115   0.334   0.239   4.217
10072SOL    HW231116   0.366   0.356   4.327
10073SOL     OW31117   6.955   3.967   4.164
10073SOL    HW131118   6.985   3.977   4.259
10073SOL    HW231119   6.864   3.926   4.162
10074SOL     OW31120   1.940   0.235   6.440
10074SOL    HW131121   1.876   0.180   6.386
10074SOL    HW231122   2.032   0.227   6.401
10075SOL     OW31123   1.779   2.463   1.901
10075SOL    HW131124   1.865   2.479   1.950
10075SOL    HW231125   1.795   2.472   1.803
10076SOL     OW31126   5.816   6.311   3.096
10076SOL    HW131127   5.847   6.225   3.138
10076SOL    HW231128   5.811   6.300   2.997
10077SOL     OW31129   4.376   3.650   0.555
10077SOL    HW131130   4.383   3.571   0.493
10077SOL    HW231131   4.326   3.723   0.509
10078SOL     OW31132   6.308   6.095   4.460
10078SOL    HW131133   6.255   6.038   4.397
10078SOL    HW231134   6.246   6.143   4.521
10079SOL     OW31135   5.899   3.489   3.304
10079SOL    HW131136   5.999   3.479   3.300
10079SOL    HW231137   5.857   3.430   3.236
10080SOL     OW31138   5.227   1.295   6.150
10080SOL    HW131139   5.248   1.198   6.139
10080SOL    HW231140   5.175   1.308   6.235
10081SOL     OW31141   0.649   1.552   0.094
10081SOL    HW131142   0.624   1.509   0.008
10081SOL    HW231143   0.660   1.651   0.081
10082SOL     OW31144   0.756   5.274   1.937
10082SOL    HW131145   0.662   5.242   1.929
10082SOL    HW231146   0.816   5.215   1.882
10083SOL     OW31147   3.792   0.052   3.808
10083SOL    HW131148   3.779   0.108   3.890
10083SOL    HW231149   3.704   0.043   3.761
10084SOL     OW31150   1.046   0.388   5.694
10084SOL    HW131151   0.965   0.419   5.745
10084SOL    HW231152   1.063   0.449   5.617
10085SOL     OW31153   3.612   0.347   0.919
10085SOL    HW131154   3.524   0.329   0.963
10085SOL    HW231155   3.685   0.343   0.987
10086SOL     OW31156   5.814   5.648   3.178
10086SOL    HW131157   5.869   5.687   3.252
10086SOL    HW231158   5.873   5.619   3.103
10087SOL     OW31159   6.265   5.849   4.083
10087SOL    HW131160   6.245   5.752   4.072
10087SOL    HW231161   6.363   5.864   4.087
10088SOL     OW31162   0.088   0.208   2.319
10088SOL    HW131163   7.016   0.220   2.317
10088SOL    HW231164   0.113   0.151   2.397
10089SOL     OW31165   2.747   2.301   3.477
10089SOL    HW131166   2.840   2.271   3.456
10089SOL    HW231167   2.691   2.221   3.500
10090SOL     OW31168   0.242   5.095   1.883
10090SOL    HW131169   0.216   5.040   1.804
10090SOL    HW231170   0.191   5.181   1.883
10091SOL     OW31171   6.381   5.821   6.564
10091SOL    HW131172   6.444   5.861   6.497
10091SOL    HW231173   6.294   5.800   6.519
10092SOL     OW31174   1.912   2.705   6.494
10092SOL    HW131175   1.998   2.681   6.448
10092SOL    HW231176   1.930   2.773   6.565
10093SOL     OW31177   4.731   3.401   5.357
10093SOL    HW131178   4.711   3.459   5.436
10093SOL    HW231179   4.694   3.445   5.274
10094SOL     OW31180   2.652   6.405   1.512
10094SOL    HW131181   2.564   6.411   1.464
10094SOL    HW231182   2.717   6.354   1.456
10095SOL     OW31183   5.277   1.591   4.355
10095SOL    HW131184   5.335   1.670   4.338
10095SOL    HW231185   5.316   1.510   4.310
10096SOL     OW31186   4.778   6.549   2.822
10096SOL    HW131187   4.764   6.453   2.798
10096SOL    HW231188   4.702   6.604   2.787
10097SOL     OW31189   1.434   2.067   6.891
10097SOL    HW131190   1.360   2.130   6.866
10097SOL    HW231191   1.439   2.060   6.990
10098SOL     OW31192   2.872   6.716   4.923
10098SOL    HW131193   2.929   6.789   4.959
10098SOL    HW231194   2.778   6.726   4.957
10099SOL     OW31195   0.418   4.858   1.242
10099SOL    HW131196   0.417   4.758   1.236
10099SOL    HW231197   0.385   4.887   1.332
10100SOL     OW31198   5.276   5.899   5.784
10100SOL    HW131199   5.285   5.844   5.701
10100SOL    HW231200   5.363   5.942   5.805
10101SOL     OW31201   0.002   3.052   1.735
10101SOL    HW131202   0.080   3.093   1.781
10101SOL    HW231203   6.989   3.118   1.672
10102SOL     OW31204   6.478   0.946   1.437
10102SOL    HW131205   6.571   0.967   1.408
10102SOL    HW231206   6.413   0.982   1.369
10103SOL     OW31207   2.501   0.238   5.469
10103SOL    HW131208   2.504   0.335   5.495
10103SOL    HW231209   2.564   0.222   5.394
10104SOL     OW31210   1.523   1.998   5.477
10104SOL    HW131211   1.424   1.991   5.488
10104SOL    HW231212   1.569   1.951   5.553
10105SOL     OW31213   2.248   0.647   6.157
10105SOL    HW131214   2.175   0.709   6.187
10105SOL    HW231215   2.260   0.656   6.058
10106SOL     OW31216   3.954   6.434   0.643
10106SOL    HW131217   3.894   6.477   0.576
10106SOL    HW231218   3.910   6.353   0.682
10107SOL     OW31219   5.100   1.494   6.316
10107SOL    HW131220   5.109   1.485   6.415
10107SOL    HW231221   5.170   1.556   6.282
10108SOL     OW31222   0.072   1.748   6.841
10108SOL    HW131223   0.021   1.774   6.923
10108SOL    HW231224   0.079   1.648   6.837
10109SOL     OW31225   0.552   1.170   0.974
10109SOL    HW131226   0.456   1.173   1.003
10109SOL    HW231227   0.566   1.236   0.901
10110SOL     OW31228   4.756   4.515   3.924
10110SOL    HW131229   4.794   4.505   4.017
10110SOL    HW231230   4.820   4.475   3.858
10111SOL     OW31231   6.927   3.593   3.620
10111SOL    HW131232   6.829   3.588   3.638
10111SOL    HW231233   6.977   3.565   3.703
10112SOL     OW31234   6.162   3.564   2.710
10112SOL    HW131235   6.232   3.632   2.729
10112SOL    HW231236   6.157   3.547   2.612
10113SOL     OW31237   4.656   0.348   0.909
10113SOL    HW131238   4.633   0.310   0.819
10113SOL    HW231239   4.745   0.313   0.938
10114SOL     OW31240   4.334   2.044   2.529
10114SOL    HW131241   4.265   1.972   2.530
10114SOL    HW231242   4.316   2.108   2.455
10115SOL     OW31243   4.226   2.045   5.141
10115SOL    HW131244   4.238   2.072   5.046
10115SOL    HW231245   4.142   2.085   5.177
10116SOL     OW31246   0.410   6.439   6.868
10116SOL    HW131247   0.371   6.433   6.776
10116SOL    HW231248   0.473   6.516   6.872
10117SOL     OW31249   7.010   6.487   5.739
10117SOL    HW131250   6.970   6.449   5.656
10117SOL    HW231251   0.071   6.444   5.756
10118SOL     OW31252   2.446   4.620   3.651
10118SOL    HW131253   2.428   4.664   3.738
10118SOL    HW231254   2.505   4.540   3.666
10119SOL     OW31255   6.438   4.779   3.895
10119SOL    HW131256   6.492   4.855   3.932
10119SOL    HW231257   6.352   4.772   3.944
10120SOL     OW31258   1.741   3.464   4.124
10120SOL    HW131259   1.791   3.425   4.201
10120SOL    HW231260   1.807   3.502   4.059
10121SOL     OW31261   5.744   3.428   6.834
10121SOL    HW131262   5.679   3.456   6.762
10121SOL    HW231263   5.712   3.343   6.875
10122SOL     OW31264   5.181   1.960   3.661
10122SOL    HW131265   5.095   1.909   3.658
10122SOL    HW231266   5.242   1.928   3.589
10123SOL     OW31267   5.805   6.408   0.908
10123SOL    HW131268   5.803   6.317   0.950
10123SOL    HW231269   5.720   6.423   0.858
10124SOL     OW31270   1.271   5.146   0.554
10124SOL    HW131271   1.309   5.239   0.555
10124SOL    HW231272   1.171   5.151   0.558
10125SOL     OW31273   2.375   0.957   0.885
10125SOL    HW131274   2.448   0.943   0.952
10125SOL    HW231275   2.292   0.987   0.932
10126SOL     OW31276   7.012   0.168   6.522
10126SOL    HW131277   6.941   0.162   6.452
10126SOL    HW231278   7.011   0.259   6.563
10127SOL     OW31279   2.073   3.560   0.639
10127SOL    HW131280   2.055   3.462   0.626
10127SOL    HW231281   2.023   3.592   0.720
10128SOL     OW31282   3.078   1.119   5.693
10128SOL    HW131283   2.998   1.099   5.751
10128SOL    HW231284   3.050   1.176   5.616
10129SOL     OW31285   6.805   1.713   2.305
10129SOL    HW131286   6.755   1.636   2.267
10129SOL    HW231287   6.898   1.715   2.269
10130SOL     OW31288   0.397   3.192   1.845
10130SOL    HW131289   0.362   3.098   1.853
10130SOL    HW231290   0.343   3.252   1.904
10131SOL     OW31291   1.672   0.176   4.102
10131SOL    HW131292   1.623   0.090   4.114
10131SOL    HW231293   1.749   0.180   4.165
10132SOL     OW31294   1.478   0.603   3.039
10132SOL    HW131295   1.530   0.684   3.014
10132SOL    HW231296   1.533   0.521   3.024
10133SOL     OW31297   4.483   6.455   0.652
10133SOL    HW131298   4.484   6.553   0.629
10133SOL    HW231299   4.483   6.445   0.752
10134SOL     OW31300   5.431   0.938   2.983
10134SOL    HW131301   5.420   0.909   3.078
10134SOL    HW231302   5.407   0.862   2.922
10135SOL     OW31303   4.857   2.494   3.970
10135SOL    HW131304   4.887   2.417   3.914
10135SOL    HW231305   4.933   2.558   3.981
10136SOL     OW31306   5.215   1.602   2.223
10136SOL    HW131307   5.177   1.671   2.162
10136SOL    HW231308   5.166   1.604   2.310
10137SOL     OW31309   0.433   4.565   5.339
10137SOL    HW131310   0.422   4.565   5.239
10137SOL    HW231311   0.416   4.473   5.374
10138SOL     OW31312   5.801   3.123   0.205
10138SOL    HW131313   5.727   3.096   0.267
10138SOL    HW231314   5.878   3.157   0.259
10139SOL     OW31315   3.360   4.035   4.702
10139SOL    HW131316   3.431   4.049   4.770
10139SOL    HW231317   3.275   4.010   4.747
10140SOL     OW31318   7.026   6.622   6.444
10140SOL    HW131319   0.003   6.556   6.519
10140SOL    HW231320   6.974   6.702   6.473
10141SOL     OW31321   4.692   1.095   4.916
10141SOL    HW131322   4.685   1.073   5.013
10141SOL    HW231323   4.762   1.165   4.902
10142SOL     OW31324   5.921   6.576   5.921
10142SOL    HW131325   5.871   6.515   5.860
10142SOL    HW231326   5.983   6.633   5.868
10143SOL     OW31327   5.559   2.729   0.496
10143SOL    HW131328   5.501   2.676   0.433
10143SOL    HW231329   5.611   2.797   0.445
10144SOL     OW31330   4.944   6.089   5.342
10144SOL    HW131331   4.913   6.016   5.403
10144SOL    HW231332   4.866   6.130   5.295
10145SOL     OW31333   3.835   5.368   2.910
10145SOL    HW131334   3.778   5.288   2.927
10145SOL    HW231335   3.904   5.375   2.983
10146SOL     OW31336   6.791   3.646   4.699
10146SOL    HW131337   6.738   3.684   4.774
10146SOL    HW231338   6.746   3.666   4.612
10147SOL     OW31339   5.215   3.919   6.914
10147SOL    HW131340   5.189   3.837   6.862
10147SOL    HW231341   5.253   3.987   6.852
10148SOL     OW31342   5.853   4.158   0.578
10148SOL    HW131343   5.826   4.077   0.630
10148SOL    HW231344   5.790   4.171   0.501
10149SOL     OW31345   5.204   4.428   1.291
10149SOL    HW131346   5.165   4.516   1.318
10149SOL    HW231347   5.297   4.420   1.327
10150SOL     OW31348   4.397   3.261   1.593
10150SOL    HW131349   4.340   3.343   1.604
10150SOL    HW231350   4.493   3.287   1.598
10151SOL     OW31351   1.185   0.226   6.777
10151SOL    HW131352   1.160   0.275   6.694
10151SOL    HW231353   1.104   0.216   6.835
10152SOL     OW31354   6.581   5.714   3.721
10152SOL    HW131355   6.651   5.642   3.724
10152SOL    HW231356   6.596   5.778   3.796
10153SOL     OW31357   4.825   5.727   4.226
10153SOL    HW131358   4.877   5.646   4.253
10153SOL    HW231359   4.732   5.700   4.201
10154SOL     OW31360   3.857   6.292   5.405
10154SOL    HW131361   3.783   6.226   5.394
10154SOL    HW231362   3.832   6.359   5.475
10155SOL     OW31363   4.968   2.773   5.416
10155SOL    HW131364   4.979   2.674   5.427
10155SOL    HW231365   5.056   2.813   5.389
10156SOL     OW31366   5.598   0.571   1.666
10156SOL    HW131367   5.690   0.567   1.627
10156SOL    HW231368   5.544   0.494   1.633
10157SOL     OW31369   6.914   2.578   0.488
10157SOL    HW131370   6.978   2.507   0.459
10157SOL    HW231371   6.965   2.660   0.516
10158SOL     OW31372   6.382   6.468   1.367
10158SOL    HW131373   6.356   6.509   1.279
10158SOL    HW231374   6.443   6.531   1.416
10159SOL     OW31375   3.822   3.295   2.503
10159SOL    HW131376   3.921   3.300   2.517
10159SOL    HW231377   3.790   3.203   2.523
10160SOL     OW31378   1.696   4.094   3.125
10160SOL    HW131379   1.755   4.112   3.204
10160SOL    HW231380   1.696   3.995   3.106
10161SOL     OW31381   3.458   4.872   6.613
10161SOL    HW131382   3.358   4.862   6.621
10161SOL    HW231383   3.496   4.890   6.704
10162SOL     OW31384   2.457   4.629   0.539
10162SOL    HW131385   2.536   4.637   0.599
10162SOL    HW231386   2.412   4.718   0.530
10163SOL     OW31387   0.404   5.200   6.412
10163SOL    HW131388   0.399   5.247   6.501
10163SOL    HW231389   0.369   5.107   6.422
10164SOL     OW31390   5.732   3.534   4.734
10164SOL    HW131391   5.787   3.603   4.782
10164SOL    HW231392   5.787   3.451   4.722
10165SOL     OW31393   6.654   2.390   3.383
10165SOL    HW131394   6.741   2.435   3.365
10165SOL    HW231395   6.670   2.301   3.426
10166SOL     OW31396   1.389   1.816   1.644
10166SOL    HW131397   1.445   1.856   1.572
10166SOL    HW231398   1.393   1.874   1.725
10167SOL     OW31399   6.704   5.888   6.816
10167SOL    HW131400   6.663   5.972   6.780
10167SOL    HW231401   6.765   5.848   6.747
10168SOL     OW31402   6.633   1.956   6.090
10168SOL    HW131403   6.582   1.941   6.174
10168SOL    HW231404   6.586   2.025   6.034
10169SOL     OW31405   6.397   3.965   2.975
10169SOL    HW131406   6.475   3.902   2.980
10169SOL    HW231407   6.428   4.059   2.987
10170SOL     OW31408   6.481   5.898   6.327
10170SOL    HW131409   6.466   5.809   6.286
10170SOL    HW231410   6.465   5.970   6.259
10171SOL     OW31411   0.499   2.470   3.955
10171SOL    HW131412   0.404   2.442   3.941
10171SOL    HW231413   0.508   2.516   4.043
10172SOL     OW31414   0.438   6.831   4.635
10172SOL    HW131415   0.451   6.740   4.673
10172SOL    HW231416   0.341   6.853   4.632
10173SOL     OW31417   2.057   3.540   6.531
10173SOL    HW131418   2.119   3.542   6.453
10173SOL    HW231419   2.099   3.587   6.608
10174SOL     OW31420   4.627   4.366   3.490
10174SOL    HW131421   4.723   4.360   3.464
10174SOL    HW231422   4.614   4.442   3.554
10175SOL     OW31423   6.136   1.663   3.804
10175SOL    HW131424   6.042   1.668   3.838
10175SOL    HW231425   6.155   1.571   3.773
10176SOL     OW31426   6.217   2.887   5.411
10176SOL    HW131427   6.206   2.966   5.471
10176SOL    HW231428   6.308   2.888   5.370
10177SOL     OW31429   1.704   0.154   0.875
10177SOL    HW131430   1.713   0.106   0.963
10177SOL    HW231431   1.705   0.087   0.801
10178SOL     OW31432   1.468   0.995   0.512
10178SOL    HW131433   1.556   0.963   0.477
10178SOL    HW231434   1.455   1.091   0.487
10179SOL     OW31435   0.225   3.496   6.410
10179SOL    HW131436   0.309   3.487   6.464
10179SOL    HW231437   0.149   3.521   6.470
10180SOL     OW31438   4.842   0.572   0.898
10180SOL    HW131439   4.893   0.602   0.978
10180SOL    HW231440   4.759   0.525   0.927
10181SOL     OW31441   0.495   3.002   1.241
10181SOL    HW131442   0.427   3.035   1.306
10181SOL    HW231443   0.559   2.942   1.289
10182SOL     OW31444   4.832   1.679   0.033
10182SOL    HW131445   4.871   1.590   0.009
10182SOL    HW231446   4.878   1.713   0.115
10183SOL     OW31447   5.994   2.871   6.012
10183SOL    HW131448   5.928   2.905   6.079
10183SOL    HW231449   5.962   2.891   5.920
10184SOL     OW31450   4.982   2.628   0.048
10184SOL    HW131451   5.005   2.662   6.984
10184SOL    HW231452   5.039   2.674   0.115
10185SOL     OW31453   6.086   5.862   2.239
10185SOL    HW131454   6.048   5.779   2.282
10185SOL    HW231455   6.121   5.840   2.148
10186SOL     OW31456   4.941   3.533   4.800
10186SOL    HW131457   4.903   3.582   4.878
10186SOL    HW231458   4.933   3.434   4.815
10187SOL     OW31459   1.570   4.076   5.386
10187SOL    HW131460   1.495   4.096   5.322
10187SOL    HW231461   1.639   4.148   5.380
10188SOL     OW31462   2.788   4.902   6.691
10188SOL    HW131463   2.847   4.979   6.669
10188SOL    HW231464   2.798   4.879   6.788
10189SOL     OW31465   1.171   0.638   5.962
10189SOL    HW131466   1.175   0.553   5.910
10189SOL    HW231467   1.171   0.618   6.060
10190SOL     OW31468   4.231   3.216   1.841
10190SOL    HW131469   4.302   3.216   1.771
10190SOL    HW231470   4.266   3.261   1.923
10191SOL     OW31471   5.246   5.413   0.610
10191SOL    HW131472   5.208   5.411   0.518
10191SOL    HW231473   5.344   5.396   0.606
10192SOL     OW31474   3.308   1.879   5.150
10192SOL    HW131475   3.227   1.911   5.200
10192SOL    HW231476   3.377   1.847   5.215
10193SOL     OW31477   3.000   3.774   2.366
10193SOL    HW131478   2.988   3.830   2.448
10193SOL    HW231479   3.010   3.834   2.286
10194SOL     OW31480   4.741   0.636   4.250
10194SOL    HW131481   4.678   0.560   4.238
10194SOL    HW231482   4.691   0.716   4.283
10195SOL     OW31483   6.849   0.560   1.887
10195SOL    HW131484   6.922   0.494   1.868
10195SOL    HW231485   6.857   0.593   1.981
10196SOL     OW31486   4.909   2.078   3.423
10196SOL    HW131487   4.901   2.039   3.331
10196SOL    HW231488   4.911   2.004   3.490
10197SOL     OW31489   4.661   1.650   4.325
10197SOL    HW131490   4.725   1.680   4.396
10197SOL    HW231491   4.671   1.552   4.309
10198SOL     OW31492   3.872   6.809   0.889
10198SOL    HW131493   3.939   6.737   0.869
10198SOL    HW231494   3.919   6.896   0.902
10199SOL     OW31495   0.717   2.177   6.801
10199SOL    HW131496   0.641   2.132   6.848
10199SOL    HW231497   0.755   2.248   6.860
10200SOL     OW31498   5.054   3.740   5.443
10200SOL    HW131499   4.969   3.769   5.399
10200SOL    HW231500   5.057   3.640   5.450
10201SOL     OW31501   0.350   5.958   1.200
10201SOL    HW131502   0.336   5.894   1.275
10201SOL    HW231503   0.394   6.041   1.235
10202SOL     OW31504   0.998   4.249   0.253
10202SOL    HW131505   1.062   4.250   0.175
10202SOL    HW231506   0.976   4.342   0.278
10203SOL     OW31507   1.267   2.910   1.849
10203SOL    HW131508   1.187   2.850   1.854
10203SOL    HW231509   1.348   2.855   1.829
10204SOL     OW31510   3.272   5.669   6.066
10204SOL    HW131511   3.224   5.581   6.066
10204SOL    HW231512   3.233   5.728   5.996
10205SOL     OW31513   3.283   1.231   2.180
10205SOL    HW131514   3.228   1.201   2.102
10205SOL    HW231515   3.310   1.151   2.234
10206SOL     OW31516   5.112   6.632   6.155
10206SOL    HW131517   5.083   6.541   6.184
10206SOL    HW231518   5.115   6.693   6.234
10207SOL     OW31519   2.324   1.299   0.520
10207SOL    HW131520   2.395   1.368   0.533
10207SOL    HW231521   2.335   1.227   0.589
10208SOL     OW31522   6.203   4.761   4.003
10208SOL    HW131523   6.181   4.664   3.998
10208SOL    HW231524   6.118   4.814   4.000
10209SOL     OW31525   0.334   0.616   5.541
10209SOL    HW131526   0.266   0.578   5.477
10209SOL    HW231527   0.423   0.622   5.496
10210SOL     OW31528   5.154   0.082   1.684
10210SOL    HW131529   5.070   0.075   1.738
10210SOL    HW231530   5.188   0.176   1.688
10211SOL     OW31531   4.136   6.630   5.244
10211SOL    HW131532   4.090   6.709   5.202
10211SOL    HW231533   4.228   6.656   5.271
10212SOL     OW31534   0.411   0.858   4.695
10212SOL    HW131535   0.480   0.883   4.627
10212SOL    HW231536   0.322   0.895   4.667
10213SOL     OW31537   5.671   2.606   2.425
10213SOL    HW131538   5.678   2.569   2.332
10213SOL    HW231539   5.589   2.570   2.469
10214SOL     OW31540   1.251   2.058   2.269
10214SOL    HW131541   1.273   1.964   2.243
10214SOL    HW231542   1.288   2.121   2.200
10215SOL     OW31543   3.621   2.891   3.782
10215SOL    HW131544   3.522   2.877   3.771
10215SOL    HW231545   3.637   2.963   3.850
10216SOL     OW31546   0.743   0.323   1.008
10216SOL    HW131547   0.765   0.420   0.999
10216SOL    HW231548   0.802   0.269   0.949
10217SOL     OW31549   2.774   1.672   3.498
10217SOL    HW131550   2.683   1.668   3.457
10217SOL    HW231551   2.794   1.766   3.525
10218SOL     OW31552   1.884   0.586   1.875
10218SOL    HW131553   1.830   0.530   1.937
10218SOL    HW231554   1.872   0.553   1.781
10219SOL     OW31555   0.309   3.399   2.046
10219SOL    HW131556   0.404   3.424   2.063
10219SOL    HW231557   0.248   3.468   2.087
10220SOL     OW31558   4.454   1.624   1.944
10220SOL    HW131559   4.463   1.647   1.847
10220SOL    HW231560   4.367   1.576   1.958
10221SOL     OW31561   1.678   2.818   4.135
10221SOL    HW131562   1.614   2.762   4.186
10221SOL    HW231563   1.645   2.913   4.132
10222SOL     OW31564   2.569   3.387   6.208
10222SOL    HW131565   2.544   3.483   6.191
10222SOL    HW231566   2.643   3.361   6.147
10223SOL     OW31567   1.671   5.859   6.694
10223SOL    HW131568   1.637   5.921   6.766
10223SOL    HW231569   1.594   5.823   6.643
10224SOL     OW31570   7.021   1.802   5.169
10224SOL    HW131571   0.015   1.846   5.255
10224SOL    HW231572   7.026   1.702   5.180
10225SOL     OW31573   2.081   6.217   6.153
10225SOL    HW131574   2.058   6.311   6.130
10225SOL    HW231575   2.161   6.216   6.213
10226SOL     OW31576   2.539   0.111   6.843
10226SOL    HW131577   2.550   0.194   6.789
10226SOL    HW231578   2.442   0.088   6.850
10227SOL     OW31579   4.912   5.005   1.069
10227SOL    HW131580   5.006   4.976   1.053
10227SOL    HW231581   4.863   4.935   1.121
10228SOL     OW31582   0.777   5.440   2.149
10228SOL    HW131583   0.863   5.490   2.153
10228SOL    HW231584   0.783   5.368   2.080
10229SOL     OW31585   0.530   1.747   3.756
10229SOL    HW131586   0.503   1.843   3.747
10229SOL    HW231587   0.620   1.735   3.712
10230SOL     OW31588   6.316   6.312   3.113
10230SOL    HW131589   6.237   6.370   3.135
10230SOL    HW231590   6.387   6.369   3.071
10231SOL     OW31591   6.291   5.468   5.426
10231SOL    HW131592   6.308   5.373   5.403
10231SOL    HW231593   6.236   5.510   5.354
10232SOL     OW31594   2.786   0.605   4.327
10232SOL    HW131595   2.718   0.532   4.323
10232SOL    HW231596   2.832   0.602   4.416
10233SOL     OW31597   4.835   3.800   5.288
10233SOL    HW131598   4.812   3.733   5.217
10233SOL    HW231599   4.861   3.887   5.245
10234SOL     OW31600   5.202   1.385   0.367
10234SOL    HW131601   5.273   1.408   0.300
10234SOL    HW231602   5.112   1.400   0.327
10235SOL     OW31603   4.563   2.521   0.081
10235SOL    HW131604   4.643   2.542   0.138
10235SOL    HW231605   4.498   2.467   0.134
10236SOL     OW31606   2.499   0.019   2.195
10236SOL    HW131607   2.492   0.116   2.175
10236SOL    HW231608   2.450   6.995   2.125
10237SOL     OW31609   6.259   4.287   0.686
10237SOL    HW131610   6.232   4.224   0.613
10237SOL    HW231611   6.354   4.268   0.712
10238SOL     OW31612   3.195   4.018   3.483
10238SOL    HW131613   3.249   4.010   3.399
10238SOL    HW231614   3.228   4.096   3.537
10239SOL     OW31615   1.335   4.107   5.259
10239SOL    HW131616   1.319   4.198   5.223
10239SOL    HW231617   1.371   4.048   5.186
10240SOL     OW31618   2.134   4.953   3.169
10240SOL    HW131619   2.213   4.935   3.228
10240SOL    HW231620   2.165   4.963   3.075
10241SOL     OW31621   6.659   0.505   2.289
10241SOL    HW131622   6.722   0.432   2.262
10241SOL    HW231623   6.620   0.547   2.207
10242SOL     OW31624   6.719   0.950   6.810
10242SOL    HW131625   6.813   0.954   6.843
10242SOL    HW231626   6.713   0.882   6.737
10243SOL     OW31627   0.964   5.285   1.401
10243SOL    HW131628   0.987   5.284   1.303
10243SOL    HW231629   0.866   5.268   1.412
10244SOL     OW31630   0.940   4.648   0.233
10244SOL    HW131631   0.951   4.624   0.329
10244SOL    HW231632   0.951   4.747   0.221
10245SOL     OW31633   2.842   4.664   6.536
10245SOL    HW131634   2.917   4.702   6.482
10245SOL    HW231635   2.816   4.729   6.608
10246SOL     OW31636   3.091   4.017   3.844
10246SOL    HW131637   3.036   3.962   3.781
10246SOL    HW231638   3.056   4.006   3.937
10247SOL     OW31639   0.196   5.490   5.368
10247SOL    HW131640   0.217   5.400   5.331
10247SOL    HW231641   0.097   5.499   5.379
10248SOL     OW31642   3.545   6.828   2.358
10248SOL    HW131643   3.449   6.845   2.334
10248SOL    HW231644   3.599   6.815   2.275
10249SOL     OW31645   3.413   1.528   6.001
10249SOL    HW131646   3.426   1.442   6.049
10249SOL    HW231647   3.371   1.511   5.912
10250SOL     OW31648   6.782   2.725   1.127
10250SOL    HW131649   6.804   2.814   1.087
10250SOL    HW231650   6.702   2.687   1.082
10251SOL     OW31651   2.460   2.315   5.429
10251SOL    HW131652   2.494   2.378   5.359
10251SOL    HW231653   2.527   2.308   5.503
10252SOL     OW31654   5.267   5.433   6.912
10252SOL    HW131655   5.287   5.410   6.817
10252SOL    HW231656   5.352   5.444   6.963
10253SOL     OW31657   4.583   5.596   0.043
10253SOL    HW131658   4.679   5.568   0.050
10253SOL    HW231659   4.541   5.550   6.993
10254SOL     OW31660   4.706   1.520   5.290
10254SOL    HW131661   4.754   1.606   5.304
10254SOL    HW231662   4.619   1.522   5.339
10255SOL     OW31663   1.644   6.319   1.594
10255SOL    HW131664   1.743   6.314   1.581
10255SOL    HW231665   1.625   6.328   1.692
10256SOL     OW31666   6.248   0.431   1.777
10256SOL    HW131667   6.277   0.523   1.803
10256SOL    HW231668   6.165   0.436   1.723
10257SOL     OW31669   1.590   5.297   4.325
10257SOL    HW131670   1.603   5.393   4.348
10257SOL    HW231671   1.678   5.256   4.300
10258SOL     OW31672   3.969   1.089   4.379
10258SOL    HW131673   4.049   1.140   4.349
10258SOL    HW231674   3.990   0.991   4.381
10259SOL     OW31675   0.334   4.339   2.988
10259SOL    HW131676   0.284   4.331   2.902
10259SOL    HW231677   0.427   4.304   2.977
10260SOL     OW31678   0.508   0.314   3.578
10260SOL    HW131679   0.540   0.224   3.609
10260SOL    HW231680   0.549   0.385   3.636
10261SOL     OW31681   6.700   5.126   3.492
10261SOL    HW131682   6.668   5.219   3.476
10261SOL    HW231683   6.632   5.060   3.459
10262SOL     OW31684   2.348   6.472   4.838
10262SOL    HW131685   2.380   6.530   4.763
10262SOL    HW231686   2.375   6.377   4.821
10263SOL     OW31687   4.876   0.677   6.189
10263SOL    HW131688   4.885   0.580   6.210
10263SOL    HW231689   4.808   0.689   6.117
10264SOL     OW31690   5.866   2.346   6.312
10264SOL    HW131691   5.935   2.280   6.344
10264SOL    HW231692   5.828   2.314   6.225
10265SOL     OW31693   3.177   2.052   3.102
10265SOL    HW131694   3.171   1.968   3.048
10265SOL    HW231695   3.092   2.104   3.092
10266SOL     OW31696   2.998   3.094   4.960
10266SOL    HW131697   3.088   3.063   4.989
10266SOL    HW231698   2.936   3.016   4.954
10267SOL     OW31699   6.059   1.365   0.123
10267SOL    HW131700   6.149   1.352   0.164
10267SOL    HW231701   6.027   1.279   0.083
10268SOL     OW31702   5.033   5.068   1.722
10268SOL    HW131703   4.961   5.131   1.691
10268SOL    HW231704   4.998   5.011   1.796
10269SOL     OW31705   0.738   2.657   5.039
10269SOL    HW131706   0.640   2.638   5.031
10269SOL    HW231707   0.754   2.721   5.114
10270SOL     OW31708   2.482   5.300   3.781
10270SOL    HW131709   2.507   5.212   3.821
10270SOL    HW231710   2.516   5.374   3.839
10271SOL     OW31711   3.696   2.810   0.465
10271SOL    HW131712   3.795   2.795   0.470
10271SOL    HW231713   3.649   2.723   0.452
10272SOL     OW31714   0.637   0.101   4.942
10272SOL    HW131715   0.559   0.145   4.897
10272SOL    HW231716   0.632   0.002   4.925
10273SOL     OW31717   4.285   5.102   3.573
10273SOL    HW131718   4.374   5.140   3.547
10273SOL    HW231719   4.213   5.167   3.549
10274SOL     OW31720   0.607   4.462   4.604
10274SOL    HW131721   0.563   4.397   4.666
10274SOL    HW231722   0.663   4.525   4.657
10275SOL     OW31723   0.836   6.514   1.894
10275SOL    HW131724   0.809   6.564   1.812
10275SOL    HW231725   0.853   6.419   1.871
10276SOL     OW31726   6.137   6.043   5.789
10276SOL    HW131727   6.171   6.071   5.699
10276SOL    HW231728   6.157   6.114   5.856
10277SOL     OW31729   2.189   5.700   3.989
10277SOL    HW131730   2.172   5.644   4.071
10277SOL    HW231731   2.225   5.642   3.916
10278SOL     OW31732   6.462   1.491   4.507
10278SOL    HW131733   6.423   1.558   4.571
10278SOL    HW231734   6.529   1.536   4.448
10279SOL     OW31735   1.979   5.857   4.852
10279SOL    HW131736   1.880   5.870   4.852
10279SOL    HW231737   2.001   5.769   4.895
10280SOL     OW31738   1.108   4.067   0.979
10280SOL    HW131739   1.059   4.108   1.055
10280SOL    HW231740   1.205   4.093   0.984
10281SOL     OW31741   6.056   1.106   3.139
10281SOL    HW131742   6.010   1.060   3.063
10281SOL    HW231743   6.155   1.100   3.127
10282SOL     OW31744   6.464   4.379   4.331
10282SOL    HW131745   6.517   4.445   4.278
10282SOL    HW231746   6.390   4.342   4.274
10283SOL     OW31747   0.623   3.450   0.544
10283SOL    HW131748   0.535   3.492   0.520
10283SOL    HW231749   0.617   3.351   0.530
10284SOL     OW31750   5.277   3.534   5.351
10284SOL    HW131751   5.273   3.620   5.401
10284SOL    HW231752   5.242   3.548   5.258
10285SOL     OW31753   4.880   1.313   1.048
10285SOL    HW131754   4.953   1.380   1.036
10285SOL    HW231755   4.796   1.348   1.006
10286SOL     OW31756   2.958   1.912   3.548
10286SOL    HW131757   2.964   2.011   3.552
10286SOL    HW231758   3.035   1.871   3.596
10287SOL     OW31759   2.673   6.172   1.322
10287SOL    HW131760   2.623   6.192   1.238
10287SOL    HW231761   2.611   6.175   1.400
10288SOL     OW31762   5.351   6.090   2.298
10288SOL    HW131763   5.259   6.057   2.321
10288SOL    HW231764   5.363   6.183   2.330
10289SOL     OW31765   3.277   0.662   2.117
10289SOL    HW131766   3.194   0.715   2.102
10289SOL    HW231767   3.263   0.568   2.084
10290SOL     OW31768   3.093   3.908   2.143
10290SOL    HW131769   3.162   3.980   2.153
10290SOL    HW231770   3.048   3.916   2.054
10291SOL     OW31771   4.061   1.457   3.856
10291SOL    HW131772   4.068   1.361   3.880
10291SOL    HW231773   4.012   1.507   3.927
10292SOL     OW31774   2.010   0.677   4.484
10292SOL    HW131775   2.009   0.713   4.391
10292SOL    HW231776   1.920   0.692   4.526
10293SOL     OW31777   1.637   5.516   3.540
10293SOL    HW131778   1.602   5.537   3.449
10293SOL    HW231779   1.708   5.582   3.564
10294SOL     OW31780   5.118   3.814   2.618
10294SOL    HW131781   5.076   3.794   2.707
10294SOL    HW231782   5.197   3.755   2.605
10295SOL     OW31783   5.865   5.953   5.780
10295SOL    HW131784   5.959   5.969   5.750
10295SOL    HW231785   5.814   5.909   5.706
10296SOL     OW31786   4.915   3.328   0.223
10296SOL    HW131787   4.864   3.279   0.293
10296SOL    HW231788   4.869   3.319   0.135
10297SOL     OW31789   1.650   6.776   6.428
10297SOL    HW131790   1.596   6.726   6.360
10297SOL    HW231791   1.725   6.823   6.383
10298SOL     OW31792   3.491   4.982   1.831
10298SOL    HW131793   3.515   4.896   1.875
10298SOL    HW231794   3.570   5.017   1.781
10299SOL     OW31795   4.893   4.853   2.904
10299SOL    HW131796   4.818   4.916   2.925
10299SOL    HW231797   4.919   4.863   2.808
10300SOL     OW31798   1.556   5.027   3.021
10300SOL    HW131799   1.602   4.978   3.095
10300SOL    HW231800   1.602   5.008   2.935
10301SOL     OW31801   5.763   2.163   3.639
10301SOL    HW131802   5.704   2.133   3.564
10301SOL    HW231803   5.786   2.084   3.697
10302SOL     OW31804   0.586   5.661   3.796
10302SOL    HW131805   0.598   5.747   3.746
10302SOL    HW231806   0.634   5.666   3.883
10303SOL     OW31807   2.143   5.203   1.974
10303SOL    HW131808   2.188   5.169   2.057
10303SOL    HW231809   2.100   5.291   1.994
10304SOL     OW31810   5.087   0.919   2.698
10304SOL    HW131811   5.111   0.822   2.695
10304SOL    HW231812   5.158   0.972   2.653
10305SOL     OW31813   0.387   4.812   7.014
10305SOL    HW131814   0.393   4.844   0.081
10305SOL    HW231815   0.477   4.781   6.984
10306SOL     OW31816   4.476   6.565   6.945
10306SOL    HW131817   4.401   6.511   6.984
10306SOL    HW231818   4.477   6.553   6.846
10307SOL     OW31819   2.165   2.466   4.586
10307SOL    HW131820   2.219   2.533   4.534
10307SOL    HW231821   2.228   2.401   4.630
10308SOL     OW31822   2.469   5.303   4.128
10308SOL    HW131823   2.429   5.370   4.191
10308SOL    HW231824   2.568   5.313   4.127
10309SOL     OW31825   5.912   1.199   3.742
10309SOL    HW131826   5.833   1.175   3.799
10309SOL    HW231827   5.927   1.127   3.674
10310SOL     OW31828   4.252   2.840   1.589
10310SOL    HW131829   4.198   2.925   1.585
10310SOL    HW231830   4.344   2.861   1.623
10311SOL     OW31831   0.605   5.826   0.984
10311SOL    HW131832   0.527   5.827   1.046
10311SOL    HW231833   0.682   5.872   1.027
10312SOL     OW31834   2.288   6.540   1.051
10312SOL    HW131835   2.332   6.523   0.963
10312SOL    HW231836   2.269   6.453   1.096
10313SOL     OW31837   4.118   6.915   1.433
10313SOL    HW131838   4.023   6.916   1.464
10313SOL    HW231839   4.121   6.926   1.334
10314SOL     OW31840   0.049   0.480   2.146
10314SOL    HW131841   0.070   0.396   2.196
10314SOL    HW231842   0.129   0.508   2.092
10315SOL     OW31843   6.189   5.346   4.331
10315SOL    HW131844   6.123   5.393   4.272
10315SOL    HW231845   6.272   5.325   4.279
10316SOL     OW31846   6.566   2.372   4.505
10316SOL    HW131847   6.477   2.417   4.496
10316SOL    HW231848   6.567   2.318   4.589
10317SOL     OW31849   3.547   6.278   6.261
10317SOL    HW131850   3.500   6.363   6.239
10317SOL    HW231851   3.499   6.201   6.218
10318SOL     OW31852   5.106   6.321   6.998
10318SOL    HW131853   5.069   6.317   6.905
10318SOL    HW231854   5.195   6.276   7.000
10319SOL     OW31855   2.124   2.931   5.848
10319SOL    HW131856   2.042   2.883   5.878
10319SOL    HW231857   2.206   2.881   5.877
10320SOL     OW31858   0.637   0.618   1.413
10320SOL    HW131859   0.654   0.557   1.491
10320SOL    HW231860   0.678   0.578   1.331
10321SOL     OW31861   4.442   0.583   3.441
10321SOL    HW131862   4.377   0.656   3.460
10321SOL    HW231863   4.395   0.508   3.395
10322SOL     OW31864   6.165   5.844   6.136
10322SOL    HW131865   6.067   5.848   6.117
10322SOL    HW231866   6.185   5.894   6.220
10323SOL     OW31867   6.675   4.055   5.903
10323SOL    HW131868   6.692   3.966   5.861
10323SOL    HW231869   6.583   4.086   5.879
10324SOL     OW31870   2.972   3.205   3.249
10324SOL    HW131871   2.905   3.185   3.321
10324SOL    HW231872   3.059   3.159   3.271
10325SOL     OW31873   6.373   4.013   3.274
10325SOL    HW131874   6.314   3.992   3.196
10325SOL    HW231875   6.372   4.112   3.290
10326SOL     OW31876   4.026   2.994   0.017
10326SOL    HW131877   4.110   2.974   0.067
10326SOL    HW231878   3.949   2.948   0.062
10327SOL     OW31879   2.538   1.591   1.757
10327SOL    HW131880   2.600   1.642   1.817
10327SOL    HW231881   2.448   1.583   1.801
10328SOL     OW31882   6.274   3.576   1.333
10328SOL    HW131883   6.207   3.639   1.294
10328SOL    HW231884   6.239   3.536   1.417
10329SOL     OW31885   3.601   0.066   4.479
10329SOL    HW131886   3.572   0.113   4.396
10329SOL    HW231887   3.577   0.120   4.559
10330SOL     OW31888   3.659   5.165   2.549
10330SOL    HW131889   3.578   5.203   2.594
10330SOL    HW231890   3.633   5.085   2.495
10331SOL     OW31891   6.837   0.392   3.498
10331SOL    HW131892   6.742   0.363   3.496
10331SOL    HW231893   6.845   0.475   3.554
10332SOL     OW31894   5.946   1.620   0.082
10332SOL    HW131895   5.997   1.545   0.123
10332SOL    HW231896   5.976   1.707   0.122
10333SOL     OW31897   6.532   4.483   4.562
10333SOL    HW131898   6.499   4.578   4.565
10333SOL    HW231899   6.529   4.450   4.468
10334SOL     OW31900   1.863   5.663   4.061
10334SOL    HW131901   1.829   5.605   3.987
10334SOL    HW231902   1.788   5.716   4.099
10335SOL     OW31903   2.418   4.923   6.964
10335SOL    HW131904   2.382   4.845   7.015
10335SOL    HW231905   2.343   4.971   6.919
10336SOL     OW31906   6.121   6.345   3.359
10336SOL    HW131907   6.203   6.289   3.361
10336SOL    HW231908   6.078   6.345   3.449
10337SOL     OW31909   6.419   6.717   5.863
10337SOL    HW131910   6.466   6.795   5.906
10337SOL    HW231911   6.410   6.734   5.765
10338SOL     OW31912   2.688   6.234   1.746
10338SOL    HW131913   2.594   6.236   1.780
10338SOL    HW231914   2.694   6.289   1.662
10339SOL     OW31915   3.584   5.145   0.715
10339SOL    HW131916   3.622   5.084   0.784
10339SOL    HW231917   3.485   5.132   0.709
10340SOL     OW31918   1.782   5.362   0.549
10340SOL    HW131919   1.706   5.298   0.561
10340SOL    HW231920   1.860   5.314   0.508
10341SOL     OW31921   2.231   3.193   1.815
10341SOL    HW131922   2.264   3.287   1.829
10341SOL    HW231923   2.211   3.151   1.904
10342SOL     OW31924   2.149   5.886   5.692
10342SOL    HW131925   2.152   5.910   5.789
10342SOL    HW231926   2.099   5.801   5.680
10343SOL     OW31927   2.213   4.129   0.201
10343SOL    HW131928   2.176   4.190   0.130
10343SOL    HW231929   2.164   4.144   0.286
10344SOL     OW31930   4.115   3.648   1.816
10344SOL    HW131931   4.146   3.743   1.822
10344SOL    HW231932   4.015   3.646   1.812
10345SOL     OW31933   1.458   0.686   6.185
10345SOL    HW131934   1.474   0.735   6.100
10345SOL    HW231935   1.391   0.614   6.171
10346SOL     OW31936   6.302   1.259   1.039
10346SOL    HW131937   6.212   1.289   1.071
10346SOL    HW231938   6.296   1.228   0.945
10347SOL     OW31939   5.689   2.488   2.174
10347SOL    HW131940   5.616   2.517   2.111
10347SOL    HW231941   5.696   2.388   2.172
10348SOL     OW31942   6.548   1.399   6.853
10348SOL    HW131943   6.486   1.473   6.882
10348SOL    HW231944   6.513   1.312   6.886
10349SOL     OW31945   6.830   1.587   6.899
10349SOL    HW131946   6.896   1.514   6.886
10349SOL    HW231947   6.740   1.549   6.919
10350SOL     OW31948   2.671   6.358   4.874
10350SOL    HW131949   2.746   6.305   4.914
10350SOL    HW231950   2.708   6.442   4.834
10351SOL     OW31951   5.761   5.190   6.128
10351SOL    HW131952   5.827   5.204   6.201
10351SOL    HW231953   5.680   5.247   6.144
10352SOL     OW31954   5.531   1.779   6.426
10352SOL    HW131955   5.631   1.773   6.436
10352SOL    HW231956   5.490   1.796   6.516
10353SOL     OW31957   6.788   2.762   4.320
10353SOL    HW131958   6.787   2.854   4.280
10353SOL    HW231959   6.760   2.767   4.416
10354SOL     OW31960   0.560   2.293   1.681
10354SOL    HW131961   0.582   2.203   1.642
10354SOL    HW231962   0.583   2.364   1.616
10355SOL     OW31963   1.253   0.471   1.065
10355SOL    HW131964   1.231   0.393   1.124
10355SOL    HW231965   1.244   0.444   0.970
10356SOL     OW31966   7.002   3.748   5.635
10356SOL    HW131967   6.990   3.752   5.735
10356SOL    HW231968   7.023   3.654   5.608
10357SOL     OW31969   4.486   2.584   6.248
10357SOL    HW131970   4.417   2.653   6.226
10357SOL    HW231971   4.443   2.506   6.292
10358SOL     OW31972   0.748   2.968   3.894
10358SOL    HW131973   0.807   3.038   3.935
10358SOL    HW231974   0.678   2.941   3.961
10359SOL     OW31975   5.077   2.035   1.874
10359SOL    HW131976   5.146   1.972   1.908
10359SOL    HW231977   4.997   2.033   1.934
10360SOL     OW31978   5.420   5.849   2.092
10360SOL    HW131979   5.418   5.927   2.155
10360SOL    HW231980   5.508   5.803   2.100
10361SOL     OW31981   2.424   0.949   2.711
10361SOL    HW131982   2.505   1.006   2.698
10361SOL    HW231983   2.342   1.000   2.685
10362SOL     OW31984   0.682   4.726   3.114
10362SOL    HW131985   0.774   4.758   3.091
10362SOL    HW231986   0.615   4.796   3.089
10363SOL     OW31987   5.533   2.251   1.348
10363SOL    HW131988   5.471   2.249   1.427
10363SOL    HW231989   5.625   2.224   1.378
10364SOL     OW31990   4.528   4.169   1.444
10364SOL    HW131991   4.577   4.102   1.388
10364SOL    HW231992   4.430   4.164   1.424
10365SOL     OW31993   5.929   3.940   6.554
10365SOL    HW131994   5.868   3.900   6.486
10365SOL    HW231995   5.898   4.032   6.577
10366SOL     OW31996   3.206   6.689   3.640
10366SOL    HW131997   3.230   6.759   3.572
10366SOL    HW231998   3.119   6.713   3.682
10367SOL     OW31999   6.867   1.807   1.508
10367SOL    HW132000   6.916   1.737   1.560
10367SOL    HW232001   6.787   1.766   1.464
10368SOL     OW32002   1.613   1.438   2.197
10368SOL    HW132003   1.646   1.347   2.220
10368SOL    HW232004   1.516   1.434   2.174
10369SOL     OW32005   2.915   6.550   5.978
10369SOL    HW132006   2.991   6.614   5.970
10369SOL    HW232007   2.854   6.560   5.898
10370SOL     OW32008   6.750   1.399   5.232
10370SOL    HW132009   6.842   1.377   5.201
10370SOL    HW232010   6.697   1.438   5.157
10371SOL     OW32011   2.088   6.381   4.615
10371SOL    HW132012   2.131   6.471   4.609
10371SOL    HW232013   1.998   6.384   4.572
10372SOL     OW32014   2.064   0.801   0.530
10372SOL    HW132015   2.121   0.752   0.464
10372SOL    HW232016   1.985   0.840   0.483
10373SOL     OW32017   0.927   6.848   5.316
10373SOL    HW132018   0.889   6.904   5.242
10373SOL    HW232019   0.919   6.751   5.292
10374SOL     OW32020   3.825   0.410   3.642
10374SOL    HW132021   3.745   0.351   3.640
10374SOL    HW232022   3.856   0.428   3.549
10375SOL     OW32023   2.474   2.552   6.111
10375SOL    HW132024   2.561   2.601   6.116
10375SOL    HW232025   2.399   2.616   6.130
10376SOL     OW32026   1.204   6.109   4.528
10376SOL    HW132027   1.272   6.110   4.602
10376SOL    HW232028   1.166   6.201   4.517
10377SOL     OW32029   0.414   0.965   1.818
10377SOL    HW132030   0.455   0.948   1.908
10377SOL    HW232031   0.476   0.934   1.746
10378SOL     OW32032   5.928   6.018   5.463
10378SOL    HW132033   5.908   6.100   5.408
10378SOL    HW232034   6.011   5.975   5.429
10379SOL     OW32035   3.240   5.812   4.481
10379SOL    HW132036   3.223   5.832   4.577
10379SOL    HW232037   3.275   5.718   4.472
10380SOL     OW32038   1.122   2.881   4.791
10380SOL    HW132039   1.117   2.932   4.877
10380SOL    HW232040   1.048   2.814   4.789
10381SOL     OW32041   4.560   3.794   1.046
10381SOL    HW132042   4.612   3.718   1.084
10381SOL    HW232043   4.621   3.850   0.989
10382SOL     OW32044   2.724   5.185   1.501
10382SOL    HW132045   2.681   5.106   1.458
10382SOL    HW232046   2.771   5.240   1.431
10383SOL     OW32047   1.178   4.408   0.765
10383SOL    HW132048   1.193   4.319   0.720
10383SOL    HW232049   1.266   4.446   0.792
10384SOL     OW32050   6.796   6.902   0.955
10384SOL    HW132051   6.775   6.804   0.953
10384SOL    HW232052   6.848   6.926   0.873
10385SOL     OW32053   3.778   5.926   6.565
10385SOL    HW132054   3.813   6.018   6.581
10385SOL    HW232055   3.738   5.890   6.649
10386SOL     OW32056   0.167   1.526   6.033
10386SOL    HW132057   0.258   1.496   6.003
10386SOL    HW232058   0.110   1.446   6.052
10387SOL     OW32059   4.619   2.559   3.171
10387SOL    HW132060   4.594   2.645   3.216
10387SOL    HW232061   4.687   2.511   3.226
10388SOL     OW32062   1.924   5.795   1.638
10388SOL    HW132063   1.907   5.780   1.735
10388SOL    HW232064   2.015   5.759   1.614
10389SOL     OW32065   6.483   4.717   1.075
10389SOL    HW132066   6.457   4.630   1.117
10389SOL    HW232067   6.560   4.703   1.013
10390SOL     OW32068   2.285   3.658   0.479
10390SOL    HW132069   2.296   3.747   0.522
10390SOL    HW232070   2.223   3.602   0.535
10391SOL     OW32071   0.046   6.231   4.013
10391SOL    HW132072   6.981   6.261   3.991
10391SOL    HW232073   0.085   6.184   3.934
10392SOL     OW32074   6.179   4.727   5.738
10392SOL    HW132075   6.172   4.695   5.832
10392SOL    HW232076   6.088   4.730   5.697
10393SOL     OW32077   2.323   2.590   2.814
10393SOL    HW132078   2.271   2.674   2.831
10393SOL    HW232079   2.269   2.529   2.757
10394SOL     OW32080   2.275   5.324   5.429
10394SOL    HW132081   2.370   5.299   5.409
10394SOL    HW232082   2.218   5.307   5.349
10395SOL     OW32083   0.974   0.967   1.723
10395SOL    HW132084   1.018   0.937   1.638
10395SOL    HW232085   0.955   0.888   1.780
10396SOL     OW32086   3.542   1.052   4.331
10396SOL    HW132087   3.565   0.964   4.372
10396SOL    HW232088   3.459   1.088   4.374
10397SOL     OW32089   3.508   1.045   4.681
10397SOL    HW132090   3.529   1.021   4.776
10397SOL    HW232091   3.593   1.044   4.627
10398SOL     OW32092   5.727   2.167   0.959
10398SOL    HW132093   5.655   2.106   0.926
10398SOL    HW232094   5.688   2.256   0.981
10399SOL     OW32095   4.593   1.872   3.462
10399SOL    HW132096   4.576   1.957   3.512
10399SOL    HW232097   4.679   1.832   3.494
10400SOL     OW32098   4.528   5.759   6.811
10400SOL    HW132099   4.439   5.794   6.783
10400SOL    HW232100   4.528   5.659   6.806
10401SOL     OW32101   0.550   6.310   2.307
10401SOL    HW132102   0.549   6.241   2.234
10401SOL    HW232103   0.535   6.400   2.267
10402SOL     OW32104   0.424   1.781   6.073
10402SOL    HW132105   0.361   1.715   6.114
10402SOL    HW232106   0.459   1.744   5.987
10403SOL     OW32107   4.274   2.319   3.080
10403SOL    HW132108   4.321   2.365   3.005
10403SOL    HW232109   4.310   2.352   3.168
10404SOL     OW32110   6.137   5.934   4.307
10404SOL    HW132111   6.059   5.875   4.328
10404SOL    HW232112   6.180   5.903   4.223
10405SOL     OW32113   1.039   6.133   4.783
10405SOL    HW132114   1.039   6.211   4.720
10405SOL    HW232115   1.061   6.166   4.875
10406SOL     OW32116   1.885   3.142   4.115
10406SOL    HW132117   1.852   3.129   4.209
10406SOL    HW232118   1.947   3.221   4.112
10407SOL     OW32119   2.539   6.807   6.210
10407SOL    HW132120   2.575   6.899   6.196
10407SOL    HW232121   2.615   6.742   6.213
10408SOL     OW32122   4.588   0.185   1.325
10408SOL    HW132123   4.543   0.204   1.238
10408SOL    HW232124   4.669   0.128   1.310
10409SOL     OW32125   6.485   4.779   1.338
10409SOL    HW132126   6.492   4.778   1.238
10409SOL    HW232127   6.575   4.802   1.377
10410SOL     OW32128   4.910   1.788   1.748
10410SOL    HW132129   4.885   1.865   1.688
10410SOL    HW232130   4.877   1.807   1.841
10411SOL     OW32131   2.618   6.293   3.704
10411SOL    HW132132   2.688   6.253   3.763
10411SOL    HW232133   2.642   6.388   3.683
10412SOL     OW32134   0.353   1.339   0.814
10412SOL    HW132135   0.404   1.389   0.744
10412SOL    HW232136   0.342   1.397   0.895
10413SOL     OW32137   6.364   2.917   1.517
10413SOL    HW132138   6.462   2.898   1.516
10413SOL    HW232139   6.344   2.996   1.459
10414SOL     OW32140   3.529   4.872   5.736
10414SOL    HW132141   3.597   4.908   5.800
10414SOL    HW232142   3.532   4.772   5.738
10415SOL     OW32143   1.667   4.137   4.127
10415SOL    HW132144   1.652   4.226   4.083
10415SOL    HW232145   1.586   4.079   4.113
10416SOL     OW32146   5.937   0.002   5.190
10416SOL    HW132147   5.837   7.024   5.203
10416SOL    HW232148   5.976   0.055   5.265
10417SOL     OW32149   3.537   4.947   3.802
10417SOL    HW132150   3.539   5.047   3.812
10417SOL    HW232151   3.566   4.922   3.710
10418SOL     OW32152   6.546   4.359   5.732
10418SOL    HW132153   6.519   4.265   5.753
10418SOL    HW232154   6.573   4.406   5.816
10419SOL     OW32155   3.247   6.762   6.688
10419SOL    HW132156   3.148   6.763   6.674
10419SOL    HW232157   3.294   6.769   6.600
10420SOL     OW32158   0.493   3.257   4.096
10420SOL    HW132159   0.421   3.324   4.115
10420SOL    HW232160   0.579   3.288   4.136
10421SOL     OW32161   1.303   2.845   4.042
10421SOL    HW132162   1.259   2.818   3.956
10421SOL    HW232163   1.248   2.814   4.119
10422SOL     OW32164   6.175   3.062   4.791
10422SOL    HW132165   6.140   3.114   4.869
10422SOL    HW232166   6.112   2.987   4.771
10423SOL     OW32167   5.601   5.033   5.950
10423SOL    HW132168   5.643   5.085   6.024
10423SOL    HW232169   5.522   4.983   5.986
10424SOL     OW32170   4.063   3.138   0.976
10424SOL    HW132171   4.035   3.043   0.989
10424SOL    HW232172   4.159   3.140   0.946
10425SOL     OW32173   1.539   6.787   2.412
10425SOL    HW132174   1.445   6.823   2.414
10425SOL    HW232175   1.544   6.709   2.349
10426SOL     OW32176   5.367   4.428   0.395
10426SOL    HW132177   5.306   4.447   0.318
10426SOL    HW232178   5.404   4.513   0.431
10427SOL     OW32179   4.097   0.940   0.071
10427SOL    HW132180   4.054   1.030   0.077
10427SOL    HW232181   4.074   0.887   0.153
10428SOL     OW32182   3.575   0.919   3.908
10428SOL    HW132183   3.554   0.880   3.819
10428SOL    HW232184   3.674   0.928   3.919
10429SOL     OW32185   6.889   4.060   2.074
10429SOL    HW132186   6.851   4.020   1.990
10429SOL    HW232187   6.858   4.155   2.083
10430SOL     OW32188   5.330   6.997   4.753
10430SOL    HW132189   5.301   6.905   4.730
10430SOL    HW232190   5.361   0.016   4.669
10431SOL     OW32191   2.579   5.910   4.621
10431SOL    HW132192   2.480   5.915   4.633
10431SOL    HW232193   2.601   5.896   4.525
10432SOL     OW32194   6.103   0.344   4.600
10432SOL    HW132195   6.170   0.411   4.568
10432SOL    HW232196   6.095   0.271   4.532
10433SOL     OW32197   1.142   5.929   2.323
10433SOL    HW132198   1.084   5.934   2.241
10433SOL    HW232199   1.107   5.857   2.383
10434SOL     OW32200   3.911   5.803   2.690
10434SOL    HW132201   3.845   5.823   2.617
10434SOL    HW232202   4.002   5.828   2.660
10435SOL     OW32203   0.982   1.507   5.637
10435SOL    HW132204   1.037   1.455   5.572
10435SOL    HW232205   0.962   1.449   5.717
10436SOL     OW32206   6.319   4.613   5.392
10436SOL    HW132207   6.406   4.597   5.346
10436SOL    HW232208   6.249   4.634   5.324
10437SOL     OW32209   4.519   4.059   6.125
10437SOL    HW132210   4.596   4.036   6.066
10437SOL    HW232211   4.525   4.155   6.152
10438SOL     OW32212   6.925   6.629   6.925
10438SOL    HW132213   7.021   6.621   6.899
10438SOL    HW232214   6.869   6.636   6.842
10439SOL     OW32215   4.104   1.875   4.863
10439SOL    HW132216   4.189   1.891   4.812
10439SOL    HW232217   4.026   1.886   4.802
10440SOL     OW32218   0.578   6.650   0.720
10440SOL    HW132219   0.648   6.694   0.664
10440SOL    HW232220   0.494   6.704   0.716
10441SOL     OW32221   4.102   1.640   1.381
10441SOL    HW132222   4.052   1.716   1.422
10441SOL    HW232223   4.058   1.554   1.404
10442SOL     OW32224   3.977   6.843   6.525
10442SOL    HW132225   3.947   6.899   6.602
10442SOL    HW232226   4.053   6.889   6.478
10443SOL     OW32227   5.011   3.403   4.026
10443SOL    HW132228   5.092   3.346   4.016
10443SOL    HW232229   4.960   3.375   4.107
10444SOL     OW32230   4.597   6.109   3.680
10444SOL    HW132231   4.689   6.096   3.716
10444SOL    HW232232   4.536   6.135   3.755
10445SOL     OW32233   0.653   4.428   4.172
10445SOL    HW132234   0.726   4.495   4.159
10445SOL    HW232235   0.643   4.408   4.269
10446SOL     OW32236   1.970   3.156   5.823
10446SOL    HW132237   2.021   3.073   5.848
10446SOL    HW232238   1.917   3.138   5.740
10447SOL     OW32239   0.399   1.044   2.177
10447SOL    HW132240   0.364   1.120   2.122
10447SOL    HW232241   0.424   1.078   2.268
10448SOL     OW32242   4.860   0.796   2.292
10448SOL    HW132243   4.806   0.840   2.363
10448SOL    HW232244   4.799   0.747   2.229
10449SOL     OW32245   1.691   5.320   5.116
10449SOL    HW132246   1.599   5.345   5.145
10449SOL    HW232247   1.758   5.363   5.177
10450SOL     OW32248   0.779   1.258   0.780
10450SOL    HW132249   0.855   1.320   0.796
10450SOL    HW232250   0.792   1.212   0.692
10451SOL     OW32251   2.341   5.564   2.389
10451SOL    HW132252   2.428   5.540   2.345
10451SOL    HW232253   2.360   5.606   2.478
10452SOL     OW32254   6.729   3.400   1.929
10452SOL    HW132255   6.704   3.310   1.963
10452SOL    HW232256   6.653   3.463   1.943
10453SOL     OW32257   4.459   6.857   1.325
10453SOL    HW132258   4.394   6.926   1.359
10453SOL    HW232259   4.453   6.852   1.225
10454SOL     OW32260   5.071   3.361   0.458
10454SOL    HW132261   5.060   3.362   0.358
10454SOL    HW232262   5.061   3.454   0.493
10455SOL     OW32263   6.275   6.176   3.521
10455SOL    HW132264   6.346   6.137   3.580
10455SOL    HW232265   6.254   6.111   3.448
10456SOL     OW32266   1.705   5.521   0.323
10456SOL    HW132267   1.676   5.603   0.373
10456SOL    HW232268   1.752   5.458   0.385
10457SOL     OW32269   3.725   3.269   1.463
10457SOL    HW132270   3.811   3.276   1.412
10457SOL    HW232271   3.722   3.180   1.509
10458SOL     OW32272   6.385   0.454   6.681
10458SOL    HW132273   6.407   0.395   6.603
10458SOL    HW232274   6.364   0.546   6.649
10459SOL     OW32275   4.705   5.934   1.842
10459SOL    HW132276   4.666   5.880   1.916
10459SOL    HW232277   4.780   5.883   1.800
10460SOL     OW32278   0.708   4.213   2.102
10460SOL    HW132279   0.783   4.168   2.055
10460SOL    HW232280   0.700   4.176   2.195
10461SOL     OW32281   6.698   5.023   5.842
10461SOL    HW132282   6.632   5.098   5.838
10461SOL    HW232283   6.653   4.938   5.813
10462SOL     OW32284   5.661   1.374   3.548
10462SOL    HW132285   5.623   1.418   3.630
10462SOL    HW232286   5.621   1.283   3.539
10463SOL     OW32287   4.590   2.802   6.383
10463SOL    HW132288   4.548   2.829   6.470
10463SOL    HW232289   4.554   2.712   6.356
10464SOL     OW32290   6.549   6.671   1.494
10464SOL    HW132291   6.508   6.761   1.512
10464SOL    HW232292   6.608   6.646   1.572
10465SOL     OW32293   6.211   5.553   0.759
10465SOL    HW132294   6.177   5.506   0.678
10465SOL    HW232295   6.270   5.629   0.733
10466SOL     OW32296   4.681   5.282   5.809
10466SOL    HW132297   4.645   5.209   5.867
10466SOL    HW232298   4.612   5.308   5.741
10467SOL     OW32299   3.082   0.998   0.006
10467SOL    HW132300   3.108   0.950   6.950
10467SOL    HW232301   3.097   1.096   7.022
10468SOL     OW32302   4.131   5.145   3.307
10468SOL    HW132303   4.172   5.062   3.346
10468SOL    HW232304   4.083   5.121   3.222
10469SOL     OW32305   4.289   4.323   5.612
10469SOL    HW132306   4.231   4.401   5.635
10469SOL    HW232307   4.237   4.238   5.622
10470SOL     OW32308   2.310   2.833   3.825
10470SOL    HW132309   2.364   2.791   3.753
10470SOL    HW232310   2.221   2.788   3.832
10471SOL     OW32311   2.470   1.643   0.848
10471SOL    HW132312   2.444   1.726   0.799
10471SOL    HW232313   2.570   1.637   0.853
10472SOL     OW32314   4.207   5.371   0.356
10472SOL    HW132315   4.270   5.368   0.434
10472SOL    HW232316   4.126   5.425   0.382
10473SOL     OW32317   6.796   0.316   6.699
10473SOL    HW132318   6.762   0.225   6.675
10473SOL    HW232319   6.773   0.336   6.795
10474SOL     OW32320   3.439   2.080   4.499
10474SOL    HW132321   3.388   2.089   4.585
10474SOL    HW232322   3.375   2.068   4.423
10475SOL     OW32323   4.491   6.520   1.324
10475SOL    HW132324   4.542   6.545   1.406
10475SOL    HW232325   4.410   6.578   1.317
10476SOL     OW32326   6.699   5.744   0.029
10476SOL    HW132327   6.789   5.750   0.071
10476SOL    HW232328   6.692   5.812   6.984
10477SOL     OW32329   0.481   1.519   4.634
10477SOL    HW132330   0.409   1.458   4.669
10477SOL    HW232331   0.562   1.465   4.612
10478SOL     OW32332   6.873   0.706   1.148
10478SOL    HW132333   6.937   0.634   1.121
10478SOL    HW232334   6.923   0.793   1.158
10479SOL     OW32335   0.153   2.247   2.369
10479SOL    HW132336   0.157   2.328   2.309
10479SOL    HW232337   0.063   2.243   2.412
10480SOL     OW32338   6.382   0.088   1.987
10480SOL    HW132339   6.290   0.108   2.020
10480SOL    HW232340   6.443   0.073   2.064
10481SOL     OW32341   2.629   6.992   4.480
10481SOL    HW132342   2.718   6.967   4.519
10481SOL    HW232343   2.609   0.060   4.501
10482SOL     OW32344   6.167   5.028   4.667
10482SOL    HW132345   6.077   5.061   4.639
10482SOL    HW232346   6.238   5.079   4.619
10483SOL     OW32347   6.744   4.729   6.956
10483SOL    HW132348   6.839   4.701   6.964
10483SOL    HW232349   6.694   4.703   0.011
10484SOL     OW32350   5.742   0.951   2.157
10484SOL    HW132351   5.804   1.026   2.181
10484SOL    HW232352   5.732   0.946   2.058
10485SOL     OW32353   3.059   3.642   1.056
10485SOL    HW132354   2.984   3.700   1.089
10485SOL    HW232355   3.140   3.698   1.042
10486SOL     OW32356   6.635   0.693   0.030
10486SOL    HW132357   6.692   0.664   6.981
10486SOL    HW232358   6.595   0.783   0.010
10487SOL     OW32359   4.893   1.796   2.223
10487SOL    HW132360   4.901   1.699   2.200
10487SOL    HW232361   4.830   1.807   2.300
10488SOL     OW32362   2.947   1.977   5.548
10488SOL    HW132363   2.961   2.041   5.624
10488SOL    HW232364   2.879   1.909   5.575
10489SOL     OW32365   0.255   0.205   4.595
10489SOL    HW132366   0.195   0.126   4.582
10489SOL    HW232367   0.300   0.227   4.509
10490SOL     OW32368   5.805   1.767   0.877
10490SOL    HW132369   5.757   1.841   0.829
10490SOL    HW232370   5.898   1.761   0.843
10491SOL     OW32371   2.661   2.156   6.096
10491SOL    HW132372   2.586   2.178   6.034
10491SOL    HW232373   2.734   2.110   6.045
10492SOL     OW32374   5.436   5.638   0.783
10492SOL    HW132375   5.428   5.568   0.854
10492SOL    HW232376   5.368   5.623   0.712
10493SOL     OW32377   3.275   6.856   2.275
10493SOL    HW132378   3.274   6.823   2.180
10493SOL    HW232379   3.217   6.937   2.283
10494SOL     OW32380   5.563   4.738   5.787
10494SOL    HW132381   5.548   4.661   5.726
10494SOL    HW232382   5.585   4.819   5.733
10495SOL     OW32383   0.889   6.129   0.925
10495SOL    HW132384   0.849   6.151   1.014
10495SOL    HW232385   0.987   6.148   0.928
10496SOL     OW32386   5.967   3.610   6.202
10496SOL    HW132387   6.002   3.569   6.287
10496SOL    HW232388   5.998   3.556   6.124
10497SOL     OW32389   2.107   0.040   2.004
10497SOL    HW132390   2.120   0.139   2.010
10497SOL    HW232391   2.056   0.008   2.084
10498SOL     OW32392   4.806   5.406   0.504
10498SOL    HW132393   4.712   5.409   0.472
10498SOL    HW232394   4.859   5.344   0.446
10499SOL     OW32395   4.713   0.152   2.285
10499SOL    HW132396   4.707   0.126   2.381
10499SOL    HW232397   4.755   0.077   2.233
10500SOL     OW32398   6.031   1.506   5.997
10500SOL    HW132399   6.055   1.508   6.094
10500SOL    HW232400   5.959   1.437   5.982
10501SOL     OW32401   2.091   5.410   2.345
10501SOL    HW132402   2.168   5.469   2.368
10501SOL    HW232403   2.029   5.458   2.284
10502SOL     OW32404   2.691   1.985   1.699
10502SOL    HW132405   2.610   1.975   1.641
10502SOL    HW232406   2.697   2.080   1.732
10503SOL     OW32407   5.178   2.891   0.938
10503SOL    HW132408   5.269   2.852   0.924
10503SOL    HW232409   5.130   2.839   1.009
10504SOL     OW32410   1.411   2.569   5.598
10504SOL    HW132411   1.395   2.581   5.500
10504SOL    HW232412   1.341   2.619   5.650
10505SOL     OW32413   5.510   5.177   0.853
10505SOL    HW132414   5.566   5.099   0.826
10505SOL    HW232415   5.463   5.213   0.772
10506SOL     OW32416   0.144   3.631   0.148
10506SOL    HW132417   0.237   3.662   0.167
10506SOL    HW232418   0.137   3.533   0.167
10507SOL     OW32419   1.626   6.472   0.883
10507SOL    HW132420   1.628   6.398   0.816
10507SOL    HW232421   1.700   6.536   0.863
10508SOL     OW32422   6.576   5.697   4.876
10508SOL    HW132423   6.599   5.676   4.971
10508SOL    HW232424   6.477   5.701   4.867
10509SOL     OW32425   6.896   5.275   5.440
10509SOL    HW132426   6.815   5.246   5.389
10509SOL    HW232427   6.905   5.374   5.435
10510SOL     OW32428   4.912   6.449   6.771
10510SOL    HW132429   4.914   6.349   6.768
10510SOL    HW232430   4.972   6.485   6.699
10511SOL     OW32431   2.661   1.080   2.059
10511SOL    HW132432   2.744   1.135   2.046
10511SOL    HW232433   2.648   1.062   2.156
10512SOL     OW32434   4.521   0.598   5.392
10512SOL    HW132435   4.494   0.666   5.460
10512SOL    HW232436   4.591   0.538   5.431
10513SOL     OW32437   6.423   2.660   3.684
10513SOL    HW132438   6.477   2.741   3.660
10513SOL    HW232439   6.340   2.689   3.732
10514SOL     OW32440   0.624   3.264   1.368
10514SOL    HW132441   0.528   3.285   1.382
10514SOL    HW232442   0.632   3.179   1.315
10515SOL     OW32443   1.051   3.663   3.965
10515SOL    HW132444   1.022   3.567   3.969
10515SOL    HW232445   1.112   3.677   3.888
10516SOL     OW32446   3.544   1.820   0.780
10516SOL    HW132447   3.619   1.875   0.744
10516SOL    HW232448   3.581   1.744   0.833
10517SOL     OW32449   0.629   3.052   0.977
10517SOL    HW132450   0.552   3.067   0.916
10517SOL    HW232451   0.601   3.068   1.072
10518SOL     OW32452   6.904   5.745   0.781
10518SOL    HW132453   6.983   5.791   0.741
10518SOL    HW232454   6.845   5.813   0.824
10519SOL     OW32455   2.982   3.538   0.821
10519SOL    HW132456   3.020   3.582   0.903
10519SOL    HW232457   2.948   3.447   0.845
10520SOL     OW32458   0.854   2.383   6.208
10520SOL    HW132459   0.937   2.438   6.221
10520SOL    HW232460   0.880   2.289   6.188
10521SOL     OW32461   6.760   5.436   1.520
10521SOL    HW132462   6.795   5.493   1.445
10521SOL    HW232463   6.738   5.346   1.484
10522SOL     OW32464   0.592   0.964   4.202
10522SOL    HW132465   0.505   1.013   4.213
10522SOL    HW232466   0.646   1.007   4.130
10523SOL     OW32467   0.665   4.627   2.833
10523SOL    HW132468   0.670   4.629   2.933
10523SOL    HW232469   0.723   4.553   2.798
10524SOL     OW32470   0.893   6.455   3.744
10524SOL    HW132471   0.867   6.542   3.701
10524SOL    HW232472   0.822   6.427   3.808
10525SOL     OW32473   4.063   0.578   5.386
10525SOL    HW132474   4.140   0.526   5.424
10525SOL    HW232475   3.997   0.515   5.346
10526SOL     OW32476   1.097   6.387   2.927
10526SOL    HW132477   1.156   6.333   2.867
10526SOL    HW232478   1.052   6.458   2.874
10527SOL     OW32479   1.239   1.093   5.384
10527SOL    HW132480   1.216   1.070   5.479
10527SOL    HW232481   1.301   1.024   5.347
10528SOL     OW32482   1.663   3.623   5.865
10528SOL    HW132483   1.705   3.536   5.890
10528SOL    HW232484   1.614   3.612   5.779
10529SOL     OW32485   2.823   6.607   4.318
10529SOL    HW132486   2.840   6.530   4.257
10529SOL    HW232487   2.900   6.617   4.381
10530SOL     OW32488   1.173   0.388   6.483
10530SOL    HW132489   1.258   0.406   6.435
10530SOL    HW232490   1.122   0.317   6.434
10531SOL     OW32491   1.536   2.608   3.992
10531SOL    HW132492   1.448   2.560   3.992
10531SOL    HW232493   1.521   2.704   4.015
10532SOL     OW32494   0.945   6.878   6.161
10532SOL    HW132495   0.909   6.971   6.165
10532SOL    HW232496   0.914   6.833   6.078
10533SOL     OW32497   3.021   6.686   3.293
10533SOL    HW132498   3.117   6.714   3.289
10533SOL    HW232499   3.005   6.612   3.228
10534SOL     OW32500   6.214   5.508   2.304
10534SOL    HW132501   6.313   5.518   2.306
10534SOL    HW232502   6.172   5.573   2.367
10535SOL     OW32503   1.607   1.969   2.174
10535SOL    HW132504   1.542   1.904   2.215
10535SOL    HW232505   1.684   1.982   2.236
10536SOL     OW32506   4.284   0.735   4.200
10536SOL    HW132507   4.192   0.695   4.200
10536SOL    HW232508   4.332   0.706   4.282
10537SOL     OW32509   4.477   6.152   4.526
10537SOL    HW132510   4.522   6.239   4.544
10537SOL    HW232511   4.386   6.152   4.568
10538SOL     OW32512   6.541   3.395   1.008
10538SOL    HW132513   6.475   3.452   0.960
10538SOL    HW232514   6.560   3.313   0.955
10539SOL     OW32515   0.155   5.007   0.412
10539SOL    HW132516   0.074   4.956   0.384
10539SOL    HW232517   0.165   5.001   0.512
10540SOL     OW32518   1.625   3.121   5.858
10540SOL    HW132519   1.714   3.076   5.856
10540SOL    HW232520   1.622   3.187   5.934
10541SOL     OW32521   3.479   3.997   1.938
10541SOL    HW132522   3.543   3.998   2.015
10541SOL    HW232523   3.436   3.906   1.932
10542SOL     OW32524   0.244   1.149   5.775
10542SOL    HW132525   0.214   1.120   5.866
10542SOL    HW232526   0.168   1.196   5.729
10543SOL     OW32527   0.529   1.781   4.747
10543SOL    HW132528   0.512   1.688   4.715
10543SOL    HW232529   0.476   1.845   4.692
10544SOL     OW32530   2.869   6.982   2.005
10544SOL    HW132531   2.920   7.004   2.088
10544SOL    HW232532   2.850   0.039   1.955
10545SOL     OW32533   0.589   2.134   0.983
10545SOL    HW132534   0.629   2.045   0.960
10545SOL    HW232535   0.500   2.121   1.027
10546SOL     OW32536   1.458   6.872   0.773
10546SOL    HW132537   1.507   6.832   0.851
10546SOL    HW232538   1.520   6.929   0.720
10547SOL     OW32539   5.232   2.758   3.183
10547SOL    HW132540   5.170   2.752   3.261
10547SOL    HW232541   5.327   2.748   3.215
10548SOL     OW32542   5.796   4.328   4.545
10548SOL    HW132543   5.792   4.233   4.576
10548SOL    HW232544   5.832   4.386   4.618
10549SOL     OW32545   0.771   0.531   1.636
10549SOL    HW132546   0.841   0.474   1.593
10549SOL    HW232547   0.794   0.628   1.621
10550SOL     OW32548   5.008   6.862   3.787
10550SOL    HW132549   5.078   6.926   3.755
10550SOL    HW232550   5.043   6.768   3.780
10551SOL     OW32551   1.736   2.435   6.821
10551SOL    HW132552   1.720   2.445   6.722
10551SOL    HW232553   1.752   2.525   6.861
10552SOL     OW32554   2.486   1.101   5.654
10552SOL    HW132555   2.414   1.088   5.585
10552SOL    HW232556   2.477   1.192   5.694
10553SOL     OW32557   0.706   4.601   1.333
10553SOL    HW132558   0.747   4.692   1.337
10553SOL    HW232559   0.717   4.555   1.421
10554SOL     OW32560   5.067   4.499   0.955
10554SOL    HW132561   5.156   4.543   0.969
10554SOL    HW232562   5.052   4.485   0.857
10555SOL     OW32563   2.518   2.148   0.941
10555SOL    HW132564   2.469   2.234   0.929
10555SOL    HW232565   2.480   2.098   1.019
10556SOL     OW32566   1.591   1.497   4.362
10556SOL    HW132567   1.681   1.527   4.331
10556SOL    HW232568   1.540   1.575   4.398
10557SOL     OW32569   1.943   3.137   2.958
10557SOL    HW132570   1.880   3.215   2.953
10557SOL    HW232571   1.975   3.114   2.866
10558SOL     OW32572   3.918   6.738   4.832
10558SOL    HW132573   3.931   6.639   4.835
10558SOL    HW232574   4.007   6.783   4.831
10559SOL     OW32575   4.683   1.073   1.540
10559SOL    HW132576   4.782   1.065   1.556
10559SOL    HW232577   4.653   1.165   1.565
10560SOL     OW32578   4.865   6.641   2.458
10560SOL    HW132579   4.820   6.724   2.492
10560SOL    HW232580   4.799   6.586   2.407
10561SOL     OW32581   3.745   4.417   1.700
10561SOL    HW132582   3.726   4.325   1.735
10561SOL    HW232583   3.691   4.484   1.751
10562SOL     OW32584   4.200   5.130   0.243
10562SOL    HW132585   4.188   5.225   0.273
10562SOL    HW232586   4.160   5.068   0.311
10563SOL     OW32587   0.077   1.172   2.874
10563SOL    HW132588   0.174   1.181   2.893
10563SOL    HW232589   0.057   1.207   2.783
10564SOL     OW32590   5.334   5.863   2.850
10564SOL    HW132591   5.245   5.904   2.869
10564SOL    HW232592   5.401   5.893   2.918
10565SOL     OW32593   0.422   6.999   6.039
10565SOL    HW132594   0.356   0.009   5.975
10565SOL    HW232595   0.487   6.940   5.989
10566SOL     OW32596   3.434   1.641   6.851
10566SOL    HW132597   3.335   1.648   6.852
10566SOL    HW232598   3.466   1.635   6.756
10567SOL     OW32599   2.569   2.416   5.170
10567SOL    HW132600   2.474   2.409   5.141
10567SOL    HW232601   2.628   2.378   5.099
10568SOL     OW32602   6.625   3.074   1.168
10568SOL    HW132603   6.663   3.008   1.232
10568SOL    HW232604   6.526   3.065   1.166
10569SOL     OW32605   5.296   1.247   2.053
10569SOL    HW132606   5.212   1.264   2.104
10569SOL    HW232607   5.282   1.171   1.989
10570SOL     OW32608   1.415   4.253   3.370
10570SOL    HW132609   1.465   4.169   3.349
10570SOL    HW232610   1.449   4.292   3.456
10571SOL     OW32611   7.006   4.068   5.280
10571SOL    HW132612   6.961   4.147   5.319
10571SOL    HW232613   6.942   4.018   5.221
10572SOL     OW32614   6.724   4.345   2.621
10572SOL    HW132615   6.630   4.316   2.637
10572SOL    HW232616   6.770   4.280   2.561
10573SOL     OW32617   5.520   0.493   4.986
10573SOL    HW132618   5.550   0.580   5.025
10573SOL    HW232619   5.524   0.498   4.886
10574SOL     OW32620   0.889   1.594   4.144
10574SOL    HW132621   0.918   1.661   4.212
10574SOL    HW232622   0.836   1.522   4.188
10575SOL     OW32623   0.059   1.119   3.695
10575SOL    HW132624   7.000   1.167   3.705
10575SOL    HW232625   0.069   1.086   3.601
10576SOL     OW32626   0.138   5.618   4.935
10576SOL    HW132627   0.107   5.529   4.968
10576SOL    HW232628   0.096   5.636   4.846
10577SOL     OW32629   1.893   4.658   0.069
10577SOL    HW132630   1.869   4.615   0.156
10577SOL    HW232631   1.946   4.741   0.087
10578SOL     OW32632   4.908   1.340   2.668
10578SOL    HW132633   4.887   1.438   2.664
10578SOL    HW232634   4.825   1.289   2.690
10579SOL     OW32635   4.481   2.996   1.714
10579SOL    HW132636   4.488   3.074   1.652
10579SOL    HW232637   4.540   3.011   1.793
10580SOL     OW32638   6.860   0.580   6.646
10580SOL    HW132639   6.822   0.489   6.662
10580SOL    HW232640   6.916   0.578   6.563
10581SOL     OW32641   6.131   0.115   3.296
10581SOL    HW132642   6.073   0.197   3.300
10581SOL    HW232643   6.219   0.134   3.339
10582SOL     OW32644   4.637   4.274   5.404
10582SOL    HW132645   4.711   4.230   5.454
10582SOL    HW232646   4.557   4.215   5.403
10583SOL     OW32647   3.436   1.168   3.875
10583SOL    HW132648   3.511   1.200   3.816
10583SOL    HW232649   3.456   1.074   3.904
10584SOL     OW32650   6.829   0.617   0.235
10584SOL    HW132651   6.783   0.647   0.152
10584SOL    HW232652   6.790   0.531   0.266
10585SOL     OW32653   2.644   2.083   5.151
10585SOL    HW132654   2.576   2.128   5.093
10585SOL    HW232655   2.719   2.146   5.170
10586SOL     OW32656   5.763   4.804   5.576
10586SOL    HW132657   5.712   4.833   5.495
10586SOL    HW232658   5.790   4.884   5.630
10587SOL     OW32659   6.386   4.831   0.023
10587SOL    HW132660   6.457   4.858   0.088
10587SOL    HW232661   6.421   4.758   6.992
10588SOL     OW32662   1.752   2.600   4.727
10588SOL    HW132663   1.658   2.591   4.760
10588SOL    HW232664   1.799   2.512   4.736
10589SOL     OW32665   6.192   1.044   4.511
10589SOL    HW132666   6.235   1.133   4.492
10589SOL    HW232667   6.155   1.006   4.427
10590SOL     OW32668   0.258   0.568   0.892
10590SOL    HW132669   0.286   0.519   0.974
10590SOL    HW232670   0.208   0.651   0.918
10591SOL     OW32671   1.478   2.247   0.110
10591SOL    HW132672   1.384   2.214   0.120
10591SOL    HW232673   1.538   2.170   0.085
10592SOL     OW32674   5.907   3.610   2.951
10592SOL    HW132675   5.868   3.555   3.025
10592SOL    HW232676   6.006   3.593   2.946
10593SOL     OW32677   2.404   5.592   0.384
10593SOL    HW132678   2.418   5.639   0.297
10593SOL    HW232679   2.396   5.659   0.458
10594SOL     OW32680   5.227   1.199   3.508
10594SOL    HW132681   5.170   1.120   3.483
10594SOL    HW232682   5.227   1.266   3.434
10595SOL     OW32683   5.446   6.950   0.029
10595SOL    HW132684   5.504   6.935   6.977
10595SOL    HW232685   5.370   7.010   0.003
10596SOL     OW32686   4.520   1.419   0.347
10596SOL    HW132687   4.440   1.475   0.369
10596SOL    HW232688   4.512   1.384   0.254
10597SOL     OW32689   3.129   1.762   5.738
10597SOL    HW132690   3.137   1.674   5.785
10597SOL    HW232691   3.034   1.794   5.745
10598SOL     OW32692   3.225   2.558   0.015
10598SOL    HW132693   3.203   2.463   0.037
10598SOL    HW232694   3.172   2.619   0.073
10599SOL     OW32695   5.475   3.418   6.247
10599SOL    HW132696   5.395   3.453   6.199
10599SOL    HW232697   5.545   3.489   6.252
10600SOL     OW32698   3.409   2.703   0.777
10600SOL    HW132699   3.310   2.686   0.771
10600SOL    HW232700   3.424   2.799   0.799
10601SOL     OW32701   1.063   5.103   5.175
10601SOL    HW132702   1.012   5.087   5.090
10601SOL    HW232703   1.161   5.093   5.158
10602SOL     OW32704   1.908   0.416   2.183
10602SOL    HW132705   1.994   0.371   2.162
10602SOL    HW232706   1.918   0.515   2.169
10603SOL     OW32707   3.967   0.438   3.422
10603SOL    HW132708   3.986   0.530   3.390
10603SOL    HW232709   3.949   0.379   3.343
10604SOL     OW32710   6.517   6.018   5.595
10604SOL    HW132711   6.422   5.997   5.570
10604SOL    HW232712   6.522   6.113   5.628
10605SOL     OW32713   2.311   6.722   6.879
10605SOL    HW132714   2.245   6.722   6.804
10605SOL    HW232715   2.279   6.782   6.952
10606SOL     OW32716   0.332   0.465   1.478
10606SOL    HW132717   0.234   0.485   1.479
10606SOL    HW232718   0.354   0.402   1.552
10607SOL     OW32719   3.931   5.621   5.920
10607SOL    HW132720   3.961   5.644   5.828
10607SOL    HW232721   4.005   5.574   5.968
10608SOL     OW32722   6.764   3.097   4.659
10608SOL    HW132723   6.682   3.102   4.602
10608SOL    HW232724   6.790   3.189   4.689
10609SOL     OW32725   2.783   6.467   0.057
10609SOL    HW132726   2.824   6.531   0.123
10609SOL    HW232727   2.848   6.450   7.011
10610SOL     OW32728   0.475   2.305   3.659
10610SOL    HW132729   0.381   2.293   3.692
10610SOL    HW232730   0.536   2.241   3.705
10611SOL     OW32731   2.459   4.459   6.644
10611SOL    HW132732   2.508   4.433   6.561
10611SOL    HW232733   2.387   4.392   6.662
10612SOL     OW32734   3.297   2.102   4.720
10612SOL    HW132735   3.225   2.034   4.733
10612SOL    HW232736   3.351   2.110   4.804
10613SOL     OW32737   5.539   6.019   5.565
10613SOL    HW132738   5.463   6.020   5.499
10613SOL    HW232739   5.583   5.930   5.563
10614SOL     OW32740   4.860   1.813   5.226
10614SOL    HW132741   4.761   1.810   5.233
10614SOL    HW232742   4.887   1.870   5.148
10615SOL     OW32743   4.295   0.388   5.443
10615SOL    HW132744   4.385   0.425   5.468
10615SOL    HW232745   4.304   0.292   5.417
10616SOL     OW32746   2.060   0.087   0.546
10616SOL    HW132747   2.038   0.140   0.464
10616SOL    HW232748   2.026   7.022   0.536
10617SOL     OW32749   3.058   4.183   1.282
10617SOL    HW132750   3.152   4.165   1.255
10617SOL    HW232751   3.025   4.108   1.339
10618SOL     OW32752   1.235   4.042   6.121
10618SOL    HW132753   1.194   3.994   6.043
10618SOL    HW232754   1.213   4.140   6.115
10619SOL     OW32755   0.609   2.971   2.990
10619SOL    HW132756   0.636   2.887   3.037
10619SOL    HW232757   0.515   2.962   2.956
10620SOL     OW32758   1.151   6.658   5.158
10620SOL    HW132759   1.216   6.583   5.174
10620SOL    HW232760   1.200   6.745   5.161
10621SOL     OW32761   0.634   4.999   1.513
10621SOL    HW132762   0.549   4.954   1.538
10621SOL    HW232763   0.701   4.930   1.485
10622SOL     OW32764   5.127   1.808   2.073
10622SOL    HW132765   5.175   1.883   2.118
10622SOL    HW232766   5.031   1.807   2.103
10623SOL     OW32767   0.097   4.688   5.411
10623SOL    HW132768   0.071   4.779   5.442
10623SOL    HW232769   0.154   4.696   5.329
10624SOL     OW32770   1.052   2.263   4.660
10624SOL    HW132771   1.058   2.283   4.758
10624SOL    HW232772   1.091   2.339   4.608
10625SOL     OW32773   0.146   4.701   1.096
10625SOL    HW132774   0.240   4.674   1.077
10625SOL    HW232775   0.117   4.770   1.030
10626SOL     OW32776   2.544   2.909   0.549
10626SOL    HW132777   2.514   2.971   0.621
10626SOL    HW232778   2.535   2.954   0.460
10627SOL     OW32779   5.018   0.420   6.768
10627SOL    HW132780   5.073   0.341   6.797
10627SOL    HW232781   5.079   0.491   6.732
10628SOL     OW32782   5.003   6.102   0.801
10628SOL    HW132783   5.018   6.117   0.703
10628SOL    HW232784   5.048   6.018   0.829
10629SOL     OW32785   2.805   5.155   4.686
10629SOL    HW132786   2.773   5.086   4.621
10629SOL    HW232787   2.881   5.117   4.740
10630SOL     OW32788   6.254   1.152   3.416
10630SOL    HW132789   6.344   1.119   3.386
10630SOL    HW232790   6.222   1.222   3.353
10631SOL     OW32791   3.194   5.155   5.063
10631SOL    HW132792   3.229   5.226   5.124
10631SOL    HW232793   3.244   5.070   5.078
10632SOL     OW32794   5.159   0.121   4.250
10632SOL    HW132795   5.247   0.092   4.214
10632SOL    HW232796   5.129   0.205   4.203
10633SOL     OW32797   2.500   2.686   0.712
10633SOL    HW132798   2.597   2.669   0.729
10633SOL    HW232799   2.491   2.767   0.653
10634SOL     OW32800   3.128   4.137   0.400
10634SOL    HW132801   3.160   4.067   0.465
10634SOL    HW232802   3.207   4.176   0.353
10635SOL     OW32803   2.145   3.618   6.781
10635SOL    HW132804   2.062   3.628   6.837
10635SOL    HW232805   2.217   3.575   6.836
10636SOL     OW32806   0.274   1.864   0.943
10636SOL    HW132807   0.261   1.798   1.017
10636SOL    HW232808   0.187   1.880   0.897
10637SOL     OW32809   1.443   4.433   5.935
10637SOL    HW132810   1.356   4.387   5.918
10637SOL    HW232811   1.426   4.519   5.984
10638SOL     OW32812   5.593   5.296   2.607
10638SOL    HW132813   5.497   5.290   2.637
10638SOL    HW232814   5.636   5.207   2.614
10639SOL     OW32815   0.888   3.970   2.993
10639SOL    HW132816   0.965   3.919   3.031
10639SOL    HW232817   0.837   4.014   3.067
10640SOL     OW32818   4.612   6.745   4.670
10640SOL    HW132819   4.599   6.677   4.598
10640SOL    HW232820   4.561   6.718   4.751
10641SOL     OW32821   1.988   2.114   1.996
10641SOL    HW132822   2.060   2.160   1.943
10641SOL    HW232823   2.016   2.108   2.092
10642SOL     OW32824   6.534   2.549   1.426
10642SOL    HW132825   6.560   2.609   1.502
10642SOL    HW232826   6.553   2.454   1.451
10643SOL     OW32827   1.295   5.551   4.395
10643SOL    HW132828   1.310   5.456   4.369
10643SOL    HW232829   1.228   5.555   4.469
10644SOL     OW32830   5.895   2.645   2.629
10644SOL    HW132831   5.938   2.581   2.565
10644SOL    HW232832   5.796   2.644   2.616
10645SOL     OW32833   1.765   2.803   4.560
10645SOL    HW132834   1.774   2.730   4.628
10645SOL    HW232835   1.794   2.890   4.600
10646SOL     OW32836   0.703   0.454   6.913
10646SOL    HW132837   0.786   0.444   6.968
10646SOL    HW232838   0.662   0.364   6.898
10647SOL     OW32839   3.007   5.560   4.951
10647SOL    HW132840   2.926   5.549   4.895
10647SOL    HW232841   3.073   5.619   4.904
10648SOL     OW32842   6.131   3.927   6.366
10648SOL    HW132843   6.071   3.915   6.446
10648SOL    HW232844   6.172   3.840   6.342
10649SOL     OW32845   0.010   4.343   2.435
10649SOL    HW132846   6.986   4.381   2.359
10649SOL    HW232847   0.031   4.415   2.501
10650SOL     OW32848   0.824   0.528   3.525
10650SOL    HW132849   0.876   0.444   3.538
10650SOL    HW232850   0.857   0.598   3.588
10651SOL     OW32851   5.482   6.385   0.293
10651SOL    HW132852   5.536   6.458   0.251
10651SOL    HW232853   5.421   6.345   0.224
10652SOL     OW32854   3.641   6.740   5.526
10652SOL    HW132855   3.682   6.717   5.438
10652SOL    HW232856   3.569   6.674   5.548
10653SOL     OW32857   4.081   5.278   3.537
10653SOL    HW132858   3.984   5.291   3.557
10653SOL    HW232859   4.091   5.235   3.447
10654SOL     OW32860   5.563   1.146   0.866
10654SOL    HW132861   5.645   1.194   0.894
10654SOL    HW232862   5.527   1.186   0.782
10655SOL     OW32863   2.287   5.743   0.579
10655SOL    HW132864   2.214   5.789   0.528
10655SOL    HW232865   2.275   5.760   0.676
10656SOL     OW32866   0.175   1.870   2.765
10656SOL    HW132867   0.094   1.928   2.771
10656SOL    HW232868   0.159   1.799   2.696
10657SOL     OW32869   5.758   0.724   5.532
10657SOL    HW132870   5.815   0.697   5.609
10657SOL    HW232871   5.707   0.807   5.556
10658SOL     OW32872   6.364   4.859   5.179
10658SOL    HW132873   6.363   4.867   5.278
10658SOL    HW232874   6.455   4.883   5.144
10659SOL     OW32875   0.570   5.641   1.280
10659SOL    HW132876   0.660   5.626   1.239
10659SOL    HW232877   0.563   5.590   1.366
10660SOL     OW32878   5.107   3.709   6.304
10660SOL    HW132879   5.032   3.653   6.340
10660SOL    HW232880   5.069   3.793   6.265
10661SOL     OW32881   1.128   6.644   1.765
10661SOL    HW132882   1.142   6.725   1.822
10661SOL    HW232883   1.208   6.631   1.706
10662SOL     OW32884   5.875   6.607   2.837
10662SOL    HW132885   5.831   6.657   2.762
10662SOL    HW232886   5.884   6.667   2.916
10663SOL     OW32887   0.742   2.073   2.712
10663SOL    HW132888   0.648   2.068   2.746
10663SOL    HW232889   0.747   2.141   2.639
10664SOL     OW32890   6.476   4.218   4.633
10664SOL    HW132891   6.420   4.168   4.568
10664SOL    HW232892   6.481   4.314   4.606
10665SOL     OW32893   0.832   1.878   0.702
10665SOL    HW132894   0.767   1.893   0.628
10665SOL    HW232895   0.921   1.916   0.676
10666SOL     OW32896   3.654   3.907   1.597
10666SOL    HW132897   3.565   3.946   1.573
10666SOL    HW232898   3.726   3.956   1.548
10667SOL     OW32899   4.496   2.960   5.255
10667SOL    HW132900   4.529   2.867   5.271
10667SOL    HW232901   4.401   2.967   5.287
10668SOL     OW32902   2.585   0.491   5.109
10668SOL    HW132903   2.538   0.576   5.137
10668SOL    HW232904   2.524   0.438   5.050
10669SOL     OW32905   5.442   6.816   1.417
10669SOL    HW132906   5.359   6.765   1.394
10669SOL    HW232907   5.479   6.858   1.334
10670SOL     OW32908   5.190   4.204   5.213
10670SOL    HW132909   5.177   4.152   5.129
10670SOL    HW232910   5.286   4.203   5.239
10671SOL     OW32911   2.448   2.518   3.246
10671SOL    HW132912   2.400   2.431   3.247
10671SOL    HW232913   2.473   2.542   3.152
10672SOL     OW32914   6.615   3.193   0.777
10672SOL    HW132915   6.526   3.156   0.752
10672SOL    HW232916   6.651   3.143   0.855
10673SOL     OW32917   1.159   0.874   6.458
10673SOL    HW132918   1.107   0.790   6.442
10673SOL    HW232919   1.099   0.944   6.498
10674SOL     OW32920   3.649   4.070   2.148
10674SOL    HW132921   3.736   4.027   2.171
10674SOL    HW232922   3.659   4.169   2.149
10675SOL     OW32923   1.834   0.229   6.680
10675SOL    HW132924   1.888   0.294   6.733
10675SOL    HW232925   1.882   0.207   6.595
10676SOL     OW32926   6.336   6.109   6.185
10676SOL    HW132927   6.347   6.121   6.086
10676SOL    HW232928   6.373   6.189   6.232
10677SOL     OW32929   1.340   0.529   2.185
10677SOL    HW132930   1.302   0.440   2.158
10677SOL    HW232931   1.401   0.517   2.263
10678SOL     OW32932   4.159   5.588   4.399
10678SOL    HW132933   4.194   5.642   4.476
10678SOL    HW232934   4.232   5.575   4.331
10679SOL     OW32935   4.665   5.537   6.423
10679SOL    HW132936   4.704   5.464   6.366
10679SOL    HW232937   4.701   5.625   6.393
10680SOL     OW32938   3.196   1.654   3.367
10680SOL    HW132939   3.165   1.709   3.290
10680SOL    HW232940   3.284   1.612   3.344
10681SOL     OW32941   0.764   3.697   0.530
10681SOL    HW132942   0.750   3.728   0.624
10681SOL    HW232943   0.747   3.599   0.524
10682SOL     OW32944   1.164   1.252   4.865
10682SOL    HW132945   1.234   1.186   4.892
10682SOL    HW232946   1.093   1.205   4.813
10683SOL     OW32947   3.692   1.828   3.560
10683SOL    HW132948   3.748   1.907   3.585
10683SOL    HW232949   3.596   1.853   3.563
10684SOL     OW32950   5.395   4.291   1.979
10684SOL    HW132951   5.492   4.281   2.002
10684SOL    HW232952   5.373   4.387   1.965
10685SOL     OW32953   0.629   5.368   2.389
10685SOL    HW132954   0.689   5.360   2.468
10685SOL    HW232955   0.683   5.370   2.305
10686SOL     OW32956   0.866   5.030   6.137
10686SOL    HW132957   0.769   5.054   6.132
10686SOL    HW232958   0.909   5.081   6.212
10687SOL     OW32959   6.499   5.428   1.578
10687SOL    HW132960   6.444   5.503   1.542
10687SOL    HW232961   6.596   5.447   1.563
10688SOL     OW32962   6.510   4.165   2.630
10688SOL    HW132963   6.410   4.170   2.627
10688SOL    HW232964   6.539   4.069   2.632
10689SOL     OW32965   0.343   5.585   3.634
10689SOL    HW132966   0.411   5.632   3.690
10689SOL    HW232967   0.374   5.581   3.539
10690SOL     OW32968   0.244   6.026   3.285
10690SOL    HW132969   0.295   6.079   3.352
10690SOL    HW232970   0.189   6.088   3.228
10691SOL     OW32971   0.694   2.399   2.286
10691SOL    HW132972   0.711   2.358   2.376
10691SOL    HW232973   0.681   2.498   2.298
10692SOL     OW32974   2.973   6.265   3.193
10692SOL    HW132975   3.054   6.324   3.193
10692SOL    HW232976   2.911   6.294   3.265
10693SOL     OW32977   2.339   6.939   0.067
10693SOL    HW132978   2.338   7.005   7.020
10693SOL    HW232979   2.246   6.927   0.101
10694SOL     OW32980   5.432   6.353   1.894
10694SOL    HW132981   5.426   6.428   1.959
10694SOL    HW232982   5.475   6.274   1.938
10695SOL     OW32983   5.273   1.919   3.382
10695SOL    HW132984   5.258   1.997   3.320
10695SOL    HW232985   5.198   1.854   3.372
10696SOL     OW32986   0.247   3.506   3.702
10696SOL    HW132987   0.346   3.492   3.712
10696SOL    HW232988   0.214   3.454   3.623
10697SOL     OW32989   0.062   6.116   4.520
10697SOL    HW132990   0.038   6.198   4.468
10697SOL    HW232991   7.010   6.085   4.573
10698SOL     OW32992   4.695   5.488   5.496
10698SOL    HW132993   4.608   5.535   5.481
10698SOL    HW232994   4.746   5.536   5.568
10699SOL     OW32995   4.156   3.430   2.035
10699SOL    HW132996   4.064   3.427   2.073
10699SOL    HW232997   4.158   3.491   1.956
10700SOL     OW32998   0.054   6.947   2.121
10700SOL    HW132999   0.057   6.950   2.221
10700SOL    HW233000   0.105   7.025   2.084
10701SOL     OW33001   3.436   6.282   0.184
10701SOL    HW133002   3.346   6.294   0.143
10701SOL    HW233003   3.442   6.191   0.226
10702SOL     OW33004   6.012   2.882   2.376
10702SOL    HW133005   5.955   2.822   2.432
10702SOL    HW233006   5.988   2.978   2.394
10703SOL     OW33007   3.104   4.150   5.148
10703SOL    HW133008   3.098   4.182   5.053
10703SOL    HW233009   3.094   4.227   5.210
10704SOL     OW33010   6.459   5.304   1.808
10704SOL    HW133011   6.464   5.369   1.732
10704SOL    HW233012   6.487   5.213   1.775
10705SOL     OW33013   6.317   4.673   1.857
10705SOL    HW133014   6.373   4.592   1.838
10705SOL    HW233015   6.307   4.685   1.956
10706SOL     OW33016   5.030   6.977   2.420
10706SOL    HW133017   5.083   0.034   2.423
10706SOL    HW233018   4.990   6.966   2.329
10707SOL     OW33019   0.301   6.415   3.908
10707SOL    HW133020   0.365   6.345   3.939
10707SOL    HW233021   0.233   6.373   3.848
10708SOL     OW33022   4.194   0.917   2.140
10708SOL    HW133023   4.185   0.938   2.237
10708SOL    HW233024   4.284   0.876   2.123
10709SOL     OW33025   6.353   6.735   4.895
10709SOL    HW133026   6.284   6.756   4.826
10709SOL    HW233027   6.408   6.657   4.865
10710SOL     OW33028   0.515   6.543   4.971
10710SOL    HW133029   0.477   6.583   5.054
10710SOL    HW233030   0.499   6.444   4.971
10711SOL     OW33031   1.745   6.433   3.827
10711SOL    HW133032   1.694   6.472   3.751
10711SOL    HW233033   1.700   6.458   3.913
10712SOL     OW33034   2.749   1.253   1.531
10712SOL    HW133035   2.770   1.196   1.452
10712SOL    HW233036   2.671   1.312   1.510
10713SOL     OW33037   1.592   4.129   1.368
10713SOL    HW133038   1.626   4.039   1.394
10713SOL    HW233039   1.588   4.135   1.268
10714SOL     OW33040   6.047   3.737   4.664
10714SOL    HW133041   5.988   3.719   4.742
10714SOL    HW233042   6.117   3.804   4.689
10715SOL     OW33043   5.241   6.707   2.670
10715SOL    HW133044   5.200   6.797   2.686
10715SOL    HW233045   5.296   6.681   2.749
10716SOL     OW33046   5.859   2.088   4.538
10716SOL    HW133047   5.787   2.157   4.532
10716SOL    HW233048   5.948   2.131   4.523
10717SOL     OW33049   1.090   2.696   1.116
10717SOL    HW133050   1.012   2.672   1.174
10717SOL    HW233051   1.123   2.787   1.140
10718SOL     OW33052   1.703   2.918   6.735
10718SOL    HW133053   1.672   2.990   6.673
10718SOL    HW233054   1.802   2.906   6.726
10719SOL     OW33055   5.209   5.966   0.610
10719SOL    HW133056   5.138   5.989   0.543
10719SOL    HW233057   5.246   5.875   0.589
10720SOL     OW33058   6.567   3.556   5.072
10720SOL    HW133059   6.492   3.598   5.124
10720SOL    HW233060   6.604   3.623   5.007
10721SOL     OW33061   6.022   4.230   5.213
10721SOL    HW133062   6.011   4.192   5.305
10721SOL    HW233063   6.120   4.237   5.192
10722SOL     OW33064   0.268   3.580   0.907
10722SOL    HW133065   0.310   3.667   0.930
10722SOL    HW233066   0.213   3.548   0.985
10723SOL     OW33067   0.639   3.858   6.230
10723SOL    HW133068   0.616   3.769   6.190
10723SOL    HW233069   0.562   3.892   6.284
10724SOL     OW33070   4.653   1.112   0.021
10724SOL    HW133071   4.750   1.116   0.048
10724SOL    HW233072   4.609   1.034   0.066
10725SOL     OW33073   0.123   4.658   4.736
10725SOL    HW133074   0.058   4.706   4.795
10725SOL    HW233075   0.216   4.681   4.763
10726SOL     OW33076   5.255   6.940   5.856
10726SOL    HW133077   5.280   6.985   5.941
10726SOL    HW233078   5.289   6.846   5.857
10727SOL     OW33079   0.498   5.527   4.334
10727SOL    HW133080   0.549   5.590   4.393
10727SOL    HW233081   0.457   5.455   4.389
10728SOL     OW33082   6.470   6.232   1.258
10728SOL    HW133083   6.442   6.315   1.306
10728SOL    HW233084   6.569   6.222   1.265
10729SOL     OW33085   5.306   1.010   2.567
10729SOL    HW133086   5.398   0.972   2.574
10729SOL    HW233087   5.304   1.078   2.493
10730SOL     OW33088   2.130   0.255   2.189
10730SOL    HW133089   2.225   0.278   2.165
10730SOL    HW233090   2.130   0.174   2.247
10731SOL     OW33091   3.042   5.550   0.539
10731SOL    HW133092   3.033   5.620   0.610
10731SOL    HW233093   3.050   5.595   0.450
10732SOL     OW33094   4.934   5.058   2.195
10732SOL    HW133095   4.891   5.123   2.257
10732SOL    HW233096   4.926   4.965   2.233
10733SOL     OW33097   4.899   2.273   6.983
10733SOL    HW133098   4.806   2.307   6.968
10733SOL    HW233099   4.896   2.173   6.990
10734SOL     OW33100   1.267   0.230   0.149
10734SOL    HW133101   1.299   0.324   0.161
10734SOL    HW233102   1.181   0.231   0.097
10735SOL     OW33103   1.590   4.634   2.858
10735SOL    HW133104   1.556   4.581   2.781
10735SOL    HW233105   1.548   4.601   2.943
10736SOL     OW33106   0.143   0.751   3.506
10736SOL    HW133107   0.204   0.829   3.525
10736SOL    HW233108   0.130   0.742   3.407
10737SOL     OW33109   1.137   1.848   0.602
10737SOL    HW133110   1.184   1.901   0.531
10737SOL    HW233111   1.141   1.898   0.689
10738SOL     OW33112   2.416   0.826   3.377
10738SOL    HW133113   2.363   0.845   3.294
10738SOL    HW233114   2.387   0.738   3.416
10739SOL     OW33115   0.003   1.190   1.291
10739SOL    HW133116   0.082   1.163   1.347
10739SOL    HW233117   7.013   1.287   1.303
10740SOL     OW33118   0.745   4.758   5.565
10740SOL    HW133119   0.789   4.771   5.654
10740SOL    HW233120   0.792   4.815   5.497
10741SOL     OW33121   0.586   0.532   3.002
10741SOL    HW133122   0.657   0.588   3.043
10741SOL    HW233123   0.595   0.534   2.902
10742SOL     OW33124   5.802   0.042   1.455
10742SOL    HW133125   5.751   0.004   1.531
10742SOL    HW233126   5.750   0.032   1.370
10743SOL     OW33127   2.431   1.573   4.837
10743SOL    HW133128   2.396   1.603   4.748
10743SOL    HW233129   2.366   1.508   4.878
10744SOL     OW33130   2.952   1.275   2.109
10744SOL    HW133131   2.888   1.351   2.124
10744SOL    HW233132   3.034   1.310   2.065
10745SOL     OW33133   1.141   4.944   0.836
10745SOL    HW133134   1.123   4.858   0.884
10745SOL    HW233135   1.115   4.934   0.740
10746SOL     OW33136   1.901   3.684   1.571
10746SOL    HW133137   1.885   3.596   1.616
10746SOL    HW233138   1.999   3.701   1.565
10747SOL     OW33139   4.469   0.644   2.911
10747SOL    HW133140   4.481   0.628   2.813
10747SOL    HW233141   4.542   0.598   2.962
10748SOL     OW33142   3.536   0.630   1.538
10748SOL    HW133143   3.467   0.701   1.551
10748SOL    HW233144   3.503   0.544   1.577
10749SOL     OW33145   6.997   4.751   3.972
10749SOL    HW133146   0.063   4.782   3.960
10749SOL    HW233147   6.959   4.722   3.884
10750SOL     OW33148   3.789   5.858   4.478
10750SOL    HW133149   3.823   5.937   4.529
10750SOL    HW233150   3.714   5.886   4.418
10751SOL     OW33151   1.175   4.243   4.571
10751SOL    HW133152   1.168   4.156   4.620
10751SOL    HW233153   1.177   4.319   4.637
10752SOL     OW33154   6.590   3.583   6.089
10752SOL    HW133155   6.614   3.676   6.117
10752SOL    HW233156   6.635   3.517   6.149
10753SOL     OW33157   4.928   0.234   4.361
10753SOL    HW133158   4.888   0.318   4.324
10753SOL    HW233159   4.992   0.196   4.294
10754SOL     OW33160   1.101   1.643   3.685
10754SOL    HW133161   1.027   1.578   3.699
10754SOL    HW233162   1.187   1.604   3.719
10755SOL     OW33163   0.249   2.237   0.301
10755SOL    HW133164   0.198   2.151   0.293
10755SOL    HW233165   0.346   2.217   0.312
10756SOL     OW33166   6.191   4.580   7.011
10756SOL    HW133167   6.272   4.638   7.016
10756SOL    HW233168   6.168   4.546   0.074
10757SOL     OW33169   1.227   2.932   0.320
10757SOL    HW133170   1.161   2.962   0.251
10757SOL    HW233171   1.215   2.986   0.403
10758SOL     OW33172   0.944   6.745   5.594
10758SOL    HW133173   1.034   6.704   5.580
10758SOL    HW233174   0.921   6.802   5.515
10759SOL     OW33175   2.137   3.128   7.021
10759SOL    HW133176   2.039   3.108   7.016
10759SOL    HW233177   2.151   3.227   7.026
10760SOL     OW33178   6.361   0.993   0.432
10760SOL    HW133179   6.351   0.907   0.482
10760SOL    HW233180   6.337   0.980   0.336
10761SOL     OW33181   1.321   2.157   6.138
10761SOL    HW133182   1.266   2.081   6.105
10761SOL    HW233183   1.295   2.179   6.232
10762SOL     OW33184   3.881   1.665   5.098
10762SOL    HW133185   3.973   1.650   5.062
10762SOL    HW233186   3.858   1.762   5.092
10763SOL     OW33187   4.696   6.569   1.136
10763SOL    HW133188   4.634   6.545   1.210
10763SOL    HW233189   4.789   6.542   1.161
10764SOL     OW33190   5.898   1.863   5.551
10764SOL    HW133191   5.873   1.879   5.455
10764SOL    HW233192   5.957   1.937   5.583
10765SOL     OW33193   5.793   2.801   0.929
10765SOL    HW133194   5.831   2.720   0.886
10765SOL    HW233195   5.717   2.836   0.874
10766SOL     OW33196   3.654   3.055   1.126
10766SOL    HW133197   3.724   3.124   1.108
10766SOL    HW233198   3.669   3.014   1.216
10767SOL     OW33199   1.456   0.523   7.007
10767SOL    HW133200   1.392   0.512   0.055
10767SOL    HW233201   1.521   0.596   0.001
10768SOL     OW33202   4.038   5.240   1.203
10768SOL    HW133203   3.974   5.286   1.141
10768SOL    HW233204   4.129   5.279   1.191
10769SOL     OW33205   2.205   5.007   5.145
10769SOL    HW133206   2.294   5.009   5.192
10769SOL    HW233207   2.177   5.100   5.124
10770SOL     OW33208   5.808   0.170   4.909
10770SOL    HW133209   5.757   0.086   4.928
10770SOL    HW233210   5.763   0.247   4.954
10771SOL     OW33211   5.604   1.223   5.011
10771SOL    HW133212   5.531   1.243   4.945
10771SOL    HW233213   5.612   1.299   5.075
10772SOL     OW33214   6.831   6.475   4.705
10772SOL    HW133215   6.912   6.450   4.652
10772SOL    HW233216   6.859   6.514   4.793
10773SOL     OW33217   6.552   5.506   6.930
10773SOL    HW133218   6.636   5.494   6.983
10773SOL    HW233219   6.562   5.583   6.867
10774SOL     OW33220   1.809   1.765   0.007
10774SOL    HW133221   1.804   1.753   6.936
10774SOL    HW233222   1.905   1.776   0.034
10775SOL     OW33223   0.558   2.667   0.531
10775SOL    HW133224   0.487   2.673   0.602
10775SOL    HW233225   0.620   2.591   0.552
10776SOL     OW33226   1.495   6.529   6.950
10776SOL    HW133227   1.514   6.525   6.852
10776SOL    HW233228   1.399   6.553   6.965
10777SOL     OW33229   4.056   6.174   4.275
10777SOL    HW133230   4.004   6.132   4.201
10777SOL    HW233231   4.051   6.116   4.356
10778SOL     OW33232   5.867   6.436   5.134
10778SOL    HW133233   5.848   6.401   5.043
10778SOL    HW233234   5.847   6.534   5.137
10779SOL     OW33235   6.188   4.918   3.325
10779SOL    HW133236   6.255   4.976   3.373
10779SOL    HW233237   6.236   4.857   3.262
10780SOL     OW33238   1.510   0.241   3.860
10780SOL    HW133239   1.461   0.250   3.947
10780SOL    HW233240   1.479   0.311   3.796
10781SOL     OW33241   4.008   1.373   3.042
10781SOL    HW133242   4.048   1.428   3.115
10781SOL    HW233243   3.929   1.323   3.077
10782SOL     OW33244   0.192   1.497   3.561
10782SOL    HW133245   0.093   1.479   3.560
10782SOL    HW233246   0.216   1.539   3.648
10783SOL     OW33247   0.934   3.446   3.322
10783SOL    HW133248   0.978   3.356   3.318
10783SOL    HW233249   0.894   3.467   3.233
10784SOL     OW33250   3.292   0.329   3.279
10784SOL    HW133251   3.263   0.234   3.280
10784SOL    HW233252   3.258   0.376   3.361
10785SOL     OW33253   0.246   5.005   1.085
10785SOL    HW133254   0.291   4.926   1.126
10785SOL    HW233255   0.314   5.075   1.064
10786SOL     OW33256   4.921   4.914   1.915
10786SOL    HW133257   4.862   4.836   1.895
10786SOL    HW233258   4.891   4.958   1.999
10787SOL     OW33259   2.930   1.325   4.631
10787SOL    HW133260   2.964   1.366   4.546
10787SOL    HW233261   2.919   1.396   4.701
10788SOL     OW33262   2.288   5.120   6.455
10788SOL    HW133263   2.352   5.119   6.532
10788SOL    HW233264   2.247   5.030   6.444
10789SOL     OW33265   5.956   2.602   0.230
10789SOL    HW133266   5.856   2.597   0.223
10789SOL    HW233267   5.995   2.608   0.138
10790SOL     OW33268   1.121   0.711   2.208
10790SOL    HW133269   1.201   0.657   2.183
10790SOL    HW233270   1.068   0.662   2.278
10791SOL     OW33271   0.020   0.505   1.069
10791SOL    HW133272   0.093   0.456   1.020
10791SOL    HW233273   0.012   0.470   1.162
10792SOL     OW33274   3.868   3.962   2.248
10792SOL    HW133275   3.869   4.005   2.338
10792SOL    HW233276   3.949   3.903   2.239
10793SOL     OW33277   5.238   2.526   4.282
10793SOL    HW133278   5.213   2.440   4.237
10793SOL    HW233279   5.171   2.547   4.353
10794SOL     OW33280   2.895   3.610   3.757
10794SOL    HW133281   2.965   3.638   3.822
10794SOL    HW233282   2.911   3.656   3.670
10795SOL     OW33283   0.023   3.712   3.179
10795SOL    HW133284   0.068   3.715   3.090
10795SOL    HW233285   6.982   3.784   3.184
10796SOL     OW33286   5.456   6.698   0.674
10796SOL    HW133287   5.420   6.747   0.594
10796SOL    HW233288   5.382   6.682   0.738
10797SOL     OW33289   3.774   1.820   1.387
10797SOL    HW133290   3.715   1.895   1.416
10797SOL    HW233291   3.769   1.810   1.287
10798SOL     OW33292   2.573   6.305   1.079
10798SOL    HW133293   2.634   6.274   1.006
10798SOL    HW233294   2.613   6.385   1.123
10799SOL     OW33295   3.622   0.822   1.876
10799SOL    HW133296   3.719   0.839   1.894
10799SOL    HW233297   3.607   0.724   1.863
10800SOL     OW33298   0.361   0.248   0.426
10800SOL    HW133299   0.336   0.158   0.390
10800SOL    HW233300   0.280   0.292   0.465
10801SOL     OW33301   1.037   6.947   5.781
10801SOL    HW133302   1.066   0.013   5.763
10801SOL    HW233303   1.010   6.903   5.695
10802SOL     OW33304   1.210   2.740   3.316
10802SOL    HW133305   1.145   2.725   3.242
10802SOL    HW233306   1.180   2.818   3.371
10803SOL     OW33307   3.400   4.058   5.900
10803SOL    HW133308   3.434   4.140   5.853
10803SOL    HW233309   3.322   4.022   5.850
10804SOL     OW33310   5.673   3.109   1.909
10804SOL    HW133311   5.761   3.103   1.957
10804SOL    HW233312   5.599   3.105   1.976
10805SOL     OW33313   3.976   6.819   6.967
10805SOL    HW133314   3.992   6.762   6.887
10805SOL    HW233315   3.996   6.766   0.022
10806SOL     OW33316   4.723   4.020   5.934
10806SOL    HW133317   4.751   3.925   5.940
10806SOL    HW233318   4.794   4.073   5.888
10807SOL     OW33319   1.338   6.560   2.964
10807SOL    HW133320   1.251   6.515   2.945
10807SOL    HW233321   1.327   6.659   2.954
10808SOL     OW33322   6.663   3.439   6.324
10808SOL    HW133323   6.572   3.397   6.322
10808SOL    HW233324   6.690   3.455   6.419
10809SOL     OW33325   3.039   6.068   3.832
10809SOL    HW133326   3.030   6.030   3.924
10809SOL    HW233327   3.106   6.142   3.833
10810SOL     OW33328   2.122   0.498   4.886
10810SOL    HW133329   2.146   0.412   4.933
10810SOL    HW233330   2.027   0.495   4.858
10811SOL     OW33331   4.130   4.519   5.734
10811SOL    HW133332   4.031   4.525   5.751
10811SOL    HW233333   4.179   4.529   5.820
10812SOL     OW33334   1.200   3.411   1.711
10812SOL    HW133335   1.152   3.326   1.733
10812SOL    HW233336   1.237   3.452   1.794
10813SOL     OW33337   1.801   5.477   6.836
10813SOL    HW133338   1.828   5.573   6.848
10813SOL    HW233339   1.772   5.440   6.924
10814SOL     OW33340   1.533   6.552   6.262
10814SOL    HW133341   1.541   6.608   6.180
10814SOL    HW233342   1.461   6.589   6.322
10815SOL     OW33343   4.693   4.218   3.735
10815SOL    HW133344   4.636   4.256   3.663
10815SOL    HW233345   4.675   4.266   3.821
10816SOL     OW33346   2.003   2.359   1.406
10816SOL    HW133347   2.002   2.436   1.469
10816SOL    HW233348   2.087   2.360   1.353
10817SOL     OW33349   5.699   6.845   2.905
10817SOL    HW133350   5.790   6.869   2.873
10817SOL    HW233351   5.704   6.805   2.996
10818SOL     OW33352   4.464   4.499   5.425
10818SOL    HW133353   4.556   4.467   5.448
10818SOL    HW233354   4.397   4.443   5.473
10819SOL     OW33355   6.746   4.477   0.122
10819SOL    HW133356   6.725   4.380   0.137
10819SOL    HW233357   6.838   4.485   0.082
10820SOL     OW33358   6.072   6.000   3.745
10820SOL    HW133359   6.022   6.062   3.806
10820SOL    HW233360   6.015   5.976   3.667
10821SOL     OW33361   5.691   6.600   2.110
10821SOL    HW133362   5.720   6.614   2.015
10821SOL    HW233363   5.612   6.657   2.129
10822SOL     OW33364   0.978   2.932   3.173
10822SOL    HW133365   0.893   2.984   3.181
10822SOL    HW233366   0.999   2.916   3.076
10823SOL     OW33367   1.907   5.705   1.370
10823SOL    HW133368   1.849   5.623   1.366
10823SOL    HW233369   1.877   5.763   1.446
10824SOL     OW33370   6.036   1.017   3.583
10824SOL    HW133371   6.070   0.936   3.633
10824SOL    HW233372   6.102   1.042   3.513
10825SOL     OW33373   3.093   0.309   6.264
10825SOL    HW133374   3.095   0.327   6.165
10825SOL    HW233375   3.001   0.326   6.299
10826SOL     OW33376   0.459   3.549   3.353
10826SOL    HW133377   0.462   3.573   3.450
10826SOL    HW233378   0.481   3.629   3.297
10827SOL     OW33379   6.277   4.155   4.463
10827SOL    HW133380   6.217   4.220   4.510
10827SOL    HW233381   6.225   4.109   4.390
10828SOL     OW33382   0.820   5.035   1.774
10828SOL    HW133383   0.918   5.018   1.764
10828SOL    HW233384   0.770   4.991   1.700
10829SOL     OW33385   3.554   2.235   0.980
10829SOL    HW133386   3.625   2.173   0.946
10829SOL    HW233387   3.521   2.292   0.905
10830SOL     OW33388   5.373   1.608   3.677
10830SOL    HW133389   5.329   1.652   3.755
10830SOL    HW233390   5.348   1.511   3.675
10831SOL     OW33391   3.829   6.134   2.231
10831SOL    HW133392   3.889   6.075   2.177
10831SOL    HW233393   3.734   6.103   2.221
10832SOL     OW33394   1.138   2.653   0.300
10832SOL    HW133395   1.211   2.585   0.316
10832SOL    HW233396   1.177   2.745   0.308
10833SOL     OW33397   1.417   1.544   2.037
10833SOL    HW133398   1.483   1.607   1.996
10833SOL    HW233399   1.332   1.544   1.984
10834SOL     OW33400   1.221   2.261   6.550
10834SOL    HW133401   1.276   2.275   6.632
10834SOL    HW233402   1.256   2.182   6.500
10835SOL     OW33403   6.512   2.212   6.953
10835SOL    HW133404   6.563   2.127   6.966
10835SOL    HW233405   6.555   2.285   7.005
10836SOL     OW33406   0.043   1.996   4.240
10836SOL    HW133407   0.066   2.093   4.228
10836SOL    HW233408   0.031   1.976   4.337
10837SOL     OW33409   6.982   4.866   0.192
10837SOL    HW133410   6.938   4.915   0.117
10837SOL    HW233411   6.933   4.781   0.210
10838SOL     OW33412   5.848   6.345   4.880
10838SOL    HW133413   5.894   6.263   4.846
10838SOL    HW233414   5.749   6.333   4.874
10839SOL     OW33415   3.861   2.890   0.997
10839SOL    HW133416   3.865   2.861   0.901
10839SOL    HW233417   3.775   2.939   1.013
10840SOL     OW33418   3.660   5.292   2.162
10840SOL    HW133419   3.567   5.327   2.175
10840SOL    HW233420   3.681   5.290   2.064
10841SOL     OW33421   4.638   5.316   0.181
10841SOL    HW133422   4.659   5.289   0.086
10841SOL    HW233423   4.661   5.240   0.242
10842SOL     OW33424   5.172   2.510   1.267
10842SOL    HW133425   5.162   2.455   1.350
10842SOL    HW233426   5.159   2.452   1.187
10843SOL     OW33427   1.044   2.300   1.009
10843SOL    HW133428   1.013   2.217   1.055
10843SOL    HW233429   0.980   2.375   1.027
10844SOL     OW33430   0.501   6.892   4.120
10844SOL    HW133431   0.490   6.827   4.045
10844SOL    HW233432   0.598   6.909   4.135
10845SOL     OW33433   3.420   0.292   5.784
10845SOL    HW133434   3.362   0.343   5.720
10845SOL    HW233435   3.509   0.337   5.791
10846SOL     OW33436   5.064   2.742   1.131
10846SOL    HW133437   5.122   2.680   1.079
10846SOL    HW233438   5.070   2.719   1.228
10847SOL     OW33439   3.809   3.623   6.555
10847SOL    HW133440   3.722   3.584   6.525
10847SOL    HW233441   3.791   3.694   6.623
10848SOL     OW33442   3.065   2.624   6.753
10848SOL    HW133443   3.076   2.580   6.842
10848SOL    HW233444   3.146   2.680   6.734
10849SOL     OW33445   2.717   5.602   2.958
10849SOL    HW133446   2.732   5.507   2.931
10849SOL    HW233447   2.621   5.615   2.983
10850SOL     OW33448   3.597   5.701   0.081
10850SOL    HW133449   3.657   5.643   0.026
10850SOL    HW233450   3.619   5.797   0.063
10851SOL     OW33451   2.585   2.850   6.366
10851SOL    HW133452   2.580   2.883   6.272
10851SOL    HW233453   2.498   2.867   6.412
10852SOL     OW33454   0.893   6.994   6.872
10852SOL    HW133455   0.945   6.909   6.873
10852SOL    HW233456   0.955   0.044   6.880
10853SOL     OW33457   3.255   2.322   5.675
10853SOL    HW133458   3.232   2.413   5.640
10853SOL    HW233459   3.346   2.323   5.717
10854SOL     OW33460   5.218   6.949   5.194
10854SOL    HW133461   5.291   6.977   5.257
10854SOL    HW233462   5.156   7.025   5.179
10855SOL     OW33463   2.660   6.650   1.682
10855SOL    HW133464   2.583   6.620   1.737
10855SOL    HW233465   2.683   6.579   1.615
10856SOL     OW33466   5.800   1.835   2.021
10856SOL    HW133467   5.823   1.931   2.007
10856SOL    HW233468   5.872   1.777   1.983
10857SOL     OW33469   5.720   2.361   3.220
10857SOL    HW133470   5.794   2.409   3.267
10857SOL    HW233471   5.722   2.385   3.123
10858SOL     OW33472   0.816   2.324   6.588
10858SOL    HW133473   0.903   2.349   6.631
10858SOL    HW233474   0.760   2.273   6.652
10859SOL     OW33475   2.136   3.520   4.089
10859SOL    HW133476   2.119   3.424   4.110
10859SOL    HW233477   2.118   3.576   4.170
10860SOL     OW33478   6.422   1.455   6.001
10860SOL    HW133479   6.455   1.535   6.052
10860SOL    HW233480   6.436   1.471   5.903
10861SOL     OW33481   3.754   3.334   3.166
10861SOL    HW133482   3.841   3.376   3.140
10861SOL    HW233483   3.771   3.247   3.211
10862SOL     OW33484   2.592   1.630   6.436
10862SOL    HW133485   2.616   1.548   6.383
10862SOL    HW233486   2.616   1.711   6.384
10863SOL     OW33487   4.081   0.446   2.934
10863SOL    HW133488   4.121   0.537   2.947
10863SOL    HW233489   3.991   0.455   2.891
10864SOL     OW33490   3.792   5.302   0.611
10864SOL    HW133491   3.872   5.249   0.584
10864SOL    HW233492   3.716   5.240   0.631
10865SOL     OW33493   5.953   1.316   2.895
10865SOL    HW133494   5.874   1.281   2.946
10865SOL    HW233495   5.933   1.314   2.797
10866SOL     OW33496   4.528   4.547   0.463
10866SOL    HW133497   4.434   4.539   0.430
10866SOL    HW233498   4.540   4.489   0.543
10867SOL     OW33499   2.985   3.791   0.304
10867SOL    HW133500   2.904   3.734   0.293
10867SOL    HW233501   2.962   3.886   0.284
10868SOL     OW33502   2.483   2.328   3.740
10868SOL    HW133503   2.396   2.337   3.788
10868SOL    HW233504   2.488   2.396   3.667
10869NA      NA33505   0.641   2.463   6.174
10870NA      NA33506   4.399   4.620   5.244
10871NA      NA33507   2.149   4.294   2.405
10872NA      NA33508   5.049   4.237   3.847
10873NA      NA33509   4.255   2.320   5.252
10874NA      NA33510   3.245   4.462   1.498
10875NA      NA33511   0.196   4.483   0.294
10876NA      NA33512   3.208   3.390   2.872
10877NA      NA33513   4.861   5.247   1.189
10878NA      NA33514   3.617   6.988   5.536
10879NA      NA33515   5.931   5.637   1.134
10880NA      NA33516   2.236   0.691   4.913
10881NA      NA33517   4.092   4.846   1.786
10882NA      NA33518   4.035   3.136   1.759
   7.02802   7.02802   7.02802
