Generated by trjconv : CNT in water t=  92.00000
33518
    1C        C    1   2.838   2.764   4.746
    1C        C    2   2.897   2.716   4.864
    1C        C    3   2.842   2.772   4.980
    1C        C    4   2.845   2.768   4.259
    1C        C    5   2.902   2.726   4.380
    1C        C    6   2.855   2.780   4.502
    1C        C    7   3.015   2.646   4.624
    1C        C    8   2.897   2.725   4.624
    1C        C    9   3.079   2.603   4.742
    1C        C   10   3.014   2.635   4.863
    1C        C   11   3.177   2.487   4.971
    1C        C   12   3.061   2.565   4.975
    1C        C   13   2.851   2.772   3.773
    1C        C   14   2.904   2.723   3.895
    1C        C   15   2.847   2.770   4.015
    1C        C   16   3.018   2.644   4.137
    1C        C   17   2.899   2.721   4.137
    1C        C   18   3.085   2.619   4.259
    1C        C   19   3.018   2.645   4.381
    1C        C   20   3.208   2.557   4.504
    1C        C   21   3.074   2.603   4.504
    1C        C   22   3.278   2.528   4.623
    1C        C   23   3.207   2.542   4.744
    1C        C   24   3.411   2.475   4.865
    1C        C   25   3.269   2.493   4.862
    1C        C   26   3.491   2.468   4.980
    1C        C   27   2.850   2.767   3.282
    1C        C   28   2.906   2.727   3.405
    1C        C   29   2.855   2.772   3.529
    1C        C   30   3.022   2.644   3.648
    1C        C   31   2.908   2.727   3.652
    1C        C   32   3.081   2.606   3.770
    1C        C   33   3.019   2.642   3.892
    1C        C   34   3.208   2.551   4.018
    1C        C   35   3.078   2.605   4.015
    1C        C   36   3.278   2.534   4.139
    1C        C   37   3.214   2.562   4.261
    1C        C   38   3.416   2.502   4.384
    1C        C   39   3.279   2.536   4.384
    1C        C   40   3.488   2.495   4.506
    1C        C   41   3.417   2.500   4.627
    1C        C   42   3.632   2.479   4.744
    1C        C   43   3.489   2.480   4.747
    1C        C   44   3.705   2.479   4.865
    1C        C   45   3.630   2.472   4.984
    1C        C   46   2.833   2.746   2.796
    1C        C   47   2.889   2.704   2.919
    1C        C   48   2.843   2.761   3.040
    1C        C   49   3.019   2.638   3.163
    1C        C   50   2.900   2.715   3.161
    1C        C   51   3.083   2.605   3.284
    1C        C   52   3.017   2.639   3.404
    1C        C   53   3.206   2.542   3.526
    1C        C   54   3.077   2.600   3.526
    1C        C   55   3.276   2.520   3.647
    1C        C   56   3.210   2.548   3.769
    1C        C   57   3.414   2.510   3.895
    1C        C   58   3.275   2.537   3.894
    1C        C   59   3.486   2.503   4.017
    1C        C   60   3.418   2.510   4.140
    1C        C   61   3.629   2.500   4.258
    1C        C   62   3.488   2.498   4.262
    1C        C   63   3.700   2.506   4.380
    1C        C   64   3.629   2.492   4.502
    1C        C   65   3.836   2.540   4.623
    1C        C   66   3.701   2.497   4.623
    1C        C   67   3.902   2.560   4.747
    1C        C   68   3.839   2.521   4.867
    1C        C   69   4.050   2.582   4.977
    1C        C   70   3.920   2.530   4.981
    1C        C   71   2.825   2.731   2.308
    1C        C   72   2.882   2.690   2.431
    1C        C   73   2.830   2.741   2.552
    1C        C   74   3.006   2.624   2.672
    1C        C   75   2.888   2.701   2.674
    1C        C   76   3.071   2.596   2.794
    1C        C   77   3.009   2.630   2.917
    1C        C   78   3.205   2.547   3.036
    1C        C   79   3.073   2.598   3.039
    1C        C   80   3.273   2.524   3.158
    1C        C   81   3.210   2.542   3.283
    1C        C   82   3.415   2.494   3.400
    1C        C   83   3.276   2.518   3.405
    1C        C   84   3.484   2.486   3.523
    1C        C   85   3.415   2.494   3.646
    1C        C   86   3.622   2.505   3.765
    1C        C   87   3.481   2.497   3.772
    1C        C   88   3.693   2.512   3.887
    1C        C   89   3.627   2.506   4.012
    1C        C   90   3.834   2.540   4.137
    1C        C   91   3.697   2.504   4.135
    1C        C   92   3.900   2.572   4.257
    1C        C   93   3.837   2.542   4.380
    1C        C   94   4.027   2.633   4.501
    1C        C   95   3.905   2.562   4.502
    1C        C   96   4.089   2.666   4.624
    1C        C   97   4.027   2.627   4.745
    1C        C   98   4.191   2.764   4.865
    1C        C   99   4.102   2.652   4.863
    1C        C  100   4.206   2.849   4.975
    1C        C  101   2.824   2.724   2.069
    1C        C  102   2.990   2.587   2.188
    1C        C  103   2.877   2.674   2.188
    1C        C  104   3.063   2.574   2.309
    1C        C  105   3.002   2.616   2.429
    1C        C  106   3.200   2.534   2.551
    1C        C  107   3.068   2.585   2.551
    1C        C  108   3.273   2.525   2.671
    1C        C  109   3.201   2.542   2.792
    1C        C  110   3.409   2.495   2.913
    1C        C  111   3.271   2.524   2.913
    1C        C  112   3.483   2.486   3.033
    1C        C  113   3.412   2.498   3.155
    1C        C  114   3.625   2.493   3.279
    1C        C  115   3.483   2.492   3.276
    1C        C  116   3.696   2.501   3.401
    1C        C  117   3.625   2.490   3.523
    1C        C  118   3.830   2.549   3.647
    1C        C  119   3.695   2.509   3.645
    1C        C  120   3.895   2.572   3.770
    1C        C  121   3.830   2.546   3.893
    1C        C  122   4.021   2.638   4.011
    1C        C  123   3.899   2.566   4.014
    1C        C  124   4.083   2.672   4.133
    1C        C  125   4.028   2.631   4.257
    1C        C  126   4.194   2.763   4.379
    1C        C  127   4.088   2.670   4.379
    1C        C  128   4.241   2.818   4.500
    1C        C  129   4.192   2.763   4.620
    1C        C  130   4.320   2.933   4.740
    1C        C  131   4.234   2.820   4.742
    1C        C  132   4.356   3.002   4.859
    1C        C  133   4.287   2.962   4.974
    1C        C  134   3.170   2.460   2.082
    1C        C  135   3.037   2.504   2.081
    1C        C  136   3.258   2.475   2.190
    1C        C  137   3.195   2.520   2.308
    1C        C  138   3.403   2.480   2.426
    1C        C  139   3.264   2.500   2.430
    1C        C  140   3.480   2.482   2.545
    1C        C  141   3.412   2.499   2.668
    1C        C  142   3.622   2.497   2.792
    1C        C  143   3.481   2.492   2.792
    1C        C  144   3.696   2.503   2.912
    1C        C  145   3.625   2.490   3.033
    1C        C  146   3.830   2.536   3.155
    1C        C  147   3.694   2.495   3.156
    1C        C  148   3.894   2.566   3.276
    1C        C  149   3.831   2.542   3.400
    1C        C  150   4.023   2.630   3.520
    1C        C  151   3.895   2.571   3.523
    1C        C  152   4.081   2.668   3.643
    1C        C  153   4.022   2.634   3.767
    1C        C  154   4.190   2.765   3.889
    1C        C  155   4.079   2.678   3.888
    1C        C  156   4.241   2.812   4.012
    1C        C  157   4.196   2.757   4.134
    1C        C  158   4.331   2.920   4.252
    1C        C  159   4.249   2.805   4.256
    1C        C  160   4.367   2.985   4.372
    1C        C  161   4.328   2.929   4.496
    1C        C  162   4.432   3.114   4.615
    1C        C  163   4.363   2.991   4.618
    1C        C  164   4.459   3.185   4.734
    1C        C  165   4.424   3.126   4.857
    1C        C  166   4.506   3.322   4.971
    1C        C  167   4.476   3.186   4.972
    1C        C  168   3.472   2.427   2.072
    1C        C  169   3.397   2.451   2.188
    1C        C  170   3.616   2.462   2.304
    1C        C  171   3.474   2.461   2.306
    1C        C  172   3.690   2.486   2.422
    1C        C  173   3.621   2.487   2.545
    1C        C  174   3.827   2.534   2.666
    1C        C  175   3.689   2.503   2.668
    1C        C  176   3.897   2.555   2.787
    1C        C  177   3.835   2.530   2.912
    1C        C  178   4.026   2.621   3.034
    1C        C  179   3.902   2.552   3.034
    1C        C  180   4.083   2.667   3.155
    1C        C  181   4.022   2.627   3.275
    1C        C  182   4.196   2.749   3.399
    1C        C  183   4.086   2.661   3.397
    1C        C  184   4.247   2.803   3.520
    1C        C  185   4.191   2.756   3.641
    1C        C  186   4.333   2.913   3.765
    1C        C  187   4.241   2.806   3.763
    1C        C  188   4.374   2.975   3.885
    1C        C  189   4.333   2.919   4.008
    1C        C  190   4.435   3.105   4.126
    1C        C  191   4.371   2.979   4.130
    1C        C  192   4.457   3.173   4.248
    1C        C  193   4.432   3.111   4.372
    1C        C  194   4.503   3.313   4.490
    1C        C  195   4.464   3.177   4.493
    1C        C  196   4.520   3.386   4.609
    1C        C  197   4.506   3.319   4.732
    1C        C  198   4.550   3.534   4.848
    1C        C  199   4.523   3.393   4.852
    1C        C  200   4.586   3.616   4.959
    1C        C  201   3.612   2.421   2.069
    1C        C  202   3.823   2.513   2.183
    1C        C  203   3.690   2.460   2.182
    1C        C  204   3.896   2.541   2.301
    1C        C  205   3.828   2.517   2.423
    1C        C  206   4.020   2.614   2.543
    1C        C  207   3.894   2.549   2.543
    1C        C  208   4.084   2.651   2.664
    1C        C  209   4.020   2.623   2.787
    1C        C  210   4.189   2.750   2.905
    1C        C  211   4.077   2.665   2.910
    1C        C  212   4.246   2.794   3.027
    1C        C  213   4.197   2.751   3.152
    1C        C  214   4.330   2.912   3.271
    1C        C  215   4.245   2.799   3.276
    1C        C  216   4.368   2.973   3.393
    1C        C  217   4.334   2.914   3.517
    1C        C  218   4.433   3.097   3.638
    1C        C  219   4.373   2.969   3.641
    1C        C  220   4.458   3.166   3.759
    1C        C  221   4.431   3.104   3.883
    1C        C  222   4.494   3.309   4.002
    1C        C  223   4.461   3.171   4.003
    1C        C  224   4.498   3.380   4.123
    1C        C  225   4.493   3.309   4.246
    1C        C  226   4.521   3.522   4.365
    1C        C  227   4.512   3.381   4.366
    1C        C  228   4.515   3.596   4.484
    1C        C  229   4.523   3.528   4.607
    1C        C  230   4.503   3.743   4.726
    1C        C  231   4.534   3.605   4.725
    1C        C  232   4.498   3.819   4.845
    1C        C  233   4.552   3.752   4.956
    1C        C  234   4.017   2.612   2.060
    1C        C  235   3.898   2.541   2.067
    1C        C  236   4.088   2.642   2.178
    1C        C  237   4.023   2.606   2.298
    1C        C  238   4.196   2.732   2.423
    1C        C  239   4.081   2.647   2.420
    1C        C  240   4.253   2.781   2.542
    1C        C  241   4.198   2.734   2.664
    1C        C  242   4.334   2.903   2.783
    1C        C  243   4.246   2.792   2.783
    1C        C  244   4.373   2.962   2.905
    1C        C  245   4.335   2.904   3.028
    1C        C  246   4.434   3.094   3.150
    1C        C  247   4.372   2.968   3.148
    1C        C  248   4.451   3.166   3.270
    1C        C  249   4.427   3.101   3.393
    1C        C  250   4.485   3.303   3.515
    1C        C  251   4.454   3.165   3.516
    1C        C  252   4.501   3.373   3.637
    1C        C  253   4.497   3.302   3.759
    1C        C  254   4.514   3.517   3.876
    1C        C  255   4.510   3.376   3.879
    1C        C  256   4.510   3.589   3.998
    1C        C  257   4.513   3.521   4.121
    1C        C  258   4.490   3.731   4.240
    1C        C  259   4.517   3.593   4.243
    1C        C  260   4.474   3.805   4.360
    1C        C  261   4.490   3.735   4.482
    1C        C  262   4.420   3.937   4.603
    1C        C  263   4.472   3.806   4.603
    1C        C  264   4.392   4.007   4.722
    1C        C  265   4.434   3.945   4.842
    1C        C  266   4.315   4.126   4.954
    1C        C  267   4.386   4.006   4.958
    1C        C  268   4.266   2.770   2.065
    1C        C  269   4.199   2.728   2.181
    1C        C  270   4.345   2.886   2.299
    1C        C  271   4.250   2.781   2.302
    1C        C  272   4.378   2.953   2.419
    1C        C  273   4.341   2.891   2.540
    1C        C  274   4.440   3.084   2.661
    1C        C  275   4.377   2.957   2.660
    1C        C  276   4.464   3.152   2.783
    1C        C  277   4.439   3.087   2.905
    1C        C  278   4.500   3.292   3.021
    1C        C  279   4.467   3.155   3.026
    1C        C  280   4.506   3.364   3.143
    1C        C  281   4.487   3.303   3.268
    1C        C  282   4.519   3.510   3.387
    1C        C  283   4.504   3.370   3.392
    1C        C  284   4.516   3.583   3.508
    1C        C  285   4.513   3.514   3.631
    1C        C  286   4.498   3.726   3.753
    1C        C  287   4.517   3.586   3.752
    1C        C  288   4.480   3.797   3.874
    1C        C  289   4.492   3.729   3.997
    1C        C  290   4.425   3.932   4.117
    1C        C  291   4.473   3.799   4.118
    1C        C  292   4.396   4.002   4.237
    1C        C  293   4.429   3.939   4.359
    1C        C  294   4.329   4.127   4.476
    1C        C  295   4.398   4.004   4.480
    1C        C  296   4.283   4.188   4.595
    1C        C  297   4.325   4.132   4.718
    1C        C  298   4.203   4.315   4.835
    1C        C  299   4.280   4.195   4.837
    1C        C  300   4.165   4.398   4.945
    1C        C  301   4.355   2.877   2.061
    1C        C  302   4.468   3.065   2.177
    1C        C  303   4.399   2.940   2.178
    1C        C  304   4.479   3.141   2.297
    1C        C  305   4.446   3.077   2.418
    1C        C  306   4.507   3.282   2.536
    1C        C  307   4.476   3.144   2.539
    1C        C  308   4.509   3.358   2.655
    1C        C  309   4.500   3.289   2.778
    1C        C  310   4.517   3.502   2.897
    1C        C  311   4.513   3.361   2.899
    1C        C  312   4.517   3.572   3.019
    1C        C  313   4.520   3.505   3.144
    1C        C  314   4.495   3.719   3.264
    1C        C  315   4.515   3.579   3.264
    1C        C  316   4.483   3.792   3.385
    1C        C  317   4.497   3.723   3.507
    1C        C  318   4.425   3.922   3.625
    1C        C  319   4.480   3.792   3.629
    1C        C  320   4.392   3.987   3.746
    1C        C  321   4.429   3.928   3.870
    1C        C  322   4.318   4.108   3.989
    1C        C  323   4.399   3.992   3.992
    1C        C  324   4.276   4.169   4.109
    1C        C  325   4.321   4.121   4.234
    1C        C  326   4.188   4.287   4.352
    1C        C  327   4.288   4.187   4.355
    1C        C  328   4.135   4.342   4.471
    1C        C  329   4.192   4.296   4.592
    1C        C  330   4.025   4.433   4.710
    1C        C  331   4.142   4.351   4.711
    1C        C  332   3.970   4.493   4.825
    1C        C  333   4.049   4.478   4.939
    1C        C  334   4.550   3.266   2.061
    1C        C  335   4.532   3.127   2.065
    1C        C  336   4.534   3.349   2.173
    1C        C  337   4.508   3.280   2.294
    1C        C  338   4.517   3.494   2.410
    1C        C  339   4.516   3.353   2.414
    1C        C  340   4.514   3.567   2.531
    1C        C  341   4.514   3.499   2.654
    1C        C  342   4.497   3.713   2.772
    1C        C  343   4.515   3.573   2.775
    1C        C  344   4.479   3.780   2.895
    1C        C  345   4.490   3.711   3.017
    1C        C  346   4.428   3.914   3.136
    1C        C  347   4.478   3.782   3.139
    1C        C  348   4.398   3.983   3.256
    1C        C  349   4.430   3.923   3.380
    1C        C  350   4.322   4.106   3.501
    1C        C  351   4.395   3.985   3.502
    1C        C  352   4.277   4.164   3.621
    1C        C  353   4.318   4.107   3.744
    1C        C  354   4.177   4.264   3.864
    1C        C  355   4.274   4.162   3.866
    1C        C  356   4.120   4.308   3.985
    1C        C  357   4.175   4.268   4.109
    1C        C  358   4.007   4.397   4.228
    1C        C  359   4.128   4.324   4.230
    1C        C  360   3.947   4.436   4.349
    1C        C  361   4.013   4.414   4.472
    1C        C  362   3.825   4.517   4.590
    1C        C  363   3.954   4.461   4.591
    1C        C  364   3.761   4.550   4.712
    1C        C  365   3.838   4.544   4.830
    1C        C  366   3.627   4.596   4.947
    1C        C  367   3.762   4.564   4.947
    1C        C  368   4.503   3.562   2.053
    1C        C  369   4.519   3.489   2.171
    1C        C  370   4.496   3.707   2.289
    1C        C  371   4.515   3.567   2.289
    1C        C  372   4.477   3.780   2.409
    1C        C  373   4.498   3.708   2.529
    1C        C  374   4.437   3.913   2.648
    1C        C  375   4.487   3.781   2.649
    1C        C  376   4.398   3.975   2.768
    1C        C  377   4.428   3.912   2.891
    1C        C  378   4.317   4.093   3.010
    1C        C  379   4.396   3.976   3.013
    1C        C  380   4.272   4.151   3.131
    1C        C  381   4.318   4.099   3.254
    1C        C  382   4.179   4.258   3.375
    1C        C  383   4.277   4.156   3.377
    1C        C  384   4.125   4.310   3.495
    1C        C  385   4.174   4.261   3.618
    1C        C  386   4.006   4.387   3.741
    1C        C  387   4.123   4.310   3.741
    1C        C  388   3.941   4.422   3.862
    1C        C  389   4.002   4.386   3.984
    1C        C  390   3.816   4.488   4.104
    1C        C  391   3.944   4.428   4.106
    1C        C  392   3.751   4.520   4.225
    1C        C  393   3.822   4.503   4.346
    1C        C  394   3.616   4.553   4.473
    1C        C  395   3.756   4.532   4.468
    1C        C  396   3.544   4.564   4.594
    1C        C  397   3.621   4.565   4.712
    1C        C  398   3.409   4.553   4.840
    1C        C  399   3.548   4.575   4.833
    1C        C  400   3.338   4.514   4.954
    1C        C  401   4.503   3.701   2.049
    1C        C  402   4.452   3.913   2.162
    1C        C  403   4.490   3.777   2.166
    1C        C  404   4.417   3.980   2.281
    1C        C  405   4.439   3.916   2.405
    1C        C  406   4.329   4.096   2.524
    1C        C  407   4.413   3.982   2.527
    1C        C  408   4.284   4.153   2.645
    1C        C  409   4.322   4.095   2.767
    1C        C  410   4.176   4.251   2.886
    1C        C  411   4.274   4.149   2.888
    1C        C  412   4.119   4.291   3.009
    1C        C  413   4.169   4.247   3.134
    1C        C  414   4.000   4.376   3.254
    1C        C  415   4.119   4.301   3.255
    1C        C  416   3.939   4.411   3.376
    1C        C  417   4.005   4.384   3.499
    1C        C  418   3.809   4.470   3.619
    1C        C  419   3.941   4.421   3.619
    1C        C  420   3.741   4.496   3.740
    1C        C  421   3.810   4.475   3.862
    1C        C  422   3.605   4.531   3.984
    1C        C  423   3.743   4.500   3.983
    1C        C  424   3.539   4.538   4.109
    1C        C  425   3.612   4.541   4.230
    1C        C  426   3.401   4.558   4.357
    1C        C  427   3.543   4.557   4.352
    1C        C  428   3.328   4.549   4.477
    1C        C  429   3.403   4.557   4.597
    1C        C  430   3.195   4.520   4.721
    1C        C  431   3.334   4.546   4.720
    1C        C  432   3.123   4.500   4.843
    1C        C  433   3.200   4.495   4.960
    1C        C  434   4.380   4.120   2.042
    1C        C  435   4.438   3.993   2.048
    1C        C  436   4.302   4.161   2.155
    1C        C  437   4.340   4.100   2.278
    1C        C  438   4.180   4.242   2.399
    1C        C  439   4.287   4.149   2.400
    1C        C  440   4.126   4.290   2.520
    1C        C  441   4.181   4.251   2.644
    1C        C  442   4.004   4.374   2.765
    1C        C  443   4.122   4.295   2.764
    1C        C  444   3.943   4.412   2.887
    1C        C  445   4.004   4.374   3.009
    1C        C  446   3.810   4.465   3.129
    1C        C  447   3.938   4.405   3.130
    1C        C  448   3.745   4.492   3.251
    1C        C  449   3.808   4.464   3.374
    1C        C  450   3.606   4.528   3.494
    1C        C  451   3.742   4.491   3.496
    1C        C  452   3.535   4.538   3.616
    1C        C  453   3.604   4.530   3.739
    1C        C  454   3.395   4.544   3.866
    1C        C  455   3.536   4.545   3.861
    1C        C  456   3.328   4.532   3.990
    1C        C  457   3.398   4.535   4.112
    1C        C  458   3.193   4.508   4.236
    1C        C  459   3.330   4.541   4.236
    1C        C  460   3.125   4.488   4.358
    1C        C  461   3.192   4.513   4.480
    1C        C  462   2.995   4.435   4.600
    1C        C  463   3.125   4.490   4.602
    1C        C  464   2.928   4.405   4.721
    1C        C  465   2.992   4.443   4.841
    1C        C  466   2.809   4.334   4.960
    1C        C  467   2.912   4.429   4.959
    1C        C  468   4.124   4.292   2.041
    1C        C  469   4.186   4.244   2.157
    1C        C  470   4.009   4.371   2.277
    1C        C  471   4.126   4.290   2.278
    1C        C  472   3.943   4.398   2.399
    1C        C  473   4.005   4.363   2.521
    1C        C  474   3.811   4.453   2.641
    1C        C  475   3.943   4.404   2.642
    1C        C  476   3.742   4.479   2.762
    1C        C  477   3.811   4.461   2.883
    1C        C  478   3.605   4.513   3.006
    1C        C  479   3.743   4.483   3.006
    1C        C  480   3.534   4.521   3.128
    1C        C  481   3.605   4.515   3.250
    1C        C  482   3.394   4.532   3.377
    1C        C  483   3.535   4.530   3.372
    1C        C  484   3.322   4.529   3.499
    1C        C  485   3.394   4.538   3.620
    1C        C  486   3.187   4.505   3.744
    1C        C  487   3.325   4.535   3.744
    1C        C  488   3.122   4.483   3.868
    1C        C  489   3.190   4.503   3.991
    1C        C  490   3.000   4.417   4.113
    1C        C  491   3.125   4.482   4.114
    1C        C  492   2.938   4.385   4.237
    1C        C  493   2.999   4.424   4.358
    1C        C  494   2.824   4.304   4.482
    1C        C  495   2.935   4.391   4.480
    1C        C  496   2.772   4.256   4.604
    1C        C  497   2.815   4.317   4.724
    1C        C  498   2.663   4.169   4.843
    1C        C  499   2.754   4.277   4.845
    1C        C  500   2.600   4.115   4.956
    1C        C  501   4.003   4.359   2.036
    1C        C  502   3.818   4.466   2.157
    1C        C  503   3.944   4.402   2.156
    1C        C  504   3.744   4.483   2.276
    1C        C  505   3.812   4.450   2.396
    1C        C  506   3.607   4.505   2.519
    1C        C  507   3.745   4.476   2.518
    1C        C  508   3.534   4.514   2.639
    1C        C  509   3.604   4.510   2.762
    1C        C  510   3.392   4.516   2.885
    1C        C  511   3.534   4.517   2.884
    1C        C  512   3.324   4.519   3.008
    1C        C  513   3.393   4.530   3.131
    1C        C  514   3.187   4.492   3.253
    1C        C  515   3.325   4.523   3.254
    1C        C  516   3.120   4.468   3.375
    1C        C  517   3.185   4.495   3.497
    1C        C  518   2.997   4.411   3.625
    1C        C  519   3.121   4.478   3.622
    1C        C  520   2.941   4.372   3.748
    1C        C  521   2.998   4.415   3.870
    1C        C  522   2.837   4.279   3.997
    1C        C  523   2.939   4.377   3.992
    1C        C  524   2.784   4.236   4.120
    1C        C  525   2.830   4.295   4.240
    1C        C  526   2.697   4.131   4.366
    1C        C  527   2.780   4.245   4.362
    1C        C  528   2.653   4.073   4.487
    1C        C  529   2.691   4.140   4.605
    1C        C  530   2.586   3.960   4.732
    1C        C  531   2.641   4.091   4.728
    1C        C  532   2.541   3.901   4.853
    1C        C  533   2.525   3.996   4.959
    1C        C  534   3.620   4.554   2.040
    1C        C  535   3.751   4.507   2.041
    1C        C  536   3.537   4.531   2.154
    1C        C  537   3.604   4.506   2.277
    1C        C  538   3.391   4.508   2.396
    1C        C  539   3.533   4.509   2.399
    1C        C  540   3.322   4.501   2.519
    1C        C  541   3.393   4.513   2.641
    1C        C  542   3.185   4.482   2.764
    1C        C  543   3.321   4.517   2.763
    1C        C  544   3.120   4.459   2.888
    1C        C  545   3.187   4.484   3.010
    1C        C  546   2.993   4.401   3.131
    1C        C  547   3.118   4.469   3.132
    1C        C  548   2.938   4.364   3.255
    1C        C  549   2.992   4.407   3.378
    1C        C  550   2.830   4.279   3.505
    1C        C  551   2.936   4.372   3.503
    1C        C  552   2.777   4.233   3.627
    1C        C  553   2.829   4.285   3.748
    1C        C  554   2.703   4.121   3.876
    1C        C  555   2.785   4.236   3.873
    1C        C  556   2.663   4.063   3.999
    1C        C  557   2.690   4.130   4.120
    1C        C  558   2.598   3.943   4.247
    1C        C  559   2.657   4.071   4.244
    1C        C  560   2.569   3.876   4.368
    1C        C  561   2.588   3.948   4.489
    1C        C  562   2.526   3.750   4.614
    1C        C  563   2.568   3.885   4.614
    1C        C  564   2.514   3.682   4.738
    1C        C  565   2.520   3.759   4.857
    1C        C  566   2.529   3.543   4.978
    1C        C  567   2.525   3.682   4.973
    1C        C  568   3.328   4.478   2.035
    1C        C  569   3.396   4.513   2.153
    1C        C  570   3.182   4.472   2.277
    1C        C  571   3.320   4.506   2.274
    1C        C  572   3.115   4.452   2.399
    1C        C  573   3.183   4.476   2.520
    1C        C  574   2.986   4.405   2.645
    1C        C  575   3.114   4.465   2.643
    1C        C  576   2.928   4.363   2.767
    1C        C  577   2.993   4.397   2.887
    1C        C  578   2.824   4.270   3.014
    1C        C  579   2.935   4.358   3.010
    1C        C  580   2.773   4.227   3.138
    1C        C  581   2.829   4.273   3.259
    1C        C  582   2.697   4.112   3.384
    1C        C  583   2.781   4.226   3.383
    1C        C  584   2.660   4.056   3.509
    1C        C  585   2.696   4.118   3.631
    1C        C  586   2.596   3.935   3.755
    1C        C  587   2.662   4.060   3.755
    1C        C  588   2.572   3.872   3.879
    1C        C  589   2.602   3.936   4.002
    1C        C  590   2.540   3.737   4.126
    1C        C  591   2.578   3.873   4.126
    1C        C  592   2.517   3.670   4.249
    1C        C  593   2.535   3.739   4.371
    1C        C  594   2.513   3.533   4.495
    1C        C  595   2.521   3.674   4.495
    1C        C  596   2.518   3.466   4.620
    1C        C  597   2.517   3.540   4.740
    1C        C  598   2.533   3.326   4.862
    1C        C  599   2.524   3.467   4.861
    1C        C  600   2.526   3.246   4.977
    1C        C  601   3.195   4.443   2.038
    1C        C  602   2.981   4.396   2.156
    1C        C  603   3.117   4.440   2.154
    1C        C  604   2.921   4.360   2.280
    1C        C  605   2.986   4.393   2.401
    1C        C  606   2.820   4.269   2.526
    1C        C  607   2.924   4.364   2.525
    1C        C  608   2.772   4.216   2.648
    1C        C  609   2.821   4.270   2.769
    1C        C  610   2.687   4.107   2.894
    1C        C  611   2.776   4.217   2.892
    1C        C  612   2.650   4.051   3.019
    1C        C  613   2.687   4.115   3.139
    1C        C  614   2.598   3.924   3.265
    1C        C  615   2.656   4.053   3.263
    1C        C  616   2.574   3.860   3.389
    1C        C  617   2.597   3.930   3.510
    1C        C  618   2.533   3.731   3.634
    1C        C  619   2.570   3.867   3.634
    1C        C  620   2.521   3.664   3.758
    1C        C  621   2.537   3.735   3.880
    1C        C  622   2.513   3.527   4.007
    1C        C  623   2.527   3.668   4.004
    1C        C  624   2.512   3.457   4.129
    1C        C  625   2.507   3.529   4.251
    1C        C  626   2.547   3.323   4.378
    1C        C  627   2.516   3.460   4.374
    1C        C  628   2.561   3.254   4.501
    1C        C  629   2.537   3.327   4.620
    1C        C  630   2.600   3.122   4.743
    1C        C  631   2.550   3.255   4.741
    1C        C  632   2.620   3.052   4.865
    1C        C  633   2.564   3.112   4.982
    1C        C  634   2.781   4.309   2.052
    1C        C  635   2.886   4.402   2.050
    1C        C  636   2.751   4.232   2.166
    1C        C  637   2.811   4.271   2.288
    1C        C  638   2.673   4.107   2.407
    1C        C  639   2.760   4.219   2.408
    1C        C  640   2.639   4.048   2.530
    1C        C  641   2.685   4.105   2.651
    1C        C  642   2.582   3.921   2.777
    1C        C  643   2.642   4.049   2.774
    1C        C  644   2.559   3.856   2.900
    1C        C  645   2.588   3.924   3.020
    1C        C  646   2.528   3.723   3.147
    1C        C  647   2.573   3.857   3.143
    1C        C  648   2.513   3.655   3.270
    1C        C  649   2.529   3.727   3.390
    1C        C  650   2.516   3.518   3.519
    1C        C  651   2.514   3.660   3.514
    1C        C  652   2.517   3.449   3.642
    1C        C  653   2.512   3.524   3.762
    1C        C  654   2.535   3.315   3.891
    1C        C  655   2.515   3.455   3.885
    1C        C  656   2.553   3.247   4.013
    1C        C  657   2.536   3.318   4.134
    1C        C  658   2.607   3.118   4.256
    1C        C  659   2.559   3.251   4.257
    1C        C  660   2.637   3.056   4.380
    1C        C  661   2.604   3.120   4.502
    1C        C  662   2.712   2.937   4.625
    1C        C  663   2.633   3.055   4.624
    1C        C  664   2.749   2.875   4.746
    1C        C  665   2.694   2.929   4.866
    1C        C  666   2.739   2.864   4.982
    1C        C  667   2.677   4.025   2.054
    1C        C  668   2.683   4.109   2.167
    1C        C  669   2.586   3.913   2.290
    1C        C  670   2.637   4.046   2.285
    1C        C  671   2.560   3.848   2.412
    1C        C  672   2.580   3.920   2.532
    1C        C  673   2.514   3.720   2.657
    1C        C  674   2.555   3.855   2.655
    1C        C  675   2.509   3.653   2.781
    1C        C  676   2.524   3.719   2.905
    1C        C  677   2.503   3.508   3.030
    1C        C  678   2.513   3.649   3.028
    1C        C  679   2.502   3.439   3.153
    1C        C  680   2.502   3.514   3.272
    1C        C  681   2.534   3.308   3.399
    1C        C  682   2.512   3.447   3.396
    1C        C  683   2.555   3.241   3.522
    1C        C  684   2.535   3.309   3.644
    1C        C  685   2.604   3.114   3.770
    1C        C  686   2.553   3.246   3.769
    1C        C  687   2.631   3.050   3.893
    1C        C  688   2.596   3.113   4.015
    1C        C  689   2.716   2.935   4.136
    1C        C  690   2.635   3.051   4.136
    1C        C  691   2.757   2.879   4.259
    1C        C  692   2.715   2.938   4.380
    1C        C  693   2.755   2.881   4.503
    1C        C  694   2.629   3.894   2.058
    1C        C  695   2.526   3.702   2.172
    1C        C  696   2.573   3.835   2.173
    1C        C  697   2.516   3.637   2.297
    1C        C  698   2.516   3.713   2.416
    1C        C  699   2.492   3.504   2.542
    1C        C  700   2.501   3.645   2.538
    1C        C  701   2.498   3.436   2.666
    1C        C  702   2.500   3.512   2.785
    1C        C  703   2.529   3.300   2.911
    1C        C  704   2.510   3.439   2.906
    1C        C  705   2.548   3.232   3.034
    1C        C  706   2.533   3.301   3.156
    1C        C  707   2.598   3.101   3.278
    1C        C  708   2.554   3.235   3.279
    1C        C  709   2.628   3.043   3.403
    1C        C  710   2.603   3.108   3.526
    1C        C  711   2.705   2.926   3.648
    1C        C  712   2.629   3.044   3.650
    1C        C  713   2.752   2.873   3.770
    1C        C  714   2.707   2.931   3.891
    1C        C  715   2.756   2.878   4.013
    1C        C  716   2.449   3.499   2.065
    1C        C  717   2.498   3.630   2.056
    1C        C  718   2.465   3.421   2.184
    1C        C  719   2.491   3.497   2.302
    1C        C  720   2.521   3.288   2.425
    1C        C  721   2.492   3.426   2.424
    1C        C  722   2.544   3.223   2.548
    1C        C  723   2.526   3.297   2.666
    1C        C  724   2.598   3.099   2.789
    1C        C  725   2.548   3.232   2.789
    1C        C  726   2.622   3.031   2.911
    1C        C  727   2.597   3.099   3.032
    1C        C  728   2.702   2.917   3.162
    1C        C  729   2.628   3.037   3.156
    1C        C  730   2.748   2.865   3.285
    1C        C  731   2.709   2.926   3.406
    1C        C  732   2.751   2.868   3.527
    1C        C  733   2.494   3.198   2.071
    1C        C  734   2.490   3.280   2.185
    1C        C  735   2.590   3.085   2.306
    1C        C  736   2.534   3.216   2.304
    1C        C  737   2.616   3.016   2.427
    1C        C  738   2.589   3.089   2.545
    1C        C  739   2.702   2.912   2.671
    1C        C  740   2.629   3.033   2.669
    1C        C  741   2.741   2.854   2.794
    1C        C  742   2.697   2.912   2.915
    1C        C  743   2.745   2.862   3.039
    1C        C  744   2.544   3.068   2.078
    1C        C  745   2.689   2.895   2.183
    1C        C  746   2.610   3.012   2.188
    1C        C  747   2.734   2.839   2.305
    1C        C  748   2.693   2.897   2.427
    1C        C  749   2.731   2.843   2.552
    1C        C  750   2.745   2.839   2.068
    1C        C  751   3.667   2.343   1.956
    1C        O  752   3.642   2.220   1.955
    1C        O  753   3.651   2.387   1.824
    1C        C  754   4.626   3.068   1.967
    1C        O  755   4.591   3.036   1.850
    1C        O  756   4.763   3.053   1.989
    1C        C  757   4.463   4.216   1.966
    1C        O  758   4.552   4.281   2.027
    1C        O  759   4.435   4.254   1.834
    1C        C  760   3.610   4.678   1.960
    1C        O  761   3.650   4.793   1.994
    1C        O  762   3.559   4.681   1.829
    1C        C  763   2.869   4.533   1.983
    1C        O  764   2.895   4.548   1.861
    1C        O  765   2.823   4.647   2.050
    1C        C  766   2.340   3.467   1.970
    1C        O  767   2.349   3.469   1.844
    1C        O  768   2.210   3.445   2.017
    1C        C  769   4.697   3.587   5.052
    1C        O  770   4.675   3.555   5.172
    1C        O  771   4.828   3.622   5.017
    1C        C  772   4.272   4.437   5.039
    1C        O  773   4.251   4.441   5.163
    1C        O  774   4.390   4.490   4.986
    1C        C  775   4.144   2.547   5.086
    1C        O  776   4.215   2.444   5.067
    1C        O  777   4.125   2.596   5.215
    1C        C  778   2.889   4.538   5.056
    1C        O  779   2.789   4.613   5.038
    1C        O  780   2.934   4.525   5.188
    1C        C  781   2.472   3.028   5.062
    1C        O  782   2.355   3.006   5.020
    1C        O  783   2.489   3.015   5.199
    1C        C  784   2.406   4.001   5.047
    1C        O  785   2.290   4.021   5.004
    1C        O  786   2.421   3.971   5.183
    1C        C  787   2.943   2.427   1.996
    1C        O  788   2.917   2.457   1.876
    1C        O  789   2.927   2.291   2.021
    1C        C  790   3.181   2.384   5.078
    1C        O  791   3.157   2.261   5.067
    1C        O  792   3.199   2.432   5.209
    1C        H  793   4.255   3.037   5.043
    1C        H  794   4.124   2.857   5.044
    1C        H  795   4.540   3.122   5.030
    1C        H  796   4.546   3.357   5.064
    1C        H  797   4.556   3.806   5.048
    1C        H  798   4.384   3.952   5.050
    1C        H  799   4.341   4.186   5.039
    1C        H  800   4.042   4.551   5.016
    1C        H  801   3.797   4.513   5.034
    1C        H  802   3.579   4.631   5.036
    1C        H  803   3.392   4.495   5.044
    1C        H  804   3.154   4.504   5.056
    1C        H  805   3.900   2.461   5.061
    1C        H  806   3.680   2.449   5.076
    1C        H  807   3.010   2.579   5.068
    1C        H  808   3.442   2.477   5.075
    1C        H  809   2.897   2.762   5.072
    1C        H  810   2.674   2.868   5.067
    1C        H  811   2.462   3.279   5.056
    1C        H  812   2.543   3.494   5.073
    1C        H  813   2.535   3.729   5.069
    1C        H  814   2.622   4.152   5.054
    1C        H  815   2.738   4.346   5.040
    1C        H  816   2.737   2.886   1.972
    1C        H  817   2.787   2.652   1.999
    1C        H  818   3.188   2.384   2.009
    1C        H  819   3.425   2.423   1.975
    1C        H  820   3.888   2.467   1.991
    1C        H  821   4.058   2.650   1.969
    1C        H  822   4.285   2.692   1.995
    1C        H  823   4.355   2.936   1.971
    1C        H  824   4.588   3.314   1.973
    1C        H  825   4.446   3.518   1.974
    1C        H  826   4.578   3.737   1.981
    1C        H  827   3.802   4.511   1.947
    1C        H  828   3.952   4.364   1.942
    1C        H  829   4.185   4.307   1.953
    1C        H  830   4.482   3.958   1.957
    1C        H  831   2.673   3.824   1.990
    1C        H  832   2.747   4.049   1.978
    1C        H  833   2.705   4.323   1.978
    1C        H  834   3.361   4.524   1.944
    1C        H  835   3.169   4.376   1.959
    1C        H  836   2.507   3.004   2.000
    1C        H  837   2.422   3.221   1.995
    1C        H  838   2.488   3.675   1.960
    2V3OU   H29  839   2.796   3.549   1.487
    2V3OU   C27  840   2.779   3.504   1.588
    2V3OU   H27  841   2.721   3.565   1.662
    2V3OU   H28  842   2.728   3.406   1.575
    2V3OU   O11  843   2.906   3.471   1.645
    2V3OU   C15  844   2.915   3.403   1.765
    2V3OU   C13  845   3.045   3.375   1.812
    2V3OU   C14  846   3.076   3.269   1.898
    2V3OU   C16  847   2.975   3.182   1.936
    2V3OU    H6  848   2.993   3.094   1.999
    2V3OU   C12  849   3.216   3.234   1.932
    2V3OU    O2  850   3.245   3.123   1.981
    2V3OU   C10  851   3.328   3.307   1.870
    2V3OU    C8  852   3.460   3.272   1.898
    2V3OU   O10  853   3.490   3.159   1.967
    2V3OU   H26  854   3.405   3.121   1.997
    2V3OU    C6  855   3.569   3.348   1.846
    2V3OU    C5  856   3.536   3.461   1.772
    2V3OU    C4  857   3.705   3.289   1.837
    2V3OU    H4  858   3.726   3.223   1.927
    2V3OU    H5  859   3.710   3.226   1.743
    2V3OU    C2  860   3.816   3.394   1.835
    2V3OU    O6  861   3.796   3.469   1.955
    2V3OU   H21  862   3.758   3.556   1.935
    2V3OU    C3  863   3.784   3.490   1.720
    2V3OU    H2  864   3.860   3.571   1.722
    2V3OU    H3  865   3.778   3.436   1.622
    2V3OU   C25  866   3.951   3.324   1.815
    2V3OU    O7  867   4.003   3.303   1.705
    2V3OU   C26  868   4.031   3.295   1.941
    2V3OU   H22  869   4.068   3.388   1.991
    2V3OU   H23  870   4.112   3.221   1.919
    2V3OU    O8  871   3.962   3.217   2.035
    2V3OU   H24  872   3.920   3.282   2.094
    2V3OU    C1  873   3.649   3.556   1.744
    2V3OU    H1  874   3.623   3.613   1.650
    2V3OU    O3  875   3.654   3.655   1.847
    2V3OU   C19  876   3.611   3.791   1.833
    2V3OU    H9  877   3.517   3.807   1.773
    2V3OU    O4  878   3.713   3.851   1.757
    2V3OU   C20  879   3.846   3.872   1.807
    2V3OU   H10  880   3.899   3.775   1.832
    2V3OU   C24  881   3.607   3.852   1.973
    2V3OU   H16  882   3.544   3.794   2.045
    2V3OU   H17  883   3.562   3.954   1.963
    2V3OU   C23  884   3.747   3.872   2.033
    2V3OU   H15  885   3.791   3.769   2.052
    2V3OU    N1  886   3.736   3.951   2.154
    2V3OU   H19  887   3.801   3.928   2.226
    2V3OU   H20  888   3.641   3.947   2.188
    2V3OU   C21  889   3.846   3.948   1.940
    2V3OU   H11  890   3.952   3.932   1.975
    2V3OU    O5  891   3.826   4.089   1.944
    2V3OU   H18  892   3.781   4.101   2.029
    2V3OU   C22  893   3.913   3.945   1.692
    2V3OU   H12  894   3.863   4.044   1.674
    2V3OU   H13  895   3.902   3.885   1.598
    2V3OU   H14  896   4.023   3.952   1.709
    2V3OU   C11  897   3.158   3.463   1.778
    2V3OU    O1  898   3.137   3.584   1.750
    2V3OU    C9  899   3.299   3.422   1.793
    2V3OU    C7  900   3.402   3.502   1.743
    2V3OU    O9  901   3.385   3.607   1.656
    2V3OU   H25  902   3.289   3.621   1.646
    2V3OU   C17  903   2.817   3.321   1.823
    2V3OU    H7  904   2.716   3.339   1.788
    2V3OU   C18  905   2.842   3.212   1.906
    2V3OU    H8  906   2.758   3.147   1.936
    3SOL     OW  907   1.407   3.299   1.634
    3SOL    HW1  908   1.370   3.281   1.542
    3SOL    HW2  909   1.489   3.244   1.647
    4SOL     OW  910   5.816   0.592   1.847
    4SOL    HW1  911   5.807   0.512   1.906
    4SOL    HW2  912   5.856   0.565   1.760
    5SOL     OW  913   3.949   1.918   0.969
    5SOL    HW1  914   3.976   1.858   1.045
    5SOL    HW2  915   3.862   1.887   0.931
    6SOL     OW  916   2.788   1.983   1.864
    6SOL    HW1  917   2.858   1.912   1.874
    6SOL    HW2  918   2.750   2.004   1.954
    7SOL     OW  919   5.669   1.777   2.239
    7SOL    HW1  920   5.652   1.871   2.209
    7SOL    HW2  921   5.582   1.730   2.252
    8SOL     OW  922   2.696   0.915   4.144
    8SOL    HW1  923   2.630   0.905   4.070
    8SOL    HW2  924   2.648   0.915   4.232
    9SOL     OW  925   1.444   4.050   5.950
    9SOL    HW1  926   1.354   4.061   5.992
    9SOL    HW2  927   1.483   4.140   5.930
   10SOL     OW  928   0.859   4.301   6.388
   10SOL    HW1  929   0.873   4.218   6.443
   10SOL    HW2  930   0.926   4.370   6.414
   11SOL     OW  931   4.042   6.582   0.200
   11SOL    HW1  932   4.118   6.637   0.165
   11SOL    HW2  933   4.066   6.546   0.290
   12SOL     OW  934   5.579   6.152   2.555
   12SOL    HW1  935   5.595   6.213   2.478
   12SOL    HW2  936   5.556   6.206   2.637
   13SOL     OW  937   2.870   6.205   3.520
   13SOL    HW1  938   2.818   6.239   3.598
   13SOL    HW2  939   2.828   6.238   3.435
   14SOL     OW  940   3.928   6.428   0.797
   14SOL    HW1  941   3.916   6.407   0.894
   14SOL    HW2  942   3.999   6.369   0.758
   15SOL     OW  943   1.376   6.654   6.760
   15SOL    HW1  944   1.379   6.558   6.787
   15SOL    HW2  945   1.384   6.712   6.841
   16SOL     OW  946   6.352   2.494   6.117
   16SOL    HW1  947   6.404   2.579   6.119
   16SOL    HW2  948   6.411   2.418   6.144
   17SOL     OW  949   5.341   6.592   4.159
   17SOL    HW1  950   5.276   6.644   4.103
   17SOL    HW2  951   5.296   6.512   4.197
   18SOL     OW  952   1.581   2.020   5.940
   18SOL    HW1  953   1.484   1.997   5.950
   18SOL    HW2  954   1.622   1.962   5.869
   19SOL     OW  955   0.471   0.132   2.402
   19SOL    HW1  956   0.386   0.162   2.446
   19SOL    HW2  957   0.530   0.211   2.387
   20SOL     OW  958   3.642   1.904   4.005
   20SOL    HW1  959   3.566   1.842   4.027
   20SOL    HW2  960   3.630   1.939   3.913
   21SOL     OW  961   3.062   1.683   1.376
   21SOL    HW1  962   3.108   1.599   1.349
   21SOL    HW2  963   2.989   1.662   1.441
   22SOL     OW  964   1.916   6.308   5.745
   22SOL    HW1  965   1.901   6.210   5.729
   22SOL    HW2  966   1.978   6.343   5.674
   23SOL     OW  967   4.197   6.390   4.653
   23SOL    HW1  968   4.217   6.292   4.646
   23SOL    HW2  969   4.248   6.429   4.731
   24SOL     OW  970   5.106   1.475   5.023
   24SOL    HW1  971   5.008   1.464   5.042
   24SOL    HW2  972   5.118   1.508   4.930
   25SOL     OW  973   3.871   5.774   0.646
   25SOL    HW1  974   3.893   5.676   0.648
   25SOL    HW2  975   3.890   5.814   0.736
   26SOL     OW  976   6.428   1.222   2.235
   26SOL    HW1  977   6.477   1.137   2.258
   26SOL    HW2  978   6.464   1.259   2.150
   27SOL     OW  979   6.320   0.237   2.764
   27SOL    HW1  980   6.311   0.263   2.668
   27SOL    HW2  981   6.414   0.209   2.783
   28SOL     OW  982   3.875   0.541   0.073
   28SOL    HW1  983   3.819   0.595   0.010
   28SOL    HW2  984   3.820   0.469   0.113
   29SOL     OW  985   4.511   2.573   1.290
   29SOL    HW1  986   4.484   2.661   1.329
   29SOL    HW2  987   4.436   2.508   1.299
   30SOL     OW  988   3.227   1.249   5.097
   30SOL    HW1  989   3.207   1.342   5.066
   30SOL    HW2  990   3.202   1.241   5.193
   31SOL     OW  991   0.909   1.175   4.977
   31SOL    HW1  992   0.947   1.177   4.885
   31SOL    HW2  993   0.843   1.250   4.988
   32SOL     OW  994   0.482   2.140   1.476
   32SOL    HW1  995   0.483   2.208   1.550
   32SOL    HW2  996   0.432   2.177   1.398
   33SOL     OW  997   1.734   2.677   6.313
   33SOL    HW1  998   1.748   2.697   6.410
   33SOL    HW2  999   1.699   2.759   6.267
   34SOL     OW 1000   2.044   0.318   4.712
   34SOL    HW1 1001   1.951   0.284   4.727
   34SOL    HW2 1002   2.107   0.241   4.704
   35SOL     OW 1003   5.171   1.606   6.897
   35SOL    HW1 1004   5.243   1.665   6.859
   35SOL    HW2 1005   5.177   1.515   6.856
   36SOL     OW 1006   1.642   1.723   5.073
   36SOL    HW1 1007   1.559   1.693   5.120
   36SOL    HW2 1008   1.682   1.800   5.122
   37SOL     OW 1009   3.379   6.588   1.377
   37SOL    HW1 1010   3.451   6.520   1.395
   37SOL    HW2 1011   3.399   6.634   1.291
   38SOL     OW 1012   7.012   6.481   3.056
   38SOL    HW1 1013   6.939   6.548   3.048
   38SOL    HW2 1014   0.056   6.510   3.126
   39SOL     OW 1015   6.862   3.192   5.150
   39SOL    HW1 1016   6.889   3.245   5.230
   39SOL    HW2 1017   6.765   3.209   5.130
   40SOL     OW 1018   6.460   0.739   2.388
   40SOL    HW1 1019   6.361   0.725   2.380
   40SOL    HW2 1020   6.485   0.825   2.343
   41SOL     OW 1021   1.276   6.400   5.416
   41SOL    HW1 1022   1.193   6.353   5.385
   41SOL    HW2 1023   1.251   6.492   5.448
   42SOL     OW 1024   3.469   0.305   6.858
   42SOL    HW1 1025   3.459   0.237   6.930
   42SOL    HW2 1026   3.402   0.288   6.786
   43SOL     OW 1027   5.611   6.514   5.315
   43SOL    HW1 1028   5.604   6.415   5.307
   43SOL    HW2 1029   5.707   6.541   5.320
   44SOL     OW 1030   0.894   2.578   6.411
   44SOL    HW1 1031   0.804   2.548   6.381
   44SOL    HW2 1032   0.894   2.591   6.510
   45SOL     OW 1033   2.244   0.837   1.836
   45SOL    HW1 1034   2.219   0.884   1.920
   45SOL    HW2 1035   2.265   0.742   1.855
   46SOL     OW 1036   1.810   4.310   4.843
   46SOL    HW1 1037   1.832   4.233   4.904
   46SOL    HW2 1038   1.869   4.306   4.763
   47SOL     OW 1039   6.789   4.337   3.709
   47SOL    HW1 1040   6.768   4.242   3.687
   47SOL    HW2 1041   6.842   4.340   3.794
   48SOL     OW 1042   0.199   2.023   5.112
   48SOL    HW1 1043   0.233   1.948   5.055
   48SOL    HW2 1044   0.167   2.098   5.054
   49SOL     OW 1045   4.518   2.828   0.682
   49SOL    HW1 1046   4.599   2.885   0.675
   49SOL    HW2 1047   4.467   2.851   0.764
   50SOL     OW 1048   6.609   4.035   4.285
   50SOL    HW1 1049   6.704   4.052   4.258
   50SOL    HW2 1050   6.571   3.961   4.230
   51SOL     OW 1051   3.630   4.886   2.834
   51SOL    HW1 1052   3.568   4.905   2.911
   51SOL    HW2 1053   3.579   4.891   2.748
   52SOL     OW 1054   2.410   1.621   2.125
   52SOL    HW1 1055   2.404   1.713   2.164
   52SOL    HW2 1056   2.326   1.570   2.146
   53SOL     OW 1057   5.139   6.621   4.428
   53SOL    HW1 1058   5.189   6.538   4.402
   53SOL    HW2 1059   5.096   6.661   4.348
   54SOL     OW 1060   3.818   5.018   5.500
   54SOL    HW1 1061   3.732   4.976   5.528
   54SOL    HW2 1062   3.825   5.016   5.400
   55SOL     OW 1063   4.003   2.277   6.119
   55SOL    HW1 1064   3.928   2.255   6.181
   55SOL    HW2 1065   4.080   2.315   6.172
   56SOL     OW 1066   1.019   0.238   2.575
   56SOL    HW1 1067   1.114   0.268   2.571
   56SOL    HW2 1068   1.010   0.150   2.528
   57SOL     OW 1069   5.422   0.933   0.403
   57SOL    HW1 1070   5.367   0.984   0.469
   57SOL    HW2 1071   5.505   0.984   0.381
   58SOL     OW 1072   0.302   5.982   0.018
   58SOL    HW1 1073   0.225   5.921   0.001
   58SOL    HW2 1074   0.388   5.933   0.004
   59SOL     OW 1075   1.213   0.476   6.231
   59SOL    HW1 1076   1.301   0.521   6.211
   59SOL    HW2 1077   1.152   0.486   6.153
   60SOL     OW 1078   4.326   0.272   5.450
   60SOL    HW1 1079   4.283   0.327   5.522
   60SOL    HW2 1080   4.414   0.313   5.426
   61SOL     OW 1081   4.779   0.412   4.029
   61SOL    HW1 1082   4.793   0.499   4.077
   61SOL    HW2 1083   4.692   0.414   3.980
   62SOL     OW 1084   1.711   0.492   4.119
   62SOL    HW1 1085   1.803   0.494   4.159
   62SOL    HW2 1086   1.668   0.404   4.140
   63SOL     OW 1087   6.878   2.599   3.257
   63SOL    HW1 1088   6.914   2.585   3.349
   63SOL    HW2 1089   6.913   2.526   3.197
   64SOL     OW 1090   6.228   3.751   6.598
   64SOL    HW1 1091   6.139   3.704   6.602
   64SOL    HW2 1092   6.279   3.733   6.681
   65SOL     OW 1093   6.814   4.875   4.968
   65SOL    HW1 1094   6.780   4.814   4.897
   65SOL    HW2 1095   6.767   4.963   4.961
   66SOL     OW 1096   3.014   0.591   0.085
   66SOL    HW1 1097   3.064   0.513   0.123
   66SOL    HW2 1098   2.916   0.580   0.102
   67SOL     OW 1099   5.351   5.683   4.864
   67SOL    HW1 1100   5.327   5.711   4.957
   67SOL    HW2 1101   5.365   5.764   4.807
   68SOL     OW 1102   6.239   2.192   6.153
   68SOL    HW1 1103   6.234   2.158   6.247
   68SOL    HW2 1104   6.174   2.267   6.140
   69SOL     OW 1105   2.916   4.097   6.196
   69SOL    HW1 1106   2.886   4.052   6.280
   69SOL    HW2 1107   2.849   4.082   6.124
   70SOL     OW 1108   6.994   5.356   2.987
   70SOL    HW1 1109   6.911   5.312   3.022
   70SOL    HW2 1110   6.970   5.443   2.944
   71SOL     OW 1111   1.951   3.197   3.599
   71SOL    HW1 1112   1.955   3.288   3.558
   71SOL    HW2 1113   1.932   3.130   3.528
   72SOL     OW 1114   2.679   5.433   3.794
   72SOL    HW1 1115   2.614   5.449   3.868
   72SOL    HW2 1116   2.726   5.347   3.809
   73SOL     OW 1117   3.855   1.901   0.530
   73SOL    HW1 1118   3.890   1.901   0.437
   73SOL    HW2 1119   3.755   1.909   0.528
   74SOL     OW 1120   5.254   6.427   6.489
   74SOL    HW1 1121   5.338   6.420   6.543
   74SOL    HW2 1122   5.274   6.478   6.405
   75SOL     OW 1123   3.746   5.671   5.837
   75SOL    HW1 1124   3.789   5.758   5.812
   75SOL    HW2 1125   3.664   5.657   5.782
   76SOL     OW 1126   2.342   2.410   1.341
   76SOL    HW1 1127   2.303   2.488   1.292
   76SOL    HW2 1128   2.365   2.338   1.275
   77SOL     OW 1129   5.823   4.927   5.213
   77SOL    HW1 1130   5.819   5.018   5.171
   77SOL    HW2 1131   5.918   4.901   5.227
   78SOL     OW 1132   6.569   6.315   5.348
   78SOL    HW1 1133   6.527   6.398   5.384
   78SOL    HW2 1134   6.616   6.336   5.262
   79SOL     OW 1135   3.564   6.967   0.781
   79SOL    HW1 1136   3.523   6.891   0.731
   79SOL    HW2 1137   3.630   6.932   0.847
   80SOL     OW 1138   0.421   1.606   4.396
   80SOL    HW1 1139   0.388   1.518   4.430
   80SOL    HW2 1140   0.381   1.679   4.450
   81SOL     OW 1141   1.704   1.026   2.734
   81SOL    HW1 1142   1.637   0.996   2.802
   81SOL    HW2 1143   1.796   1.012   2.770
   82SOL     OW 1144   6.636   4.731   6.141
   82SOL    HW1 1145   6.642   4.826   6.173
   82SOL    HW2 1146   6.579   4.678   6.203
   83SOL     OW 1147   0.372   6.455   0.235
   83SOL    HW1 1148   0.378   6.379   0.300
   83SOL    HW2 1149   0.281   6.455   0.193
   84SOL     OW 1150   5.138   3.740   1.731
   84SOL    HW1 1151   5.170   3.703   1.818
   84SOL    HW2 1152   5.120   3.838   1.740
   85SOL     OW 1153   0.826   1.825   5.592
   85SOL    HW1 1154   0.796   1.746   5.539
   85SOL    HW2 1155   0.752   1.892   5.599
   86SOL     OW 1156   0.827   0.520   5.795
   86SOL    HW1 1157   0.790   0.606   5.759
   86SOL    HW2 1158   0.772   0.443   5.762
   87SOL     OW 1159   4.473   1.965   0.688
   87SOL    HW1 1160   4.460   1.934   0.594
   87SOL    HW2 1161   4.393   1.940   0.742
   88SOL     OW 1162   5.421   1.226   0.861
   88SOL    HW1 1163   5.469   1.147   0.899
   88SOL    HW2 1164   5.400   1.290   0.934
   89SOL     OW 1165   1.718   2.704   6.597
   89SOL    HW1 1166   1.645   2.766   6.626
   89SOL    HW2 1167   1.807   2.744   6.621
   90SOL     OW 1168   5.449   5.959   4.042
   90SOL    HW1 1169   5.490   5.979   4.132
   90SOL    HW2 1170   5.512   5.987   3.970
   91SOL     OW 1171   4.880   4.795   5.096
   91SOL    HW1 1172   4.908   4.717   5.039
   91SOL    HW2 1173   4.955   4.861   5.101
   92SOL     OW 1174   3.305   4.489   1.136
   92SOL    HW1 1175   3.206   4.501   1.140
   92SOL    HW2 1176   3.328   4.394   1.157
   93SOL     OW 1177   3.630   4.951   5.855
   93SOL    HW1 1178   3.646   4.916   5.762
   93SOL    HW2 1179   3.632   5.051   5.854
   94SOL     OW 1180   2.839   5.515   0.285
   94SOL    HW1 1181   2.871   5.460   0.207
   94SOL    HW2 1182   2.918   5.559   0.328
   95SOL     OW 1183   0.273   0.246   3.868
   95SOL    HW1 1184   0.175   0.256   3.886
   95SOL    HW2 1185   0.289   0.158   3.824
   96SOL     OW 1186   2.025   0.225   5.233
   96SOL    HW1 1187   2.007   0.143   5.289
   96SOL    HW2 1188   1.973   0.302   5.270
   97SOL     OW 1189   6.036   3.317   3.908
   97SOL    HW1 1190   5.953   3.337   3.961
   97SOL    HW2 1191   6.052   3.218   3.908
   98SOL     OW 1192   5.184   2.300   6.134
   98SOL    HW1 1193   5.261   2.282   6.072
   98SOL    HW2 1194   5.208   2.375   6.195
   99SOL     OW 1195   4.161   2.911   0.809
   99SOL    HW1 1196   4.066   2.937   0.792
   99SOL    HW2 1197   4.209   2.903   0.722
  100SOL     OW 1198   0.654   5.879   6.442
  100SOL    HW1 1199   0.698   5.795   6.410
  100SOL    HW2 1200   0.669   5.952   6.376
  101SOL     OW 1201   1.386   6.003   4.386
  101SOL    HW1 1202   1.338   5.915   4.393
  101SOL    HW2 1203   1.415   6.017   4.291
  102SOL     OW 1204   3.396   0.575   3.334
  102SOL    HW1 1205   3.414   0.480   3.361
  102SOL    HW2 1206   3.470   0.607   3.274
  103SOL     OW 1207   4.245   2.449   1.338
  103SOL    HW1 1208   4.181   2.518   1.374
  103SOL    HW2 1209   4.287   2.400   1.414
  104SOL     OW 1210   6.887   5.589   2.378
  104SOL    HW1 1211   6.845   5.616   2.291
  104SOL    HW2 1212   6.976   5.634   2.387
  105SOL     OW 1213   6.061   0.820   6.707
  105SOL    HW1 1214   6.052   0.872   6.623
  105SOL    HW2 1215   6.030   0.875   6.785
  106SOL     OW 1216   3.039   6.594   6.739
  106SOL    HW1 1217   3.082   6.628   6.655
  106SOL    HW2 1218   3.053   6.495   6.745
  107SOL     OW 1219   1.686   2.682   0.871
  107SOL    HW1 1220   1.709   2.610   0.806
  107SOL    HW2 1221   1.665   2.767   0.822
  108SOL     OW 1222   4.695   4.526   5.876
  108SOL    HW1 1223   4.772   4.586   5.854
  108SOL    HW2 1224   4.718   4.432   5.850
  109SOL     OW 1225   0.449   0.389   0.578
  109SOL    HW1 1226   0.489   0.453   0.643
  109SOL    HW2 1227   0.508   0.309   0.569
  110SOL     OW 1228   3.613   6.034   5.681
  110SOL    HW1 1229   3.628   5.935   5.679
  110SOL    HW2 1230   3.598   6.067   5.588
  111SOL     OW 1231   4.061   0.786   3.131
  111SOL    HW1 1232   4.007   0.732   3.195
  111SOL    HW2 1233   4.144   0.736   3.106
  112SOL     OW 1234   6.442   6.278   5.725
  112SOL    HW1 1235   6.437   6.319   5.816
  112SOL    HW2 1236   6.356   6.231   5.705
  113SOL     OW 1237   0.219   4.360   3.753
  113SOL    HW1 1238   0.155   4.421   3.801
  113SOL    HW2 1239   0.263   4.299   3.819
  114SOL     OW 1240   0.766   6.874   0.273
  114SOL    HW1 1241   0.808   6.786   0.296
  114SOL    HW2 1242   0.680   6.884   0.324
  115SOL     OW 1243   5.036   1.590   4.010
  115SOL    HW1 1244   4.970   1.645   4.062
  115SOL    HW2 1245   5.118   1.576   4.066
  116SOL     OW 1246   6.201   4.615   1.956
  116SOL    HW1 1247   6.193   4.634   2.054
  116SOL    HW2 1248   6.138   4.674   1.906
  117SOL     OW 1249   1.467   0.250   6.435
  117SOL    HW1 1250   1.463   0.350   6.431
  117SOL    HW2 1251   1.450   0.219   6.529
  118SOL     OW 1252   0.222   0.766   1.929
  118SOL    HW1 1253   0.171   0.852   1.931
  118SOL    HW2 1254   0.193   0.708   2.005
  119SOL     OW 1255   6.758   2.512   5.957
  119SOL    HW1 1256   6.678   2.572   5.956
  119SOL    HW2 1257   6.733   2.422   5.923
  120SOL     OW 1258   6.211   6.498   1.165
  120SOL    HW1 1259   6.275   6.476   1.239
  120SOL    HW2 1260   6.222   6.593   1.138
  121SOL     OW 1261   2.283   3.365   6.447
  121SOL    HW1 1262   2.331   3.401   6.367
  121SOL    HW2 1263   2.195   3.326   6.419
  122SOL     OW 1264   0.521   3.684   4.955
  122SOL    HW1 1265   0.609   3.687   4.908
  122SOL    HW2 1266   0.495   3.588   4.969
  123SOL     OW 1267   0.071   1.542   1.300
  123SOL    HW1 1268   0.077   1.608   1.225
  123SOL    HW2 1269   0.108   1.454   1.271
  124SOL     OW 1270   4.963   3.123   0.356
  124SOL    HW1 1271   5.039   3.126   0.291
  124SOL    HW2 1272   4.996   3.088   0.444
  125SOL     OW 1273   1.490   2.556   2.213
  125SOL    HW1 1274   1.507   2.565   2.311
  125SOL    HW2 1275   1.568   2.593   2.162
  126SOL     OW 1276   2.770   4.529   0.987
  126SOL    HW1 1277   2.750   4.506   1.082
  126SOL    HW2 1278   2.764   4.628   0.974
  127SOL     OW 1279   7.007   5.511   6.010
  127SOL    HW1 1280   0.063   5.574   6.016
  127SOL    HW2 1281   6.934   5.552   5.954
  128SOL     OW 1282   4.446   2.802   1.415
  128SOL    HW1 1283   4.466   2.880   1.356
  128SOL    HW2 1284   4.470   2.825   1.509
  129SOL     OW 1285   3.401   3.948   6.461
  129SOL    HW1 1286   3.485   3.905   6.493
  129SOL    HW2 1287   3.363   3.895   6.385
  130SOL     OW 1288   0.736   1.248   4.188
  130SOL    HW1 1289   0.834   1.268   4.184
  130SOL    HW2 1290   0.722   1.149   4.191
  131SOL     OW 1291   4.589   1.439   2.751
  131SOL    HW1 1292   4.521   1.423   2.822
  131SOL    HW2 1293   4.545   1.443   2.662
  132SOL     OW 1294   0.814   2.802   1.666
  132SOL    HW1 1295   0.852   2.741   1.736
  132SOL    HW2 1296   0.859   2.784   1.579
  133SOL     OW 1297   6.451   6.072   2.468
  133SOL    HW1 1298   6.451   5.982   2.425
  133SOL    HW2 1299   6.519   6.131   2.424
  134SOL     OW 1300   0.208   3.658   2.915
  134SOL    HW1 1301   0.287   3.625   2.863
  134SOL    HW2 1302   0.133   3.680   2.851
  135SOL     OW 1303   5.541   1.652   4.158
  135SOL    HW1 1304   5.589   1.565   4.172
  135SOL    HW2 1305   5.444   1.634   4.144
  136SOL     OW 1306   5.188   3.903   5.172
  136SOL    HW1 1307   5.210   3.986   5.120
  136SOL    HW2 1308   5.092   3.880   5.157
  137SOL     OW 1309   4.983   6.893   6.007
  137SOL    HW1 1310   4.961   6.952   5.929
  137SOL    HW2 1311   4.986   6.948   6.090
  138SOL     OW 1312   6.856   5.176   4.714
  138SOL    HW1 1313   6.810   5.139   4.634
  138SOL    HW2 1314   6.941   5.221   4.687
  139SOL     OW 1315   3.130   4.714   5.217
  139SOL    HW1 1316   3.088   4.789   5.268
  139SOL    HW2 1317   3.063   4.640   5.205
  140SOL     OW 1318   5.393   5.092   4.182
  140SOL    HW1 1319   5.413   5.002   4.143
  140SOL    HW2 1320   5.431   5.098   4.274
  141SOL     OW 1321   0.966   1.744   4.861
  141SOL    HW1 1322   1.007   1.829   4.895
  141SOL    HW2 1323   0.984   1.671   4.926
  142SOL     OW 1324   1.527   6.135   1.464
  142SOL    HW1 1325   1.496   6.205   1.528
  142SOL    HW2 1326   1.603   6.084   1.504
  143SOL     OW 1327   5.042   4.990   2.563
  143SOL    HW1 1328   5.000   4.942   2.486
  143SOL    HW2 1329   4.971   5.017   2.628
  144SOL     OW 1330   1.873   6.488   6.788
  144SOL    HW1 1331   1.812   6.521   6.860
  144SOL    HW2 1332   1.865   6.547   6.708
  145SOL     OW 1333   0.549   5.479   0.876
  145SOL    HW1 1334   0.551   5.464   0.777
  145SOL    HW2 1335   0.627   5.536   0.902
  146SOL     OW 1336   5.381   6.421   1.272
  146SOL    HW1 1337   5.312   6.402   1.203
  146SOL    HW2 1338   5.387   6.345   1.336
  147SOL     OW 1339   6.897   2.460   0.736
  147SOL    HW1 1340   6.994   2.467   0.760
  147SOL    HW2 1341   6.847   2.535   0.778
  148SOL     OW 1342   1.089   5.206   5.754
  148SOL    HW1 1343   1.024   5.276   5.785
  148SOL    HW2 1344   1.099   5.212   5.654
  149SOL     OW 1345   2.838   1.340   4.602
  149SOL    HW1 1346   2.750   1.379   4.631
  149SOL    HW2 1347   2.895   1.322   4.682
  150SOL     OW 1348   6.744   5.019   6.965
  150SOL    HW1 1349   6.752   5.099   6.906
  150SOL    HW2 1350   6.671   4.960   6.932
  151SOL     OW 1351   3.901   1.752   1.513
  151SOL    HW1 1352   3.986   1.801   1.532
  151SOL    HW2 1353   3.893   1.738   1.414
  152SOL     OW 1354   2.722   0.929   4.465
  152SOL    HW1 1355   2.631   0.898   4.440
  152SOL    HW2 1356   2.737   1.021   4.430
  153SOL     OW 1357   2.072   1.263   3.017
  153SOL    HW1 1358   2.073   1.363   3.027
  153SOL    HW2 1359   1.987   1.227   3.053
  154SOL     OW 1360   6.897   2.004   2.249
  154SOL    HW1 1361   6.928   2.059   2.326
  154SOL    HW2 1362   6.922   2.049   2.163
  155SOL     OW 1363   6.979   0.915   2.709
  155SOL    HW1 1364   6.999   0.902   2.807
  155SOL    HW2 1365   0.018   0.857   2.655
  156SOL     OW 1366   6.244   1.664   1.321
  156SOL    HW1 1367   6.286   1.579   1.353
  156SOL    HW2 1368   6.152   1.644   1.287
  157SOL     OW 1369   5.929   3.248   2.827
  157SOL    HW1 1370   5.948   3.207   2.738
  157SOL    HW2 1371   6.014   3.285   2.866
  158SOL     OW 1372   2.532   0.927   3.022
  158SOL    HW1 1373   2.578   0.976   2.948
  158SOL    HW2 1374   2.582   0.939   3.107
  159SOL     OW 1375   4.938   4.259   1.814
  159SOL    HW1 1376   4.845   4.288   1.789
  159SOL    HW2 1377   4.981   4.329   1.870
  160SOL     OW 1378   6.652   4.252   5.525
  160SOL    HW1 1379   6.739   4.202   5.516
  160SOL    HW2 1380   6.594   4.204   5.591
  161SOL     OW 1381   2.239   5.048   5.191
  161SOL    HW1 1382   2.238   4.964   5.246
  161SOL    HW2 1383   2.332   5.068   5.161
  162SOL     OW 1384   4.912   5.853   1.119
  162SOL    HW1 1385   4.829   5.872   1.068
  162SOL    HW2 1386   4.990   5.894   1.072
  163SOL     OW 1387   4.441   6.883   2.061
  163SOL    HW1 1388   4.393   6.849   1.980
  163SOL    HW2 1389   4.528   6.836   2.071
  164SOL     OW 1390   6.261   3.546   0.734
  164SOL    HW1 1391   6.282   3.450   0.755
  164SOL    HW2 1392   6.252   3.557   0.635
  165SOL     OW 1393   5.099   3.437   6.699
  165SOL    HW1 1394   5.061   3.353   6.659
  165SOL    HW2 1395   5.024   3.495   6.731
  166SOL     OW 1396   0.168   6.900   2.435
  166SOL    HW1 1397   0.138   6.805   2.422
  166SOL    HW2 1398   0.248   6.918   2.377
  167SOL     OW 1399   6.569   2.566   6.995
  167SOL    HW1 1400   6.562   2.523   6.905
  167SOL    HW2 1401   6.522   2.509   0.042
  168SOL     OW 1402   2.304   5.222   0.860
  168SOL    HW1 1403   2.374   5.170   0.812
  168SOL    HW2 1404   2.346   5.279   0.931
  169SOL     OW 1405   2.215   0.269   2.351
  169SOL    HW1 1406   2.268   0.283   2.435
  169SOL    HW2 1407   2.276   0.268   2.272
  170SOL     OW 1408   0.019   1.718   3.370
  170SOL    HW1 1409   0.064   1.807   3.363
  170SOL    HW2 1410   6.948   1.730   3.406
  171SOL     OW 1411   3.827   3.678   0.259
  171SOL    HW1 1412   3.914   3.690   0.307
  171SOL    HW2 1413   3.801   3.765   0.216
  172SOL     OW 1414   6.620   2.263   5.553
  172SOL    HW1 1415   6.526   2.273   5.522
  172SOL    HW2 1416   6.678   2.331   5.507
  173SOL     OW 1417   6.763   6.584   4.459
  173SOL    HW1 1418   6.832   6.514   4.476
  173SOL    HW2 1419   6.797   6.649   4.390
  174SOL     OW 1420   2.498   4.948   3.417
  174SOL    HW1 1421   2.453   4.883   3.355
  174SOL    HW2 1422   2.535   5.024   3.363
  175SOL     OW 1423   2.079   5.958   2.101
  175SOL    HW1 1424   2.084   5.969   2.002
  175SOL    HW2 1425   2.104   5.865   2.126
  176SOL     OW 1426   2.080   4.148   1.183
  176SOL    HW1 1427   1.997   4.204   1.192
  176SOL    HW2 1428   2.101   4.105   1.270
  177SOL     OW 1429   4.920   2.504   2.750
  177SOL    HW1 1430   4.871   2.451   2.681
  177SOL    HW2 1431   5.018   2.487   2.741
  178SOL     OW 1432   4.922   4.861   6.931
  178SOL    HW1 1433   4.926   4.942   6.874
  178SOL    HW2 1434   5.014   4.832   6.957
  179SOL     OW 1435   3.320   0.405   0.582
  179SOL    HW1 1436   3.241   0.459   0.552
  179SOL    HW2 1437   3.400   0.430   0.528
  180SOL     OW 1438   1.123   1.157   6.496
  180SOL    HW1 1439   1.052   1.220   6.464
  180SOL    HW2 1440   1.110   1.139   6.594
  181SOL     OW 1441   3.387   2.660   5.859
  181SOL    HW1 1442   3.438   2.610   5.929
  181SOL    HW2 1443   3.312   2.604   5.825
  182SOL     OW 1444   4.037   2.127   4.830
  182SOL    HW1 1445   4.056   2.034   4.799
  182SOL    HW2 1446   4.069   2.192   4.761
  183SOL     OW 1447   4.841   1.275   1.973
  183SOL    HW1 1448   4.899   1.305   1.897
  183SOL    HW2 1449   4.893   1.211   2.030
  184SOL     OW 1450   1.180   4.993   3.222
  184SOL    HW1 1451   1.271   5.015   3.258
  184SOL    HW2 1452   1.132   4.933   3.287
  185SOL     OW 1453   1.467   3.874   6.602
  185SOL    HW1 1454   1.440   3.957   6.554
  185SOL    HW2 1455   1.554   3.841   6.566
  186SOL     OW 1456   5.625   0.145   3.229
  186SOL    HW1 1457   5.569   0.146   3.312
  186SOL    HW2 1458   5.720   0.168   3.253
  187SOL     OW 1459   5.366   0.934   3.780
  187SOL    HW1 1460   5.374   1.009   3.846
  187SOL    HW2 1461   5.430   0.948   3.705
  188SOL     OW 1462   5.746   2.352   3.097
  188SOL    HW1 1463   5.804   2.430   3.075
  188SOL    HW2 1464   5.758   2.327   3.193
  189SOL     OW 1465   2.293   4.823   2.523
  189SOL    HW1 1466   2.216   4.885   2.505
  189SOL    HW2 1467   2.316   4.826   2.620
  190SOL     OW 1468   3.946   1.131   5.279
  190SOL    HW1 1469   3.996   1.115   5.194
  190SOL    HW2 1470   3.923   1.228   5.286
  191SOL     OW 1471   5.979   5.963   6.593
  191SOL    HW1 1472   5.913   6.001   6.528
  191SOL    HW2 1473   6.072   5.979   6.560
  192SOL     OW 1474   6.790   0.263   1.632
  192SOL    HW1 1475   6.722   0.199   1.669
  192SOL    HW2 1476   6.872   0.262   1.690
  193SOL     OW 1477   5.084   3.586   0.030
  193SOL    HW1 1478   5.178   3.598   7.019
  193SOL    HW2 1479   5.022   3.633   6.989
  194SOL     OW 1480   3.140   1.020   3.420
  194SOL    HW1 1481   3.172   0.949   3.357
  194SOL    HW2 1482   3.053   1.057   3.386
  195SOL     OW 1483   1.758   5.302   3.681
  195SOL    HW1 1484   1.772   5.211   3.642
  195SOL    HW2 1485   1.685   5.348   3.630
  196SOL     OW 1486   1.641   1.784   6.872
  196SOL    HW1 1487   1.726   1.785   6.926
  196SOL    HW2 1488   1.614   1.689   6.857
  197SOL     OW 1489   1.800   0.806   1.359
  197SOL    HW1 1490   1.728   0.744   1.329
  197SOL    HW2 1491   1.805   0.885   1.297
  198SOL     OW 1492   3.801   1.515   3.075
  198SOL    HW1 1493   3.765   1.504   3.168
  198SOL    HW2 1494   3.770   1.602   3.037
  199SOL     OW 1495   0.816   2.168   3.545
  199SOL    HW1 1496   0.822   2.084   3.599
  199SOL    HW2 1497   0.763   2.236   3.595
  200SOL     OW 1498   0.094   2.392   0.238
  200SOL    HW1 1499   0.025   2.465   0.232
  200SOL    HW2 1500   0.133   2.391   0.330
  201SOL     OW 1501   0.735   0.713   6.148
  201SOL    HW1 1502   0.780   0.800   6.128
  201SOL    HW2 1503   0.752   0.687   6.243
  202SOL     OW 1504   4.765   0.372   6.503
  202SOL    HW1 1505   4.725   0.463   6.499
  202SOL    HW2 1506   4.830   0.361   6.428
  203SOL     OW 1507   5.319   2.900   5.545
  203SOL    HW1 1508   5.252   2.950   5.601
  203SOL    HW2 1509   5.409   2.942   5.556
  204SOL     OW 1510   6.876   0.710   6.080
  204SOL    HW1 1511   6.964   0.663   6.072
  204SOL    HW2 1512   6.854   0.756   5.994
  205SOL     OW 1513   0.975   2.984   2.184
  205SOL    HW1 1514   0.958   2.885   2.192
  205SOL    HW2 1515   1.035   3.001   2.106
  206SOL     OW 1516   0.459   3.153   0.759
  206SOL    HW1 1517   0.534   3.216   0.736
  206SOL    HW2 1518   0.410   3.128   0.675
  207SOL     OW 1519   5.103   2.056   3.860
  207SOL    HW1 1520   5.053   2.013   3.784
  207SOL    HW2 1521   5.075   2.152   3.867
  208SOL     OW 1522   0.797   3.948   4.851
  208SOL    HW1 1523   0.798   4.047   4.863
  208SOL    HW2 1524   0.783   3.904   4.940
  209SOL     OW 1525   6.696   4.294   2.557
  209SOL    HW1 1526   6.730   4.314   2.649
  209SOL    HW2 1527   6.597   4.310   2.554
  210SOL     OW 1528   4.841   1.974   0.059
  210SOL    HW1 1529   4.897   1.914   0.002
  210SOL    HW2 1530   4.766   1.922   0.099
  211SOL     OW 1531   0.452   0.592   3.257
  211SOL    HW1 1532   0.353   0.582   3.255
  211SOL    HW2 1533   0.475   0.682   3.294
  212SOL     OW 1534   1.911   3.898   3.493
  212SOL    HW1 1535   1.912   3.991   3.530
  212SOL    HW2 1536   1.880   3.900   3.398
  213SOL     OW 1537   1.925   5.011   1.001
  213SOL    HW1 1538   1.897   5.107   1.006
  213SOL    HW2 1539   1.844   4.954   0.988
  214SOL     OW 1540   4.510   5.892   2.316
  214SOL    HW1 1541   4.575   5.932   2.381
  214SOL    HW2 1542   4.522   5.793   2.314
  215SOL     OW 1543   2.373   4.450   2.046
  215SOL    HW1 1544   2.283   4.492   2.059
  215SOL    HW2 1545   2.441   4.521   2.032
  216SOL     OW 1546   1.280   6.715   2.228
  216SOL    HW1 1547   1.236   6.699   2.316
  216SOL    HW2 1548   1.379   6.704   2.237
  217SOL     OW 1549   1.634   3.932   6.875
  217SOL    HW1 1550   1.629   3.922   6.975
  217SOL    HW2 1551   1.542   3.949   6.839
  218SOL     OW 1552   0.495   2.339   5.233
  218SOL    HW1 1553   0.455   2.428   5.252
  218SOL    HW2 1554   0.500   2.325   5.134
  219SOL     OW 1555   3.895   1.275   0.631
  219SOL    HW1 1556   3.950   1.215   0.689
  219SOL    HW2 1557   3.824   1.318   0.686
  220SOL     OW 1558   3.196   6.747   0.636
  220SOL    HW1 1559   3.288   6.757   0.598
  220SOL    HW2 1560   3.179   6.650   0.654
  221SOL     OW 1561   5.107   5.675   1.333
  221SOL    HW1 1562   5.181   5.696   1.398
  221SOL    HW2 1563   5.141   5.686   1.240
  222SOL     OW 1564   2.087   4.381   6.137
  222SOL    HW1 1565   2.138   4.297   6.119
  222SOL    HW2 1566   1.999   4.359   6.179
  223SOL     OW 1567   6.420   2.307   5.248
  223SOL    HW1 1568   6.451   2.264   5.164
  223SOL    HW2 1569   6.463   2.397   5.258
  224SOL     OW 1570   2.058   1.816   6.104
  224SOL    HW1 1571   2.076   1.747   6.175
  224SOL    HW2 1572   2.140   1.871   6.090
  225SOL     OW 1573   4.405   4.959   6.283
  225SOL    HW1 1574   4.499   4.939   6.254
  225SOL    HW2 1575   4.352   4.875   6.285
  226SOL     OW 1576   1.114   1.909   6.659
  226SOL    HW1 1577   1.158   1.915   6.749
  226SOL    HW2 1578   1.172   1.856   6.597
  227SOL     OW 1579   1.640   3.555   2.113
  227SOL    HW1 1580   1.645   3.654   2.099
  227SOL    HW2 1581   1.628   3.536   2.211
  228SOL     OW 1582   1.681   0.173   2.842
  228SOL    HW1 1583   1.745   0.157   2.767
  228SOL    HW2 1584   1.588   0.166   2.808
  229SOL     OW 1585   5.034   5.251   6.426
  229SOL    HW1 1586   5.131   5.251   6.447
  229SOL    HW2 1587   5.012   5.172   6.369
  230SOL     OW 1588   4.754   6.116   4.841
  230SOL    HW1 1589   4.749   6.214   4.820
  230SOL    HW2 1590   4.704   6.098   4.926
  231SOL     OW 1591   5.197   1.312   6.877
  231SOL    HW1 1592   5.168   1.225   6.837
  231SOL    HW2 1593   5.238   1.295   6.967
  232SOL     OW 1594   1.558   2.592   6.036
  232SOL    HW1 1595   1.488   2.607   6.106
  232SOL    HW2 1596   1.636   2.652   6.053
  233SOL     OW 1597   2.363   1.195   3.149
  233SOL    HW1 1598   2.392   1.191   3.245
  233SOL    HW2 1599   2.325   1.107   3.122
  234SOL     OW 1600   4.708   1.310   6.483
  234SOL    HW1 1601   4.628   1.362   6.513
  234SOL    HW2 1602   4.679   1.240   6.417
  235SOL     OW 1603   4.821   2.678   2.377
  235SOL    HW1 1604   4.815   2.765   2.327
  235SOL    HW2 1605   4.732   2.632   2.375
  236SOL     OW 1606   4.273   4.214   6.263
  236SOL    HW1 1607   4.325   4.237   6.180
  236SOL    HW2 1608   4.211   4.289   6.285
  237SOL     OW 1609   6.216   3.748   2.838
  237SOL    HW1 1610   6.167   3.746   2.751
  237SOL    HW2 1611   6.296   3.807   2.830
  238SOL     OW 1612   6.427   1.461   0.275
  238SOL    HW1 1613   6.419   1.548   0.227
  238SOL    HW2 1614   6.361   1.458   0.350
  239SOL     OW 1615   0.963   3.626   0.359
  239SOL    HW1 1616   0.993   3.667   0.445
  239SOL    HW2 1617   0.924   3.536   0.376
  240SOL     OW 1618   6.036   3.026   3.248
  240SOL    HW1 1619   5.973   3.020   3.326
  240SOL    HW2 1620   6.079   2.937   3.234
  241SOL     OW 1621   2.468   1.319   3.733
  241SOL    HW1 1622   2.486   1.314   3.634
  241SOL    HW2 1623   2.547   1.360   3.779
  242SOL     OW 1624   3.639   4.114   3.616
  242SOL    HW1 1625   3.547   4.105   3.579
  242SOL    HW2 1626   3.668   4.210   3.611
  243SOL     OW 1627   5.064   2.769   6.254
  243SOL    HW1 1628   5.140   2.800   6.311
  243SOL    HW2 1629   4.978   2.802   6.291
  244SOL     OW 1630   6.272   3.844   6.042
  244SOL    HW1 1631   6.266   3.941   6.017
  244SOL    HW2 1632   6.308   3.836   6.135
  245SOL     OW 1633   3.373   1.602   2.561
  245SOL    HW1 1634   3.290   1.549   2.580
  245SOL    HW2 1635   3.448   1.539   2.543
  246SOL     OW 1636   5.865   1.713   3.669
  246SOL    HW1 1637   5.944   1.652   3.663
  246SOL    HW2 1638   5.896   1.806   3.689
  247SOL     OW 1639   2.098   1.325   0.815
  247SOL    HW1 1640   2.094   1.282   0.725
  247SOL    HW2 1641   2.007   1.356   0.841
  248SOL     OW 1642   1.717   1.331   2.078
  248SOL    HW1 1643   1.630   1.365   2.115
  248SOL    HW2 1644   1.775   1.298   2.153
  249SOL     OW 1645   5.829   6.670   4.878
  249SOL    HW1 1646   5.745   6.628   4.910
  249SOL    HW2 1647   5.845   6.755   4.927
  250SOL     OW 1648   3.111   2.930   0.503
  250SOL    HW1 1649   3.012   2.925   0.516
  250SOL    HW2 1650   3.155   2.856   0.554
  251SOL     OW 1651   4.291   3.825   5.726
  251SOL    HW1 1652   4.265   3.760   5.655
  251SOL    HW2 1653   4.332   3.906   5.684
  252SOL     OW 1654   5.946   6.379   5.491
  252SOL    HW1 1655   5.886   6.414   5.563
  252SOL    HW2 1656   5.932   6.281   5.480
  253SOL     OW 1657   4.360   5.376   6.064
  253SOL    HW1 1658   4.401   5.286   6.057
  253SOL    HW2 1659   4.373   5.427   5.979
  254SOL     OW 1660   5.833   2.865   4.495
  254SOL    HW1 1661   5.786   2.779   4.515
  254SOL    HW2 1662   5.823   2.927   4.573
  255SOL     OW 1663   1.875   4.694   5.750
  255SOL    HW1 1664   1.862   4.631   5.673
  255SOL    HW2 1665   1.819   4.665   5.827
  256SOL     OW 1666   4.807   3.096   5.599
  256SOL    HW1 1667   4.882   3.035   5.622
  256SOL    HW2 1668   4.731   3.043   5.561
  257SOL     OW 1669   4.664   6.137   2.795
  257SOL    HW1 1670   4.749   6.188   2.811
  257SOL    HW2 1671   4.586   6.198   2.810
  258SOL     OW 1672   2.430   3.702   6.242
  258SOL    HW1 1673   2.502   3.634   6.230
  258SOL    HW2 1674   2.391   3.726   6.153
  259SOL     OW 1675   3.753   0.107   2.921
  259SOL    HW1 1676   3.794   0.137   2.835
  259SOL    HW2 1677   3.776   0.171   2.993
  260SOL     OW 1678   4.083   5.451   3.570
  260SOL    HW1 1679   4.142   5.510   3.624
  260SOL    HW2 1680   4.129   5.427   3.485
  261SOL     OW 1681   4.483   4.973   0.732
  261SOL    HW1 1682   4.540   5.010   0.805
  261SOL    HW2 1683   4.535   4.906   0.679
  262SOL     OW 1684   2.139   4.321   0.287
  262SOL    HW1 1685   2.132   4.224   0.264
  262SOL    HW2 1686   2.082   4.341   0.367
  263SOL     OW 1687   1.326   6.502   4.068
  263SOL    HW1 1688   1.245   6.472   4.118
  263SOL    HW2 1689   1.355   6.592   4.101
  264SOL     OW 1690   7.000   3.141   6.813
  264SOL    HW1 1691   6.913   3.159   6.859
  264SOL    HW2 1692   0.011   3.049   6.836
  265SOL     OW 1693   5.830   0.141   4.020
  265SOL    HW1 1694   5.823   0.216   4.084
  265SOL    HW2 1695   5.861   0.175   3.931
  266SOL     OW 1696   4.430   1.767   5.716
  266SOL    HW1 1697   4.419   1.682   5.768
  266SOL    HW2 1698   4.359   1.772   5.646
  267SOL     OW 1699   1.371   0.530   5.319
  267SOL    HW1 1700   1.423   0.447   5.337
  267SOL    HW2 1701   1.425   0.610   5.344
  268SOL     OW 1702   3.826   1.374   1.289
  268SOL    HW1 1703   3.761   1.307   1.251
  268SOL    HW2 1704   3.844   1.351   1.385
  269SOL     OW 1705   3.811   2.122   0.008
  269SOL    HW1 1706   3.837   2.214   7.000
  269SOL    HW2 1707   3.835   2.056   6.958
  270SOL     OW 1708   0.024   6.771   0.187
  270SOL    HW1 1709   6.955   6.785   0.148
  270SOL    HW2 1710   0.074   6.703   0.133
  271SOL     OW 1711   0.302   2.505   6.272
  271SOL    HW1 1712   0.210   2.532   6.247
  271SOL    HW2 1713   0.368   2.560   6.221
  272SOL     OW 1714   3.436   6.328   3.302
  272SOL    HW1 1715   3.405   6.237   3.328
  272SOL    HW2 1716   3.534   6.326   3.284
  273SOL     OW 1717   2.143   5.306   5.221
  273SOL    HW1 1718   2.191   5.219   5.209
  273SOL    HW2 1719   2.204   5.371   5.266
  274SOL     OW 1720   4.180   0.597   4.160
  274SOL    HW1 1721   4.122   0.629   4.235
  274SOL    HW2 1722   4.258   0.658   4.149
  275SOL     OW 1723   0.013   6.656   2.704
  275SOL    HW1 1724   0.058   6.745   2.713
  275SOL    HW2 1725   0.079   6.583   2.718
  276SOL     OW 1726   0.029   0.484   4.487
  276SOL    HW1 1727   0.057   0.514   4.396
  276SOL    HW2 1728   0.010   0.564   4.544
  277SOL     OW 1729   1.762   3.058   0.331
  277SOL    HW1 1730   1.850   3.036   0.289
  277SOL    HW2 1731   1.766   3.039   0.429
  278SOL     OW 1732   0.582   2.677   2.457
  278SOL    HW1 1733   0.676   2.682   2.423
  278SOL    HW2 1734   0.568   2.748   2.527
  279SOL     OW 1735   5.774   2.891   4.243
  279SOL    HW1 1736   5.814   2.873   4.333
  279SOL    HW2 1737   5.803   2.981   4.210
  280SOL     OW 1738   2.166   4.576   2.406
  280SOL    HW1 1739   2.131   4.627   2.485
  280SOL    HW2 1740   2.249   4.620   2.372
  281SOL     OW 1741   2.149   3.631   0.804
  281SOL    HW1 1742   2.222   3.690   0.838
  281SOL    HW2 1743   2.169   3.605   0.709
  282SOL     OW 1744   3.347   1.522   6.023
  282SOL    HW1 1745   3.380   1.532   5.929
  282SOL    HW2 1746   3.261   1.571   6.034
  283SOL     OW 1747   5.344   2.841   6.462
  283SOL    HW1 1748   5.346   2.806   6.556
  283SOL    HW2 1749   5.350   2.941   6.464
  284SOL     OW 1750   0.812   3.419   3.912
  284SOL    HW1 1751   0.811   3.471   3.998
  284SOL    HW2 1752   0.718   3.394   3.888
  285SOL     OW 1753   5.929   4.456   3.770
  285SOL    HW1 1754   5.830   4.454   3.789
  285SOL    HW2 1755   5.977   4.403   3.839
  286SOL     OW 1756   3.608   3.727   6.920
  286SOL    HW1 1757   3.617   3.690   7.013
  286SOL    HW2 1758   3.600   3.827   6.925
  287SOL     OW 1759   1.868   3.690   0.913
  287SOL    HW1 1760   1.968   3.682   0.909
  287SOL    HW2 1761   1.843   3.760   0.980
  288SOL     OW 1762   4.948   1.779   6.896
  288SOL    HW1 1763   4.950   1.827   6.809
  288SOL    HW2 1764   5.033   1.728   6.909
  289SOL     OW 1765   2.668   4.752   6.102
  289SOL    HW1 1766   2.602   4.678   6.109
  289SOL    HW2 1767   2.670   4.804   6.187
  290SOL     OW 1768   0.126   1.965   5.920
  290SOL    HW1 1769   0.208   1.998   5.874
  290SOL    HW2 1770   0.046   1.985   5.863
  291SOL     OW 1771   6.527   1.907   2.546
  291SOL    HW1 1772   6.626   1.915   2.534
  291SOL    HW2 1773   6.507   1.822   2.595
  292SOL     OW 1774   1.583   0.848   3.307
  292SOL    HW1 1775   1.533   0.852   3.394
  292SOL    HW2 1776   1.674   0.886   3.319
  293SOL     OW 1777   3.991   5.324   4.013
  293SOL    HW1 1778   4.022   5.232   3.991
  293SOL    HW2 1779   3.946   5.363   3.933
  294SOL     OW 1780   4.896   6.226   6.866
  294SOL    HW1 1781   4.927   6.143   6.818
  294SOL    HW2 1782   4.798   6.237   6.853
  295SOL     OW 1783   4.782   0.779   4.400
  295SOL    HW1 1784   4.823   0.850   4.457
  295SOL    HW2 1785   4.711   0.820   4.343
  296SOL     OW 1786   2.994   2.164   3.748
  296SOL    HW1 1787   2.918   2.197   3.692
  296SOL    HW2 1788   2.972   2.074   3.786
  297SOL     OW 1789   1.175   4.323   2.955
  297SOL    HW1 1790   1.083   4.318   2.995
  297SOL    HW2 1791   1.238   4.362   3.021
  298SOL     OW 1792   6.541   5.048   1.019
  298SOL    HW1 1793   6.618   5.062   0.957
  298SOL    HW2 1794   6.461   5.097   0.985
  299SOL     OW 1795   6.585   2.571   4.606
  299SOL    HW1 1796   6.679   2.537   4.611
  299SOL    HW2 1797   6.522   2.496   4.624
  300SOL     OW 1798   6.214   0.393   3.019
  300SOL    HW1 1799   6.233   0.490   3.006
  300SOL    HW2 1800   6.177   0.354   2.935
  301SOL     OW 1801   5.713   3.725   6.213
  301SOL    HW1 1802   5.621   3.766   6.214
  301SOL    HW2 1803   5.780   3.793   6.185
  302SOL     OW 1804   0.618   6.968   3.482
  302SOL    HW1 1805   0.525   6.990   3.509
  302SOL    HW2 1806   0.667   6.929   3.560
  303SOL     OW 1807   5.089   1.009   3.806
  303SOL    HW1 1808   5.093   1.102   3.842
  303SOL    HW2 1809   5.177   0.986   3.764
  304SOL     OW 1810   2.455   6.902   3.622
  304SOL    HW1 1811   2.361   6.870   3.631
  304SOL    HW2 1812   2.491   6.924   3.713
  305SOL     OW 1813   1.756   3.491   1.470
  305SOL    HW1 1814   1.852   3.483   1.496
  305SOL    HW2 1815   1.727   3.408   1.424
  306SOL     OW 1816   1.855   1.036   3.706
  306SOL    HW1 1817   1.826   1.114   3.762
  306SOL    HW2 1818   1.792   1.026   3.629
  307SOL     OW 1819   3.760   0.148   1.314
  307SOL    HW1 1820   3.764   0.050   1.299
  307SOL    HW2 1821   3.665   0.178   1.319
  308SOL     OW 1822   0.859   5.502   4.037
  308SOL    HW1 1823   0.764   5.477   4.051
  308SOL    HW2 1824   0.893   5.459   3.953
  309SOL     OW 1825   3.567   5.242   4.967
  309SOL    HW1 1826   3.510   5.287   4.899
  309SOL    HW2 1827   3.576   5.145   4.944
  310SOL     OW 1828   0.295   6.682   6.012
  310SOL    HW1 1829   0.365   6.744   6.049
  310SOL    HW2 1830   0.247   6.727   5.936
  311SOL     OW 1831   0.500   6.907   0.848
  311SOL    HW1 1832   0.458   6.835   0.902
  311SOL    HW2 1833   0.429   6.964   0.807
  312SOL     OW 1834   4.818   1.978   5.013
  312SOL    HW1 1835   4.794   1.999   5.107
  312SOL    HW2 1836   4.808   1.879   4.997
  313SOL     OW 1837   1.472   4.221   1.783
  313SOL    HW1 1838   1.490   4.145   1.845
  313SOL    HW2 1839   1.401   4.196   1.718
  314SOL     OW 1840   4.227   6.569   0.792
  314SOL    HW1 1841   4.280   6.617   0.722
  314SOL    HW2 1842   4.138   6.614   0.803
  315SOL     OW 1843   0.527   2.312   3.153
  315SOL    HW1 1844   0.540   2.410   3.138
  315SOL    HW2 1845   0.464   2.298   3.230
  316SOL     OW 1846   2.589   2.224   4.209
  316SOL    HW1 1847   2.517   2.229   4.278
  316SOL    HW2 1848   2.677   2.244   4.250
  317SOL     OW 1849   0.082   1.489   6.582
  317SOL    HW1 1850   0.176   1.457   6.571
  317SOL    HW2 1851   0.075   1.583   6.549
  318SOL     OW 1852   2.379   4.758   0.437
  318SOL    HW1 1853   2.457   4.712   0.480
  318SOL    HW2 1854   2.396   4.769   0.339
  319SOL     OW 1855   1.706   6.214   0.600
  319SOL    HW1 1856   1.723   6.266   0.517
  319SOL    HW2 1857   1.775   6.142   0.609
  320SOL     OW 1858   5.718   3.340   0.523
  320SOL    HW1 1859   5.654   3.336   0.446
  320SOL    HW2 1860   5.812   3.339   0.488
  321SOL     OW 1861   1.864   2.400   0.952
  321SOL    HW1 1862   1.907   2.319   0.992
  321SOL    HW2 1863   1.905   2.482   0.992
  322SOL     OW 1864   3.572   2.980   4.755
  322SOL    HW1 1865   3.615   2.972   4.665
  322SOL    HW2 1866   3.632   2.941   4.825
  323SOL     OW 1867   0.669   4.575   1.743
  323SOL    HW1 1868   0.685   4.536   1.652
  323SOL    HW2 1869   0.718   4.662   1.750
  324SOL     OW 1870   0.601   2.760   4.954
  324SOL    HW1 1871   0.660   2.825   4.906
  324SOL    HW2 1872   0.623   2.761   5.051
  325SOL     OW 1873   2.408   2.641   2.227
  325SOL    HW1 1874   2.411   2.681   2.136
  325SOL    HW2 1875   2.451   2.551   2.226
  326SOL     OW 1876   1.658   5.190   6.214
  326SOL    HW1 1877   1.585   5.126   6.190
  326SOL    HW2 1878   1.719   5.147   6.280
  327SOL     OW 1879   6.263   5.265   5.242
  327SOL    HW1 1880   6.240   5.350   5.290
  327SOL    HW2 1881   6.265   5.190   5.308
  328SOL     OW 1882   3.494   5.638   2.416
  328SOL    HW1 1883   3.567   5.664   2.353
  328SOL    HW2 1884   3.439   5.565   2.375
  329SOL     OW 1885   3.559   3.628   3.135
  329SOL    HW1 1886   3.579   3.685   3.055
  329SOL    HW2 1887   3.577   3.532   3.114
  330SOL     OW 1888   3.261   0.555   1.820
  330SOL    HW1 1889   3.359   0.547   1.801
  330SOL    HW2 1890   3.216   0.468   1.802
  331SOL     OW 1891   4.845   4.962   6.043
  331SOL    HW1 1892   4.751   4.957   6.008
  331SOL    HW2 1893   4.894   5.035   5.997
  332SOL     OW 1894   3.654   1.781   2.604
  332SOL    HW1 1895   3.595   1.855   2.573
  332SOL    HW2 1896   3.607   1.694   2.595
  333SOL     OW 1897   3.814   6.298   6.379
  333SOL    HW1 1898   3.788   6.229   6.311
  333SOL    HW2 1899   3.912   6.319   6.369
  334SOL     OW 1900   4.265   0.230   2.695
  334SOL    HW1 1901   4.322   0.183   2.627
  334SOL    HW2 1902   4.239   0.167   2.767
  335SOL     OW 1903   2.817   0.066   3.416
  335SOL    HW1 1904   2.858   0.137   3.473
  335SOL    HW2 1905   2.857   0.071   3.324
  336SOL     OW 1906   2.960   0.847   4.186
  336SOL    HW1 1907   2.866   0.873   4.163
  336SOL    HW2 1908   3.015   0.843   4.103
  337SOL     OW 1909   6.587   3.796   1.243
  337SOL    HW1 1910   6.658   3.726   1.251
  337SOL    HW2 1911   6.498   3.752   1.233
  338SOL     OW 1912   3.275   2.889   1.399
  338SOL    HW1 1913   3.237   2.918   1.487
  338SOL    HW2 1914   3.336   2.811   1.413
  339SOL     OW 1915   4.291   6.590   3.161
  339SOL    HW1 1916   4.301   6.492   3.147
  339SOL    HW2 1917   4.319   6.639   3.077
  340SOL     OW 1918   4.734   4.225   4.191
  340SOL    HW1 1919   4.742   4.140   4.139
  340SOL    HW2 1920   4.821   4.245   4.236
  341SOL     OW 1921   4.960   5.386   4.721
  341SOL    HW1 1922   5.047   5.345   4.746
  341SOL    HW2 1923   4.919   5.335   4.645
  342SOL     OW 1924   6.260   4.176   0.625
  342SOL    HW1 1925   6.231   4.267   0.657
  342SOL    HW2 1926   6.283   4.119   0.704
  343SOL     OW 1927   2.929   0.376   2.700
  343SOL    HW1 1928   2.881   0.451   2.744
  343SOL    HW2 1929   3.028   0.394   2.701
  344SOL     OW 1930   3.242   5.457   0.670
  344SOL    HW1 1931   3.192   5.486   0.752
  344SOL    HW2 1932   3.185   5.394   0.617
  345SOL     OW 1933   0.748   6.718   5.238
  345SOL    HW1 1934   0.839   6.760   5.238
  345SOL    HW2 1935   0.706   6.732   5.148
  346SOL     OW 1936   1.404   0.127   2.966
  346SOL    HW1 1937   1.414   0.032   2.994
  346SOL    HW2 1938   1.424   0.187   3.044
  347SOL     OW 1939   4.966   6.505   6.483
  347SOL    HW1 1940   5.066   6.495   6.481
  347SOL    HW2 1941   4.932   6.481   6.573
  348SOL     OW 1942   3.676   5.656   1.908
  348SOL    HW1 1943   3.726   5.632   1.824
  348SOL    HW2 1944   3.595   5.598   1.915
  349SOL     OW 1945   1.658   4.912   2.210
  349SOL    HW1 1946   1.601   4.921   2.128
  349SOL    HW2 1947   1.716   4.993   2.220
  350SOL     OW 1948   4.608   2.972   0.987
  350SOL    HW1 1949   4.514   2.985   0.955
  350SOL    HW2 1950   4.623   2.875   1.006
  351SOL     OW 1951   3.593   1.985   0.421
  351SOL    HW1 1952   3.663   2.032   0.368
  351SOL    HW2 1953   3.525   2.051   0.454
  352SOL     OW 1954   3.193   0.573   6.671
  352SOL    HW1 1955   3.105   0.526   6.668
  352SOL    HW2 1956   3.252   0.538   6.598
  353SOL     OW 1957   2.543   6.318   1.622
  353SOL    HW1 1958   2.551   6.335   1.720
  353SOL    HW2 1959   2.542   6.406   1.573
  354SOL     OW 1960   4.794   1.455   1.732
  354SOL    HW1 1961   4.881   1.504   1.734
  354SOL    HW2 1962   4.721   1.517   1.764
  355SOL     OW 1963   0.563   2.416   2.075
  355SOL    HW1 1964   0.577   2.369   1.988
  355SOL    HW2 1965   0.488   2.483   2.065
  356SOL     OW 1966   4.465   5.726   3.929
  356SOL    HW1 1967   4.499   5.632   3.933
  356SOL    HW2 1968   4.507   5.779   4.002
  357SOL     OW 1969   0.573   5.360   5.360
  357SOL    HW1 1970   0.483   5.322   5.336
  357SOL    HW2 1971   0.643   5.289   5.348
  358SOL     OW 1972   5.381   0.768   1.676
  358SOL    HW1 1973   5.313   0.826   1.631
  358SOL    HW2 1974   5.458   0.753   1.614
  359SOL     OW 1975   0.925   1.323   1.805
  359SOL    HW1 1976   0.956   1.377   1.884
  359SOL    HW2 1977   0.874   1.243   1.837
  360SOL     OW 1978   4.282   6.715   0.562
  360SOL    HW1 1979   4.377   6.746   0.557
  360SOL    HW2 1980   4.220   6.790   0.539
  361SOL     OW 1981   4.445   0.482   2.759
  361SOL    HW1 1982   4.394   0.419   2.700
  361SOL    HW2 1983   4.531   0.506   2.714
  362SOL     OW 1984   2.774   3.338   0.665
  362SOL    HW1 1985   2.804   3.432   0.678
  362SOL    HW2 1986   2.846   3.275   0.696
  363SOL     OW 1987   4.491   5.061   4.054
  363SOL    HW1 1988   4.521   4.978   4.009
  363SOL    HW2 1989   4.568   5.124   4.063
  364SOL     OW 1990   1.572   5.547   5.948
  364SOL    HW1 1991   1.593   5.579   5.856
  364SOL    HW2 1992   1.528   5.457   5.944
  365SOL     OW 1993   4.735   6.294   2.518
  365SOL    HW1 1994   4.704   6.238   2.440
  365SOL    HW2 1995   4.835   6.300   2.515
  366SOL     OW 1996   6.079   0.137   6.932
  366SOL    HW1 1997   6.136   0.176   7.004
  366SOL    HW2 1998   6.046   0.047   6.960
  367SOL     OW 1999   5.133   2.495   1.039
  367SOL    HW1 2000   5.195   2.561   1.080
  367SOL    HW2 2001   5.066   2.542   0.982
  368SOL     OW 2002   0.776   4.909   5.387
  368SOL    HW1 2003   0.828   4.860   5.458
  368SOL    HW2 2004   0.820   4.996   5.368
  369SOL     OW 2005   0.929   4.078   1.876
  369SOL    HW1 2006   0.847   4.028   1.905
  369SOL    HW2 2007   0.980   4.024   1.810
  370SOL     OW 2008   3.581   1.195   6.397
  370SOL    HW1 2009   3.562   1.196   6.495
  370SOL    HW2 2010   3.662   1.140   6.379
  371SOL     OW 2011   4.274   3.277   6.540
  371SOL    HW1 2012   4.190   3.287   6.595
  371SOL    HW2 2013   4.352   3.261   6.601
  372SOL     OW 2014   1.352   6.127   6.042
  372SOL    HW1 2015   1.272   6.172   6.083
  372SOL    HW2 2016   1.435   6.167   6.080
  373SOL     OW 2017   0.028   6.714   0.464
  373SOL    HW1 2018   0.052   6.728   0.368
  373SOL    HW2 2019   0.102   6.664   0.509
  374SOL     OW 2020   3.407   0.768   1.618
  374SOL    HW1 2021   3.318   0.724   1.628
  374SOL    HW2 2022   3.410   0.850   1.675
  375SOL     OW 2023   6.975   4.800   2.848
  375SOL    HW1 2024   0.013   4.838   2.776
  375SOL    HW2 2025   6.949   4.873   2.911
  376SOL     OW 2026   2.003   2.550   4.061
  376SOL    HW1 2027   2.092   2.508   4.046
  376SOL    HW2 2028   1.948   2.543   3.978
  377SOL     OW 2029   4.777   1.852   3.769
  377SOL    HW1 2030   4.700   1.818   3.714
  377SOL    HW2 2031   4.863   1.819   3.730
  378SOL     OW 2032   4.975   2.895   5.062
  378SOL    HW1 2033   4.936   2.944   5.140
  378SOL    HW2 2034   5.075   2.905   5.062
  379SOL     OW 2035   6.452   3.294   1.030
  379SOL    HW1 2036   6.356   3.308   1.006
  379SOL    HW2 2037   6.499   3.382   1.028
  380SOL     OW 2038   0.970   2.084   0.417
  380SOL    HW1 2039   1.065   2.099   0.444
  380SOL    HW2 2040   0.915   2.067   0.499
  381SOL     OW 2041   3.441   3.951   0.439
  381SOL    HW1 2042   3.411   3.870   0.389
  381SOL    HW2 2043   3.372   3.976   0.507
  382SOL     OW 2044   2.558   5.794   0.504
  382SOL    HW1 2045   2.542   5.797   0.405
  382SOL    HW2 2046   2.636   5.735   0.523
  383SOL     OW 2047   6.441   2.809   6.897
  383SOL    HW1 2048   6.485   2.726   6.931
  383SOL    HW2 2049   6.504   2.886   6.907
  384SOL     OW 2050   1.847   5.720   5.180
  384SOL    HW1 2051   1.913   5.779   5.226
  384SOL    HW2 2052   1.872   5.624   5.196
  385SOL     OW 2053   4.897   5.355   0.925
  385SOL    HW1 2054   4.845   5.439   0.940
  385SOL    HW2 2055   4.986   5.362   0.971
  386SOL     OW 2056   3.459   6.335   5.344
  386SOL    HW1 2057   3.530   6.343   5.413
  386SOL    HW2 2058   3.467   6.409   5.277
  387SOL     OW 2059   0.242   0.282   5.464
  387SOL    HW1 2060   0.328   0.324   5.434
  387SOL    HW2 2061   0.258   0.187   5.489
  388SOL     OW 2062   6.934   2.155   4.837
  388SOL    HW1 2063   6.968   2.096   4.764
  388SOL    HW2 2064   6.911   2.099   4.917
  389SOL     OW 2065   4.102   4.381   1.609
  389SOL    HW1 2066   4.171   4.430   1.662
  389SOL    HW2 2067   4.011   4.415   1.633
  390SOL     OW 2068   3.767   2.160   0.274
  390SOL    HW1 2069   3.793   2.099   0.199
  390SOL    HW2 2070   3.773   2.255   0.244
  391SOL     OW 2071   3.555   4.115   4.932
  391SOL    HW1 2072   3.550   4.139   5.029
  391SOL    HW2 2073   3.630   4.050   4.917
  392SOL     OW 2074   1.531   3.965   1.599
  392SOL    HW1 2075   1.474   3.971   1.682
  392SOL    HW2 2076   1.627   3.974   1.625
  393SOL     OW 2077   1.189   4.651   1.514
  393SOL    HW1 2078   1.256   4.595   1.564
  393SOL    HW2 2079   1.156   4.723   1.574
  394SOL     OW 2080   6.621   0.971   6.537
  394SOL    HW1 2081   6.663   0.881   6.522
  394SOL    HW2 2082   6.527   0.970   6.502
  395SOL     OW 2083   5.639   5.076   0.978
  395SOL    HW1 2084   5.614   5.046   0.885
  395SOL    HW2 2085   5.690   5.004   1.024
  396SOL     OW 2086   1.824   0.382   1.375
  396SOL    HW1 2087   1.725   0.397   1.380
  396SOL    HW2 2088   1.852   0.379   1.279
  397SOL     OW 2089   4.106   2.081   5.460
  397SOL    HW1 2090   4.116   2.100   5.363
  397SOL    HW2 2091   4.069   2.161   5.507
  398SOL     OW 2092   1.331   1.301   4.115
  398SOL    HW1 2093   1.425   1.285   4.144
  398SOL    HW2 2094   1.307   1.396   4.133
  399SOL     OW 2095   5.520   6.376   4.009
  399SOL    HW1 2096   5.440   6.319   4.030
  399SOL    HW2 2097   5.562   6.407   4.094
  400SOL     OW 2098   5.918   0.479   4.011
  400SOL    HW1 2099   5.886   0.412   4.078
  400SOL    HW2 2100   5.946   0.563   4.057
  401SOL     OW 2101   0.418   5.362   5.947
  401SOL    HW1 2102   0.453   5.448   5.985
  401SOL    HW2 2103   0.368   5.380   5.863
  402SOL     OW 2104   6.042   1.526   3.568
  402SOL    HW1 2105   6.014   1.445   3.620
  402SOL    HW2 2106   6.009   1.519   3.474
  403SOL     OW 2107   3.147   1.180   5.392
  403SOL    HW1 2108   3.150   1.120   5.472
  403SOL    HW2 2109   3.066   1.158   5.338
  404SOL     OW 2110   3.459   5.335   3.686
  404SOL    HW1 2111   3.438   5.422   3.641
  404SOL    HW2 2112   3.434   5.259   3.626
  405SOL     OW 2113   2.110   4.985   4.189
  405SOL    HW1 2114   2.172   4.907   4.176
  405SOL    HW2 2115   2.079   5.018   4.100
  406SOL     OW 2116   0.164   6.358   5.588
  406SOL    HW1 2117   0.221   6.286   5.549
  406SOL    HW2 2118   0.137   6.333   5.681
  407SOL     OW 2119   1.944   2.963   4.414
  407SOL    HW1 2120   1.937   2.942   4.317
  407SOL    HW2 2121   1.970   3.059   4.427
  408SOL     OW 2122   1.979   1.788   3.625
  408SOL    HW1 2123   1.934   1.740   3.700
  408SOL    HW2 2124   2.061   1.738   3.598
  409SOL     OW 2125   0.307   3.789   2.642
  409SOL    HW1 2126   0.319   3.825   2.550
  409SOL    HW2 2127   0.316   3.690   2.641
  410SOL     OW 2128   1.510   1.506   1.121
  410SOL    HW1 2129   1.522   1.407   1.132
  410SOL    HW2 2130   1.485   1.527   1.027
  411SOL     OW 2131   6.999   2.807   1.445
  411SOL    HW1 2132   0.030   2.863   1.381
  411SOL    HW2 2133   6.999   2.712   1.414
  412SOL     OW 2134   1.428   4.882   2.514
  412SOL    HW1 2135   1.476   4.810   2.464
  412SOL    HW2 2136   1.356   4.921   2.456
  413SOL     OW 2137   6.015   6.024   2.380
  413SOL    HW1 2138   5.928   6.027   2.431
  413SOL    HW2 2139   6.080   6.087   2.422
  414SOL     OW 2140   1.753   6.687   2.801
  414SOL    HW1 2141   1.687   6.728   2.737
  414SOL    HW2 2142   1.817   6.757   2.831
  415SOL     OW 2143   6.121   1.006   0.158
  415SOL    HW1 2144   6.155   0.913   0.150
  415SOL    HW2 2145   6.181   1.058   0.220
  416SOL     OW 2146   5.587   3.906   5.452
  416SOL    HW1 2147   5.641   3.983   5.485
  416SOL    HW2 2148   5.630   3.868   5.370
  417SOL     OW 2149   1.998   1.948   6.389
  417SOL    HW1 2150   1.942   1.954   6.472
  417SOL    HW2 2151   1.948   1.897   6.319
  418SOL     OW 2152   3.480   0.213   4.574
  418SOL    HW1 2153   3.472   0.142   4.505
  418SOL    HW2 2154   3.525   0.294   4.535
  419SOL     OW 2155   0.057   0.167   0.440
  419SOL    HW1 2156   0.124   0.235   0.411
  419SOL    HW2 2157   0.055   0.092   0.375
  420SOL     OW 2158   3.981   0.317   6.917
  420SOL    HW1 2159   3.949   0.341   7.008
  420SOL    HW2 2160   4.017   0.399   6.872
  421SOL     OW 2161   4.676   4.195   2.245
  421SOL    HW1 2162   4.619   4.227   2.169
  421SOL    HW2 2163   4.754   4.144   2.209
  422SOL     OW 2164   5.401   2.618   1.592
  422SOL    HW1 2165   5.419   2.519   1.592
  422SOL    HW2 2166   5.336   2.640   1.520
  423SOL     OW 2167   3.443   0.565   6.258
  423SOL    HW1 2168   3.398   0.575   6.170
  423SOL    HW2 2169   3.536   0.603   6.254
  424SOL     OW 2170   0.979   3.819   4.118
  424SOL    HW1 2171   0.952   3.860   4.030
  424SOL    HW2 2172   0.959   3.721   4.116
  425SOL     OW 2173   3.100   0.828   6.605
  425SOL    HW1 2174   3.132   0.743   6.648
  425SOL    HW2 2175   3.018   0.860   6.652
  426SOL     OW 2176   2.343   2.016   4.249
  426SOL    HW1 2177   2.412   2.051   4.313
  426SOL    HW2 2178   2.385   2.000   4.160
  427SOL     OW 2179   4.256   2.217   2.972
  427SOL    HW1 2180   4.174   2.161   2.983
  427SOL    HW2 2181   4.269   2.240   2.876
  428SOL     OW 2182   2.584   2.242   6.054
  428SOL    HW1 2183   2.557   2.153   6.015
  428SOL    HW2 2184   2.511   2.276   6.112
  429SOL     OW 2185   6.753   5.345   4.099
  429SOL    HW1 2186   6.705   5.411   4.042
  429SOL    HW2 2187   6.688   5.296   4.156
  430SOL     OW 2188   1.551   6.973   3.832
  430SOL    HW1 2189   1.477   6.911   3.861
  430SOL    HW2 2190   1.627   6.919   3.796
  431SOL     OW 2191   2.175   1.804   1.762
  431SOL    HW1 2192   2.258   1.857   1.776
  431SOL    HW2 2193   2.100   1.866   1.738
  432SOL     OW 2194   4.772   2.033   1.166
  432SOL    HW1 2195   4.845   2.099   1.178
  432SOL    HW2 2196   4.772   1.968   1.242
  433SOL     OW 2197   1.692   4.898   0.913
  433SOL    HW1 2198   1.720   4.811   0.874
  433SOL    HW2 2199   1.646   4.882   1.001
  434SOL     OW 2200   5.346   5.391   3.434
  434SOL    HW1 2201   5.285   5.393   3.354
  434SOL    HW2 2202   5.293   5.402   3.517
  435SOL     OW 2203   3.475   2.306   5.649
  435SOL    HW1 2204   3.468   2.285   5.746
  435SOL    HW2 2205   3.541   2.244   5.606
  436SOL     OW 2206   4.691   6.909   3.052
  436SOL    HW1 2207   4.709   6.858   3.136
  436SOL    HW2 2208   4.714   7.006   3.066
  437SOL     OW 2209   6.187   0.744   4.951
  437SOL    HW1 2210   6.237   0.658   4.963
  437SOL    HW2 2211   6.236   0.801   4.884
  438SOL     OW 2212   0.397   4.712   2.217
  438SOL    HW1 2213   0.394   4.698   2.316
  438SOL    HW2 2214   0.307   4.742   2.185
  439SOL     OW 2215   0.167   0.663   4.893
  439SOL    HW1 2216   0.076   0.652   4.853
  439SOL    HW2 2217   0.236   0.625   4.831
  440SOL     OW 2218   4.284   1.354   0.522
  440SOL    HW1 2219   4.241   1.300   0.449
  440SOL    HW2 2220   4.273   1.451   0.503
  441SOL     OW 2221   0.364   4.607   2.517
  441SOL    HW1 2222   0.364   4.689   2.574
  441SOL    HW2 2223   0.455   4.565   2.520
  442SOL     OW 2224   5.410   2.628   5.699
  442SOL    HW1 2225   5.458   2.549   5.662
  442SOL    HW2 2226   5.401   2.698   5.628
  443SOL     OW 2227   5.255   2.962   1.889
  443SOL    HW1 2228   5.274   3.026   1.964
  443SOL    HW2 2229   5.331   2.897   1.881
  444SOL     OW 2230   4.608   1.683   1.752
  444SOL    HW1 2231   4.621   1.656   1.656
  444SOL    HW2 2232   4.560   1.771   1.756
  445SOL     OW 2233   1.595   5.095   2.564
  445SOL    HW1 2234   1.544   5.009   2.560
  445SOL    HW2 2235   1.577   5.147   2.480
  446SOL     OW 2236   5.601   0.163   1.526
  446SOL    HW1 2237   5.579   0.234   1.459
  446SOL    HW2 2238   5.593   0.073   1.482
  447SOL     OW 2239   5.905   4.608   0.948
  447SOL    HW1 2240   5.986   4.552   0.928
  447SOL    HW2 2241   5.890   4.672   0.873
  448SOL     OW 2242   3.120   6.814   3.823
  448SOL    HW1 2243   3.177   6.817   3.741
  448SOL    HW2 2244   3.175   6.782   3.900
  449SOL     OW 2245   1.336   3.573   4.868
  449SOL    HW1 2246   1.350   3.475   4.880
  449SOL    HW2 2247   1.319   3.593   4.771
  450SOL     OW 2248   0.060   4.856   3.228
  450SOL    HW1 2249   0.075   4.818   3.320
  450SOL    HW2 2250   0.055   4.955   3.234
  451SOL     OW 2251   0.965   1.864   1.177
  451SOL    HW1 2252   0.904   1.897   1.106
  451SOL    HW2 2253   0.956   1.922   1.259
  452SOL     OW 2254   4.973   5.504   2.855
  452SOL    HW1 2255   4.959   5.412   2.890
  452SOL    HW2 2256   4.961   5.504   2.756
  453SOL     OW 2257   3.445   0.867   6.755
  453SOL    HW1 2258   3.449   0.840   6.659
  453SOL    HW2 2259   3.522   0.826   6.805
  454SOL     OW 2260   6.691   3.678   6.350
  454SOL    HW1 2261   6.595   3.653   6.337
  454SOL    HW2 2262   6.699   3.753   6.415
  455SOL     OW 2263   5.238   4.719   5.813
  455SOL    HW1 2264   5.206   4.807   5.778
  455SOL    HW2 2265   5.266   4.661   5.736
  456SOL     OW 2266   2.669   1.028   2.735
  456SOL    HW1 2267   2.719   0.945   2.713
  456SOL    HW2 2268   2.577   1.023   2.696
  457SOL     OW 2269   2.450   6.362   0.302
  457SOL    HW1 2270   2.363   6.352   0.350
  457SOL    HW2 2271   2.497   6.444   0.335
  458SOL     OW 2272   3.054   1.287   3.253
  458SOL    HW1 2273   2.976   1.234   3.287
  458SOL    HW2 2274   3.098   1.237   3.179
  459SOL     OW 2275   3.140   0.437   3.366
  459SOL    HW1 2276   3.239   0.431   3.374
  459SOL    HW2 2277   3.116   0.480   3.279
  460SOL     OW 2278   0.925   1.756   6.546
  460SOL    HW1 2279   0.858   1.734   6.618
  460SOL    HW2 2280   0.978   1.836   6.575
  461SOL     OW 2281   1.267   4.863   5.526
  461SOL    HW1 2282   1.251   4.777   5.574
  461SOL    HW2 2283   1.189   4.884   5.467
  462SOL     OW 2284   3.943   4.085   5.026
  462SOL    HW1 2285   3.962   3.987   5.013
  462SOL    HW2 2286   3.923   4.127   4.938
  463SOL     OW 2287   5.285   6.229   4.063
  463SOL    HW1 2288   5.202   6.233   4.008
  463SOL    HW2 2289   5.335   6.145   4.044
  464SOL     OW 2290   3.760   4.937   6.524
  464SOL    HW1 2291   3.701   4.988   6.462
  464SOL    HW2 2292   3.841   4.990   6.545
  465SOL     OW 2293   0.712   4.287   1.086
  465SOL    HW1 2294   0.685   4.286   1.182
  465SOL    HW2 2295   0.720   4.381   1.055
  466SOL     OW 2296   3.791   5.418   4.537
  466SOL    HW1 2297   3.790   5.330   4.584
  466SOL    HW2 2298   3.840   5.408   4.450
  467SOL     OW 2299   6.243   0.282   2.242
  467SOL    HW1 2300   6.324   0.281   2.183
  467SOL    HW2 2301   6.168   0.329   2.196
  468SOL     OW 2302   3.094   6.446   6.353
  468SOL    HW1 2303   3.127   6.507   6.280
  468SOL    HW2 2304   2.995   6.456   6.363
  469SOL     OW 2305   2.966   4.813   4.592
  469SOL    HW1 2306   2.943   4.830   4.687
  469SOL    HW2 2307   2.883   4.792   4.540
  470SOL     OW 2308   2.612   4.657   2.615
  470SOL    HW1 2309   2.547   4.582   2.626
  470SOL    HW2 2310   2.619   4.682   2.518
  471SOL     OW 2311   1.483   2.391   4.091
  471SOL    HW1 2312   1.515   2.394   4.185
  471SOL    HW2 2313   1.517   2.307   4.047
  472SOL     OW 2314   5.266   3.559   6.489
  472SOL    HW1 2315   5.211   3.514   6.559
  472SOL    HW2 2316   5.219   3.641   6.458
  473SOL     OW 2317   6.089   2.836   2.140
  473SOL    HW1 2318   5.990   2.841   2.150
  473SOL    HW2 2319   6.119   2.742   2.154
  474SOL     OW 2320   4.808   5.882   4.442
  474SOL    HW1 2321   4.776   5.896   4.535
  474SOL    HW2 2322   4.897   5.836   4.444
  475SOL     OW 2323   5.703   1.805   0.732
  475SOL    HW1 2324   5.663   1.719   0.761
  475SOL    HW2 2325   5.690   1.817   0.633
  476SOL     OW 2326   1.102   3.973   0.292
  476SOL    HW1 2327   1.041   4.008   0.363
  476SOL    HW2 2328   1.079   3.878   0.272
  477SOL     OW 2329   1.826   4.733   3.868
  477SOL    HW1 2330   1.756   4.778   3.924
  477SOL    HW2 2331   1.906   4.792   3.859
  478SOL     OW 2332   5.290   6.051   2.445
  478SOL    HW1 2333   5.252   6.119   2.507
  478SOL    HW2 2334   5.279   5.960   2.484
  479SOL     OW 2335   3.573   4.160   3.297
  479SOL    HW1 2336   3.490   4.168   3.351
  479SOL    HW2 2337   3.631   4.088   3.336
  480SOL     OW 2338   0.786   0.822   2.378
  480SOL    HW1 2339   0.867   0.821   2.437
  480SOL    HW2 2340   0.709   0.861   2.428
  481SOL     OW 2341   0.122   0.259   0.702
  481SOL    HW1 2342   0.137   0.358   0.710
  481SOL    HW2 2343   0.093   0.237   0.608
  482SOL     OW 2344   4.137   4.715   2.225
  482SOL    HW1 2345   4.043   4.732   2.196
  482SOL    HW2 2346   4.145   4.622   2.258
  483SOL     OW 2347   5.837   2.416   4.141
  483SOL    HW1 2348   5.777   2.496   4.145
  483SOL    HW2 2349   5.821   2.366   4.056
  484SOL     OW 2350   2.587   4.532   3.769
  484SOL    HW1 2351   2.619   4.441   3.739
  484SOL    HW2 2352   2.493   4.546   3.738
  485SOL     OW 2353   5.634   2.784   1.528
  485SOL    HW1 2354   5.557   2.721   1.530
  485SOL    HW2 2355   5.720   2.733   1.532
  486SOL     OW 2356   5.703   6.181   6.192
  486SOL    HW1 2357   5.664   6.253   6.250
  486SOL    HW2 2358   5.630   6.136   6.141
  487SOL     OW 2359   0.126   6.787   5.801
  487SOL    HW1 2360   0.171   6.759   5.716
  487SOL    HW2 2361   0.062   6.861   5.781
  488SOL     OW 2362   2.305   5.376   3.384
  488SOL    HW1 2363   2.370   5.301   3.387
  488SOL    HW2 2364   2.301   5.421   3.473
  489SOL     OW 2365   2.182   5.514   5.838
  489SOL    HW1 2366   2.157   5.474   5.750
  489SOL    HW2 2367   2.273   5.483   5.864
  490SOL     OW 2368   0.620   4.162   4.667
  490SOL    HW1 2369   0.577   4.230   4.608
  490SOL    HW2 2370   0.577   4.164   4.757
  491SOL     OW 2371   0.245   2.789   0.600
  491SOL    HW1 2372   0.311   2.751   0.536
  491SOL    HW2 2373   0.248   2.889   0.595
  492SOL     OW 2374   1.331   2.900   5.704
  492SOL    HW1 2375   1.311   2.845   5.785
  492SOL    HW2 2376   1.281   2.986   5.709
  493SOL     OW 2377   2.089   5.288   4.959
  493SOL    HW1 2378   2.065   5.193   4.939
  493SOL    HW2 2379   2.089   5.303   5.058
  494SOL     OW 2380   2.723   6.781   4.387
  494SOL    HW1 2381   2.654   6.711   4.404
  494SOL    HW2 2382   2.761   6.813   4.473
  495SOL     OW 2383   3.794   4.051   6.791
  495SOL    HW1 2384   3.750   4.071   6.879
  495SOL    HW2 2385   3.748   4.102   6.718
  496SOL     OW 2386   4.894   1.650   3.551
  496SOL    HW1 2387   4.966   1.603   3.500
  496SOL    HW2 2388   4.821   1.677   3.488
  497SOL     OW 2389   4.850   1.378   0.277
  497SOL    HW1 2390   4.865   1.303   0.212
  497SOL    HW2 2391   4.934   1.431   0.286
  498SOL     OW 2392   6.980   6.909   1.269
  498SOL    HW1 2393   0.028   6.969   1.229
  498SOL    HW2 2394   6.937   6.954   1.347
  499SOL     OW 2395   2.712   5.747   0.226
  499SOL    HW1 2396   2.742   5.652   0.231
  499SOL    HW2 2397   2.643   5.756   0.154
  500SOL     OW 2398   5.667   2.061   6.881
  500SOL    HW1 2399   5.594   2.020   6.935
  500SOL    HW2 2400   5.633   2.145   6.837
  501SOL     OW 2401   1.385   1.367   4.647
  501SOL    HW1 2402   1.304   1.422   4.626
  501SOL    HW2 2403   1.467   1.423   4.633
  502SOL     OW 2404   2.674   4.251   0.039
  502SOL    HW1 2405   2.765   4.288   0.019
  502SOL    HW2 2406   2.608   4.325   0.043
  503SOL     OW 2407   4.027   5.592   0.918
  503SOL    HW1 2408   4.069   5.540   0.844
  503SOL    HW2 2409   4.067   5.565   1.005
  504SOL     OW 2410   6.831   5.647   1.595
  504SOL    HW1 2411   6.900   5.711   1.559
  504SOL    HW2 2412   6.776   5.693   1.665
  505SOL     OW 2413   4.951   5.860   5.332
  505SOL    HW1 2414   4.888   5.924   5.374
  505SOL    HW2 2415   4.994   5.804   5.403
  506SOL     OW 2416   3.858   5.081   2.677
  506SOL    HW1 2417   3.761   5.080   2.651
  506SOL    HW2 2418   3.879   4.999   2.730
  507SOL     OW 2419   3.042   0.955   1.544
  507SOL    HW1 2420   3.099   0.899   1.605
  507SOL    HW2 2421   3.060   1.052   1.562
  508SOL     OW 2422   0.270   4.706   3.119
  508SOL    HW1 2423   0.251   4.608   3.112
  508SOL    HW2 2424   0.189   4.754   3.152
  509SOL     OW 2425   4.538   6.994   5.968
  509SOL    HW1 2426   4.454   6.962   5.923
  509SOL    HW2 2427   4.609   7.007   5.900
  510SOL     OW 2428   6.426   3.834   0.098
  510SOL    HW1 2429   6.330   3.818   0.075
  510SOL    HW2 2430   6.444   3.932   0.099
  511SOL     OW 2431   0.512   1.586   0.533
  511SOL    HW1 2432   0.412   1.593   0.529
  511SOL    HW2 2433   0.542   1.600   0.627
  512SOL     OW 2434   0.745   2.320   3.785
  512SOL    HW1 2435   0.824   2.287   3.836
  512SOL    HW2 2436   0.664   2.268   3.812
  513SOL     OW 2437   4.950   0.802   3.303
  513SOL    HW1 2438   4.852   0.781   3.304
  513SOL    HW2 2439   4.966   0.881   3.244
  514SOL     OW 2440   5.201   0.791   4.785
  514SOL    HW1 2441   5.289   0.828   4.814
  514SOL    HW2 2442   5.192   0.801   4.686
  515SOL     OW 2443   3.869   0.149   6.174
  515SOL    HW1 2444   3.805   0.139   6.099
  515SOL    HW2 2445   3.958   0.111   6.148
  516SOL     OW 2446   1.920   5.899   2.362
  516SOL    HW1 2447   1.955   5.915   2.270
  516SOL    HW2 2448   1.986   5.931   2.429
  517SOL     OW 2449   3.049   5.739   1.382
  517SOL    HW1 2450   3.043   5.678   1.461
  517SOL    HW2 2451   3.000   5.823   1.401
  518SOL     OW 2452   1.634   4.149   4.265
  518SOL    HW1 2453   1.587   4.060   4.266
  518SOL    HW2 2454   1.573   4.219   4.302
  519SOL     OW 2455   0.200   0.617   2.203
  519SOL    HW1 2456   0.107   0.620   2.240
  519SOL    HW2 2457   0.207   0.542   2.137
  520SOL     OW 2458   2.089   3.918   0.741
  520SOL    HW1 2459   2.162   3.850   0.745
  520SOL    HW2 2460   2.048   3.928   0.832
  521SOL     OW 2461   6.402   6.090   4.562
  521SOL    HW1 2462   6.364   6.158   4.625
  521SOL    HW2 2463   6.327   6.050   4.509
  522SOL     OW 2464   3.810   4.298   0.876
  522SOL    HW1 2465   3.896   4.324   0.921
  522SOL    HW2 2466   3.735   4.307   0.940
  523SOL     OW 2467   0.814   0.122   0.322
  523SOL    HW1 2468   0.777   0.031   0.308
  523SOL    HW2 2469   0.742   0.190   0.310
  524SOL     OW 2470   6.706   1.428   1.200
  524SOL    HW1 2471   6.752   1.346   1.165
  524SOL    HW2 2472   6.629   1.401   1.258
  525SOL     OW 2473   0.569   3.516   4.343
  525SOL    HW1 2474   0.487   3.466   4.314
  525SOL    HW2 2475   0.646   3.452   4.348
  526SOL     OW 2476   3.658   0.492   3.886
  526SOL    HW1 2477   3.613   0.505   3.974
  526SOL    HW2 2478   3.721   0.415   3.892
  527SOL     OW 2479   0.321   1.234   0.747
  527SOL    HW1 2480   0.293   1.269   0.658
  527SOL    HW2 2481   0.408   1.276   0.773
  528SOL     OW 2482   6.847   3.117   4.645
  528SOL    HW1 2483   6.758   3.153   4.674
  528SOL    HW2 2484   6.834   3.055   4.568
  529SOL     OW 2485   1.830   6.898   6.882
  529SOL    HW1 2486   1.844   6.972   6.948
  529SOL    HW2 2487   1.791   6.818   6.929
  530SOL     OW 2488   3.635   4.873   1.000
  530SOL    HW1 2489   3.646   4.969   0.977
  530SOL    HW2 2490   3.646   4.860   1.098
  531SOL     OW 2491   1.770   0.260   0.553
  531SOL    HW1 2492   1.824   0.195   0.500
  531SOL    HW2 2493   1.677   0.227   0.563
  532SOL     OW 2494   1.476   2.281   5.861
  532SOL    HW1 2495   1.415   2.275   5.782
  532SOL    HW2 2496   1.530   2.197   5.868
  533SOL     OW 2497   3.979   0.461   3.988
  533SOL    HW1 2498   3.968   0.538   3.925
  533SOL    HW2 2499   4.019   0.494   4.074
  534SOL     OW 2500   1.979   4.061   2.290
  534SOL    HW1 2501   2.067   4.019   2.268
  534SOL    HW2 2502   1.925   4.070   2.206
  535SOL     OW 2503   4.884   3.255   4.181
  535SOL    HW1 2504   4.963   3.224   4.128
  535SOL    HW2 2505   4.807   3.192   4.165
  536SOL     OW 2506   6.453   6.790   1.865
  536SOL    HW1 2507   6.414   6.882   1.863
  536SOL    HW2 2508   6.484   6.764   1.774
  537SOL     OW 2509   2.864   1.734   3.377
  537SOL    HW1 2510   2.927   1.663   3.344
  537SOL    HW2 2511   2.916   1.817   3.398
  538SOL     OW 2512   3.472   4.956   5.248
  538SOL    HW1 2513   3.447   4.995   5.159
  538SOL    HW2 2514   3.404   4.983   5.317
  539SOL     OW 2515   0.792   0.193   7.012
  539SOL    HW1 2516   0.876   0.245   0.006
  539SOL    HW2 2517   0.800   0.103   0.035
  540SOL     OW 2518   1.481   0.468   4.621
  540SOL    HW1 2519   1.443   0.511   4.539
  540SOL    HW2 2520   1.544   0.395   4.594
  541SOL     OW 2521   5.078   5.949   4.069
  541SOL    HW1 2522   5.129   5.979   4.149
  541SOL    HW2 2523   5.131   5.879   4.020
  542SOL     OW 2524   3.590   0.283   5.274
  542SOL    HW1 2525   3.614   0.356   5.209
  542SOL    HW2 2526   3.602   0.194   5.230
  543SOL     OW 2527   6.474   2.021   3.780
  543SOL    HW1 2528   6.533   1.976   3.847
  543SOL    HW2 2529   6.425   2.096   3.823
  544SOL     OW 2530   1.484   3.556   1.542
  544SOL    HW1 2531   1.576   3.544   1.503
  544SOL    HW2 2532   1.459   3.473   1.593
  545SOL     OW 2533   6.282   6.748   1.418
  545SOL    HW1 2534   6.297   6.721   1.323
  545SOL    HW2 2535   6.300   6.670   1.478
  546SOL     OW 2536   0.137   4.500   2.492
  546SOL    HW1 2537   0.231   4.521   2.520
  546SOL    HW2 2538   0.137   4.468   2.397
  547SOL     OW 2539   5.104   0.565   6.151
  547SOL    HW1 2540   5.164   0.635   6.190
  547SOL    HW2 2541   5.159   0.490   6.115
  548SOL     OW 2542   4.386   1.931   0.232
  548SOL    HW1 2543   4.349   2.023   0.238
  548SOL    HW2 2544   4.399   1.906   0.136
  549SOL     OW 2545   5.638   1.250   1.599
  549SOL    HW1 2546   5.599   1.204   1.679
  549SOL    HW2 2547   5.630   1.349   1.611
  550SOL     OW 2548   0.187   5.970   3.459
  550SOL    HW1 2549   0.181   5.945   3.362
  550SOL    HW2 2550   0.219   6.064   3.467
  551SOL     OW 2551   6.359   0.683   0.336
  551SOL    HW1 2552   6.440   0.647   0.289
  551SOL    HW2 2553   6.291   0.610   0.344
  552SOL     OW 2554   0.354   6.202   5.429
  552SOL    HW1 2555   0.399   6.129   5.479
  552SOL    HW2 2556   0.345   6.176   5.332
  553SOL     OW 2557   3.187   1.137   6.969
  553SOL    HW1 2558   3.172   1.105   6.875
  553SOL    HW2 2559   3.262   1.203   6.970
  554SOL     OW 2560   5.677   6.391   1.408
  554SOL    HW1 2561   5.609   6.433   1.348
  554SOL    HW2 2562   5.757   6.365   1.354
  555SOL     OW 2563   1.787   4.002   5.601
  555SOL    HW1 2564   1.774   3.947   5.684
  555SOL    HW2 2565   1.842   3.951   5.535
  556SOL     OW 2566   6.111   0.441   3.815
  556SOL    HW1 2567   6.137   0.534   3.792
  556SOL    HW2 2568   6.041   0.442   3.887
  557SOL     OW 2569   6.622   4.126   6.631
  557SOL    HW1 2570   6.709   4.159   6.596
  557SOL    HW2 2571   6.636   4.085   6.721
  558SOL     OW 2572   2.964   3.823   2.442
  558SOL    HW1 2573   2.944   3.901   2.501
  558SOL    HW2 2574   2.892   3.754   2.452
  559SOL     OW 2575   6.162   6.459   5.208
  559SOL    HW1 2576   6.064   6.472   5.223
  559SOL    HW2 2577   6.189   6.508   5.125
  560SOL     OW 2578   6.880   3.236   4.237
  560SOL    HW1 2579   6.939   3.237   4.318
  560SOL    HW2 2580   6.814   3.311   4.243
  561SOL     OW 2581   0.667   2.787   0.250
  561SOL    HW1 2582   0.717   2.806   0.166
  561SOL    HW2 2583   0.655   2.872   0.302
  562SOL     OW 2584   4.072   0.319   4.942
  562SOL    HW1 2585   4.087   0.383   5.018
  562SOL    HW2 2586   3.975   0.319   4.917
  563SOL     OW 2587   1.276   0.417   3.839
  563SOL    HW1 2588   1.305   0.506   3.875
  563SOL    HW2 2589   1.216   0.372   3.906
  564SOL     OW 2590   6.528   1.836   6.253
  564SOL    HW1 2591   6.435   1.851   6.285
  564SOL    HW2 2592   6.587   1.816   6.331
  565SOL     OW 2593   3.439   3.565   3.571
  565SOL    HW1 2594   3.351   3.578   3.525
  565SOL    HW2 2595   3.476   3.654   3.598
  566SOL     OW 2596   3.070   0.747   3.941
  566SOL    HW1 2597   3.096   0.772   3.848
  566SOL    HW2 2598   3.151   0.720   3.993
  567SOL     OW 2599   2.342   2.726   5.541
  567SOL    HW1 2600   2.305   2.675   5.464
  567SOL    HW2 2601   2.425   2.774   5.513
  568SOL     OW 2602   0.786   6.555   6.809
  568SOL    HW1 2603   0.840   6.523   6.731
  568SOL    HW2 2604   0.698   6.590   6.777
  569SOL     OW 2605   5.930   3.280   0.148
  569SOL    HW1 2606   5.885   3.369   0.140
  569SOL    HW2 2607   5.937   3.255   0.244
  570SOL     OW 2608   2.493   0.489   6.131
  570SOL    HW1 2609   2.563   0.464   6.197
  570SOL    HW2 2610   2.498   0.427   6.053
  571SOL     OW 2611   2.265   4.695   1.259
  571SOL    HW1 2612   2.222   4.774   1.303
  571SOL    HW2 2613   2.209   4.667   1.181
  572SOL     OW 2614   2.941   0.251   4.467
  572SOL    HW1 2615   2.905   0.215   4.381
  572SOL    HW2 2616   3.030   0.210   4.486
  573SOL     OW 2617   0.405   0.703   5.437
  573SOL    HW1 2618   0.465   0.624   5.425
  573SOL    HW2 2619   0.402   0.728   5.534
  574SOL     OW 2620   2.294   1.862   5.485
  574SOL    HW1 2621   2.241   1.939   5.448
  574SOL    HW2 2622   2.282   1.782   5.426
  575SOL     OW 2623   4.235   3.172   0.520
  575SOL    HW1 2624   4.178   3.235   0.467
  575SOL    HW2 2625   4.329   3.206   0.523
  576SOL     OW 2626   2.124   2.483   2.454
  576SOL    HW1 2627   2.110   2.544   2.532
  576SOL    HW2 2628   2.048   2.492   2.391
  577SOL     OW 2629   0.527   0.816   1.428
  577SOL    HW1 2630   0.484   0.823   1.518
  577SOL    HW2 2631   0.468   0.763   1.367
  578SOL     OW 2632   3.229   6.685   6.573
  578SOL    HW1 2633   3.308   6.742   6.595
  578SOL    HW2 2634   3.257   6.588   6.574
  579SOL     OW 2635   2.067   3.629   1.911
  579SOL    HW1 2636   1.967   3.632   1.909
  579SOL    HW2 2637   2.097   3.546   1.958
  580SOL     OW 2638   4.759   5.668   4.891
  580SOL    HW1 2639   4.718   5.578   4.875
  580SOL    HW2 2640   4.743   5.696   4.985
  581SOL     OW 2641   1.676   2.729   4.637
  581SOL    HW1 2642   1.730   2.798   4.684
  581SOL    HW2 2643   1.585   2.724   4.678
  582SOL     OW 2644   4.896   5.219   3.988
  582SOL    HW1 2645   4.967   5.167   4.035
  582SOL    HW2 2646   4.904   5.206   3.890
  583SOL     OW 2647   4.362   6.132   5.818
  583SOL    HW1 2648   4.319   6.138   5.908
  583SOL    HW2 2649   4.460   6.149   5.826
  584SOL     OW 2650   4.764   0.839   5.132
  584SOL    HW1 2651   4.785   0.868   5.226
  584SOL    HW2 2652   4.666   0.822   5.124
  585SOL     OW 2653   2.894   0.611   1.901
  585SOL    HW1 2654   2.962   0.661   1.955
  585SOL    HW2 2655   2.889   0.517   1.933
  586SOL     OW 2656   3.721   0.713   0.956
  586SOL    HW1 2657   3.763   0.624   0.977
  586SOL    HW2 2658   3.627   0.714   0.990
  587SOL     OW 2659   4.878   2.109   1.599
  587SOL    HW1 2660   4.950   2.126   1.667
  587SOL    HW2 2661   4.820   2.190   1.592
  588SOL     OW 2662   1.623   5.348   3.075
  588SOL    HW1 2663   1.528   5.319   3.078
  588SOL    HW2 2664   1.643   5.408   3.152
  589SOL     OW 2665   3.045   5.455   0.884
  589SOL    HW1 2666   2.949   5.482   0.895
  589SOL    HW2 2667   3.050   5.367   0.837
  590SOL     OW 2668   4.190   1.959   0.823
  590SOL    HW1 2669   4.158   1.881   0.769
  590SOL    HW2 2670   4.129   1.972   0.902
  591SOL     OW 2671   2.956   6.064   4.114
  591SOL    HW1 2672   3.039   6.011   4.130
  591SOL    HW2 2673   2.967   6.155   4.153
  592SOL     OW 2674   3.733   2.151   4.336
  592SOL    HW1 2675   3.663   2.208   4.292
  592SOL    HW2 2676   3.714   2.055   4.318
  593SOL     OW 2677   2.801   2.116   6.768
  593SOL    HW1 2678   2.875   2.182   6.754
  593SOL    HW2 2679   2.798   2.052   6.692
  594SOL     OW 2680   5.000   1.111   2.122
  594SOL    HW1 2681   4.969   1.023   2.158
  594SOL    HW2 2682   5.057   1.156   2.191
  595SOL     OW 2683   5.802   5.761   2.388
  595SOL    HW1 2684   5.857   5.677   2.386
  595SOL    HW2 2685   5.734   5.758   2.315
  596SOL     OW 2686   6.062   4.872   4.429
  596SOL    HW1 2687   5.984   4.920   4.469
  596SOL    HW2 2688   6.048   4.773   4.438
  597SOL     OW 2689   2.491   0.156   6.366
  597SOL    HW1 2690   2.464   0.093   6.293
  597SOL    HW2 2691   2.589   0.144   6.385
  598SOL     OW 2692   3.163   3.981   4.307
  598SOL    HW1 2693   3.090   3.916   4.331
  598SOL    HW2 2694   3.192   4.030   4.389
  599SOL     OW 2695   1.299   4.967   1.588
  599SOL    HW1 2696   1.297   4.908   1.669
  599SOL    HW2 2697   1.325   5.060   1.615
  600SOL     OW 2698   6.370   3.827   5.049
  600SOL    HW1 2699   6.469   3.832   5.032
  600SOL    HW2 2700   6.332   3.919   5.051
  601SOL     OW 2701   1.529   6.315   5.646
  601SOL    HW1 2702   1.560   6.318   5.741
  601SOL    HW2 2703   1.483   6.228   5.628
  602SOL     OW 2704   1.885   0.369   3.526
  602SOL    HW1 2705   1.941   0.452   3.527
  602SOL    HW2 2706   1.885   0.328   3.617
  603SOL     OW 2707   1.199   1.569   4.668
  603SOL    HW1 2708   1.215   1.642   4.735
  603SOL    HW2 2709   1.178   1.609   4.579
  604SOL     OW 2710   6.401   2.385   1.733
  604SOL    HW1 2711   6.403   2.285   1.731
  604SOL    HW2 2712   6.486   2.419   1.772
  605SOL     OW 2713   6.937   6.483   1.522
  605SOL    HW1 2714   6.901   6.390   1.521
  605SOL    HW2 2715   6.885   6.538   1.588
  606SOL     OW 2716   3.441   0.044   4.360
  606SOL    HW1 2717   3.472   0.063   4.267
  606SOL    HW2 2718   3.455   6.968   4.380
  607SOL     OW 2719   1.590   3.852   6.049
  607SOL    HW1 2720   1.541   3.919   5.992
  607SOL    HW2 2721   1.548   3.848   6.139
  608SOL     OW 2722   3.271   1.284   5.677
  608SOL    HW1 2723   3.271   1.198   5.626
  608SOL    HW2 2724   3.219   1.271   5.762
  609SOL     OW 2725   3.126   2.879   1.828
  609SOL    HW1 2726   3.222   2.856   1.844
  609SOL    HW2 2727   3.075   2.795   1.806
  610SOL     OW 2728   4.660   3.499   1.677
  610SOL    HW1 2729   4.746   3.551   1.674
  610SOL    HW2 2730   4.680   3.402   1.664
  611SOL     OW 2731   3.124   0.549   2.827
  611SOL    HW1 2732   3.173   0.513   2.906
  611SOL    HW2 2733   3.181   0.542   2.746
  612SOL     OW 2734   4.290   4.912   4.780
  612SOL    HW1 2735   4.310   4.814   4.787
  612SOL    HW2 2736   4.350   4.952   4.710
  613SOL     OW 2737   4.305   4.743   5.377
  613SOL    HW1 2738   4.231   4.769   5.439
  613SOL    HW2 2739   4.358   4.824   5.354
  614SOL     OW 2740   3.385   5.537   6.080
  614SOL    HW1 2741   3.382   5.627   6.037
  614SOL    HW2 2742   3.404   5.468   6.011
  615SOL     OW 2743   0.795   5.122   2.176
  615SOL    HW1 2744   0.731   5.046   2.180
  615SOL    HW2 2745   0.862   5.114   2.251
  616SOL     OW 2746   6.101   3.348   3.479
  616SOL    HW1 2747   6.030   3.330   3.546
  616SOL    HW2 2748   6.189   3.316   3.514
  617SOL     OW 2749   3.290   6.480   6.135
  617SOL    HW1 2750   3.322   6.437   6.219
  617SOL    HW2 2751   3.341   6.564   6.118
  618SOL     OW 2752   1.412   1.158   2.460
  618SOL    HW1 2753   1.371   1.243   2.425
  618SOL    HW2 2754   1.507   1.176   2.487
  619SOL     OW 2755   0.236   1.235   6.918
  619SOL    HW1 2756   0.272   1.168   6.853
  619SOL    HW2 2757   0.233   1.194   7.009
  620SOL     OW 2758   4.508   3.513   1.442
  620SOL    HW1 2759   4.535   3.609   1.448
  620SOL    HW2 2760   4.438   3.493   1.510
  621SOL     OW 2761   0.639   4.919   1.003
  621SOL    HW1 2762   0.704   4.851   1.037
  621SOL    HW2 2763   0.675   5.011   1.019
  622SOL     OW 2764   1.227   0.280   6.817
  622SOL    HW1 2765   1.145   0.312   6.771
  622SOL    HW2 2766   1.303   0.278   6.753
  623SOL     OW 2767   0.373   4.678   6.158
  623SOL    HW1 2768   0.333   4.654   6.070
  623SOL    HW2 2769   0.304   4.668   6.230
  624SOL     OW 2770   1.200   2.206   1.827
  624SOL    HW1 2771   1.279   2.168   1.876
  624SOL    HW2 2772   1.213   2.304   1.813
  625SOL     OW 2773   1.753   1.296   1.674
  625SOL    HW1 2774   1.783   1.201   1.680
  625SOL    HW2 2775   1.833   1.356   1.677
  626SOL     OW 2776   3.518   6.760   4.361
  626SOL    HW1 2777   3.475   6.671   4.370
  626SOL    HW2 2778   3.521   6.786   4.264
  627SOL     OW 2779   4.641   0.723   6.820
  627SOL    HW1 2780   4.575   0.770   6.878
  627SOL    HW2 2781   4.656   0.630   6.855
  628SOL     OW 2782   5.534   4.013   3.292
  628SOL    HW1 2783   5.575   4.042   3.378
  628SOL    HW2 2784   5.603   3.970   3.235
  629SOL     OW 2785   1.766   6.358   0.372
  629SOL    HW1 2786   1.742   6.453   0.351
  629SOL    HW2 2787   1.817   6.319   0.294
  630SOL     OW 2788   3.600   1.814   1.249
  630SOL    HW1 2789   3.532   1.818   1.323
  630SOL    HW2 2790   3.556   1.779   1.166
  631SOL     OW 2791   2.499   6.824   4.656
  631SOL    HW1 2792   2.479   6.881   4.576
  631SOL    HW2 2793   2.549   6.878   4.723
  632SOL     OW 2794   2.374   1.288   1.204
  632SOL    HW1 2795   2.323   1.346   1.139
  632SOL    HW2 2796   2.470   1.284   1.176
  633SOL     OW 2797   2.370   6.880   5.836
  633SOL    HW1 2798   2.275   6.905   5.818
  633SOL    HW2 2799   2.373   6.804   5.901
  634SOL     OW 2800   3.382   6.322   0.736
  634SOL    HW1 2801   3.422   6.230   0.742
  634SOL    HW2 2802   3.356   6.352   0.827
  635SOL     OW 2803   2.712   0.527   3.189
  635SOL    HW1 2804   2.680   0.436   3.213
  635SOL    HW2 2805   2.638   0.593   3.204
  636SOL     OW 2806   5.170   5.714   0.085
  636SOL    HW1 2807   5.103   5.646   0.113
  636SOL    HW2 2808   5.233   5.673   0.019
  637SOL     OW 2809   5.405   4.728   0.787
  637SOL    HW1 2810   5.366   4.715   0.878
  637SOL    HW2 2811   5.404   4.642   0.737
  638SOL     OW 2812   5.384   1.582   2.693
  638SOL    HW1 2813   5.350   1.524   2.619
  638SOL    HW2 2814   5.484   1.585   2.691
  639SOL     OW 2815   4.466   4.579   2.432
  639SOL    HW1 2816   4.507   4.489   2.445
  639SOL    HW2 2817   4.441   4.591   2.336
  640SOL     OW 2818   3.008   4.212   5.891
  640SOL    HW1 2819   2.946   4.278   5.934
  640SOL    HW2 2820   2.989   4.208   5.793
  641SOL     OW 2821   7.008   6.003   4.945
  641SOL    HW1 2822   7.020   5.954   4.859
  641SOL    HW2 2823   6.940   5.956   5.001
  642SOL     OW 2824   1.501   4.494   6.027
  642SOL    HW1 2825   1.418   4.542   6.057
  642SOL    HW2 2826   1.574   4.561   6.011
  643SOL     OW 2827   5.566   5.941   4.632
  643SOL    HW1 2828   5.612   6.030   4.630
  643SOL    HW2 2829   5.482   5.948   4.685
  644SOL     OW 2830   2.042   6.048   1.850
  644SOL    HW1 2831   1.976   6.120   1.830
  644SOL    HW2 2832   2.096   6.029   1.768
  645SOL     OW 2833   5.903   3.328   3.668
  645SOL    HW1 2834   5.878   3.235   3.696
  645SOL    HW2 2835   5.939   3.378   3.747
  646SOL     OW 2836   1.215   1.713   4.419
  646SOL    HW1 2837   1.133   1.767   4.438
  646SOL    HW2 2838   1.239   1.722   4.322
  647SOL     OW 2839   5.048   2.891   0.508
  647SOL    HW1 2840   5.107   2.939   0.572
  647SOL    HW2 2841   5.103   2.848   0.437
  648SOL     OW 2842   5.523   2.241   2.990
  648SOL    HW1 2843   5.598   2.282   3.042
  648SOL    HW2 2844   5.482   2.167   3.044
  649SOL     OW 2845   4.363   4.580   2.143
  649SOL    HW1 2846   4.292   4.632   2.096
  649SOL    HW2 2847   4.393   4.504   2.085
  650SOL     OW 2848   4.356   3.682   1.252
  650SOL    HW1 2849   4.319   3.759   1.304
  650SOL    HW2 2850   4.330   3.596   1.296
  651SOL     OW 2851   1.174   5.500   6.268
  651SOL    HW1 2852   1.256   5.474   6.320
  651SOL    HW2 2853   1.128   5.576   6.313
  652SOL     OW 2854   4.251   1.444   2.442
  652SOL    HW1 2855   4.305   1.401   2.370
  652SOL    HW2 2856   4.299   1.525   2.476
  653SOL     OW 2857   4.031   5.118   3.541
  653SOL    HW1 2858   4.073   5.148   3.455
  653SOL    HW2 2859   3.991   5.197   3.587
  654SOL     OW 2860   6.315   5.045   0.450
  654SOL    HW1 2861   6.315   5.116   0.380
  654SOL    HW2 2862   6.343   5.084   0.537
  655SOL     OW 2863   0.441   0.538   6.839
  655SOL    HW1 2864   0.517   0.483   6.802
  655SOL    HW2 2865   0.467   0.573   6.929
  656SOL     OW 2866   2.997   6.257   2.089
  656SOL    HW1 2867   2.987   6.319   2.167
  656SOL    HW2 2868   2.984   6.309   2.004
  657SOL     OW 2869   4.095   1.388   6.845
  657SOL    HW1 2870   4.073   1.457   6.776
  657SOL    HW2 2871   4.158   1.321   6.806
  658SOL     OW 2872   3.560   5.107   6.354
  658SOL    HW1 2873   3.622   5.181   6.326
  658SOL    HW2 2874   3.557   5.037   6.282
  659SOL     OW 2875   2.636   0.037   6.804
  659SOL    HW1 2876   2.581   6.996   6.748
  659SOL    HW2 2877   2.694   0.093   6.745
  660SOL     OW 2878   3.906   5.409   3.139
  660SOL    HW1 2879   3.997   5.429   3.105
  660SOL    HW2 2880   3.870   5.489   3.187
  661SOL     OW 2881   5.850   5.607   2.804
  661SOL    HW1 2882   5.804   5.552   2.873
  661SOL    HW2 2883   5.943   5.628   2.834
  662SOL     OW 2884   3.759   1.211   0.407
  662SOL    HW1 2885   3.801   1.228   0.318
  662SOL    HW2 2886   3.811   1.260   0.478
  663SOL     OW 2887   2.347   4.783   4.965
  663SOL    HW1 2888   2.354   4.882   4.974
  663SOL    HW2 2889   2.416   4.740   5.024
  664SOL     OW 2890   6.413   1.054   7.013
  664SOL    HW1 2891   6.512   1.069   7.019
  664SOL    HW2 2892   6.383   1.062   6.918
  665SOL     OW 2893   2.066   4.987   2.512
  665SOL    HW1 2894   1.998   4.916   2.498
  665SOL    HW2 2895   2.090   5.029   2.424
  666SOL     OW 2896   4.010   0.852   1.706
  666SOL    HW1 2897   3.958   0.782   1.658
  666SOL    HW2 2898   4.051   0.914   1.640
  667SOL     OW 2899   1.090   6.362   2.276
  667SOL    HW1 2900   1.064   6.279   2.324
  667SOL    HW2 2901   1.188   6.378   2.288
  668SOL     OW 2902   5.398   3.660   0.374
  668SOL    HW1 2903   5.492   3.668   0.341
  668SOL    HW2 2904   5.379   3.564   0.397
  669SOL     OW 2905   4.887   1.354   2.521
  669SOL    HW1 2906   4.891   1.454   2.518
  669SOL    HW2 2907   4.795   1.324   2.494
  670SOL     OW 2908   3.163   2.019   3.085
  670SOL    HW1 2909   3.122   1.950   3.026
  670SOL    HW2 2910   3.091   2.067   3.135
  671SOL     OW 2911   3.136   6.785   1.309
  671SOL    HW1 2912   3.181   6.701   1.340
  671SOL    HW2 2913   3.150   6.795   1.211
  672SOL     OW 2914   1.306   6.609   1.982
  672SOL    HW1 2915   1.284   6.655   2.067
  672SOL    HW2 2916   1.232   6.621   1.916
  673SOL     OW 2917   5.848   6.409   0.893
  673SOL    HW1 2918   5.811   6.360   0.973
  673SOL    HW2 2919   5.936   6.370   0.868
  674SOL     OW 2920   6.526   1.419   4.281
  674SOL    HW1 2921   6.554   1.386   4.371
  674SOL    HW2 2922   6.437   1.465   4.289
  675SOL     OW 2923   0.292   3.120   3.137
  675SOL    HW1 2924   0.361   3.179   3.180
  675SOL    HW2 2925   0.264   3.162   3.051
  676SOL     OW 2926   2.768   6.164   6.067
  676SOL    HW1 2927   2.750   6.255   6.104
  676SOL    HW2 2928   2.866   6.148   6.063
  677SOL     OW 2929   5.017   1.397   1.200
  677SOL    HW1 2930   5.080   1.457   1.249
  677SOL    HW2 2931   4.987   1.442   1.115
  678SOL     OW 2932   1.902   4.960   4.609
  678SOL    HW1 2933   1.901   4.890   4.680
  678SOL    HW2 2934   1.881   5.049   4.650
  679SOL     OW 2935   5.109   2.097   5.466
  679SOL    HW1 2936   5.106   2.012   5.415
  679SOL    HW2 2937   5.148   2.080   5.557
  680SOL     OW 2938   5.401   6.819   4.312
  680SOL    HW1 2939   5.356   6.747   4.259
  680SOL    HW2 2940   5.336   6.893   4.329
  681SOL     OW 2941   4.377   4.993   2.732
  681SOL    HW1 2942   4.464   5.006   2.684
  681SOL    HW2 2943   4.395   4.973   2.828
  682SOL     OW 2944   0.409   1.184   3.284
  682SOL    HW1 2945   0.399   1.108   3.220
  682SOL    HW2 2946   0.425   1.269   3.232
  683SOL     OW 2947   3.870   3.869   1.329
  683SOL    HW1 2948   3.875   3.802   1.254
  683SOL    HW2 2949   3.780   3.911   1.330
  684SOL     OW 2950   6.724   0.744   6.391
  684SOL    HW1 2951   6.649   0.776   6.333
  684SOL    HW2 2952   6.756   0.655   6.357
  685SOL     OW 2953   3.260   0.392   3.049
  685SOL    HW1 2954   3.294   0.315   2.996
  685SOL    HW2 2955   3.301   0.390   3.140
  686SOL     OW 2956   4.421   0.606   4.746
  686SOL    HW1 2957   4.404   0.635   4.652
  686SOL    HW2 2958   4.510   0.561   4.752
  687SOL     OW 2959   0.547   1.922   3.911
  687SOL    HW1 2960   0.612   1.850   3.936
  687SOL    HW2 2961   0.470   1.883   3.862
  688SOL     OW 2962   6.661   1.011   6.835
  688SOL    HW1 2963   6.640   1.010   6.737
  688SOL    HW2 2964   6.738   1.073   6.851
  689SOL     OW 2965   1.646   5.637   5.711
  689SOL    HW1 2966   1.637   5.651   5.612
  689SOL    HW2 2967   1.655   5.725   5.757
  690SOL     OW 2968   5.272   3.521   2.688
  690SOL    HW1 2969   5.248   3.573   2.771
  690SOL    HW2 2970   5.214   3.551   2.612
  691SOL     OW 2971   5.480   1.605   1.170
  691SOL    HW1 2972   5.430   1.685   1.137
  691SOL    HW2 2973   5.421   1.525   1.165
  692SOL     OW 2974   2.002   0.628   4.669
  692SOL    HW1 2975   2.050   0.541   4.676
  692SOL    HW2 2976   1.904   0.613   4.683
  693SOL     OW 2977   5.365   6.060   3.522
  693SOL    HW1 2978   5.431   6.003   3.570
  693SOL    HW2 2979   5.381   6.054   3.424
  694SOL     OW 2980   4.690   6.576   5.256
  694SOL    HW1 2981   4.663   6.559   5.351
  694SOL    HW2 2982   4.620   6.630   5.210
  695SOL     OW 2983   3.829   0.228   3.914
  695SOL    HW1 2984   3.863   0.141   3.949
  695SOL    HW2 2985   3.892   0.301   3.939
  696SOL     OW 2986   5.644   4.359   3.180
  696SOL    HW1 2987   5.724   4.350   3.239
  696SOL    HW2 2988   5.562   4.334   3.232
  697SOL     OW 2989   1.086   6.049   1.931
  697SOL    HW1 2990   1.138   5.975   1.889
  697SOL    HW2 2991   1.135   6.136   1.918
  698SOL     OW 2992   5.967   6.482   0.073
  698SOL    HW1 2993   6.007   6.393   0.053
  698SOL    HW2 2994   6.033   6.554   0.055
  699SOL     OW 2995   2.755   2.798   1.192
  699SOL    HW1 2996   2.707   2.728   1.246
  699SOL    HW2 2997   2.723   2.793   1.097
  700SOL     OW 2998   3.484   0.424   4.100
  700SOL    HW1 2999   3.423   0.465   4.167
  700SOL    HW2 3000   3.431   0.369   4.036
  701SOL     OW 3001   5.281   5.281   1.486
  701SOL    HW1 3002   5.349   5.316   1.422
  701SOL    HW2 3003   5.206   5.238   1.435
  702SOL     OW 3004   3.152   1.311   4.199
  702SOL    HW1 3005   3.094   1.348   4.271
  702SOL    HW2 3006   3.096   1.288   4.120
  703SOL     OW 3007   3.024   1.721   6.212
  703SOL    HW1 3008   3.004   1.816   6.189
  703SOL    HW2 3009   3.004   1.705   6.309
  704SOL     OW 3010   1.648   2.872   5.472
  704SOL    HW1 3011   1.651   2.838   5.566
  704SOL    HW2 3012   1.646   2.795   5.408
  705SOL     OW 3013   0.229   6.579   5.152
  705SOL    HW1 3014   0.163   6.624   5.212
  705SOL    HW2 3015   0.282   6.648   5.103
  706SOL     OW 3016   4.499   1.471   5.334
  706SOL    HW1 3017   4.468   1.564   5.316
  706SOL    HW2 3018   4.501   1.419   5.248
  707SOL     OW 3019   3.200   5.425   4.327
  707SOL    HW1 3020   3.262   5.465   4.260
  707SOL    HW2 3021   3.244   5.349   4.373
  708SOL     OW 3022   4.342   6.318   3.856
  708SOL    HW1 3023   4.311   6.261   3.932
  708SOL    HW2 3024   4.415   6.271   3.807
  709SOL     OW 3025   2.799   0.004   1.065
  709SOL    HW1 3026   2.841   0.059   1.137
  709SOL    HW2 3027   2.701   7.014   1.085
  710SOL     OW 3028   4.480   2.841   1.674
  710SOL    HW1 3029   4.428   2.920   1.708
  710SOL    HW2 3030   4.574   2.847   1.709
  711SOL     OW 3031   0.026   2.301   6.598
  711SOL    HW1 3032   0.027   2.344   6.508
  711SOL    HW2 3033   6.963   2.248   6.608
  712SOL     OW 3034   5.305   4.232   0.635
  712SOL    HW1 3035   5.224   4.199   0.586
  712SOL    HW2 3036   5.309   4.191   0.725
  713SOL     OW 3037   3.926   2.751   5.307
  713SOL    HW1 3038   3.957   2.847   5.306
  713SOL    HW2 3039   3.991   2.695   5.257
  714SOL     OW 3040   5.163   5.840   2.962
  714SOL    HW1 3041   5.129   5.862   3.053
  714SOL    HW2 3042   5.186   5.743   2.957
  715SOL     OW 3043   6.226   5.520   5.364
  715SOL    HW1 3044   6.183   5.536   5.453
  715SOL    HW2 3045   6.186   5.582   5.296
  716SOL     OW 3046   1.929   2.008   2.828
  716SOL    HW1 3047   1.874   2.086   2.797
  716SOL    HW2 3048   2.026   2.030   2.821
  717SOL     OW 3049   5.204   4.287   3.728
  717SOL    HW1 3050   5.156   4.246   3.806
  717SOL    HW2 3051   5.242   4.375   3.755
  718SOL     OW 3052   5.750   1.604   5.295
  718SOL    HW1 3053   5.836   1.648   5.322
  718SOL    HW2 3054   5.762   1.559   5.207
  719SOL     OW 3055   5.164   0.349   3.373
  719SOL    HW1 3056   5.139   0.424   3.311
  719SOL    HW2 3057   5.209   0.277   3.320
  720SOL     OW 3058   3.081   1.526   0.644
  720SOL    HW1 3059   3.066   1.448   0.584
  720SOL    HW2 3060   3.169   1.516   0.690
  721SOL     OW 3061   6.952   1.806   2.769
  721SOL    HW1 3062   0.007   1.744   2.788
  721SOL    HW2 3063   6.938   1.866   2.848
  722SOL     OW 3064   4.843   6.469   1.011
  722SOL    HW1 3065   4.807   6.388   0.965
  722SOL    HW2 3066   4.902   6.441   1.087
  723SOL     OW 3067   2.485   5.476   3.969
  723SOL    HW1 3068   2.396   5.521   3.960
  723SOL    HW2 3069   2.472   5.378   3.982
  724SOL     OW 3070   0.900   1.525   4.080
  724SOL    HW1 3071   0.911   1.512   3.981
  724SOL    HW2 3072   0.968   1.470   4.129
  725SOL     OW 3073   1.500   4.211   2.850
  725SOL    HW1 3074   1.415   4.166   2.878
  725SOL    HW2 3075   1.497   4.229   2.752
  726SOL     OW 3076   1.518   4.162   0.817
  726SOL    HW1 3077   1.527   4.064   0.798
  726SOL    HW2 3078   1.551   4.214   0.739
  727SOL     OW 3079   4.209   5.975   5.163
  727SOL    HW1 3080   4.289   5.988   5.222
  727SOL    HW2 3081   4.226   6.016   5.074
  728SOL     OW 3082   6.612   3.513   3.731
  728SOL    HW1 3083   6.700   3.499   3.685
  728SOL    HW2 3084   6.575   3.425   3.759
  729SOL     OW 3085   0.335   4.461   0.945
  729SOL    HW1 3086   0.380   4.466   1.034
  729SOL    HW2 3087   0.300   4.369   0.929
  730SOL     OW 3088   4.286   0.597   3.285
  730SOL    HW1 3089   4.354   0.640   3.225
  730SOL    HW2 3090   4.285   0.498   3.269
  731SOL     OW 3091   4.521   4.891   5.593
  731SOL    HW1 3092   4.495   4.979   5.634
  731SOL    HW2 3093   4.523   4.901   5.493
  732SOL     OW 3094   4.305   1.711   4.969
  732SOL    HW1 3095   4.373   1.640   4.989
  732SOL    HW2 3096   4.214   1.678   4.996
  733SOL     OW 3097   5.815   5.887   3.090
  733SOL    HW1 3098   5.810   5.790   3.114
  733SOL    HW2 3099   5.747   5.908   3.019
  734SOL     OW 3100   6.105   6.668   2.289
  734SOL    HW1 3101   6.034   6.735   2.308
  734SOL    HW2 3102   6.083   6.619   2.205
  735SOL     OW 3103   4.557   0.597   2.322
  735SOL    HW1 3104   4.559   0.696   2.340
  735SOL    HW2 3105   4.651   0.563   2.316
  736SOL     OW 3106   1.518   1.587   4.025
  736SOL    HW1 3107   1.525   1.505   3.967
  736SOL    HW2 3108   1.518   1.668   3.967
  737SOL     OW 3109   4.240   1.025   6.088
  737SOL    HW1 3110   4.181   1.105   6.078
  737SOL    HW2 3111   4.289   1.030   6.174
  738SOL     OW 3112   1.767   4.674   0.780
  738SOL    HW1 3113   1.696   4.631   0.724
  738SOL    HW2 3114   1.855   4.630   0.762
  739SOL     OW 3115   3.088   6.971   4.261
  739SOL    HW1 3116   3.051   6.884   4.231
  739SOL    HW2 3117   3.015   0.019   4.265
  740SOL     OW 3118   5.084   3.584   2.497
  740SOL    HW1 3119   5.010   3.528   2.460
  740SOL    HW2 3120   5.049   3.674   2.521
  741SOL     OW 3121   2.106   1.028   3.213
  741SOL    HW1 3122   2.104   1.086   3.132
  741SOL    HW2 3123   2.081   1.082   3.294
  742SOL     OW 3124   2.390   6.622   1.823
  742SOL    HW1 3125   2.459   6.680   1.781
  742SOL    HW2 3126   2.299   6.653   1.795
  743SOL     OW 3127   0.787   6.295   3.533
  743SOL    HW1 3128   0.875   6.251   3.517
  743SOL    HW2 3129   0.716   6.225   3.539
  744SOL     OW 3130   4.972   2.018   0.544
  744SOL    HW1 3131   4.948   2.054   0.635
  744SOL    HW2 3132   4.913   2.060   0.475
  745SOL     OW 3133   2.638   0.035   4.780
  745SOL    HW1 3134   2.718   0.095   4.772
  745SOL    HW2 3135   2.574   0.072   4.847
  746SOL     OW 3136   6.748   4.955   5.722
  746SOL    HW1 3137   6.785   5.048   5.733
  746SOL    HW2 3138   6.818   4.896   5.681
  747SOL     OW 3139   5.112   5.909   3.223
  747SOL    HW1 3140   5.110   5.996   3.273
  747SOL    HW2 3141   5.028   5.858   3.242
  748SOL     OW 3142   5.172   5.111   1.883
  748SOL    HW1 3143   5.218   5.026   1.909
  748SOL    HW2 3144   5.230   5.189   1.909
  749SOL     OW 3145   4.909   3.783   3.987
  749SOL    HW1 3146   4.972   3.805   4.062
  749SOL    HW2 3147   4.879   3.688   3.996
  750SOL     OW 3148   2.226   2.115   2.049
  750SOL    HW1 3149   2.287   2.155   1.981
  750SOL    HW2 3150   2.233   2.166   2.135
  751SOL     OW 3151   3.833   0.476   1.016
  751SOL    HW1 3152   3.802   0.393   0.969
  751SOL    HW2 3153   3.849   0.456   1.112
  752SOL     OW 3154   3.411   2.347   5.332
  752SOL    HW1 3155   3.395   2.256   5.370
  752SOL    HW2 3156   3.328   2.378   5.285
  753SOL     OW 3157   3.703   3.886   4.897
  753SOL    HW1 3158   3.668   3.892   4.990
  753SOL    HW2 3159   3.782   3.823   4.895
  754SOL     OW 3160   6.155   0.289   0.143
  754SOL    HW1 3161   6.106   0.333   0.218
  754SOL    HW2 3162   6.247   0.329   0.135
  755SOL     OW 3163   4.084   4.432   5.357
  755SOL    HW1 3164   4.158   4.436   5.290
  755SOL    HW2 3165   4.013   4.369   5.324
  756SOL     OW 3166   2.017   5.241   6.174
  756SOL    HW1 3167   1.964   5.238   6.089
  756SOL    HW2 3168   1.979   5.312   6.234
  757SOL     OW 3169   2.536   6.122   2.737
  757SOL    HW1 3170   2.496   6.063   2.666
  757SOL    HW2 3171   2.632   6.097   2.751
  758SOL     OW 3172   4.084   1.124   4.262
  758SOL    HW1 3173   4.178   1.117   4.228
  758SOL    HW2 3174   4.030   1.048   4.227
  759SOL     OW 3175   0.549   2.994   3.991
  759SOL    HW1 3176   0.633   2.950   3.960
  759SOL    HW2 3177   0.522   3.064   3.924
  760SOL     OW 3178   6.088   5.640   2.922
  760SOL    HW1 3179   6.142   5.625   3.004
  760SOL    HW2 3180   6.130   5.712   2.866
  761SOL     OW 3181   4.090   3.645   6.405
  761SOL    HW1 3182   4.128   3.712   6.341
  761SOL    HW2 3183   3.995   3.627   6.381
  762SOL     OW 3184   3.154   5.684   4.087
  762SOL    HW1 3185   3.057   5.662   4.085
  762SOL    HW2 3186   3.166   5.780   4.114
  763SOL     OW 3187   5.732   0.478   6.782
  763SOL    HW1 3188   5.811   0.437   6.736
  763SOL    HW2 3189   5.659   0.410   6.791
  764SOL     OW 3190   5.862   0.085   5.908
  764SOL    HW1 3191   5.891   0.076   5.812
  764SOL    HW2 3192   5.909   0.016   5.963
  765SOL     OW 3193   6.974   6.664   0.772
  765SOL    HW1 3194   6.924   6.639   0.855
  765SOL    HW2 3195   7.008   6.581   0.727
  766SOL     OW 3196   2.269   2.312   5.180
  766SOL    HW1 3197   2.180   2.351   5.206
  766SOL    HW2 3198   2.341   2.354   5.234
  767SOL     OW 3199   6.060   5.618   4.389
  767SOL    HW1 3200   5.973   5.646   4.429
  767SOL    HW2 3201   6.126   5.693   4.396
  768SOL     OW 3202   2.277   5.209   2.593
  768SOL    HW1 3203   2.316   5.191   2.683
  768SOL    HW2 3204   2.193   5.156   2.581
  769SOL     OW 3205   2.899   1.992   4.879
  769SOL    HW1 3206   2.816   2.028   4.836
  769SOL    HW2 3207   2.942   1.927   4.816
  770SOL     OW 3208   1.633   4.768   5.551
  770SOL    HW1 3209   1.695   4.706   5.501
  770SOL    HW2 3210   1.545   4.723   5.564
  771SOL     OW 3211   1.359   5.499   2.635
  771SOL    HW1 3212   1.458   5.490   2.625
  771SOL    HW2 3213   1.319   5.409   2.646
  772SOL     OW 3214   5.681   4.632   0.462
  772SOL    HW1 3215   5.773   4.612   0.428
  772SOL    HW2 3216   5.688   4.694   0.541
  773SOL     OW 3217   0.910   3.965   3.580
  773SOL    HW1 3218   0.951   3.959   3.489
  773SOL    HW2 3219   0.916   4.059   3.613
  774SOL     OW 3220   2.195   0.313   3.652
  774SOL    HW1 3221   2.201   0.224   3.606
  774SOL    HW2 3222   2.253   0.379   3.604
  775SOL     OW 3223   1.697   4.328   2.370
  775SOL    HW1 3224   1.752   4.405   2.337
  775SOL    HW2 3225   1.756   4.263   2.417
  776SOL     OW 3226   2.847   5.320   6.367
  776SOL    HW1 3227   2.798   5.348   6.450
  776SOL    HW2 3228   2.887   5.229   6.381
  777SOL     OW 3229   2.074   4.072   0.178
  777SOL    HW1 3230   1.988   4.034   0.143
  777SOL    HW2 3231   2.125   4.114   0.103
  778SOL     OW 3232   2.883   6.208   0.168
  778SOL    HW1 3233   2.902   6.291   0.220
  778SOL    HW2 3234   2.831   6.144   0.225
  779SOL     OW 3235   0.078   2.212   3.507
  779SOL    HW1 3236   0.143   2.199   3.581
  779SOL    HW2 3237   7.012   2.245   3.544
  780SOL     OW 3238   0.511   2.184   3.840
  780SOL    HW1 3239   0.507   2.088   3.866
  780SOL    HW2 3240   0.429   2.208   3.786
  781SOL     OW 3241   0.832   4.445   0.041
  781SOL    HW1 3242   0.792   4.391   0.115
  781SOL    HW2 3243   0.905   4.392   7.018
  782SOL     OW 3244   1.727   3.314   4.847
  782SOL    HW1 3245   1.780   3.248   4.794
  782SOL    HW2 3246   1.776   3.400   4.853
  783SOL     OW 3247   6.262   4.658   6.830
  783SOL    HW1 3248   6.346   4.608   6.808
  783SOL    HW2 3249   6.231   4.707   6.748
  784SOL     OW 3250   2.430   5.771   0.744
  784SOL    HW1 3251   2.473   5.776   0.654
  784SOL    HW2 3252   2.350   5.832   0.746
  785SOL     OW 3253   1.224   0.184   4.921
  785SOL    HW1 3254   1.132   0.177   4.882
  785SOL    HW2 3255   1.291   0.172   4.848
  786SOL     OW 3256   6.235   1.261   3.963
  786SOL    HW1 3257   6.321   1.298   3.927
  786SOL    HW2 3258   6.158   1.303   3.915
  787SOL     OW 3259   2.245   6.855   0.843
  787SOL    HW1 3260   2.153   6.894   0.837
  787SOL    HW2 3261   2.293   6.898   0.920
  788SOL     OW 3262   1.932   2.242   1.662
  788SOL    HW1 3263   2.009   2.298   1.631
  788SOL    HW2 3264   1.846   2.292   1.647
  789SOL     OW 3265   4.490   4.864   2.406
  789SOL    HW1 3266   4.510   4.767   2.422
  789SOL    HW2 3267   4.539   4.919   2.473
  790SOL     OW 3268   0.902   1.984   2.496
  790SOL    HW1 3269   0.968   1.910   2.482
  790SOL    HW2 3270   0.844   1.962   2.574
  791SOL     OW 3271   2.902   5.749   4.484
  791SOL    HW1 3272   2.806   5.766   4.461
  791SOL    HW2 3273   2.952   5.836   4.480
  792SOL     OW 3274   1.910   0.928   0.261
  792SOL    HW1 3275   1.902   0.849   0.200
  792SOL    HW2 3276   1.964   0.999   0.217
  793SOL     OW 3277   2.681   6.121   4.062
  793SOL    HW1 3278   2.602   6.060   4.064
  793SOL    HW2 3279   2.764   6.067   4.050
  794SOL     OW 3280   3.501   3.118   2.702
  794SOL    HW1 3281   3.475   3.100   2.797
  794SOL    HW2 3282   3.461   3.047   2.643
  795SOL     OW 3283   3.941   0.475   6.140
  795SOL    HW1 3284   3.932   0.464   6.041
  795SOL    HW2 3285   3.894   0.400   6.187
  796SOL     OW 3286   0.805   2.796   0.617
  796SOL    HW1 3287   0.706   2.782   0.611
  796SOL    HW2 3288   0.828   2.890   0.594
  797SOL     OW 3289   4.622   0.177   0.440
  797SOL    HW1 3290   4.692   0.244   0.463
  797SOL    HW2 3291   4.594   0.128   0.522
  798SOL     OW 3292   4.528   6.726   0.742
  798SOL    HW1 3293   4.616   6.683   0.766
  798SOL    HW2 3294   4.542   6.786   0.663
  799SOL     OW 3295   2.214   2.329   5.815
  799SOL    HW1 3296   2.159   2.305   5.895
  799SOL    HW2 3297   2.255   2.246   5.777
  800SOL     OW 3298   6.217   3.454   2.525
  800SOL    HW1 3299   6.217   3.385   2.597
  800SOL    HW2 3300   6.224   3.545   2.566
  801SOL     OW 3301   2.623   5.739   5.818
  801SOL    HW1 3302   2.697   5.730   5.752
  801SOL    HW2 3303   2.612   5.836   5.841
  802SOL     OW 3304   5.282   2.416   6.587
  802SOL    HW1 3305   5.209   2.466   6.540
  802SOL    HW2 3306   5.312   2.340   6.529
  803SOL     OW 3307   2.678   1.489   4.951
  803SOL    HW1 3308   2.727   1.426   5.011
  803SOL    HW2 3309   2.579   1.482   4.970
  804SOL     OW 3310   5.576   0.770   2.974
  804SOL    HW1 3311   5.581   0.735   3.068
  804SOL    HW2 3312   5.576   0.870   2.975
  805SOL     OW 3313   3.539   1.137   3.473
  805SOL    HW1 3314   3.608   1.067   3.453
  805SOL    HW2 3315   3.466   1.097   3.528
  806SOL     OW 3316   2.529   6.178   5.688
  806SOL    HW1 3317   2.498   6.264   5.646
  806SOL    HW2 3318   2.619   6.154   5.650
  807SOL     OW 3319   1.079   6.127   5.924
  807SOL    HW1 3320   1.000   6.181   5.895
  807SOL    HW2 3321   1.149   6.128   5.853
  808SOL     OW 3322   5.636   2.624   6.420
  808SOL    HW1 3323   5.541   2.653   6.408
  808SOL    HW2 3324   5.644   2.568   6.502
  809SOL     OW 3325   2.455   4.788   0.143
  809SOL    HW1 3326   2.383   4.742   0.091
  809SOL    HW2 3327   2.544   4.755   0.112
  810SOL     OW 3328   3.433   3.453   6.858
  810SOL    HW1 3329   3.363   3.403   6.907
  810SOL    HW2 3330   3.514   3.396   6.847
  811SOL     OW 3331   6.416   4.923   4.725
  811SOL    HW1 3332   6.324   4.887   4.743
  811SOL    HW2 3333   6.426   4.940   4.627
  812SOL     OW 3334   0.512   3.021   2.039
  812SOL    HW1 3335   0.595   3.066   2.072
  812SOL    HW2 3336   0.523   2.998   1.942
  813SOL     OW 3337   1.282   1.942   4.741
  813SOL    HW1 3338   1.284   1.855   4.790
  813SOL    HW2 3339   1.366   1.952   4.687
  814SOL     OW 3340   0.828   5.370   2.991
  814SOL    HW1 3341   0.832   5.298   3.060
  814SOL    HW2 3342   0.910   5.428   2.998
  815SOL     OW 3343   5.114   1.974   4.832
  815SOL    HW1 3344   5.177   2.051   4.848
  815SOL    HW2 3345   5.020   2.008   4.835
  816SOL     OW 3346   5.604   5.119   6.412
  816SOL    HW1 3347   5.653   5.053   6.356
  816SOL    HW2 3348   5.541   5.172   6.355
  817SOL     OW 3349   0.550   4.648   6.675
  817SOL    HW1 3350   0.575   4.629   6.770
  817SOL    HW2 3351   0.453   4.630   6.662
  818SOL     OW 3352   6.541   2.208   5.034
  818SOL    HW1 3353   6.537   2.174   4.940
  818SOL    HW2 3354   6.633   2.241   5.054
  819SOL     OW 3355   5.183   2.810   1.450
  819SOL    HW1 3356   5.152   2.872   1.522
  819SOL    HW2 3357   5.106   2.752   1.421
  820SOL     OW 3358   2.216   1.848   5.115
  820SOL    HW1 3359   2.257   1.922   5.168
  820SOL    HW2 3360   2.223   1.762   5.166
  821SOL     OW 3361   4.793   3.572   6.119
  821SOL    HW1 3362   4.797   3.588   6.217
  821SOL    HW2 3363   4.698   3.563   6.090
  822SOL     OW 3364   0.789   5.190   3.201
  822SOL    HW1 3365   0.827   5.144   3.282
  822SOL    HW2 3366   0.691   5.207   3.215
  823SOL     OW 3367   1.084   3.203   4.935
  823SOL    HW1 3368   1.054   3.288   4.891
  823SOL    HW2 3369   1.120   3.224   5.026
  824SOL     OW 3370   5.337   1.105   6.651
  824SOL    HW1 3371   5.379   1.196   6.653
  824SOL    HW2 3372   5.408   1.035   6.643
  825SOL     OW 3373   5.644   5.538   1.086
  825SOL    HW1 3374   5.654   5.487   1.001
  825SOL    HW2 3375   5.730   5.536   1.137
  826SOL     OW 3376   4.122   2.333   6.830
  826SOL    HW1 3377   4.085   2.322   6.738
  826SOL    HW2 3378   4.190   2.407   6.830
  827SOL     OW 3379   4.115   4.038   5.238
  827SOL    HW1 3380   4.088   4.099   5.312
  827SOL    HW2 3381   4.083   4.075   5.151
  828SOL     OW 3382   6.721   6.196   6.064
  828SOL    HW1 3383   6.793   6.141   6.020
  828SOL    HW2 3384   6.729   6.291   6.033
  829SOL     OW 3385   3.163   3.634   2.776
  829SOL    HW1 3386   3.246   3.661   2.826
  829SOL    HW2 3387   3.168   3.670   2.683
  830SOL     OW 3388   6.437   4.486   0.132
  830SOL    HW1 3389   6.485   4.467   0.218
  830SOL    HW2 3390   6.426   4.401   0.080
  831SOL     OW 3391   4.821   0.007   1.782
  831SOL    HW1 3392   4.894   6.968   1.750
  831SOL    HW2 3393   4.832   0.098   1.742
  832SOL     OW 3394   2.943   1.777   4.641
  832SOL    HW1 3395   2.860   1.828   4.618
  832SOL    HW2 3396   2.995   1.760   4.558
  833SOL     OW 3397   2.925   2.169   0.233
  833SOL    HW1 3398   2.852   2.126   0.180
  833SOL    HW2 3399   3.013   2.137   0.199
  834SOL     OW 3400   5.780   2.903   0.361
  834SOL    HW1 3401   5.842   2.908   0.282
  834SOL    HW2 3402   5.802   2.823   0.415
  835SOL     OW 3403   0.326   6.987   3.858
  835SOL    HW1 3404   0.287   6.961   3.946
  835SOL    HW2 3405   0.421   6.955   3.853
  836SOL     OW 3406   4.569   0.887   4.270
  836SOL    HW1 3407   4.518   0.829   4.206
  836SOL    HW2 3408   4.516   0.895   4.355
  837SOL     OW 3409   1.464   0.880   0.623
  837SOL    HW1 3410   1.396   0.944   0.660
  837SOL    HW2 3411   1.553   0.899   0.664
  838SOL     OW 3412   1.448   5.253   3.776
  838SOL    HW1 3413   1.489   5.164   3.795
  838SOL    HW2 3414   1.456   5.311   3.858
  839SOL     OW 3415   1.788   1.699   0.380
  839SOL    HW1 3416   1.746   1.651   0.303
  839SOL    HW2 3417   1.831   1.783   0.347
  840SOL     OW 3418   5.045   5.232   6.892
  840SOL    HW1 3419   4.996   5.189   6.816
  840SOL    HW2 3420   5.133   5.267   6.861
  841SOL     OW 3421   3.240   5.023   0.040
  841SOL    HW1 3422   3.292   5.054   6.981
  841SOL    HW2 3423   3.207   4.930   0.024
  842SOL     OW 3424   4.069   5.936   0.544
  842SOL    HW1 3425   4.076   5.998   0.623
  842SOL    HW2 3426   3.986   5.881   0.552
  843SOL     OW 3427   0.962   0.980   2.201
  843SOL    HW1 3428   1.010   0.892   2.212
  843SOL    HW2 3429   0.882   0.981   2.260
  844SOL     OW 3430   6.842   0.774   1.234
  844SOL    HW1 3431   6.859   0.771   1.332
  844SOL    HW2 3432   6.801   0.861   1.209
  845SOL     OW 3433   3.510   0.980   2.372
  845SOL    HW1 3434   3.450   1.019   2.440
  845SOL    HW2 3435   3.605   0.986   2.403
  846SOL     OW 3436   2.880   1.185   0.884
  846SOL    HW1 3437   2.960   1.179   0.823
  846SOL    HW2 3438   2.835   1.273   0.870
  847SOL     OW 3439   2.817   4.089   1.646
  847SOL    HW1 3440   2.770   4.006   1.614
  847SOL    HW2 3441   2.895   4.063   1.702
  848SOL     OW 3442   6.989   5.681   0.495
  848SOL    HW1 3443   6.991   5.583   0.512
  848SOL    HW2 3444   6.993   5.730   0.582
  849SOL     OW 3445   6.182   3.455   6.472
  849SOL    HW1 3446   6.115   3.384   6.451
  849SOL    HW2 3447   6.167   3.533   6.410
  850SOL     OW 3448   1.238   0.438   5.124
  850SOL    HW1 3449   1.268   0.482   5.209
  850SOL    HW2 3450   1.312   0.440   5.058
  851SOL     OW 3451   6.061   3.446   6.125
  851SOL    HW1 3452   6.009   3.391   6.059
  851SOL    HW2 3453   6.158   3.420   6.120
  852SOL     OW 3454   0.283   3.856   2.376
  852SOL    HW1 3455   0.196   3.901   2.357
  852SOL    HW2 3456   0.358   3.915   2.348
  853SOL     OW 3457   2.724   2.454   0.225
  853SOL    HW1 3458   2.685   2.543   0.249
  853SOL    HW2 3459   2.822   2.455   0.245
  854SOL     OW 3460   5.612   6.431   6.204
  854SOL    HW1 3461   5.607   6.528   6.178
  854SOL    HW2 3462   5.524   6.403   6.243
  855SOL     OW 3463   5.350   1.346   0.368
  855SOL    HW1 3464   5.330   1.269   0.429
  855SOL    HW2 3465   5.360   1.430   0.422
  856SOL     OW 3466   2.154   5.338   1.138
  856SOL    HW1 3467   2.165   5.383   1.227
  856SOL    HW2 3468   2.243   5.333   1.092
  857SOL     OW 3469   6.475   5.830   5.582
  857SOL    HW1 3470   6.521   5.911   5.547
  857SOL    HW2 3471   6.479   5.756   5.515
  858SOL     OW 3472   4.730   3.275   0.407
  858SOL    HW1 3473   4.796   3.347   0.428
  858SOL    HW2 3474   4.761   3.188   0.444
  859SOL     OW 3475   4.814   6.839   5.221
  859SOL    HW1 3476   4.841   6.928   5.186
  859SOL    HW2 3477   4.786   6.781   5.145
  860SOL     OW 3478   5.157   3.327   5.770
  860SOL    HW1 3479   5.063   3.313   5.801
  860SOL    HW2 3480   5.182   3.423   5.781
  861SOL     OW 3481   2.019   5.643   1.897
  861SOL    HW1 3482   1.978   5.578   1.834
  861SOL    HW2 3483   2.111   5.667   1.866
  862SOL     OW 3484   0.349   3.831   3.268
  862SOL    HW1 3485   0.362   3.930   3.262
  862SOL    HW2 3486   0.268   3.811   3.322
  863SOL     OW 3487   6.497   0.386   0.740
  863SOL    HW1 3488   6.591   0.419   0.750
  863SOL    HW2 3489   6.441   0.457   0.698
  864SOL     OW 3490   5.812   6.746   4.608
  864SOL    HW1 3491   5.825   6.728   4.705
  864SOL    HW2 3492   5.715   6.760   4.589
  865SOL     OW 3493   1.759   6.441   4.898
  865SOL    HW1 3494   1.752   6.492   4.984
  865SOL    HW2 3495   1.742   6.344   4.915
  866SOL     OW 3496   3.692   6.846   2.224
  866SOL    HW1 3497   3.613   6.905   2.239
  866SOL    HW2 3498   3.678   6.790   2.143
  867SOL     OW 3499   6.082   2.700   6.506
  867SOL    HW1 3500   6.055   2.605   6.487
  867SOL    HW2 3501   6.061   2.723   6.600
  868SOL     OW 3502   6.813   1.897   2.547
  868SOL    HW1 3503   6.818   1.996   2.551
  868SOL    HW2 3504   6.855   1.857   2.628
  869SOL     OW 3505   6.970   3.799   3.749
  869SOL    HW1 3506   6.969   3.732   3.675
  869SOL    HW2 3507   0.039   3.844   3.751
  870SOL     OW 3508   3.408   5.394   2.328
  870SOL    HW1 3509   3.391   5.366   2.234
  870SOL    HW2 3510   3.468   5.327   2.372
  871SOL     OW 3511   4.531   1.728   3.098
  871SOL    HW1 3512   4.501   1.786   3.174
  871SOL    HW2 3513   4.451   1.691   3.051
  872SOL     OW 3514   6.984   2.761   4.957
  872SOL    HW1 3515   6.905   2.703   4.938
  872SOL    HW2 3516   6.960   2.857   4.945
  873SOL     OW 3517   4.890   6.638   6.098
  873SOL    HW1 3518   4.857   6.732   6.098
  873SOL    HW2 3519   4.968   6.630   6.036
  874SOL     OW 3520   4.738   4.101   0.778
  874SOL    HW1 3521   4.640   4.081   0.777
  874SOL    HW2 3522   4.780   4.059   0.858
  875SOL     OW 3523   5.334   5.488   1.031
  875SOL    HW1 3524   5.425   5.505   1.070
  875SOL    HW2 3525   5.343   5.463   0.935
  876SOL     OW 3526   6.979   6.627   1.246
  876SOL    HW1 3527   6.970   6.724   1.267
  876SOL    HW2 3528   6.973   6.574   1.330
  877SOL     OW 3529   2.423   2.953   6.515
  877SOL    HW1 3530   2.362   2.945   6.594
  877SOL    HW2 3531   2.368   2.967   6.433
  878SOL     OW 3532   4.268   6.585   3.985
  878SOL    HW1 3533   4.280   6.590   4.085
  878SOL    HW2 3534   4.311   6.502   3.951
  879SOL     OW 3535   5.872   0.141   0.203
  879SOL    HW1 3536   5.956   0.158   0.151
  879SOL    HW2 3537   5.895   0.103   0.293
  880SOL     OW 3538   2.875   3.581   3.011
  880SOL    HW1 3539   2.948   3.513   3.017
  880SOL    HW2 3540   2.900   3.662   3.065
  881SOL     OW 3541   4.195   1.662   0.226
  881SOL    HW1 3542   4.129   1.609   0.172
  881SOL    HW2 3543   4.286   1.624   0.212
  882SOL     OW 3544   0.927   3.847   4.397
  882SOL    HW1 3545   0.847   3.902   4.421
  882SOL    HW2 3546   0.941   3.850   4.298
  883SOL     OW 3547   2.552   0.162   2.823
  883SOL    HW1 3548   2.640   0.145   2.779
  883SOL    HW2 3549   2.486   0.093   2.793
  884SOL     OW 3550   4.439   3.227   5.380
  884SOL    HW1 3551   4.473   3.320   5.368
  884SOL    HW2 3552   4.507   3.173   5.429
  885SOL     OW 3553   3.651   2.569   5.947
  885SOL    HW1 3554   3.662   2.668   5.963
  885SOL    HW2 3555   3.645   2.522   6.035
  886SOL     OW 3556   3.435   0.013   6.498
  886SOL    HW1 3557   3.457   0.061   6.414
  886SOL    HW2 3558   3.336   0.014   6.512
  887SOL     OW 3559   4.536   1.902   4.304
  887SOL    HW1 3560   4.622   1.852   4.304
  887SOL    HW2 3561   4.554   2.000   4.312
  888SOL     OW 3562   6.981   7.015   3.061
  888SOL    HW1 3563   6.954   0.076   3.011
  888SOL    HW2 3564   6.998   0.018   3.157
  889SOL     OW 3565   0.537   3.413   6.561
  889SOL    HW1 3566   0.469   3.372   6.621
  889SOL    HW2 3567   0.605   3.344   6.535
  890SOL     OW 3568   3.037   5.348   4.079
  890SOL    HW1 3569   3.105   5.394   4.136
  890SOL    HW2 3570   2.951   5.399   4.082
  891SOL     OW 3571   5.511   5.719   1.248
  891SOL    HW1 3572   5.598   5.693   1.207
  891SOL    HW2 3573   5.457   5.771   1.182
  892SOL     OW 3574   3.102   4.797   6.983
  892SOL    HW1 3575   3.026   4.747   6.942
  892SOL    HW2 3576   3.136   4.746   0.041
  893SOL     OW 3577   2.150   6.421   2.739
  893SOL    HW1 3578   2.063   6.463   2.763
  893SOL    HW2 3579   2.153   6.327   2.773
  894SOL     OW 3580   1.429   3.772   1.363
  894SOL    HW1 3581   1.424   3.796   1.460
  894SOL    HW2 3582   1.470   3.682   1.354
  895SOL     OW 3583   0.628   5.992   4.046
  895SOL    HW1 3584   0.554   6.004   3.980
  895SOL    HW2 3585   0.690   6.070   4.043
  896SOL     OW 3586   6.933   6.691   4.998
  896SOL    HW1 3587   6.893   6.730   5.081
  896SOL    HW2 3588   6.908   6.595   4.990
  897SOL     OW 3589   5.561   0.955   6.772
  897SOL    HW1 3590   5.592   1.019   6.703
  897SOL    HW2 3591   5.621   0.875   6.773
  898SOL     OW 3592   3.999   6.010   3.273
  898SOL    HW1 3593   3.902   6.035   3.268
  898SOL    HW2 3594   4.053   6.074   3.220
  899SOL     OW 3595   6.984   4.749   6.946
  899SOL    HW1 3596   6.942   4.797   0.003
  899SOL    HW2 3597   6.981   4.808   6.865
  900SOL     OW 3598   5.104   5.609   0.511
  900SOL    HW1 3599   5.014   5.651   0.497
  900SOL    HW2 3600   5.175   5.679   0.504
  901SOL     OW 3601   1.764   0.892   2.152
  901SOL    HW1 3602   1.735   0.935   2.066
  901SOL    HW2 3603   1.821   0.955   2.203
  902SOL     OW 3604   6.427   4.080   2.122
  902SOL    HW1 3605   6.408   4.167   2.167
  902SOL    HW2 3606   6.522   4.079   2.091
  903SOL     OW 3607   0.025   2.667   0.510
  903SOL    HW1 3608   6.974   2.737   0.506
  903SOL    HW2 3609   0.108   2.706   0.549
  904SOL     OW 3610   2.836   1.497   2.223
  904SOL    HW1 3611   2.799   1.589   2.235
  904SOL    HW2 3612   2.786   1.433   2.281
  905SOL     OW 3613   6.473   2.781   6.577
  905SOL    HW1 3614   6.449   2.771   6.674
  905SOL    HW2 3615   6.499   2.692   6.540
  906SOL     OW 3616   6.210   3.497   6.817
  906SOL    HW1 3617   6.209   3.420   6.753
  906SOL    HW2 3618   6.206   3.462   6.911
  907SOL     OW 3619   5.011   3.916   6.800
  907SOL    HW1 3620   4.931   3.917   6.740
  907SOL    HW2 3621   5.094   3.917   6.745
  908SOL     OW 3622   2.182   4.572   2.741
  908SOL    HW1 3623   2.261   4.632   2.745
  908SOL    HW2 3624   2.101   4.624   2.714
  909SOL     OW 3625   5.292   5.163   6.486
  909SOL    HW1 3626   5.341   5.196   6.405
  909SOL    HW2 3627   5.316   5.068   6.503
  910SOL     OW 3628   2.482   3.570   1.348
  910SOL    HW1 3629   2.514   3.550   1.440
  910SOL    HW2 3630   2.383   3.583   1.349
  911SOL     OW 3631   1.198   5.194   6.377
  911SOL    HW1 3632   1.103   5.164   6.384
  911SOL    HW2 3633   1.214   5.232   6.286
  912SOL     OW 3634   4.878   2.271   2.916
  912SOL    HW1 3635   4.796   2.232   2.875
  912SOL    HW2 3636   4.890   2.365   2.883
  913SOL     OW 3637   4.800   6.979   3.496
  913SOL    HW1 3638   4.767   0.024   3.428
  913SOL    HW2 3639   4.748   6.991   3.581
  914SOL     OW 3640   2.752   6.673   0.105
  914SOL    HW1 3641   2.693   6.603   0.065
  914SOL    HW2 3642   2.697   6.752   0.133
  915SOL     OW 3643   6.335   5.642   0.776
  915SOL    HW1 3644   6.245   5.619   0.814
  915SOL    HW2 3645   6.333   5.735   0.740
  916SOL     OW 3646   0.965   2.243   2.312
  916SOL    HW1 3647   1.051   2.273   2.271
  916SOL    HW2 3648   0.983   2.205   2.403
  917SOL     OW 3649   6.627   6.825   0.678
  917SOL    HW1 3650   6.598   6.844   0.772
  917SOL    HW2 3651   6.687   6.899   0.646
  918SOL     OW 3652   1.679   5.628   7.019
  918SOL    HW1 3653   1.659   5.674   6.932
  918SOL    HW2 3654   1.607   5.650   0.064
  919SOL     OW 3655   5.792   2.184   4.887
  919SOL    HW1 3656   5.886   2.215   4.902
  919SOL    HW2 3657   5.755   2.229   4.806
  920SOL     OW 3658   2.979   4.808   2.253
  920SOL    HW1 3659   2.944   4.737   2.192
  920SOL    HW2 3660   2.979   4.775   2.347
  921SOL     OW 3661   4.771   5.371   4.917
  921SOL    HW1 3662   4.843   5.389   4.850
  921SOL    HW2 3663   4.807   5.309   4.988
  922SOL     OW 3664   3.654   2.906   3.784
  922SOL    HW1 3665   3.562   2.871   3.799
  922SOL    HW2 3666   3.673   2.980   3.848
  923SOL     OW 3667   2.277   3.481   5.282
  923SOL    HW1 3668   2.201   3.495   5.345
  923SOL    HW2 3669   2.352   3.433   5.329
  924SOL     OW 3670   0.197   4.055   2.941
  924SOL    HW1 3671   0.206   4.154   2.926
  924SOL    HW2 3672   0.285   4.011   2.922
  925SOL     OW 3673   6.760   1.759   0.278
  925SOL    HW1 3674   6.681   1.806   0.318
  925SOL    HW2 3675   6.799   1.816   0.205
  926SOL     OW 3676   0.793   1.480   2.103
  926SOL    HW1 3677   0.743   1.538   2.040
  926SOL    HW2 3678   0.891   1.489   2.087
  927SOL     OW 3679   5.845   3.751   3.392
  927SOL    HW1 3680   5.908   3.675   3.379
  927SOL    HW2 3681   5.760   3.717   3.432
  928SOL     OW 3682   2.729   4.871   6.344
  928SOL    HW1 3683   2.653   4.877   6.409
  928SOL    HW2 3684   2.798   4.941   6.366
  929SOL     OW 3685   6.801   1.348   5.390
  929SOL    HW1 3686   6.715   1.392   5.412
  929SOL    HW2 3687   6.863   1.354   5.469
  930SOL     OW 3688   5.672   4.953   5.960
  930SOL    HW1 3689   5.591   4.903   5.992
  930SOL    HW2 3690   5.739   4.889   5.923
  931SOL     OW 3691   6.582   2.321   3.131
  931SOL    HW1 3692   6.626   2.236   3.161
  931SOL    HW2 3693   6.483   2.308   3.128
  932SOL     OW 3694   3.880   0.084   3.392
  932SOL    HW1 3695   3.847   7.019   3.352
  932SOL    HW2 3696   3.803   0.135   3.430
  933SOL     OW 3697   1.443   5.205   1.643
  933SOL    HW1 3698   1.376   5.277   1.658
  933SOL    HW2 3699   1.507   5.201   1.719
  934SOL     OW 3700   1.573   3.985   0.154
  934SOL    HW1 3701   1.614   4.066   0.196
  934SOL    HW2 3702   1.550   3.918   0.224
  935SOL     OW 3703   5.747   3.374   4.030
  935SOL    HW1 3704   5.744   3.360   4.129
  935SOL    HW2 3705   5.735   3.471   4.010
  936SOL     OW 3706   1.800   7.010   5.971
  936SOL    HW1 3707   1.791   6.994   5.872
  936SOL    HW2 3708   1.710   0.004   6.011
  937SOL     OW 3709   4.483   1.484   5.844
  937SOL    HW1 3710   4.542   1.455   5.919
  937SOL    HW2 3711   4.486   1.416   5.770
  938SOL     OW 3712   5.526   5.659   4.127
  938SOL    HW1 3713   5.612   5.683   4.083
  938SOL    HW2 3714   5.518   5.710   4.213
  939SOL     OW 3715   0.228   6.628   5.574
  939SOL    HW1 3716   0.187   6.646   5.485
  939SOL    HW2 3717   0.220   6.531   5.595
  940SOL     OW 3718   2.005   4.996   0.254
  940SOL    HW1 3719   1.964   5.080   0.289
  940SOL    HW2 3720   1.971   4.978   0.162
  941SOL     OW 3721   3.607   0.432   6.649
  941SOL    HW1 3722   3.555   0.419   6.733
  941SOL    HW2 3723   3.692   0.379   6.655
  942SOL     OW 3724   0.276   5.071   0.452
  942SOL    HW1 3725   0.257   4.984   0.406
  942SOL    HW2 3726   0.359   5.061   0.508
  943SOL     OW 3727   3.254   5.657   2.642
  943SOL    HW1 3728   3.284   5.751   2.626
  943SOL    HW2 3729   3.154   5.655   2.648
  944SOL     OW 3730   6.586   6.765   4.134
  944SOL    HW1 3731   6.612   6.751   4.038
  944SOL    HW2 3732   6.577   6.863   4.152
  945SOL     OW 3733   0.851   5.504   0.097
  945SOL    HW1 3734   0.751   5.508   0.101
  945SOL    HW2 3735   0.880   5.480   0.005
  946SOL     OW 3736   4.855   3.008   3.757
  946SOL    HW1 3737   4.786   2.951   3.712
  946SOL    HW2 3738   4.936   3.014   3.699
  947SOL     OW 3739   3.782   4.039   4.122
  947SOL    HW1 3740   3.788   4.044   4.022
  947SOL    HW2 3741   3.722   4.111   4.155
  948SOL     OW 3742   3.880   0.709   2.804
  948SOL    HW1 3743   3.853   0.760   2.886
  948SOL    HW2 3744   3.820   0.732   2.728
  949SOL     OW 3745   2.728   6.770   6.175
  949SOL    HW1 3746   2.805   6.726   6.130
  949SOL    HW2 3747   2.714   6.862   6.138
  950SOL     OW 3748   0.016   0.311   1.799
  950SOL    HW1 3749   0.024   0.411   1.803
  950SOL    HW2 3750   0.107   0.271   1.791
  951SOL     OW 3751   1.970   6.440   3.243
  951SOL    HW1 3752   2.025   6.432   3.326
  951SOL    HW2 3753   1.963   6.536   3.217
  952SOL     OW 3754   3.122   1.014   2.023
  952SOL    HW1 3755   3.158   0.993   2.114
  952SOL    HW2 3756   3.022   1.012   2.025
  953SOL     OW 3757   6.088   4.574   6.021
  953SOL    HW1 3758   6.078   4.673   6.028
  953SOL    HW2 3759   6.072   4.545   5.926
  954SOL     OW 3760   4.152   5.883   2.681
  954SOL    HW1 3761   4.065   5.858   2.639
  954SOL    HW2 3762   4.213   5.803   2.682
  955SOL     OW 3763   1.511   5.058   6.756
  955SOL    HW1 3764   1.558   4.975   6.725
  955SOL    HW2 3765   1.435   5.079   6.695
  956SOL     OW 3766   5.278   0.303   1.326
  956SOL    HW1 3767   5.210   0.233   1.303
  956SOL    HW2 3768   5.236   0.371   1.386
  957SOL     OW 3769   5.843   1.174   3.178
  957SOL    HW1 3770   5.811   1.268   3.169
  957SOL    HW2 3771   5.771   1.118   3.220
  958SOL     OW 3772   5.198   6.936   1.966
  958SOL    HW1 3773   5.103   6.964   1.981
  958SOL    HW2 3774   5.232   6.890   2.047
  959SOL     OW 3775   3.891   6.928   4.546
  959SOL    HW1 3776   3.939   7.014   4.530
  959SOL    HW2 3777   3.796   6.946   4.568
  960SOL     OW 3778   1.387   0.120   6.665
  960SOL    HW1 3779   1.444   0.060   6.720
  960SOL    HW2 3780   1.353   0.071   6.585
  961SOL     OW 3781   3.200   0.053   3.047
  961SOL    HW1 3782   3.104   0.060   3.022
  961SOL    HW2 3783   3.219   6.980   3.077
  962SOL     OW 3784   5.866   0.732   4.846
  962SOL    HW1 3785   5.925   0.708   4.769
  962SOL    HW2 3786   5.915   0.795   4.907
  963SOL     OW 3787   5.548   3.238   1.058
  963SOL    HW1 3788   5.635   3.283   1.035
  963SOL    HW2 3789   5.506   3.285   1.135
  964SOL     OW 3790   4.827   4.630   5.389
  964SOL    HW1 3791   4.902   4.692   5.365
  964SOL    HW2 3792   4.792   4.654   5.480
  965SOL     OW 3793   5.917   2.742   3.536
  965SOL    HW1 3794   5.901   2.722   3.632
  965SOL    HW2 3795   5.885   2.835   3.515
  966SOL     OW 3796   4.867   1.708   4.982
  966SOL    HW1 3797   4.869   1.683   4.885
  966SOL    HW2 3798   4.837   1.629   5.036
  967SOL     OW 3799   5.149   3.727   5.964
  967SOL    HW1 3800   5.244   3.740   5.935
  967SOL    HW2 3801   5.122   3.632   5.950
  968SOL     OW 3802   3.949   0.255   1.807
  968SOL    HW1 3803   3.886   0.330   1.787
  968SOL    HW2 3804   3.954   0.193   1.729
  969SOL     OW 3805   3.365   4.211   6.468
  969SOL    HW1 3806   3.406   4.120   6.459
  969SOL    HW2 3807   3.280   4.215   6.416
  970SOL     OW 3808   6.048   6.950   6.073
  970SOL    HW1 3809   6.081   6.859   6.097
  970SOL    HW2 3810   6.059   7.012   6.152
  971SOL     OW 3811   5.843   4.214   3.016
  971SOL    HW1 3812   5.925   4.157   3.020
  971SOL    HW2 3813   5.823   4.252   3.106
  972SOL     OW 3814   0.238   3.065   0.596
  972SOL    HW1 3815   0.216   3.106   0.685
  972SOL    HW2 3816   0.191   3.115   0.523
  973SOL     OW 3817   0.072   3.429   6.126
  973SOL    HW1 3818   0.077   3.435   6.027
  973SOL    HW2 3819   0.036   3.515   6.163
  974SOL     OW 3820   6.782   4.946   3.347
  974SOL    HW1 3821   6.872   4.989   3.342
  974SOL    HW2 3822   6.783   4.875   3.418
  975SOL     OW 3823   2.532   0.617   2.123
  975SOL    HW1 3824   2.542   0.717   2.127
  975SOL    HW2 3825   2.529   0.580   2.215
  976SOL     OW 3826   6.897   3.072   3.084
  976SOL    HW1 3827   6.942   2.987   3.112
  976SOL    HW2 3828   6.811   3.050   3.038
  977SOL     OW 3829   6.765   0.671   2.368
  977SOL    HW1 3830   6.671   0.652   2.396
  977SOL    HW2 3831   6.785   0.768   2.381
  978SOL     OW 3832   5.462   3.098   1.735
  978SOL    HW1 3833   5.384   3.154   1.763
  978SOL    HW2 3834   5.457   3.009   1.781
  979SOL     OW 3835   0.786   4.137   6.802
  979SOL    HW1 3836   0.801   4.235   6.810
  979SOL    HW2 3837   0.695   4.115   6.839
  980SOL     OW 3838   3.290   1.297   4.559
  980SOL    HW1 3839   3.347   1.261   4.485
  980SOL    HW2 3840   3.223   1.361   4.520
  981SOL     OW 3841   6.799   6.774   5.221
  981SOL    HW1 3842   6.798   6.721   5.306
  981SOL    HW2 3843   6.731   6.847   5.227
  982SOL     OW 3844   6.101   1.027   5.503
  982SOL    HW1 3845   6.039   1.105   5.509
  982SOL    HW2 3846   6.096   0.974   5.588
  983SOL     OW 3847   0.281   4.813   4.411
  983SOL    HW1 3848   0.185   4.809   4.384
  983SOL    HW2 3849   0.314   4.908   4.403
  984SOL     OW 3850   0.711   3.156   3.544
  984SOL    HW1 3851   0.637   3.222   3.560
  984SOL    HW2 3852   0.797   3.195   3.577
  985SOL     OW 3853   6.610   4.720   5.362
  985SOL    HW1 3854   6.658   4.644   5.405
  985SOL    HW2 3855   6.640   4.806   5.402
  986SOL     OW 3856   5.406   5.149   1.139
  986SOL    HW1 3857   5.484   5.111   1.089
  986SOL    HW2 3858   5.438   5.221   1.201
  987SOL     OW 3859   4.925   4.801   4.241
  987SOL    HW1 3860   4.860   4.848   4.301
  987SOL    HW2 3861   4.886   4.714   4.211
  988SOL     OW 3862   2.631   4.314   1.737
  988SOL    HW1 3863   2.697   4.386   1.761
  988SOL    HW2 3864   2.678   4.240   1.689
  989SOL     OW 3865   1.145   1.481   1.019
  989SOL    HW1 3866   1.160   1.539   1.099
  989SOL    HW2 3867   1.095   1.399   1.046
  990SOL     OW 3868   3.703   6.769   3.896
  990SOL    HW1 3869   3.776   6.726   3.950
  990SOL    HW2 3870   3.743   6.834   3.832
  991SOL     OW 3871   6.930   5.328   3.407
  991SOL    HW1 3872   6.957   5.241   3.364
  991SOL    HW2 3873   6.931   5.317   3.506
  992SOL     OW 3874   0.091   1.964   0.628
  992SOL    HW1 3875   0.027   1.994   0.557
  992SOL    HW2 3876   0.092   1.864   0.631
  993SOL     OW 3877   1.325   5.416   6.951
  993SOL    HW1 3878   1.383   5.452   6.877
  993SOL    HW2 3879   1.288   5.328   6.924
  994SOL     OW 3880   3.186   6.367   0.168
  994SOL    HW1 3881   3.256   6.300   0.194
  994SOL    HW2 3882   3.124   6.382   0.245
  995SOL     OW 3883   5.940   3.815   5.970
  995SOL    HW1 3884   6.030   3.854   5.952
  995SOL    HW2 3885   5.877   3.840   5.896
  996SOL     OW 3886   3.586   6.102   5.408
  996SOL    HW1 3887   3.679   6.111   5.373
  996SOL    HW2 3888   3.530   6.177   5.374
  997SOL     OW 3889   1.761   6.133   3.198
  997SOL    HW1 3890   1.802   6.042   3.201
  997SOL    HW2 3891   1.737   6.162   3.291
  998SOL     OW 3892   6.115   0.652   6.280
  998SOL    HW1 3893   6.096   0.564   6.238
  998SOL    HW2 3894   6.034   0.710   6.274
  999SOL     OW 3895   4.855   4.377   2.772
  999SOL    HW1 3896   4.760   4.392   2.745
  999SOL    HW2 3897   4.874   4.279   2.777
 1000SOL     OW 3898   4.770   2.446   1.296
 1000SOL    HW1 3899   4.680   2.489   1.309
 1000SOL    HW2 3900   4.780   2.370   1.360
 1001SOL     OW 3901   2.958   6.611   2.602
 1001SOL    HW1 3902   2.957   6.539   2.672
 1001SOL    HW2 3903   2.961   6.569   2.511
 1002SOL     OW 3904   5.110   2.530   0.718
 1002SOL    HW1 3905   5.134   2.623   0.747
 1002SOL    HW2 3906   5.184   2.468   0.741
 1003SOL     OW 3907   0.724   0.570   2.856
 1003SOL    HW1 3908   0.810   0.622   2.861
 1003SOL    HW2 3909   0.740   0.475   2.883
 1004SOL     OW 3910   5.615   1.642   3.726
 1004SOL    HW1 3911   5.705   1.660   3.687
 1004SOL    HW2 3912   5.563   1.727   3.731
 1005SOL     OW 3913   1.273   4.522   2.371
 1005SOL    HW1 3914   1.262   4.441   2.428
 1005SOL    HW2 3915   1.370   4.545   2.363
 1006SOL     OW 3916   2.565   3.593   0.762
 1006SOL    HW1 3917   2.549   3.500   0.728
 1006SOL    HW2 3918   2.648   3.629   0.719
 1007SOL     OW 3919   5.097   0.831   6.720
 1007SOL    HW1 3920   5.115   0.857   6.625
 1007SOL    HW2 3921   5.090   0.732   6.728
 1008SOL     OW 3922   0.109   4.724   5.655
 1008SOL    HW1 3923   0.189   4.674   5.689
 1008SOL    HW2 3924   0.119   4.821   5.677
 1009SOL     OW 3925   6.864   5.336   6.282
 1009SOL    HW1 3926   6.794   5.400   6.251
 1009SOL    HW2 3927   6.866   5.256   6.221
 1010SOL     OW 3928   2.727   2.921   0.850
 1010SOL    HW1 3929   2.819   2.883   0.856
 1010SOL    HW2 3930   2.662   2.857   0.890
 1011SOL     OW 3931   6.768   5.371   2.480
 1011SOL    HW1 3932   6.773   5.297   2.412
 1011SOL    HW2 3933   6.808   5.454   2.442
 1012SOL     OW 3934   4.436   6.924   3.439
 1012SOL    HW1 3935   4.447   7.007   3.386
 1012SOL    HW2 3936   4.444   6.945   3.537
 1013SOL     OW 3937   0.281   6.120   6.507
 1013SOL    HW1 3938   0.299   6.204   6.560
 1013SOL    HW2 3939   0.310   6.134   6.413
 1014SOL     OW 3940   1.030   4.607   5.398
 1014SOL    HW1 3941   0.955   4.558   5.355
 1014SOL    HW2 3942   0.994   4.682   5.454
 1015SOL     OW 3943   3.052   6.325   6.966
 1015SOL    HW1 3944   2.962   6.284   6.979
 1015SOL    HW2 3945   3.088   6.356   0.033
 1016SOL     OW 3946   6.236   4.302   1.734
 1016SOL    HW1 3947   6.230   4.225   1.798
 1016SOL    HW2 3948   6.326   4.344   1.743
 1017SOL     OW 3949   2.152   1.638   1.975
 1017SOL    HW1 3950   2.055   1.622   1.989
 1017SOL    HW2 3951   2.165   1.703   1.900
 1018SOL     OW 3952   6.492   5.964   4.031
 1018SOL    HW1 3953   6.474   6.062   4.020
 1018SOL    HW2 3954   6.497   5.921   3.941
 1019SOL     OW 3955   6.162   4.426   0.699
 1019SOL    HW1 3956   6.224   4.483   0.753
 1019SOL    HW2 3957   6.094   4.484   0.654
 1020SOL     OW 3958   5.787   1.187   1.130
 1020SOL    HW1 3959   5.854   1.158   1.061
 1020SOL    HW2 3960   5.697   1.153   1.104
 1021SOL     OW 3961   0.198   6.370   0.987
 1021SOL    HW1 3962   0.170   6.448   0.931
 1021SOL    HW2 3963   0.198   6.287   0.932
 1022SOL     OW 3964   2.536   5.746   6.889
 1022SOL    HW1 3965   2.533   5.822   6.953
 1022SOL    HW2 3966   2.492   5.773   6.803
 1023SOL     OW 3967   0.673   1.166   3.287
 1023SOL    HW1 3968   0.575   1.165   3.307
 1023SOL    HW2 3969   0.698   1.255   3.250
 1024SOL     OW 3970   1.671   1.493   4.552
 1024SOL    HW1 3971   1.604   1.515   4.482
 1024SOL    HW2 3972   1.673   1.565   4.621
 1025SOL     OW 3973   4.421   3.703   0.197
 1025SOL    HW1 3974   4.453   3.699   0.292
 1025SOL    HW2 3975   4.369   3.621   0.176
 1026SOL     OW 3976   3.091   2.396   0.973
 1026SOL    HW1 3977   3.135   2.306   0.982
 1026SOL    HW2 3978   3.157   2.467   0.997
 1027SOL     OW 3979   0.797   6.804   0.788
 1027SOL    HW1 3980   0.796   6.766   0.881
 1027SOL    HW2 3981   0.852   6.888   0.788
 1028SOL     OW 3982   1.501   6.040   2.102
 1028SOL    HW1 3983   1.567   6.058   2.174
 1028SOL    HW2 3984   1.426   5.984   2.138
 1029SOL     OW 3985   0.726   1.160   5.986
 1029SOL    HW1 3986   0.819   1.198   5.984
 1029SOL    HW2 3987   0.664   1.224   6.031
 1030SOL     OW 3988   3.425   3.116   1.574
 1030SOL    HW1 3989   3.501   3.050   1.571
 1030SOL    HW2 3990   3.450   3.198   1.523
 1031SOL     OW 3991   3.470   3.181   0.909
 1031SOL    HW1 3992   3.527   3.184   0.991
 1031SOL    HW2 3993   3.404   3.106   0.917
 1032SOL     OW 3994   2.447   1.753   6.567
 1032SOL    HW1 3995   2.412   1.715   6.653
 1032SOL    HW2 3996   2.451   1.852   6.574
 1033SOL     OW 3997   0.749   6.155   1.628
 1033SOL    HW1 3998   0.836   6.177   1.672
 1033SOL    HW2 3999   0.719   6.064   1.656
 1034SOL     OW 4000   3.288   0.491   4.347
 1034SOL    HW1 4001   3.208   0.550   4.336
 1034SOL    HW2 4002   3.261   0.395   4.339
 1035SOL     OW 4003   1.339   1.992   6.026
 1035SOL    HW1 4004   1.361   2.045   6.108
 1035SOL    HW2 4005   1.251   1.947   6.039
 1036SOL     OW 4006   5.211   1.809   1.207
 1036SOL    HW1 4007   5.230   1.717   1.242
 1036SOL    HW2 4008   5.116   1.833   1.229
 1037SOL     OW 4009   1.266   2.789   2.268
 1037SOL    HW1 4010   1.352   2.757   2.310
 1037SOL    HW2 4011   1.189   2.752   2.318
 1038SOL     OW 4012   2.780   6.224   6.907
 1038SOL    HW1 4013   2.800   6.215   7.004
 1038SOL    HW2 4014   2.745   6.137   6.872
 1039SOL     OW 4015   3.494   3.002   3.221
 1039SOL    HW1 4016   3.575   3.056   3.243
 1039SOL    HW2 4017   3.500   2.913   3.267
 1040SOL     OW 4018   3.314   1.412   3.100
 1040SOL    HW1 4019   3.288   1.332   3.156
 1040SOL    HW2 4020   3.348   1.484   3.160
 1041SOL     OW 4021   6.547   5.730   6.116
 1041SOL    HW1 4022   6.457   5.721   6.074
 1041SOL    HW2 4023   6.580   5.824   6.105
 1042SOL     OW 4024   5.359   5.013   2.846
 1042SOL    HW1 4025   5.414   4.987   2.767
 1042SOL    HW2 4026   5.286   4.947   2.859
 1043SOL     OW 4027   3.253   2.159   3.630
 1043SOL    HW1 4028   3.228   2.182   3.536
 1043SOL    HW2 4029   3.173   2.170   3.690
 1044SOL     OW 4030   5.522   4.590   1.690
 1044SOL    HW1 4031   5.507   4.521   1.619
 1044SOL    HW2 4032   5.589   4.557   1.756
 1045SOL     OW 4033   2.037   0.627   2.733
 1045SOL    HW1 4034   1.965   0.687   2.767
 1045SOL    HW2 4035   2.066   0.565   2.807
 1046SOL     OW 4036   3.455   0.953   0.881
 1046SOL    HW1 4037   3.412   0.936   0.970
 1046SOL    HW2 4038   3.488   1.047   0.878
 1047SOL     OW 4039   3.817   6.187   4.210
 1047SOL    HW1 4040   3.761   6.242   4.148
 1047SOL    HW2 4041   3.910   6.224   4.213
 1048SOL     OW 4042   1.390   6.086   2.444
 1048SOL    HW1 4043   1.383   6.008   2.506
 1048SOL    HW2 4044   1.461   6.069   2.376
 1049SOL     OW 4045   4.334   6.355   5.170
 1049SOL    HW1 4046   4.415   6.377   5.115
 1049SOL    HW2 4047   4.359   6.285   5.238
 1050SOL     OW 4048   3.587   5.567   3.010
 1050SOL    HW1 4049   3.555   5.574   2.916
 1050SOL    HW2 4050   3.590   5.471   3.038
 1051SOL     OW 4051   0.861   0.045   6.267
 1051SOL    HW1 4052   0.801   0.100   6.209
 1051SOL    HW2 4053   0.935   0.103   6.303
 1052SOL     OW 4054   3.370   0.945   0.109
 1052SOL    HW1 4055   3.320   1.004   0.046
 1052SOL    HW2 4056   3.443   0.898   0.059
 1053SOL     OW 4057   5.776   2.629   3.242
 1053SOL    HW1 4058   5.863   2.652   3.284
 1053SOL    HW2 4059   5.765   2.679   3.156
 1054SOL     OW 4060   3.178   4.805   6.157
 1054SOL    HW1 4061   3.229   4.863   6.221
 1054SOL    HW2 4062   3.159   4.856   6.073
 1055SOL     OW 4063   5.204   6.165   6.500
 1055SOL    HW1 4064   5.244   6.106   6.571
 1055SOL    HW2 4065   5.223   6.261   6.522
 1056SOL     OW 4066   3.110   3.887   6.611
 1056SOL    HW1 4067   3.209   3.875   6.614
 1056SOL    HW2 4068   3.085   3.966   6.667
 1057SOL     OW 4069   2.662   1.586   1.060
 1057SOL    HW1 4070   2.628   1.628   1.144
 1057SOL    HW2 4071   2.629   1.639   0.981
 1058SOL     OW 4072   2.737   2.316   2.467
 1058SOL    HW1 4073   2.639   2.308   2.446
 1058SOL    HW2 4074   2.751   2.313   2.566
 1059SOL     OW 4075   2.360   6.906   1.906
 1059SOL    HW1 4076   2.359   6.899   2.005
 1059SOL    HW2 4077   2.300   6.981   1.877
 1060SOL     OW 4078   5.986   6.301   4.943
 1060SOL    HW1 4079   5.904   6.300   5.000
 1060SOL    HW2 4080   6.038   6.217   4.960
 1061SOL     OW 4081   0.100   3.988   6.949
 1061SOL    HW1 4082   0.060   4.027   6.866
 1061SOL    HW2 4083   0.027   3.961   7.012
 1062SOL     OW 4084   3.704   0.010   4.820
 1062SOL    HW1 4085   3.657   6.991   4.741
 1062SOL    HW2 4086   3.742   6.958   4.877
 1063SOL     OW 4087   2.885   0.118   5.642
 1063SOL    HW1 4088   2.945   0.055   5.593
 1063SOL    HW2 4089   2.800   0.071   5.666
 1064SOL     OW 4090   1.849   3.541   0.414
 1064SOL    HW1 4091   1.779   3.483   0.371
 1064SOL    HW2 4092   1.888   3.603   0.346
 1065SOL     OW 4093   4.294   1.111   4.602
 1065SOL    HW1 4094   4.273   1.195   4.552
 1065SOL    HW2 4095   4.220   1.045   4.589
 1066SOL     OW 4096   5.359   6.680   1.816
 1066SOL    HW1 4097   5.444   6.636   1.787
 1066SOL    HW2 4098   5.320   6.628   1.893
 1067SOL     OW 4099   2.718   1.767   0.095
 1067SOL    HW1 4100   2.743   1.785   7.020
 1067SOL    HW2 4101   2.637   1.708   0.098
 1068SOL     OW 4102   6.758   3.344   1.571
 1068SOL    HW1 4103   6.737   3.252   1.538
 1068SOL    HW2 4104   6.685   3.407   1.544
 1069SOL     OW 4105   6.555   3.653   1.845
 1069SOL    HW1 4106   6.491   3.727   1.865
 1069SOL    HW2 4107   6.530   3.572   1.897
 1070SOL     OW 4108   1.055   6.658   1.894
 1070SOL    HW1 4109   1.011   6.657   1.805
 1070SOL    HW2 4110   1.022   6.580   1.948
 1071SOL     OW 4111   0.168   3.236   5.678
 1071SOL    HW1 4112   0.126   3.200   5.762
 1071SOL    HW2 4113   0.263   3.205   5.673
 1072SOL     OW 4114   1.944   1.306   2.242
 1072SOL    HW1 4115   1.940   1.386   2.303
 1072SOL    HW2 4116   2.010   1.323   2.169
 1073SOL     OW 4117   4.677   2.252   3.849
 1073SOL    HW1 4118   4.650   2.200   3.768
 1073SOL    HW2 4119   4.729   2.333   3.821
 1074SOL     OW 4120   2.714   4.619   1.678
 1074SOL    HW1 4121   2.781   4.625   1.751
 1074SOL    HW2 4122   2.682   4.710   1.653
 1075SOL     OW 4123   5.930   3.873   5.410
 1075SOL    HW1 4124   6.021   3.844   5.440
 1075SOL    HW2 4125   5.872   3.886   5.490
 1076SOL     OW 4126   2.171   4.249   5.004
 1076SOL    HW1 4127   2.232   4.286   5.074
 1076SOL    HW2 4128   2.199   4.156   4.982
 1077SOL     OW 4129   0.321   6.851   0.034
 1077SOL    HW1 4130   0.409   6.822   7.016
 1077SOL    HW2 4131   0.333   6.937   0.084
 1078SOL     OW 4132   6.366   6.622   4.179
 1078SOL    HW1 4133   6.390   6.565   4.258
 1078SOL    HW2 4134   6.443   6.682   4.157
 1079SOL     OW 4135   0.846   0.166   2.243
 1079SOL    HW1 4136   0.786   0.092   2.275
 1079SOL    HW2 4137   0.811   0.253   2.277
 1080SOL     OW 4138   3.116   5.815   6.507
 1080SOL    HW1 4139   3.127   5.914   6.517
 1080SOL    HW2 4140   3.019   5.792   6.505
 1081SOL     OW 4141   6.860   5.532   4.289
 1081SOL    HW1 4142   6.831   5.459   4.228
 1081SOL    HW2 4143   6.936   5.582   4.247
 1082SOL     OW 4144   4.532   6.500   6.405
 1082SOL    HW1 4145   4.593   6.423   6.387
 1082SOL    HW2 4146   4.521   6.555   6.322
 1083SOL     OW 4147   5.325   4.139   1.363
 1083SOL    HW1 4148   5.282   4.126   1.452
 1083SOL    HW2 4149   5.377   4.057   1.339
 1084SOL     OW 4150   6.464   0.566   5.548
 1084SOL    HW1 4151   6.436   0.495   5.483
 1084SOL    HW2 4152   6.428   0.544   5.639
 1085SOL     OW 4153   1.168   3.837   4.516
 1085SOL    HW1 4154   1.218   3.923   4.522
 1085SOL    HW2 4155   1.081   3.853   4.469
 1086SOL     OW 4156   5.688   5.339   0.657
 1086SOL    HW1 4157   5.682   5.436   0.634
 1086SOL    HW2 4158   5.735   5.328   0.744
 1087SOL     OW 4159   3.550   0.494   5.483
 1087SOL    HW1 4160   3.646   0.486   5.456
 1087SOL    HW2 4161   3.516   0.405   5.511
 1088SOL     OW 4162   0.083   5.157   3.267
 1088SOL    HW1 4163   0.092   5.226   3.195
 1088SOL    HW2 4164   0.152   5.174   3.338
 1089SOL     OW 4165   6.884   4.207   4.292
 1089SOL    HW1 4166   6.806   4.268   4.282
 1089SOL    HW2 4167   6.958   4.256   4.339
 1090SOL     OW 4168   5.522   1.922   5.217
 1090SOL    HW1 4169   5.539   1.898   5.313
 1090SOL    HW2 4170   5.424   1.915   5.198
 1091SOL     OW 4171   2.434   2.700   3.050
 1091SOL    HW1 4172   2.478   2.734   3.133
 1091SOL    HW2 4173   2.340   2.734   3.046
 1092SOL     OW 4174   0.536   5.601   1.275
 1092SOL    HW1 4175   0.518   5.541   1.353
 1092SOL    HW2 4176   0.603   5.558   1.215
 1093SOL     OW 4177   1.765   0.071   2.594
 1093SOL    HW1 4178   1.677   0.049   2.550
 1093SOL    HW2 4179   1.836   0.077   2.524
 1094SOL     OW 4180   0.764   0.264   2.873
 1094SOL    HW1 4181   0.740   0.244   2.968
 1094SOL    HW2 4182   0.863   0.265   2.863
 1095SOL     OW 4183   5.573   3.148   0.643
 1095SOL    HW1 4184   5.524   3.127   0.559
 1095SOL    HW2 4185   5.617   3.238   0.635
 1096SOL     OW 4186   2.771   5.921   1.569
 1096SOL    HW1 4187   2.720   5.835   1.582
 1096SOL    HW2 4188   2.780   5.939   1.471
 1097SOL     OW 4189   3.490   5.627   4.479
 1097SOL    HW1 4190   3.533   5.589   4.397
 1097SOL    HW2 4191   3.556   5.630   4.554
 1098SOL     OW 4192   6.074   4.925   0.747
 1098SOL    HW1 4193   6.034   4.957   0.833
 1098SOL    HW2 4194   6.167   4.892   0.763
 1099SOL     OW 4195   4.755   0.207   5.893
 1099SOL    HW1 4196   4.739   0.176   5.987
 1099SOL    HW2 4197   4.688   0.278   5.870
 1100SOL     OW 4198   3.444   1.743   4.041
 1100SOL    HW1 4199   3.361   1.791   4.013
 1100SOL    HW2 4200   3.420   1.671   4.107
 1101SOL     OW 4201   6.150   3.118   6.238
 1101SOL    HW1 4202   6.092   3.188   6.278
 1101SOL    HW2 4203   6.197   3.068   6.311
 1102SOL     OW 4204   2.499   1.361   3.411
 1102SOL    HW1 4205   2.418   1.314   3.446
 1102SOL    HW2 4206   2.471   1.448   3.370
 1103SOL     OW 4207   2.318   0.131   0.104
 1103SOL    HW1 4208   2.338   0.038   0.135
 1103SOL    HW2 4209   2.222   0.137   0.077
 1104SOL     OW 4210   0.797   3.347   4.336
 1104SOL    HW1 4211   0.865   3.276   4.313
 1104SOL    HW2 4212   0.802   3.367   4.433
 1105SOL     OW 4213   5.586   0.756   5.615
 1105SOL    HW1 4214   5.570   0.693   5.692
 1105SOL    HW2 4215   5.522   0.833   5.622
 1106SOL     OW 4216   0.084   1.688   0.687
 1106SOL    HW1 4217   0.153   1.669   0.617
 1106SOL    HW2 4218   0.125   1.676   0.777
 1107SOL     OW 4219   0.718   1.170   6.803
 1107SOL    HW1 4220   0.642   1.132   6.854
 1107SOL    HW2 4221   0.733   1.115   6.721
 1108SOL     OW 4222   2.634   6.693   3.615
 1108SOL    HW1 4223   2.563   6.762   3.629
 1108SOL    HW2 4224   2.592   6.604   3.602
 1109SOL     OW 4225   4.844   2.137   4.344
 1109SOL    HW1 4226   4.805   2.093   4.425
 1109SOL    HW2 4227   4.865   2.067   4.276
 1110SOL     OW 4228   2.875   0.721   2.197
 1110SOL    HW1 4229   2.801   0.709   2.131
 1110SOL    HW2 4230   2.841   0.768   2.278
 1111SOL     OW 4231   5.689   4.081   6.423
 1111SOL    HW1 4232   5.776   4.032   6.417
 1111SOL    HW2 4233   5.692   4.147   6.497
 1112SOL     OW 4234   5.182   6.979   2.452
 1112SOL    HW1 4235   5.254   0.009   2.500
 1112SOL    HW2 4236   5.127   6.929   2.519
 1113SOL     OW 4237   5.470   4.723   2.598
 1113SOL    HW1 4238   5.413   4.656   2.646
 1113SOL    HW2 4239   5.413   4.795   2.560
 1114SOL     OW 4240   3.794   3.662   5.270
 1114SOL    HW1 4241   3.754   3.571   5.275
 1114SOL    HW2 4242   3.741   3.725   5.326
 1115SOL     OW 4243   2.898   4.424   6.037
 1115SOL    HW1 4244   2.988   4.466   6.023
 1115SOL    HW2 4245   2.892   4.388   6.130
 1116SOL     OW 4246   4.489   0.045   6.495
 1116SOL    HW1 4247   4.501   0.045   6.396
 1116SOL    HW2 4248   4.475   0.138   6.528
 1117SOL     OW 4249   1.238   2.682   1.391
 1117SOL    HW1 4250   1.254   2.621   1.469
 1117SOL    HW2 4251   1.150   2.728   1.402
 1118SOL     OW 4252   3.659   4.985   0.511
 1118SOL    HW1 4253   3.588   4.918   0.489
 1118SOL    HW2 4254   3.622   5.077   0.499
 1119SOL     OW 4255   2.725   5.094   4.339
 1119SOL    HW1 4256   2.651   5.029   4.355
 1119SOL    HW2 4257   2.727   5.161   4.413
 1120SOL     OW 4258   6.623   4.439   0.707
 1120SOL    HW1 4259   6.614   4.396   0.797
 1120SOL    HW2 4260   6.691   4.390   0.653
 1121SOL     OW 4261   6.938   4.535   4.274
 1121SOL    HW1 4262   6.965   4.448   4.232
 1121SOL    HW2 4263   6.869   4.580   4.217
 1122SOL     OW 4264   5.646   2.621   1.896
 1122SOL    HW1 4265   5.659   2.552   1.825
 1122SOL    HW2 4266   5.583   2.586   1.965
 1123SOL     OW 4267   3.685   1.487   2.779
 1123SOL    HW1 4268   3.594   1.456   2.807
 1123SOL    HW2 4269   3.754   1.421   2.811
 1124SOL     OW 4270   2.219   2.931   4.378
 1124SOL    HW1 4271   2.213   2.903   4.474
 1124SOL    HW2 4272   2.159   3.010   4.363
 1125SOL     OW 4273   1.852   3.802   3.742
 1125SOL    HW1 4274   1.933   3.763   3.785
 1125SOL    HW2 4275   1.877   3.844   3.655
 1126SOL     OW 4276   3.420   5.416   4.756
 1126SOL    HW1 4277   3.459   5.505   4.776
 1126SOL    HW2 4278   3.324   5.413   4.785
 1127SOL     OW 4279   6.011   6.881   2.641
 1127SOL    HW1 4280   6.094   6.831   2.617
 1127SOL    HW2 4281   5.992   6.869   2.738
 1128SOL     OW 4282   5.395   1.447   3.706
 1128SOL    HW1 4283   5.452   1.529   3.707
 1128SOL    HW2 4284   5.392   1.410   3.614
 1129SOL     OW 4285   1.919   0.927   0.545
 1129SOL    HW1 4286   1.936   0.923   0.446
 1129SOL    HW2 4287   2.004   0.903   0.593
 1130SOL     OW 4288   2.119   4.572   1.995
 1130SOL    HW1 4289   2.030   4.546   2.033
 1130SOL    HW2 4290   2.116   4.565   1.895
 1131SOL     OW 4291   1.404   5.441   4.707
 1131SOL    HW1 4292   1.381   5.452   4.611
 1131SOL    HW2 4293   1.371   5.352   4.739
 1132SOL     OW 4294   2.442   1.223   2.317
 1132SOL    HW1 4295   2.401   1.172   2.242
 1132SOL    HW2 4296   2.539   1.199   2.325
 1133SOL     OW 4297   0.799   6.865   4.963
 1133SOL    HW1 4298   0.874   6.911   5.011
 1133SOL    HW2 4299   0.834   6.823   4.879
 1134SOL     OW 4300   3.694   6.834   1.757
 1134SOL    HW1 4301   3.762   6.895   1.796
 1134SOL    HW2 4302   3.617   6.887   1.723
 1135SOL     OW 4303   1.739   5.795   3.532
 1135SOL    HW1 4304   1.832   5.791   3.497
 1135SOL    HW2 4305   1.734   5.748   3.620
 1136SOL     OW 4306   2.054   5.477   1.636
 1136SOL    HW1 4307   2.087   5.396   1.684
 1136SOL    HW2 4308   1.957   5.466   1.615
 1137SOL     OW 4309   0.818   5.462   5.596
 1137SOL    HW1 4310   0.724   5.486   5.621
 1137SOL    HW2 4311   0.863   5.418   5.674
 1138SOL     OW 4312   1.620   2.797   4.387
 1138SOL    HW1 4313   1.643   2.745   4.470
 1138SOL    HW2 4314   1.523   2.788   4.367
 1139SOL     OW 4315   2.662   5.555   4.854
 1139SOL    HW1 4316   2.660   5.648   4.816
 1139SOL    HW2 4317   2.720   5.497   4.797
 1140SOL     OW 4318   1.384   1.550   0.640
 1140SOL    HW1 4319   1.333   1.465   0.653
 1140SOL    HW2 4320   1.444   1.541   0.561
 1141SOL     OW 4321   6.141   4.863   6.082
 1141SOL    HW1 4322   6.118   4.871   5.985
 1141SOL    HW2 4323   6.145   4.954   6.124
 1142SOL     OW 4324   2.231   6.174   2.849
 1142SOL    HW1 4325   2.192   6.208   2.934
 1142SOL    HW2 4326   2.262   6.079   2.862
 1143SOL     OW 4327   1.364   3.954   1.838
 1143SOL    HW1 4328   1.277   3.982   1.878
 1143SOL    HW2 4329   1.404   3.881   1.894
 1144SOL     OW 4330   5.663   4.463   1.340
 1144SOL    HW1 4331   5.640   4.365   1.340
 1144SOL    HW2 4332   5.723   4.483   1.263
 1145SOL     OW 4333   6.586   0.750   0.687
 1145SOL    HW1 4334   6.535   0.835   0.699
 1145SOL    HW2 4335   6.675   0.758   0.733
 1146SOL     OW 4336   0.598   1.043   1.256
 1146SOL    HW1 4337   0.630   0.987   1.180
 1146SOL    HW2 4338   0.536   0.990   1.314
 1147SOL     OW 4339   3.052   6.409   1.812
 1147SOL    HW1 4340   3.112   6.458   1.749
 1147SOL    HW2 4341   2.965   6.457   1.821
 1148SOL     OW 4342   4.837   5.450   3.569
 1148SOL    HW1 4343   4.816   5.543   3.539
 1148SOL    HW2 4344   4.769   5.421   3.637
 1149SOL     OW 4345   4.382   3.158   1.442
 1149SOL    HW1 4346   4.380   3.164   1.542
 1149SOL    HW2 4347   4.472   3.186   1.409
 1150SOL     OW 4348   1.790   4.167   0.283
 1150SOL    HW1 4349   1.878   4.126   0.255
 1150SOL    HW2 4350   1.753   4.116   0.360
 1151SOL     OW 4351   6.184   5.768   4.164
 1151SOL    HW1 4352   6.157   5.789   4.070
 1151SOL    HW2 4353   6.227   5.678   4.167
 1152SOL     OW 4354   3.959   6.382   6.657
 1152SOL    HW1 4355   3.996   6.326   6.732
 1152SOL    HW2 4356   3.887   6.331   6.611
 1153SOL     OW 4357   5.995   0.178   1.351
 1153SOL    HW1 4358   5.988   0.226   1.264
 1153SOL    HW2 4359   6.006   0.080   1.335
 1154SOL     OW 4360   1.967   2.453   1.247
 1154SOL    HW1 4361   1.868   2.459   1.237
 1154SOL    HW2 4362   2.009   2.533   1.202
 1155SOL     OW 4363   2.963   6.664   4.848
 1155SOL    HW1 4364   3.009   6.655   4.760
 1155SOL    HW2 4365   2.952   6.574   4.889
 1156SOL     OW 4366   2.539   1.691   3.704
 1156SOL    HW1 4367   2.606   1.727   3.638
 1156SOL    HW2 4368   2.500   1.766   3.756
 1157SOL     OW 4369   3.799   1.046   6.325
 1157SOL    HW1 4370   3.756   1.007   6.243
 1157SOL    HW2 4371   3.892   1.076   6.302
 1158SOL     OW 4372   6.136   5.365   2.819
 1158SOL    HW1 4373   6.223   5.365   2.769
 1158SOL    HW2 4374   6.115   5.458   2.850
 1159SOL     OW 4375   6.464   5.710   1.407
 1159SOL    HW1 4376   6.436   5.621   1.372
 1159SOL    HW2 4377   6.504   5.764   1.332
 1160SOL     OW 4378   5.582   1.392   0.722
 1160SOL    HW1 4379   5.518   1.320   0.750
 1160SOL    HW2 4380   5.617   1.439   0.803
 1161SOL     OW 4381   0.950   5.023   0.854
 1161SOL    HW1 4382   0.932   5.026   0.952
 1161SOL    HW2 4383   0.877   4.974   0.807
 1162SOL     OW 4384   2.638   2.434   4.569
 1162SOL    HW1 4385   2.625   2.466   4.663
 1162SOL    HW2 4386   2.588   2.494   4.507
 1163SOL     OW 4387   5.775   3.500   1.811
 1163SOL    HW1 4388   5.727   3.412   1.810
 1163SOL    HW2 4389   5.855   3.494   1.871
 1164SOL     OW 4390   4.802   2.088   5.259
 1164SOL    HW1 4391   4.824   2.178   5.220
 1164SOL    HW2 4392   4.811   2.091   5.358
 1165SOL     OW 4393   4.336   6.500   3.648
 1165SOL    HW1 4394   4.301   6.415   3.687
 1165SOL    HW2 4395   4.261   6.563   3.631
 1166SOL     OW 4396   2.800   4.827   6.670
 1166SOL    HW1 4397   2.791   4.910   6.725
 1166SOL    HW2 4398   2.723   4.820   6.607
 1167SOL     OW 4399   5.558   4.625   2.341
 1167SOL    HW1 4400   5.530   4.677   2.422
 1167SOL    HW2 4401   5.601   4.687   2.275
 1168SOL     OW 4402   6.359   1.509   3.631
 1168SOL    HW1 4403   6.448   1.522   3.674
 1168SOL    HW2 4404   6.291   1.565   3.679
 1169SOL     OW 4405   5.654   0.758   5.300
 1169SOL    HW1 4406   5.564   0.734   5.337
 1169SOL    HW2 4407   5.683   0.846   5.337
 1170SOL     OW 4408   5.210   6.372   4.283
 1170SOL    HW1 4409   5.115   6.353   4.305
 1170SOL    HW2 4410   5.236   6.323   4.200
 1171SOL     OW 4411   0.874   0.181   0.923
 1171SOL    HW1 4412   0.782   0.197   0.888
 1171SOL    HW2 4413   0.912   0.099   0.880
 1172SOL     OW 4414   6.904   3.285   6.266
 1172SOL    HW1 4415   6.970   3.312   6.196
 1172SOL    HW2 4416   6.936   3.203   6.312
 1173SOL     OW 4417   3.645   1.481   0.386
 1173SOL    HW1 4418   3.592   1.560   0.356
 1173SOL    HW2 4419   3.741   1.506   0.396
 1174SOL     OW 4420   3.015   3.233   0.723
 1174SOL    HW1 4421   3.064   3.244   0.636
 1174SOL    HW2 4422   3.051   3.154   0.772
 1175SOL     OW 4423   2.923   3.276   4.152
 1175SOL    HW1 4424   3.001   3.229   4.112
 1175SOL    HW2 4425   2.949   3.317   4.239
 1176SOL     OW 4426   5.756   3.662   6.479
 1176SOL    HW1 4427   5.698   3.661   6.397
 1176SOL    HW2 4428   5.699   3.648   6.560
 1177SOL     OW 4429   6.847   2.011   5.049
 1177SOL    HW1 4430   6.867   2.096   5.098
 1177SOL    HW2 4431   6.851   1.934   5.113
 1178SOL     OW 4432   3.498   5.344   0.728
 1178SOL    HW1 4433   3.488   5.256   0.682
 1178SOL    HW2 4434   3.420   5.403   0.704
 1179SOL     OW 4435   2.376   5.670   0.209
 1179SOL    HW1 4436   2.306   5.716   0.265
 1179SOL    HW2 4437   2.336   5.642   0.122
 1180SOL     OW 4438   3.810   5.788   0.925
 1180SOL    HW1 4439   3.727   5.756   0.970
 1180SOL    HW2 4440   3.863   5.709   0.893
 1181SOL     OW 4441   0.736   5.689   0.915
 1181SOL    HW1 4442   0.815   5.744   0.942
 1181SOL    HW2 4443   0.717   5.704   0.818
 1182SOL     OW 4444   4.567   4.915   2.985
 1182SOL    HW1 4445   4.470   4.918   3.007
 1182SOL    HW2 4446   4.611   4.841   3.037
 1183SOL     OW 4447   2.125   3.251   6.031
 1183SOL    HW1 4448   2.184   3.202   5.968
 1183SOL    HW2 4449   2.166   3.339   6.055
 1184SOL     OW 4450   1.156   6.618   5.561
 1184SOL    HW1 4451   1.091   6.649   5.630
 1184SOL    HW2 4452   1.230   6.683   5.554
 1185SOL     OW 4453   6.785   1.442   6.497
 1185SOL    HW1 4454   6.880   1.415   6.482
 1185SOL    HW2 4455   6.770   1.459   6.594
 1186SOL     OW 4456   5.382   6.046   5.081
 1186SOL    HW1 4457   5.288   6.018   5.098
 1186SOL    HW2 4458   5.443   5.993   5.140
 1187SOL     OW 4459   5.849   0.537   5.736
 1187SOL    HW1 4460   5.915   0.612   5.739
 1187SOL    HW2 4461   5.872   0.476   5.659
 1188SOL     OW 4462   2.595   6.442   5.865
 1188SOL    HW1 4463   2.605   6.344   5.848
 1188SOL    HW2 4464   2.579   6.457   5.962
 1189SOL     OW 4465   5.700   3.467   3.254
 1189SOL    HW1 4466   5.750   3.390   3.215
 1189SOL    HW2 4467   5.660   3.521   3.180
 1190SOL     OW 4468   1.706   6.099   2.312
 1190SOL    HW1 4469   1.692   6.172   2.379
 1190SOL    HW2 4470   1.782   6.041   2.340
 1191SOL     OW 4471   4.408   5.562   2.405
 1191SOL    HW1 4472   4.472   5.541   2.331
 1191SOL    HW2 4473   4.458   5.604   2.481
 1192SOL     OW 4474   5.068   6.187   3.910
 1192SOL    HW1 4475   5.027   6.123   3.975
 1192SOL    HW2 4476   5.092   6.138   3.826
 1193SOL     OW 4477   6.657   5.607   4.024
 1193SOL    HW1 4478   6.645   5.615   4.123
 1193SOL    HW2 4479   6.581   5.653   3.978
 1194SOL     OW 4480   4.245   0.825   1.304
 1194SOL    HW1 4481   4.149   0.838   1.279
 1194SOL    HW2 4482   4.250   0.785   1.395
 1195SOL     OW 4483   5.790   2.092   2.919
 1195SOL    HW1 4484   5.770   2.174   2.972
 1195SOL    HW2 4485   5.706   2.060   2.875
 1196SOL     OW 4486   6.410   6.426   4.385
 1196SOL    HW1 4487   6.404   6.501   4.451
 1196SOL    HW2 4488   6.347   6.354   4.411
 1197SOL     OW 4489   2.867   6.402   0.562
 1197SOL    HW1 4490   2.821   6.325   0.518
 1197SOL    HW2 4491   2.836   6.410   0.656
 1198SOL     OW 4492   1.204   2.223   0.475
 1198SOL    HW1 4493   1.284   2.282   0.481
 1198SOL    HW2 4494   1.168   2.207   0.567
 1199SOL     OW 4495   4.995   4.254   2.439
 1199SOL    HW1 4496   5.043   4.325   2.491
 1199SOL    HW2 4497   4.959   4.294   2.355
 1200SOL     OW 4498   3.132   3.620   2.031
 1200SOL    HW1 4499   3.128   3.632   1.932
 1200SOL    HW2 4500   3.047   3.652   2.072
 1201SOL     OW 4501   1.543   1.974   4.636
 1201SOL    HW1 4502   1.550   1.899   4.570
 1201SOL    HW2 4503   1.602   2.049   4.607
 1202SOL     OW 4504   6.993   5.344   6.559
 1202SOL    HW1 4505   0.071   5.359   6.549
 1202SOL    HW2 4506   6.949   5.355   6.470
 1203SOL     OW 4507   4.680   5.798   5.611
 1203SOL    HW1 4508   4.741   5.794   5.690
 1203SOL    HW2 4509   4.710   5.731   5.543
 1204SOL     OW 4510   1.660   0.248   2.120
 1204SOL    HW1 4511   1.692   0.331   2.166
 1204SOL    HW2 4512   1.694   0.247   2.026
 1205SOL     OW 4513   5.256   4.110   1.618
 1205SOL    HW1 4514   5.245   4.193   1.672
 1205SOL    HW2 4515   5.204   4.035   1.660
 1206SOL     OW 4516   3.154   3.275   5.551
 1206SOL    HW1 4517   3.130   3.187   5.509
 1206SOL    HW2 4518   3.235   3.263   5.608
 1207SOL     OW 4519   1.694   6.585   2.006
 1207SOL    HW1 4520   1.637   6.596   2.087
 1207SOL    HW2 4521   1.785   6.553   2.033
 1208SOL     OW 4522   3.246   3.832   6.251
 1208SOL    HW1 4523   3.223   3.885   6.170
 1208SOL    HW2 4524   3.162   3.802   6.296
 1209SOL     OW 4525   3.951   6.880   5.650
 1209SOL    HW1 4526   4.042   6.920   5.643
 1209SOL    HW2 4527   3.920   6.849   5.560
 1210SOL     OW 4528   3.057   1.159   3.004
 1210SOL    HW1 4529   3.052   1.257   2.985
 1210SOL    HW2 4530   3.117   1.114   2.938
 1211SOL     OW 4531   1.055   3.698   0.617
 1211SOL    HW1 4532   0.995   3.764   0.664
 1211SOL    HW2 4533   1.054   3.612   0.668
 1212SOL     OW 4534   0.974   6.456   6.604
 1212SOL    HW1 4535   0.909   6.390   6.566
 1212SOL    HW2 4536   1.035   6.410   6.668
 1213SOL     OW 4537   5.418   2.617   1.051
 1213SOL    HW1 4538   5.505   2.581   1.085
 1213SOL    HW2 4539   5.435   2.671   0.968
 1214SOL     OW 4540   0.491   2.357   1.666
 1214SOL    HW1 4541   0.575   2.347   1.720
 1214SOL    HW2 4542   0.412   2.360   1.727
 1215SOL     OW 4543   1.050   5.277   4.488
 1215SOL    HW1 4544   1.113   5.355   4.479
 1215SOL    HW2 4545   1.079   5.204   4.426
 1216SOL     OW 4546   4.181   6.848   6.838
 1216SOL    HW1 4547   4.190   6.753   6.871
 1216SOL    HW2 4548   4.084   6.871   6.832
 1217SOL     OW 4549   2.661   4.658   0.016
 1217SOL    HW1 4550   2.743   4.676   0.070
 1217SOL    HW2 4551   2.675   4.577   6.981
 1218SOL     OW 4552   1.676   3.918   3.926
 1218SOL    HW1 4553   1.721   3.867   3.853
 1218SOL    HW2 4554   1.678   3.865   4.011
 1219SOL     OW 4555   4.359   6.187   2.509
 1219SOL    HW1 4556   4.449   6.221   2.482
 1219SOL    HW2 4557   4.367   6.093   2.541
 1220SOL     OW 4558   1.388   4.856   2.785
 1220SOL    HW1 4559   1.392   4.865   2.685
 1220SOL    HW2 4560   1.318   4.790   2.810
 1221SOL     OW 4561   6.164   3.675   6.277
 1221SOL    HW1 4562   6.115   3.598   6.236
 1221SOL    HW2 4563   6.124   3.760   6.243
 1222SOL     OW 4564   0.017   5.863   0.015
 1222SOL    HW1 4565   7.006   5.822   6.950
 1222SOL    HW2 4566   7.000   5.811   0.092
 1223SOL     OW 4567   3.707   6.185   0.662
 1223SOL    HW1 4568   3.778   6.247   0.626
 1223SOL    HW2 4569   3.659   6.141   0.586
 1224SOL     OW 4570   3.003   6.926   1.933
 1224SOL    HW1 4571   2.973   6.832   1.914
 1224SOL    HW2 4572   2.926   6.988   1.920
 1225SOL     OW 4573   2.770   4.115   6.615
 1225SOL    HW1 4574   2.830   4.068   6.550
 1225SOL    HW2 4575   2.678   4.122   6.575
 1226SOL     OW 4576   2.111   4.631   1.042
 1226SOL    HW1 4577   2.022   4.602   1.077
 1226SOL    HW2 4578   2.098   4.695   0.966
 1227SOL     OW 4579   0.153   3.514   6.444
 1227SOL    HW1 4580   0.074   3.546   6.391
 1227SOL    HW2 4581   0.127   3.434   6.498
 1228SOL     OW 4582   4.114   1.764   5.937
 1228SOL    HW1 4583   4.028   1.733   5.976
 1228SOL    HW2 4584   4.097   1.835   5.868
 1229SOL     OW 4585   3.522   4.426   6.260
 1229SOL    HW1 4586   3.479   4.378   6.184
 1229SOL    HW2 4587   3.451   4.474   6.313
 1230SOL     OW 4588   4.699   6.486   3.329
 1230SOL    HW1 4589   4.708   6.435   3.415
 1230SOL    HW2 4590   4.624   6.551   3.337
 1231SOL     OW 4591   1.597   3.823   4.349
 1231SOL    HW1 4592   1.546   3.738   4.360
 1231SOL    HW2 4593   1.671   3.809   4.284
 1232SOL     OW 4594   1.967   2.280   4.704
 1232SOL    HW1 4595   1.938   2.195   4.749
 1232SOL    HW2 4596   1.887   2.338   4.689
 1233SOL     OW 4597   0.592   3.730   4.527
 1233SOL    HW1 4598   0.648   3.712   4.607
 1233SOL    HW2 4599   0.601   3.655   4.462
 1234SOL     OW 4600   6.639   4.404   4.408
 1234SOL    HW1 4601   6.676   4.450   4.327
 1234SOL    HW2 4602   6.657   4.460   4.489
 1235SOL     OW 4603   6.606   5.918   4.270
 1235SOL    HW1 4604   6.605   5.936   4.172
 1235SOL    HW2 4605   6.695   5.942   4.308
 1236SOL     OW 4606   5.184   0.536   0.050
 1236SOL    HW1 4607   5.085   0.542   0.037
 1236SOL    HW2 4608   5.230   0.544   6.982
 1237SOL     OW 4609   3.329   4.948   6.605
 1237SOL    HW1 4610   3.309   4.855   6.633
 1237SOL    HW2 4611   3.309   4.959   6.507
 1238SOL     OW 4612   1.597   1.969   1.389
 1238SOL    HW1 4613   1.582   2.062   1.354
 1238SOL    HW2 4614   1.680   1.931   1.348
 1239SOL     OW 4615   0.067   6.271   6.760
 1239SOL    HW1 4616   0.100   6.295   6.851
 1239SOL    HW2 4617   0.073   6.172   6.748
 1240SOL     OW 4618   5.187   5.988   1.704
 1240SOL    HW1 4619   5.159   5.974   1.609
 1240SOL    HW2 4620   5.282   6.020   1.707
 1241SOL     OW 4621   6.515   3.229   3.784
 1241SOL    HW1 4622   6.455   3.200   3.710
 1241SOL    HW2 4623   6.551   3.148   3.831
 1242SOL     OW 4624   2.086   3.611   0.190
 1242SOL    HW1 4625   2.064   3.703   0.156
 1242SOL    HW2 4626   2.155   3.570   0.130
 1243SOL     OW 4627   2.606   5.045   5.332
 1243SOL    HW1 4628   2.654   5.132   5.345
 1243SOL    HW2 4629   2.656   4.990   5.265
 1244SOL     OW 4630   0.726   1.081   3.840
 1244SOL    HW1 4631   0.646   1.049   3.892
 1244SOL    HW2 4632   0.809   1.039   3.876
 1245SOL     OW 4633   3.156   3.625   6.590
 1245SOL    HW1 4634   3.249   3.663   6.582
 1245SOL    HW2 4635   3.092   3.699   6.613
 1246SOL     OW 4636   1.370   6.412   2.342
 1246SOL    HW1 4637   1.372   6.404   2.242
 1246SOL    HW2 4638   1.369   6.321   2.383
 1247SOL     OW 4639   2.021   6.372   6.287
 1247SOL    HW1 4640   2.008   6.442   6.218
 1247SOL    HW2 4641   2.092   6.308   6.258
 1248SOL     OW 4642   1.949   5.533   3.658
 1248SOL    HW1 4643   1.965   5.523   3.560
 1248SOL    HW2 4644   1.859   5.496   3.681
 1249SOL     OW 4645   6.432   3.310   3.309
 1249SOL    HW1 4646   6.468   3.391   3.264
 1249SOL    HW2 4647   6.346   3.282   3.266
 1250SOL     OW 4648   0.895   5.104   4.890
 1250SOL    HW1 4649   0.847   5.020   4.867
 1250SOL    HW2 4650   0.841   5.157   4.956
 1251SOL     OW 4651   3.635   0.462   5.028
 1251SOL    HW1 4652   3.669   0.391   4.967
 1251SOL    HW2 4653   3.703   0.535   5.036
 1252SOL     OW 4654   3.527   4.050   6.083
 1252SOL    HW1 4655   3.567   4.011   6.166
 1252SOL    HW2 4656   3.597   4.056   6.012
 1253SOL     OW 4657   4.100   5.700   3.087
 1253SOL    HW1 4658   4.066   5.746   3.168
 1253SOL    HW2 4659   4.154   5.764   3.032
 1254SOL     OW 4660   6.477   2.059   2.935
 1254SOL    HW1 4661   6.528   2.135   2.895
 1254SOL    HW2 4662   6.460   2.078   3.032
 1255SOL     OW 4663   6.426   6.634   6.527
 1255SOL    HW1 4664   6.491   6.653   6.600
 1255SOL    HW2 4665   6.346   6.693   6.536
 1256SOL     OW 4666   4.341   0.958   3.637
 1256SOL    HW1 4667   4.303   1.032   3.582
 1256SOL    HW2 4668   4.433   0.935   3.604
 1257SOL     OW 4669   6.046   1.454   3.886
 1257SOL    HW1 4670   6.096   1.540   3.876
 1257SOL    HW2 4671   5.948   1.471   3.877
 1258SOL     OW 4672   0.116   6.819   3.290
 1258SOL    HW1 4673   0.157   6.845   3.202
 1258SOL    HW2 4674   0.098   6.720   3.290
 1259SOL     OW 4675   4.535   2.213   5.067
 1259SOL    HW1 4676   4.445   2.223   5.023
 1259SOL    HW2 4677   4.593   2.154   5.011
 1260SOL     OW 4678   1.395   0.758   6.549
 1260SOL    HW1 4679   1.364   0.835   6.493
 1260SOL    HW2 4680   1.391   0.783   6.646
 1261SOL     OW 4681   6.548   4.479   1.113
 1261SOL    HW1 4682   6.633   4.443   1.075
 1261SOL    HW2 4683   6.474   4.413   1.098
 1262SOL     OW 4684   5.606   6.104   1.882
 1262SOL    HW1 4685   5.623   6.006   1.888
 1262SOL    HW2 4686   5.543   6.131   1.955
 1263SOL     OW 4687   1.041   1.959   3.097
 1263SOL    HW1 4688   1.089   1.978   3.011
 1263SOL    HW2 4689   0.978   2.034   3.117
 1264SOL     OW 4690   0.849   2.535   5.347
 1264SOL    HW1 4691   0.851   2.444   5.305
 1264SOL    HW2 4692   0.935   2.551   5.396
 1265SOL     OW 4693   5.814   5.984   4.852
 1265SOL    HW1 4694   5.784   6.012   4.761
 1265SOL    HW2 4695   5.902   5.937   4.845
 1266SOL     OW 4696   1.983   0.849   4.841
 1266SOL    HW1 4697   2.063   0.890   4.886
 1266SOL    HW2 4698   2.013   0.778   4.777
 1267SOL     OW 4699   3.506   0.007   3.314
 1267SOL    HW1 4700   3.518   7.009   3.217
 1267SOL    HW2 4701   3.527   6.946   3.367
 1268SOL     OW 4702   4.267   2.601   5.703
 1268SOL    HW1 4703   4.300   2.557   5.787
 1268SOL    HW2 4704   4.305   2.693   5.696
 1269SOL     OW 4705   6.360   2.184   4.029
 1269SOL    HW1 4706   6.435   2.238   4.066
 1269SOL    HW2 4707   6.299   2.242   3.976
 1270SOL     OW 4708   6.707   5.742   2.566
 1270SOL    HW1 4709   6.773   5.678   2.527
 1270SOL    HW2 4710   6.701   5.823   2.507
 1271SOL     OW 4711   1.696   1.632   0.878
 1271SOL    HW1 4712   1.744   1.717   0.903
 1271SOL    HW2 4713   1.602   1.635   0.911
 1272SOL     OW 4714   6.296   3.989   6.518
 1272SOL    HW1 4715   6.261   3.895   6.526
 1272SOL    HW2 4716   6.348   3.998   6.433
 1273SOL     OW 4717   1.115   4.855   4.990
 1273SOL    HW1 4718   1.023   4.855   4.949
 1273SOL    HW2 4719   1.156   4.764   4.979
 1274SOL     OW 4720   0.151   5.677   3.051
 1274SOL    HW1 4721   0.096   5.618   3.111
 1274SOL    HW2 4722   0.241   5.635   3.037
 1275SOL     OW 4723   2.447   1.427   2.765
 1275SOL    HW1 4724   2.479   1.394   2.854
 1275SOL    HW2 4725   2.512   1.494   2.729
 1276SOL     OW 4726   5.423   4.849   4.081
 1276SOL    HW1 4727   5.367   4.783   4.133
 1276SOL    HW2 4728   5.488   4.799   4.024
 1277SOL     OW 4729   0.699   6.247   0.215
 1277SOL    HW1 4730   0.706   6.268   0.313
 1277SOL    HW2 4731   0.620   6.188   0.199
 1278SOL     OW 4732   1.058   5.868   2.896
 1278SOL    HW1 4733   1.137   5.807   2.888
 1278SOL    HW2 4734   1.050   5.923   2.812
 1279SOL     OW 4735   2.605   2.616   1.347
 1279SOL    HW1 4736   2.580   2.549   1.416
 1279SOL    HW2 4737   2.619   2.571   1.259
 1280SOL     OW 4738   1.909   2.277   3.630
 1280SOL    HW1 4739   1.948   2.189   3.602
 1280SOL    HW2 4740   1.966   2.351   3.595
 1281SOL     OW 4741   4.466   6.288   4.812
 1281SOL    HW1 4742   4.470   6.217   4.741
 1281SOL    HW2 4743   4.557   6.324   4.829
 1282SOL     OW 4744   6.805   2.273   0.970
 1282SOL    HW1 4745   6.822   2.342   0.899
 1282SOL    HW2 4746   6.884   2.212   0.977
 1283SOL     OW 4747   6.895   3.006   4.894
 1283SOL    HW1 4748   6.910   3.084   4.955
 1283SOL    HW2 4749   6.898   3.038   4.799
 1284SOL     OW 4750   4.237   2.064   1.959
 1284SOL    HW1 4751   4.334   2.080   1.943
 1284SOL    HW2 4752   4.219   1.966   1.963
 1285SOL     OW 4753   4.469   1.210   5.156
 1285SOL    HW1 4754   4.389   1.153   5.173
 1285SOL    HW2 4755   4.484   1.218   5.057
 1286SOL     OW 4756   5.207   2.005   1.504
 1286SOL    HW1 4757   5.165   2.076   1.560
 1286SOL    HW2 4758   5.276   2.047   1.444
 1287SOL     OW 4759   6.523   4.698   4.459
 1287SOL    HW1 4760   6.586   4.734   4.528
 1287SOL    HW2 4761   6.540   4.743   4.372
 1288SOL     OW 4762   4.407   4.143   0.050
 1288SOL    HW1 4763   4.358   4.157   0.136
 1288SOL    HW2 4764   4.406   4.227   7.018
 1289SOL     OW 4765   6.927   0.168   1.389
 1289SOL    HW1 4766   6.880   0.209   1.467
 1289SOL    HW2 4767   0.004   0.163   1.408
 1290SOL     OW 4768   2.079   6.867   6.113
 1290SOL    HW1 4769   2.100   6.900   6.021
 1290SOL    HW2 4770   1.983   6.886   6.135
 1291SOL     OW 4771   6.576   4.934   3.191
 1291SOL    HW1 4772   6.588   4.884   3.105
 1291SOL    HW2 4773   6.649   4.910   3.255
 1292SOL     OW 4774   0.967   6.642   1.596
 1292SOL    HW1 4775   1.066   6.637   1.580
 1292SOL    HW2 4776   0.918   6.630   1.509
 1293SOL     OW 4777   3.988   1.490   0.067
 1293SOL    HW1 4778   3.937   1.575   0.052
 1293SOL    HW2 4779   4.023   1.457   7.000
 1294SOL     OW 4780   1.977   3.741   5.101
 1294SOL    HW1 4781   2.077   3.739   5.103
 1294SOL    HW2 4782   1.942   3.755   5.194
 1295SOL     OW 4783   5.960   4.576   0.614
 1295SOL    HW1 4784   5.905   4.654   0.642
 1295SOL    HW2 4785   5.995   4.592   0.522
 1296SOL     OW 4786   5.559   0.109   5.425
 1296SOL    HW1 4787   5.469   0.131   5.462
 1296SOL    HW2 4788   5.596   0.188   5.376
 1297SOL     OW 4789   0.508   0.561   2.253
 1297SOL    HW1 4790   0.415   0.548   2.218
 1297SOL    HW2 4791   0.548   0.642   2.210
 1298SOL     OW 4792   5.194   6.243   2.620
 1298SOL    HW1 4793   5.232   6.332   2.594
 1298SOL    HW2 4794   5.251   6.202   2.692
 1299SOL     OW 4795   0.834   3.676   5.022
 1299SOL    HW1 4796   0.921   3.701   5.064
 1299SOL    HW2 4797   0.771   3.645   5.093
 1300SOL     OW 4798   1.104   4.751   2.081
 1300SOL    HW1 4799   1.201   4.771   2.083
 1300SOL    HW2 4800   1.090   4.652   2.091
 1301SOL     OW 4801   0.609   0.156   0.618
 1301SOL    HW1 4802   0.588   0.072   0.567
 1301SOL    HW2 4803   0.690   0.199   0.578
 1302SOL     OW 4804   5.709   0.072   4.470
 1302SOL    HW1 4805   5.774   0.079   4.546
 1302SOL    HW2 4806   5.758   0.047   4.387
 1303SOL     OW 4807   4.214   6.176   2.155
 1303SOL    HW1 4808   4.175   6.193   2.064
 1303SOL    HW2 4809   4.259   6.087   2.155
 1304SOL     OW 4810   0.601   0.932   0.473
 1304SOL    HW1 4811   0.675   0.889   0.524
 1304SOL    HW2 4812   0.516   0.925   0.525
 1305SOL     OW 4813   4.962   3.368   6.304
 1305SOL    HW1 4814   4.935   3.459   6.336
 1305SOL    HW2 4815   5.058   3.369   6.278
 1306SOL     OW 4816   2.377   5.345   4.255
 1306SOL    HW1 4817   2.389   5.330   4.353
 1306SOL    HW2 4818   2.430   5.277   4.204
 1307SOL     OW 4819   2.742   1.879   3.616
 1307SOL    HW1 4820   2.794   1.819   3.554
 1307SOL    HW2 4821   2.791   1.888   3.703
 1308SOL     OW 4822   0.885   4.567   5.924
 1308SOL    HW1 4823   0.945   4.586   6.002
 1308SOL    HW2 4824   0.835   4.650   5.899
 1309SOL     OW 4825   5.638   4.487   6.825
 1309SOL    HW1 4826   5.628   4.579   6.788
 1309SOL    HW2 4827   5.556   4.462   6.876
 1310SOL     OW 4828   1.205   3.879   3.242
 1310SOL    HW1 4829   1.253   3.829   3.314
 1310SOL    HW2 4830   1.116   3.910   3.275
 1311SOL     OW 4831   6.761   5.670   0.770
 1311SOL    HW1 4832   6.757   5.575   0.801
 1311SOL    HW2 4833   6.695   5.684   0.696
 1312SOL     OW 4834   2.425   1.056   6.075
 1312SOL    HW1 4835   2.414   1.018   6.167
 1312SOL    HW2 4836   2.351   1.025   6.017
 1313SOL     OW 4837   6.314   6.249   2.215
 1313SOL    HW1 4838   6.310   6.349   2.227
 1313SOL    HW2 4839   6.409   6.219   2.208
 1314SOL     OW 4840   2.290   1.639   5.318
 1314SOL    HW1 4841   2.231   1.568   5.277
 1314SOL    HW2 4842   2.385   1.609   5.315
 1315SOL     OW 4843   6.259   1.350   3.443
 1315SOL    HW1 4844   6.311   1.413   3.501
 1315SOL    HW2 4845   6.235   1.268   3.496
 1316SOL     OW 4846   4.475   0.711   5.461
 1316SOL    HW1 4847   4.401   0.676   5.404
 1316SOL    HW2 4848   4.460   0.683   5.556
 1317SOL     OW 4849   2.923   3.534   6.107
 1317SOL    HW1 4850   2.964   3.602   6.047
 1317SOL    HW2 4851   2.948   3.552   6.202
 1318SOL     OW 4852   1.876   2.496   6.194
 1318SOL    HW1 4853   1.870   2.414   6.251
 1318SOL    HW2 4854   1.806   2.562   6.224
 1319SOL     OW 4855   6.842   6.611   0.997
 1319SOL    HW1 4856   6.773   6.684   1.002
 1319SOL    HW2 4857   6.901   6.616   1.078
 1320SOL     OW 4858   3.511   3.159   6.220
 1320SOL    HW1 4859   3.433   3.132   6.276
 1320SOL    HW2 4860   3.480   3.218   6.145
 1321SOL     OW 4861   5.593   2.467   0.413
 1321SOL    HW1 4862   5.582   2.415   0.497
 1321SOL    HW2 4863   5.593   2.406   0.334
 1322SOL     OW 4864   3.559   1.730   0.297
 1322SOL    HW1 4865   3.564   1.742   0.198
 1322SOL    HW2 4866   3.582   1.816   0.343
 1323SOL     OW 4867   3.896   0.008   0.771
 1323SOL    HW1 4868   3.829   6.974   0.721
 1323SOL    HW2 4869   3.984   0.002   0.725
 1324SOL     OW 4870   1.530   3.397   0.037
 1324SOL    HW1 4871   1.520   3.462   6.982
 1324SOL    HW2 4872   1.490   3.309   0.011
 1325SOL     OW 4873   3.008   5.369   5.587
 1325SOL    HW1 4874   2.930   5.398   5.642
 1325SOL    HW2 4875   2.989   5.387   5.490
 1326SOL     OW 4876   4.726   2.784   3.686
 1326SOL    HW1 4877   4.635   2.767   3.722
 1326SOL    HW2 4878   4.795   2.750   3.750
 1327SOL     OW 4879   5.791   5.415   1.787
 1327SOL    HW1 4880   5.809   5.317   1.781
 1327SOL    HW2 4881   5.752   5.436   1.877
 1328SOL     OW 4882   2.130   3.119   5.044
 1328SOL    HW1 4883   2.142   3.215   5.067
 1328SOL    HW2 4884   2.219   3.074   5.038
 1329SOL     OW 4885   1.021   3.060   3.583
 1329SOL    HW1 4886   0.999   3.002   3.504
 1329SOL    HW2 4887   1.077   3.137   3.553
 1330SOL     OW 4888   6.272   3.056   1.418
 1330SOL    HW1 4889   6.310   2.996   1.488
 1330SOL    HW2 4890   6.346   3.098   1.366
 1331SOL     OW 4891   4.518   2.121   3.667
 1331SOL    HW1 4892   4.453   2.168   3.607
 1331SOL    HW2 4893   4.546   2.035   3.625
 1332SOL     OW 4894   1.699   6.290   6.953
 1332SOL    HW1 4895   1.736   6.316   6.864
 1332SOL    HW2 4896   1.613   6.241   6.940
 1333SOL     OW 4897   3.778   3.922   3.311
 1333SOL    HW1 4898   3.707   3.856   3.334
 1333SOL    HW2 4899   3.786   3.929   3.211
 1334SOL     OW 4900   7.006   3.327   2.336
 1334SOL    HW1 4901   0.014   3.336   2.241
 1334SOL    HW2 4902   0.018   3.405   2.389
 1335SOL     OW 4903   1.310   3.686   2.308
 1335SOL    HW1 4904   1.249   3.751   2.354
 1335SOL    HW2 4905   1.332   3.721   2.217
 1336SOL     OW 4906   2.750   0.746   5.097
 1336SOL    HW1 4907   2.819   0.819   5.100
 1336SOL    HW2 4908   2.783   0.672   5.038
 1337SOL     OW 4909   6.748   1.262   3.819
 1337SOL    HW1 4910   6.847   1.247   3.820
 1337SOL    HW2 4911   6.719   1.300   3.907
 1338SOL     OW 4912   6.491   4.162   4.994
 1338SOL    HW1 4913   6.514   4.260   4.993
 1338SOL    HW2 4914   6.398   4.150   5.028
 1339SOL     OW 4915   0.173   0.152   6.913
 1339SOL    HW1 4916   0.110   0.188   6.844
 1339SOL    HW2 4917   0.144   0.182   7.004
 1340SOL     OW 4918   4.155   2.479   1.695
 1340SOL    HW1 4919   4.109   2.430   1.769
 1340SOL    HW2 4920   4.087   2.516   1.632
 1341SOL     OW 4921   4.885   6.903   0.281
 1341SOL    HW1 4922   4.846   6.844   0.352
 1341SOL    HW2 4923   4.850   6.875   0.192
 1342SOL     OW 4924   2.786   6.546   1.413
 1342SOL    HW1 4925   2.688   6.551   1.432
 1342SOL    HW2 4926   2.804   6.575   1.319
 1343SOL     OW 4927   5.943   6.114   3.147
 1343SOL    HW1 4928   5.912   6.095   3.240
 1343SOL    HW2 4929   5.917   6.037   3.088
 1344SOL     OW 4930   0.407   0.624   5.062
 1344SOL    HW1 4931   0.317   0.644   5.022
 1344SOL    HW2 4932   0.437   0.533   5.030
 1345SOL     OW 4933   0.195   6.008   0.572
 1345SOL    HW1 4934   0.158   6.012   0.479
 1345SOL    HW2 4935   0.141   6.067   0.632
 1346SOL     OW 4936   3.022   5.189   5.177
 1346SOL    HW1 4937   3.015   5.268   5.238
 1346SOL    HW2 4938   2.996   5.106   5.227
 1347SOL     OW 4939   1.063   0.221   6.361
 1347SOL    HW1 4940   1.151   0.248   6.400
 1347SOL    HW2 4941   1.007   0.302   6.343
 1348SOL     OW 4942   0.832   6.518   5.560
 1348SOL    HW1 4943   0.742   6.531   5.518
 1348SOL    HW2 4944   0.869   6.607   5.587
 1349SOL     OW 4945   4.780   2.978   4.040
 1349SOL    HW1 4946   4.706   2.915   4.064
 1349SOL    HW2 4947   4.793   2.978   3.941
 1350SOL     OW 4948   3.807   3.908   0.108
 1350SOL    HW1 4949   3.841   3.989   0.155
 1350SOL    HW2 4950   3.763   3.935   0.022
 1351SOL     OW 4951   6.730   2.492   5.423
 1351SOL    HW1 4952   6.686   2.571   5.381
 1351SOL    HW2 4953   6.787   2.522   5.499
 1352SOL     OW 4954   6.945   0.543   2.163
 1352SOL    HW1 4955   6.896   0.601   2.228
 1352SOL    HW2 4956   6.928   0.447   2.184
 1353SOL     OW 4957   0.546   1.031   0.007
 1353SOL    HW1 4958   0.528   1.080   0.092
 1353SOL    HW2 4959   0.581   0.940   0.028
 1354SOL     OW 4960   5.201   5.207   2.643
 1354SOL    HW1 4961   5.243   5.171   2.725
 1354SOL    HW2 4962   5.144   5.137   2.600
 1355SOL     OW 4963   6.312   3.395   6.043
 1355SOL    HW1 4964   6.331   3.339   5.963
 1355SOL    HW2 4965   6.316   3.492   6.017
 1356SOL     OW 4966   3.175   3.036   0.809
 1356SOL    HW1 4967   3.192   3.082   0.897
 1356SOL    HW2 4968   3.260   2.999   0.773
 1357SOL     OW 4969   0.221   3.587   5.356
 1357SOL    HW1 4970   0.297   3.523   5.341
 1357SOL    HW2 4971   0.146   3.564   5.293
 1358SOL     OW 4972   1.649   6.722   6.647
 1358SOL    HW1 4973   1.569   6.668   6.674
 1358SOL    HW2 4974   1.654   6.805   6.702
 1359SOL     OW 4975   6.998   4.211   1.433
 1359SOL    HW1 4976   6.954   4.136   1.382
 1359SOL    HW2 4977   6.929   4.280   1.456
 1360SOL     OW 4978   2.378   2.364   0.402
 1360SOL    HW1 4979   2.330   2.319   0.478
 1360SOL    HW2 4980   2.352   2.461   0.400
 1361SOL     OW 4981   0.250   5.491   5.023
 1361SOL    HW1 4982   0.165   5.446   5.050
 1361SOL    HW2 4983   0.285   5.448   4.939
 1362SOL     OW 4984   3.146   3.022   3.096
 1362SOL    HW1 4985   3.104   3.051   3.182
 1362SOL    HW2 4986   3.077   3.018   3.025
 1363SOL     OW 4987   1.306   5.641   4.860
 1363SOL    HW1 4988   1.208   5.631   4.845
 1363SOL    HW2 4989   1.355   5.575   4.804
 1364SOL     OW 4990   3.599   3.445   0.885
 1364SOL    HW1 4991   3.561   3.500   0.811
 1364SOL    HW2 4992   3.559   3.353   0.883
 1365SOL     OW 4993   0.298   3.319   6.687
 1365SOL    HW1 4994   0.326   3.235   6.734
 1365SOL    HW2 4995   0.199   3.330   6.695
 1366SOL     OW 4996   2.940   0.385   5.330
 1366SOL    HW1 4997   3.026   0.414   5.287
 1366SOL    HW2 4998   2.916   0.450   5.402
 1367SOL     OW 4999   2.192   1.177   2.798
 1367SOL    HW1 5000   2.169   1.235   2.876
 1367SOL    HW2 5001   2.200   1.234   2.716
 1368SOL     OW 5002   5.298   6.991   3.634
 1368SOL    HW1 5003   5.293   6.900   3.593
 1368SOL    HW2 5004   5.207   0.012   3.631
 1369SOL     OW 5005   0.762   0.941   3.407
 1369SOL    HW1 5006   0.750   1.033   3.370
 1369SOL    HW2 5007   0.852   0.905   3.379
 1370SOL     OW 5008   2.783   0.477   1.392
 1370SOL    HW1 5009   2.729   0.520   1.319
 1370SOL    HW2 5010   2.787   0.538   1.471
 1371SOL     OW 5011   4.340   0.448   6.596
 1371SOL    HW1 5012   4.270   0.481   6.659
 1371SOL    HW2 5013   4.393   0.376   6.640
 1372SOL     OW 5014   3.215   1.978   1.726
 1372SOL    HW1 5015   3.214   2.051   1.795
 1372SOL    HW2 5016   3.255   2.013   1.642
 1373SOL     OW 5017   1.282   5.988   0.912
 1373SOL    HW1 5018   1.194   5.952   0.881
 1373SOL    HW2 5019   1.338   6.012   0.832
 1374SOL     OW 5020   4.872   2.688   0.419
 1374SOL    HW1 5021   4.911   2.597   0.435
 1374SOL    HW2 5022   4.940   2.758   0.443
 1375SOL     OW 5023   0.175   4.046   5.271
 1375SOL    HW1 5024   0.173   4.036   5.371
 1375SOL    HW2 5025   0.081   4.046   5.237
 1376SOL     OW 5026   4.762   1.927   2.737
 1376SOL    HW1 5027   4.861   1.930   2.724
 1376SOL    HW2 5028   4.741   1.887   2.826
 1377SOL     OW 5029   0.516   5.650   4.927
 1377SOL    HW1 5030   0.444   5.713   4.954
 1377SOL    HW2 5031   0.569   5.623   5.007
 1378SOL     OW 5032   2.126   2.181   6.953
 1378SOL    HW1 5033   2.034   2.201   6.919
 1378SOL    HW2 5034   2.194   2.226   6.895
 1379SOL     OW 5035   3.696   5.942   1.164
 1379SOL    HW1 5036   3.615   5.884   1.152
 1379SOL    HW2 5037   3.703   6.004   1.086
 1380SOL     OW 5038   6.514   6.676   2.657
 1380SOL    HW1 5039   6.612   6.677   2.676
 1380SOL    HW2 5040   6.478   6.584   2.670
 1381SOL     OW 5041   6.204   0.530   1.244
 1381SOL    HW1 5042   6.266   0.520   1.166
 1381SOL    HW2 5043   6.111   0.546   1.210
 1382SOL     OW 5044   6.703   4.977   6.271
 1382SOL    HW1 5045   6.779   4.927   6.313
 1382SOL    HW2 5046   6.653   5.026   6.342
 1383SOL     OW 5047   2.682   0.230   0.927
 1383SOL    HW1 5048   2.649   0.215   1.020
 1383SOL    HW2 5049   2.732   0.148   0.896
 1384SOL     OW 5050   2.917   1.707   1.978
 1384SOL    HW1 5051   2.821   1.733   1.972
 1384SOL    HW2 5052   2.933   1.661   2.066
 1385SOL     OW 5053   5.751   3.044   2.914
 1385SOL    HW1 5054   5.674   3.033   2.851
 1385SOL    HW2 5055   5.833   3.069   2.862
 1386SOL     OW 5056   2.133   2.650   4.312
 1386SOL    HW1 5057   2.156   2.742   4.342
 1386SOL    HW2 5058   2.118   2.649   4.213
 1387SOL     OW 5059   2.492   0.615   5.092
 1387SOL    HW1 5060   2.471   0.690   5.029
 1387SOL    HW2 5061   2.534   0.540   5.040
 1388SOL     OW 5062   6.358   1.101   5.137
 1388SOL    HW1 5063   6.304   1.075   5.217
 1388SOL    HW2 5064   6.450   1.126   5.166
 1389SOL     OW 5065   6.714   1.254   4.544
 1389SOL    HW1 5066   6.632   1.210   4.582
 1389SOL    HW2 5067   6.750   1.321   4.610
 1390SOL     OW 5068   4.587   2.606   2.035
 1390SOL    HW1 5069   4.570   2.530   2.098
 1390SOL    HW2 5070   4.506   2.666   2.032
 1391SOL     OW 5071   5.627   1.664   4.562
 1391SOL    HW1 5072   5.672   1.596   4.504
 1391SOL    HW2 5073   5.693   1.700   4.628
 1392SOL     OW 5074   4.482   5.831   5.878
 1392SOL    HW1 5075   4.409   5.773   5.840
 1392SOL    HW2 5076   4.451   5.871   5.964
 1393SOL     OW 5077   5.623   0.416   6.441
 1393SOL    HW1 5078   5.564   0.496   6.440
 1393SOL    HW2 5079   5.658   0.399   6.349
 1394SOL     OW 5080   4.392   0.171   3.906
 1394SOL    HW1 5081   4.424   0.262   3.935
 1394SOL    HW2 5082   4.378   0.171   3.807
 1395SOL     OW 5083   1.471   5.200   2.323
 1395SOL    HW1 5084   1.419   5.128   2.279
 1395SOL    HW2 5085   1.520   5.254   2.254
 1396SOL     OW 5086   1.666   1.573   3.628
 1396SOL    HW1 5087   1.736   1.601   3.694
 1396SOL    HW2 5088   1.700   1.585   3.535
 1397SOL     OW 5089   0.693   5.406   4.840
 1397SOL    HW1 5090   0.661   5.475   4.905
 1397SOL    HW2 5091   0.730   5.328   4.890
 1398SOL     OW 5092   1.732   6.650   7.010
 1398SOL    HW1 5093   1.632   6.652   7.018
 1398SOL    HW2 5094   1.772   6.633   0.079
 1399SOL     OW 5095   4.022   0.315   0.421
 1399SOL    HW1 5096   3.931   0.280   0.444
 1399SOL    HW2 5097   4.015   0.411   0.392
 1400SOL     OW 5098   0.570   0.834   5.014
 1400SOL    HW1 5099   0.647   0.790   4.967
 1400SOL    HW2 5100   0.505   0.764   5.044
 1401SOL     OW 5101   5.400   0.469   2.602
 1401SOL    HW1 5102   5.454   0.547   2.571
 1401SOL    HW2 5103   5.303   0.492   2.598
 1402SOL     OW 5104   6.780   4.599   2.735
 1402SOL    HW1 5105   6.794   4.500   2.747
 1402SOL    HW2 5106   6.867   4.646   2.744
 1403SOL     OW 5107   3.177   3.334   6.254
 1403SOL    HW1 5108   3.208   3.399   6.185
 1403SOL    HW2 5109   3.218   3.356   6.342
 1404SOL     OW 5110   4.181   6.313   0.668
 1404SOL    HW1 5111   4.184   6.235   0.730
 1404SOL    HW2 5112   4.208   6.396   0.718
 1405SOL     OW 5113   0.571   3.881   0.938
 1405SOL    HW1 5114   0.633   3.803   0.949
 1405SOL    HW2 5115   0.496   3.874   1.004
 1406SOL     OW 5116   1.735   3.323   0.235
 1406SOL    HW1 5117   1.668   3.321   0.161
 1406SOL    HW2 5118   1.727   3.240   0.291
 1407SOL     OW 5119   0.391   3.297   1.455
 1407SOL    HW1 5120   0.348   3.363   1.516
 1407SOL    HW2 5121   0.427   3.220   1.507
 1408SOL     OW 5122   5.868   6.674   1.040
 1408SOL    HW1 5123   5.777   6.632   1.030
 1408SOL    HW2 5124   5.938   6.607   1.016
 1409SOL     OW 5125   6.277   1.418   5.851
 1409SOL    HW1 5126   6.230   1.482   5.913
 1409SOL    HW2 5127   6.290   1.462   5.762
 1410SOL     OW 5128   3.380   0.453   6.488
 1410SOL    HW1 5129   3.407   0.495   6.401
 1410SOL    HW2 5130   3.460   0.441   6.546
 1411SOL     OW 5131   3.711   4.823   0.083
 1411SOL    HW1 5132   3.659   4.857   0.161
 1411SOL    HW2 5133   3.746   4.900   0.030
 1412SOL     OW 5134   2.507   2.289   0.069
 1412SOL    HW1 5135   2.482   2.210   0.125
 1412SOL    HW2 5136   2.547   2.360   0.126
 1413SOL     OW 5137   1.935   1.674   5.158
 1413SOL    HW1 5138   1.950   1.658   5.256
 1413SOL    HW2 5139   1.904   1.768   5.145
 1414SOL     OW 5140   0.398   4.831   2.676
 1414SOL    HW1 5141   0.446   4.838   2.763
 1414SOL    HW2 5142   0.437   4.894   2.610
 1415SOL     OW 5143   2.907   1.624   4.863
 1415SOL    HW1 5144   2.909   1.700   4.798
 1415SOL    HW2 5145   2.813   1.592   4.873
 1416SOL     OW 5146   4.670   0.513   4.771
 1416SOL    HW1 5147   4.716   0.544   4.855
 1416SOL    HW2 5148   4.735   0.517   4.695
 1417SOL     OW 5149   3.679   3.386   5.202
 1417SOL    HW1 5150   3.764   3.362   5.248
 1417SOL    HW2 5151   3.601   3.360   5.260
 1418SOL     OW 5152   3.693   4.148   5.836
 1418SOL    HW1 5153   3.773   4.106   5.793
 1418SOL    HW2 5154   3.719   4.236   5.876
 1419SOL     OW 5155   1.807   5.831   1.925
 1419SOL    HW1 5156   1.880   5.763   1.917
 1419SOL    HW2 5157   1.846   5.922   1.915
 1420SOL     OW 5158   2.615   6.363   2.589
 1420SOL    HW1 5159   2.692   6.337   2.530
 1420SOL    HW2 5160   2.562   6.281   2.611
 1421SOL     OW 5161   1.429   5.009   6.112
 1421SOL    HW1 5162   1.390   4.997   6.203
 1421SOL    HW2 5163   1.363   5.057   6.054
 1422SOL     OW 5164   2.200   2.919   6.722
 1422SOL    HW1 5165   2.198   3.016   6.698
 1422SOL    HW2 5166   2.217   2.909   6.821
 1423SOL     OW 5167   4.252   1.069   5.047
 1423SOL    HW1 5168   4.330   1.105   4.994
 1423SOL    HW2 5169   4.167   1.089   4.998
 1424SOL     OW 5170   6.483   3.016   0.901
 1424SOL    HW1 5171   6.456   2.943   0.963
 1424SOL    HW2 5172   6.478   3.104   0.949
 1425SOL     OW 5173   5.263   0.731   3.658
 1425SOL    HW1 5174   5.291   0.802   3.722
 1425SOL    HW2 5175   5.326   0.654   3.663
 1426SOL     OW 5176   3.909   0.939   0.067
 1426SOL    HW1 5177   3.873   0.897   0.151
 1426SOL    HW2 5178   4.002   0.906   0.052
 1427SOL     OW 5179   2.081   0.251   4.179
 1427SOL    HW1 5180   2.059   0.228   4.084
 1427SOL    HW2 5181   2.180   0.259   4.189
 1428SOL     OW 5182   1.304   3.182   4.340
 1428SOL    HW1 5183   1.315   3.166   4.242
 1428SOL    HW2 5184   1.385   3.150   4.388
 1429SOL     OW 5185   6.205   0.647   2.068
 1429SOL    HW1 5186   6.302   0.664   2.082
 1429SOL    HW2 5187   6.161   0.731   2.035
 1430SOL     OW 5188   2.063   3.587   4.805
 1430SOL    HW1 5189   2.024   3.675   4.778
 1430SOL    HW2 5190   2.050   3.521   4.731
 1431SOL     OW 5191   2.973   1.367   0.097
 1431SOL    HW1 5192   3.034   1.303   0.144
 1431SOL    HW2 5193   3.018   1.456   0.089
 1432SOL     OW 5194   3.483   0.299   2.276
 1432SOL    HW1 5195   3.504   0.360   2.353
 1432SOL    HW2 5196   3.418   0.345   2.215
 1433SOL     OW 5197   2.711   1.419   4.175
 1433SOL    HW1 5198   2.615   1.447   4.177
 1433SOL    HW2 5199   2.723   1.346   4.107
 1434SOL     OW 5200   5.508   3.967   0.321
 1434SOL    HW1 5201   5.530   4.018   0.404
 1434SOL    HW2 5202   5.410   3.947   0.320
 1435SOL     OW 5203   1.282   0.014   3.752
 1435SOL    HW1 5204   1.375   6.997   3.754
 1435SOL    HW2 5205   1.287   0.110   3.723
 1436SOL     OW 5206   5.669   1.089   0.348
 1436SOL    HW1 5207   5.622   1.098   0.260
 1436SOL    HW2 5208   5.692   1.180   0.382
 1437SOL     OW 5209   3.743   0.945   0.491
 1437SOL    HW1 5210   3.749   1.044   0.479
 1437SOL    HW2 5211   3.708   0.925   0.583
 1438SOL     OW 5212   2.383   0.713   2.920
 1438SOL    HW1 5213   2.357   0.751   2.831
 1438SOL    HW2 5214   2.448   0.774   2.965
 1439SOL     OW 5215   6.838   4.838   0.139
 1439SOL    HW1 5216   6.783   4.831   0.222
 1439SOL    HW2 5217   6.800   4.909   0.079
 1440SOL     OW 5218   3.412   3.054   2.957
 1440SOL    HW1 5219   3.468   3.023   3.033
 1440SOL    HW2 5220   3.315   3.052   2.984
 1441SOL     OW 5221   6.404   2.390   4.734
 1441SOL    HW1 5222   6.431   2.294   4.739
 1441SOL    HW2 5223   6.310   2.396   4.699
 1442SOL     OW 5224   5.509   6.960   0.163
 1442SOL    HW1 5225   5.419   6.933   0.198
 1442SOL    HW2 5226   5.507   0.036   0.137
 1443SOL     OW 5227   1.033   2.424   3.441
 1443SOL    HW1 5228   0.994   2.439   3.350
 1443SOL    HW2 5229   1.093   2.500   3.465
 1444SOL     OW 5230   5.559   0.325   5.256
 1444SOL    HW1 5231   5.503   0.358   5.180
 1444SOL    HW2 5232   5.563   0.396   5.327
 1445SOL     OW 5233   6.506   1.732   0.716
 1445SOL    HW1 5234   6.424   1.786   0.735
 1445SOL    HW2 5235   6.559   1.721   0.801
 1446SOL     OW 5236   4.031   6.844   1.060
 1446SOL    HW1 5237   4.111   6.841   1.120
 1446SOL    HW2 5238   4.059   6.868   0.968
 1447SOL     OW 5239   5.460   1.491   5.197
 1447SOL    HW1 5240   5.546   1.455   5.160
 1447SOL    HW2 5241   5.466   1.591   5.203
 1448SOL     OW 5242   5.344   0.521   6.845
 1448SOL    HW1 5243   5.395   0.436   6.832
 1448SOL    HW2 5244   5.401   0.587   6.895
 1449SOL     OW 5245   5.003   5.712   0.850
 1449SOL    HW1 5246   4.928   5.715   0.785
 1449SOL    HW2 5247   5.065   5.637   0.826
 1450SOL     OW 5248   5.900   2.423   3.481
 1450SOL    HW1 5249   5.885   2.518   3.452
 1450SOL    HW2 5250   5.828   2.365   3.445
 1451SOL     OW 5251   1.766   7.009   1.933
 1451SOL    HW1 5252   1.847   7.000   1.991
 1451SOL    HW2 5253   1.769   0.075   1.885
 1452SOL     OW 5254   4.444   0.519   5.015
 1452SOL    HW1 5255   4.459   0.420   5.010
 1452SOL    HW2 5256   4.504   0.565   4.950
 1453SOL     OW 5257   4.462   4.624   4.176
 1453SOL    HW1 5258   4.395   4.686   4.218
 1453SOL    HW2 5259   4.548   4.673   4.162
 1454SOL     OW 5260   4.981   4.564   1.053
 1454SOL    HW1 5261   5.033   4.593   1.133
 1454SOL    HW2 5262   5.028   4.487   1.009
 1455SOL     OW 5263   2.392   2.227   1.777
 1455SOL    HW1 5264   2.332   2.306   1.769
 1455SOL    HW2 5265   2.476   2.243   1.725
 1456SOL     OW 5266   6.092   5.482   3.874
 1456SOL    HW1 5267   6.080   5.476   3.973
 1456SOL    HW2 5268   6.052   5.567   3.840
 1457SOL     OW 5269   1.797   6.907   3.723
 1457SOL    HW1 5270   1.868   6.932   3.789
 1457SOL    HW2 5271   1.814   6.952   3.636
 1458SOL     OW 5272   0.206   5.705   0.318
 1458SOL    HW1 5273   0.183   5.648   0.240
 1458SOL    HW2 5274   0.128   5.711   0.380
 1459SOL     OW 5275   2.583   0.129   1.204
 1459SOL    HW1 5276   2.503   0.102   1.258
 1459SOL    HW2 5277   2.665   0.122   1.261
 1460SOL     OW 5278   1.123   6.747   0.175
 1460SOL    HW1 5279   1.103   6.768   0.080
 1460SOL    HW2 5280   1.100   6.826   0.232
 1461SOL     OW 5281   4.574   4.949   1.873
 1461SOL    HW1 5282   4.578   4.872   1.937
 1461SOL    HW2 5283   4.643   5.017   1.897
 1462SOL     OW 5284   5.116   0.469   5.338
 1462SOL    HW1 5285   5.128   0.543   5.404
 1462SOL    HW2 5286   5.166   0.492   5.254
 1463SOL     OW 5287   0.679   1.166   5.191
 1463SOL    HW1 5288   0.727   1.081   5.174
 1463SOL    HW2 5289   0.585   1.159   5.156
 1464SOL     OW 5290   0.189   0.257   1.473
 1464SOL    HW1 5291   0.254   0.289   1.403
 1464SOL    HW2 5292   0.228   0.272   1.564
 1465SOL     OW 5293   0.388   0.166   4.547
 1465SOL    HW1 5294   0.381   0.221   4.464
 1465SOL    HW2 5295   0.356   0.219   4.625
 1466SOL     OW 5296   5.286   5.066   4.531
 1466SOL    HW1 5297   5.303   4.967   4.525
 1466SOL    HW2 5298   5.281   5.104   4.439
 1467SOL     OW 5299   5.935   3.908   2.927
 1467SOL    HW1 5300   6.000   3.982   2.908
 1467SOL    HW2 5301   5.966   3.857   3.008
 1468SOL     OW 5302   5.784   6.632   2.662
 1468SOL    HW1 5303   5.786   6.550   2.605
 1468SOL    HW2 5304   5.861   6.691   2.638
 1469SOL     OW 5305   0.239   1.224   2.199
 1469SOL    HW1 5306   0.327   1.270   2.198
 1469SOL    HW2 5307   0.168   1.286   2.164
 1470SOL     OW 5308   6.923   1.063   3.172
 1470SOL    HW1 5309   6.997   1.081   3.237
 1470SOL    HW2 5310   6.907   1.144   3.116
 1471SOL     OW 5311   6.433   0.227   0.941
 1471SOL    HW1 5312   6.435   0.301   0.873
 1471SOL    HW2 5313   6.526   0.193   0.956
 1472SOL     OW 5314   4.252   5.715   5.421
 1472SOL    HW1 5315   4.271   5.661   5.339
 1472SOL    HW2 5316   4.189   5.789   5.399
 1473SOL     OW 5317   6.263   3.919   3.140
 1473SOL    HW1 5318   6.247   3.967   3.227
 1473SOL    HW2 5319   6.239   3.979   3.064
 1474SOL     OW 5320   4.289   5.245   3.969
 1474SOL    HW1 5321   4.346   5.174   4.011
 1474SOL    HW2 5322   4.234   5.205   3.896
 1475SOL     OW 5323   6.545   0.991   3.435
 1475SOL    HW1 5324   6.465   0.932   3.444
 1475SOL    HW2 5325   6.583   1.008   3.526
 1476SOL     OW 5326   6.341   2.111   1.549
 1476SOL    HW1 5327   6.252   2.156   1.545
 1476SOL    HW2 5328   6.330   2.013   1.536
 1477SOL     OW 5329   3.152   6.256   3.584
 1477SOL    HW1 5330   3.055   6.246   3.562
 1477SOL    HW2 5331   3.202   6.175   3.553
 1478SOL     OW 5332   0.050   4.631   1.606
 1478SOL    HW1 5333   0.074   4.721   1.643
 1478SOL    HW2 5334   0.013   4.573   1.679
 1479SOL     OW 5335   0.731   4.914   0.657
 1479SOL    HW1 5336   0.650   4.921   0.715
 1479SOL    HW2 5337   0.705   4.924   0.561
 1480SOL     OW 5338   3.231   0.723   0.230
 1480SOL    HW1 5339   3.280   0.810   0.220
 1480SOL    HW2 5340   3.183   0.702   0.145
 1481SOL     OW 5341   6.749   2.410   6.405
 1481SOL    HW1 5342   6.752   2.510   6.405
 1481SOL    HW2 5343   6.838   2.373   6.377
 1482SOL     OW 5344   5.404   1.361   6.684
 1482SOL    HW1 5345   5.358   1.357   6.773
 1482SOL    HW2 5346   5.503   1.370   6.698
 1483SOL     OW 5347   6.269   2.518   6.704
 1483SOL    HW1 5348   6.211   2.582   6.653
 1483SOL    HW2 5349   6.230   2.502   6.794
 1484SOL     OW 5350   0.137   6.893   2.710
 1484SOL    HW1 5351   0.156   6.898   2.612
 1484SOL    HW2 5352   0.080   6.971   2.737
 1485SOL     OW 5353   5.763   2.678   4.052
 1485SOL    HW1 5354   5.786   2.752   4.115
 1485SOL    HW2 5355   5.664   2.667   4.049
 1486SOL     OW 5356   5.329   2.387   1.774
 1486SOL    HW1 5357   5.320   2.486   1.790
 1486SOL    HW2 5358   5.384   2.346   1.846
 1487SOL     OW 5359   6.278   1.133   5.768
 1487SOL    HW1 5360   6.330   1.150   5.685
 1487SOL    HW2 5361   6.255   1.220   5.812
 1488SOL     OW 5362   4.449   1.993   3.034
 1488SOL    HW1 5363   4.478   1.898   3.028
 1488SOL    HW2 5364   4.453   2.024   3.129
 1489SOL     OW 5365   3.828   5.180   4.703
 1489SOL    HW1 5366   3.920   5.142   4.689
 1489SOL    HW2 5367   3.778   5.123   4.769
 1490SOL     OW 5368   2.472   2.250   1.117
 1490SOL    HW1 5369   2.399   2.204   1.067
 1490SOL    HW2 5370   2.561   2.220   1.083
 1491SOL     OW 5371   6.606   1.982   5.586
 1491SOL    HW1 5372   6.591   2.077   5.613
 1491SOL    HW2 5373   6.694   1.951   5.623
 1492SOL     OW 5374   5.841   3.026   1.638
 1492SOL    HW1 5375   5.922   2.994   1.589
 1492SOL    HW2 5376   5.763   3.031   1.575
 1493SOL     OW 5377   5.954   1.181   5.175
 1493SOL    HW1 5378   5.910   1.252   5.119
 1493SOL    HW2 5379   6.043   1.215   5.207
 1494SOL     OW 5380   5.690   2.307   4.360
 1494SOL    HW1 5381   5.765   2.307   4.293
 1494SOL    HW2 5382   5.617   2.367   4.328
 1495SOL     OW 5383   1.646   2.428   2.864
 1495SOL    HW1 5384   1.602   2.501   2.812
 1495SOL    HW2 5385   1.617   2.434   2.960
 1496SOL     OW 5386   0.830   0.717   3.269
 1496SOL    HW1 5387   0.785   0.636   3.229
 1496SOL    HW2 5388   0.761   0.774   3.314
 1497SOL     OW 5389   5.093   4.169   5.803
 1497SOL    HW1 5390   5.122   4.097   5.740
 1497SOL    HW2 5391   5.165   4.185   5.871
 1498SOL     OW 5392   2.205   5.618   7.012
 1498SOL    HW1 5393   2.106   5.624   0.008
 1498SOL    HW2 5394   2.222   5.629   6.914
 1499SOL     OW 5395   0.460   4.585   5.021
 1499SOL    HW1 5396   0.527   4.612   4.952
 1499SOL    HW2 5397   0.495   4.508   5.074
 1500SOL     OW 5398   4.600   0.087   5.439
 1500SOL    HW1 5399   4.550   0.035   5.370
 1500SOL    HW2 5400   4.585   0.185   5.424
 1501SOL     OW 5401   4.427   0.191   6.740
 1501SOL    HW1 5402   4.467   0.104   6.767
 1501SOL    HW2 5403   4.329   0.191   6.758
 1502SOL     OW 5404   0.417   6.229   6.930
 1502SOL    HW1 5405   0.377   6.142   6.960
 1502SOL    HW2 5406   0.516   6.228   6.948
 1503SOL     OW 5407   3.597   3.897   5.157
 1503SOL    HW1 5408   3.513   3.889   5.211
 1503SOL    HW2 5409   3.671   3.848   5.202
 1504SOL     OW 5410   2.968   6.339   4.217
 1504SOL    HW1 5411   3.067   6.342   4.221
 1504SOL    HW2 5412   2.933   6.421   4.171
 1505SOL     OW 5413   4.956   5.514   2.567
 1505SOL    HW1 5414   4.880   5.572   2.537
 1505SOL    HW2 5415   4.931   5.418   2.557
 1506SOL     OW 5416   0.706   6.065   2.680
 1506SOL    HW1 5417   0.666   6.157   2.682
 1506SOL    HW2 5418   0.661   6.010   2.610
 1507SOL     OW 5419   2.934   1.592   6.469
 1507SOL    HW1 5420   2.845   1.560   6.438
 1507SOL    HW2 5421   3.004   1.525   6.445
 1508SOL     OW 5422   4.234   0.338   0.607
 1508SOL    HW1 5423   4.158   0.311   0.548
 1508SOL    HW2 5424   4.312   0.365   0.551
 1509SOL     OW 5425   5.232   1.579   0.173
 1509SOL    HW1 5426   5.239   1.678   0.166
 1509SOL    HW2 5427   5.194   1.542   0.088
 1510SOL     OW 5428   0.124   1.966   3.149
 1510SOL    HW1 5429   0.224   1.961   3.150
 1510SOL    HW2 5430   0.090   1.970   3.243
 1511SOL     OW 5431   1.700   2.446   0.727
 1511SOL    HW1 5432   1.699   2.383   0.650
 1511SOL    HW2 5433   1.755   2.407   0.801
 1512SOL     OW 5434   5.996   0.850   2.499
 1512SOL    HW1 5435   6.048   0.783   2.447
 1512SOL    HW2 5436   6.034   0.857   2.591
 1513SOL     OW 5437   3.836   1.042   2.158
 1513SOL    HW1 5438   3.799   1.112   2.098
 1513SOL    HW2 5439   3.930   1.021   2.130
 1514SOL     OW 5440   5.077   0.836   6.290
 1514SOL    HW1 5441   5.098   0.897   6.366
 1514SOL    HW2 5442   4.983   0.802   6.299
 1515SOL     OW 5443   6.301   5.329   4.757
 1515SOL    HW1 5444   6.321   5.238   4.722
 1515SOL    HW2 5445   6.266   5.387   4.683
 1516SOL     OW 5446   0.690   0.842   1.087
 1516SOL    HW1 5447   0.705   0.768   1.153
 1516SOL    HW2 5448   0.776   0.864   1.042
 1517SOL     OW 5449   3.651   4.866   3.586
 1517SOL    HW1 5450   3.685   4.919   3.664
 1517SOL    HW2 5451   3.726   4.848   3.522
 1518SOL     OW 5452   1.109   4.870   1.149
 1518SOL    HW1 5453   1.172   4.837   1.079
 1518SOL    HW2 5454   1.095   4.968   1.137
 1519SOL     OW 5455   6.848   4.009   1.277
 1519SOL    HW1 5456   6.864   3.990   1.180
 1519SOL    HW2 5457   6.761   4.057   1.287
 1520SOL     OW 5458   1.619   2.999   2.642
 1520SOL    HW1 5459   1.550   3.070   2.646
 1520SOL    HW2 5460   1.702   3.031   2.688
 1521SOL     OW 5461   2.820   4.070   5.507
 1521SOL    HW1 5462   2.731   4.077   5.462
 1521SOL    HW2 5463   2.889   4.046   5.439
 1522SOL     OW 5464   1.225   2.784   6.392
 1522SOL    HW1 5465   1.160   2.790   6.467
 1522SOL    HW2 5466   1.196   2.843   6.316
 1523SOL     OW 5467   6.931   1.360   0.366
 1523SOL    HW1 5468   6.989   1.419   0.310
 1523SOL    HW2 5469   6.835   1.377   0.344
 1524SOL     OW 5470   6.248   1.082   3.104
 1524SOL    HW1 5471   6.217   1.046   3.191
 1524SOL    HW2 5472   6.170   1.110   3.048
 1525SOL     OW 5473   4.511   1.451   6.254
 1525SOL    HW1 5474   4.570   1.407   6.185
 1525SOL    HW2 5475   4.560   1.527   6.295
 1526SOL     OW 5476   6.781   1.502   0.067
 1526SOL    HW1 5477   6.777   1.591   0.112
 1526SOL    HW2 5478   6.783   1.515   6.989
 1527SOL     OW 5479   2.788   1.987   5.663
 1527SOL    HW1 5480   2.709   1.953   5.612
 1527SOL    HW2 5481   2.793   2.087   5.654
 1528SOL     OW 5482   4.687   5.812   4.081
 1528SOL    HW1 5483   4.727   5.901   4.106
 1528SOL    HW2 5484   4.713   5.789   3.988
 1529SOL     OW 5485   3.430   1.065   5.184
 1529SOL    HW1 5486   3.390   0.989   5.236
 1529SOL    HW2 5487   3.357   1.130   5.160
 1530SOL     OW 5488   3.437   0.005   1.988
 1530SOL    HW1 5489   3.373   6.958   1.953
 1530SOL    HW2 5490   3.510   0.020   1.921
 1531SOL     OW 5491   6.054   0.384   5.946
 1531SOL    HW1 5492   5.974   0.430   5.985
 1531SOL    HW2 5493   6.065   0.412   5.851
 1532SOL     OW 5494   3.118   2.259   5.397
 1532SOL    HW1 5495   3.148   2.314   5.319
 1532SOL    HW2 5496   3.131   2.162   5.376
 1533SOL     OW 5497   5.667   2.485   0.012
 1533SOL    HW1 5498   5.586   2.511   6.980
 1533SOL    HW2 5499   5.645   2.407   0.071
 1534SOL     OW 5500   6.831   6.894   1.798
 1534SOL    HW1 5501   6.786   6.864   1.882
 1534SOL    HW2 5502   6.769   6.952   1.745
 1535SOL     OW 5503   4.892   5.122   3.742
 1535SOL    HW1 5504   4.880   5.030   3.781
 1535SOL    HW2 5505   4.946   5.115   3.658
 1536SOL     OW 5506   2.896   5.516   3.463
 1536SOL    HW1 5507   2.961   5.559   3.400
 1536SOL    HW2 5508   2.945   5.471   3.537
 1537SOL     OW 5509   2.209   5.718   4.421
 1537SOL    HW1 5510   2.168   5.724   4.512
 1537SOL    HW2 5511   2.309   5.726   4.429
 1538SOL     OW 5512   3.298   5.442   7.000
 1538SOL    HW1 5513   3.373   5.463   0.041
 1538SOL    HW2 5514   3.332   5.389   6.923
 1539SOL     OW 5515   3.272   5.103   1.782
 1539SOL    HW1 5516   3.184   5.141   1.810
 1539SOL    HW2 5517   3.286   5.121   1.684
 1540SOL     OW 5518   6.183   0.149   5.602
 1540SOL    HW1 5519   6.248   0.111   5.667
 1540SOL    HW2 5520   6.206   0.118   5.509
 1541SOL     OW 5521   4.754   1.616   0.606
 1541SOL    HW1 5522   4.822   1.572   0.664
 1541SOL    HW2 5523   4.662   1.598   0.642
 1542SOL     OW 5524   1.000   6.235   0.638
 1542SOL    HW1 5525   0.959   6.232   0.730
 1542SOL    HW2 5526   1.040   6.146   0.617
 1543SOL     OW 5527   3.475   4.089   3.869
 1543SOL    HW1 5528   3.497   4.133   3.956
 1543SOL    HW2 5529   3.557   4.086   3.812
 1544SOL     OW 5530   3.420   3.720   2.802
 1544SOL    HW1 5531   3.517   3.700   2.789
 1544SOL    HW2 5532   3.410   3.804   2.855
 1545SOL     OW 5533   6.477   0.754   4.333
 1545SOL    HW1 5534   6.409   0.734   4.404
 1545SOL    HW2 5535   6.567   0.726   4.365
 1546SOL     OW 5536   0.101   6.362   6.322
 1546SOL    HW1 5537   0.168   6.428   6.286
 1546SOL    HW2 5538   0.071   6.392   6.413
 1547SOL     OW 5539   3.785   6.073   6.953
 1547SOL    HW1 5540   3.839   6.042   6.875
 1547SOL    HW2 5541   3.799   6.171   6.967
 1548SOL     OW 5542   6.142   4.349   3.958
 1548SOL    HW1 5543   6.154   4.370   4.055
 1548SOL    HW2 5544   6.194   4.414   3.903
 1549SOL     OW 5545   6.646   1.738   0.963
 1549SOL    HW1 5546   6.597   1.692   1.037
 1549SOL    HW2 5547   6.738   1.700   0.955
 1550SOL     OW 5548   2.376   5.743   2.655
 1550SOL    HW1 5549   2.344   5.651   2.680
 1550SOL    HW2 5550   2.387   5.748   2.556
 1551SOL     OW 5551   0.733   3.666   0.937
 1551SOL    HW1 5552   0.784   3.708   1.012
 1551SOL    HW2 5553   0.703   3.574   0.964
 1552SOL     OW 5554   1.050   6.774   0.982
 1552SOL    HW1 5555   1.063   6.676   0.965
 1552SOL    HW2 5556   1.068   6.794   1.078
 1553SOL     OW 5557   5.671   1.620   6.047
 1553SOL    HW1 5558   5.657   1.718   6.059
 1553SOL    HW2 5559   5.590   1.571   6.079
 1554SOL     OW 5560   2.472   1.995   1.383
 1554SOL    HW1 5561   2.507   2.084   1.356
 1554SOL    HW2 5562   2.533   1.953   1.450
 1555SOL     OW 5563   4.003   0.856   6.128
 1555SOL    HW1 5564   4.076   0.925   6.125
 1555SOL    HW2 5565   3.984   0.831   6.223
 1556SOL     OW 5566   4.166   2.102   6.977
 1556SOL    HW1 5567   4.143   2.170   6.907
 1556SOL    HW2 5568   4.107   2.115   0.036
 1557SOL     OW 5569   1.559   3.023   0.143
 1557SOL    HW1 5570   1.618   3.013   0.223
 1557SOL    HW2 5571   1.477   3.074   0.169
 1558SOL     OW 5572   5.319   3.118   6.381
 1558SOL    HW1 5573   5.407   3.149   6.416
 1558SOL    HW2 5574   5.303   3.157   6.290
 1559SOL     OW 5575   3.199   5.427   2.894
 1559SOL    HW1 5576   3.119   5.392   2.943
 1559SOL    HW2 5577   3.180   5.517   2.857
 1560SOL     OW 5578   3.930   2.278   1.157
 1560SOL    HW1 5579   3.939   2.206   1.225
 1560SOL    HW2 5580   3.908   2.238   1.068
 1561SOL     OW 5581   5.918   6.178   1.276
 1561SOL    HW1 5582   5.876   6.193   1.186
 1561SOL    HW2 5583   5.853   6.131   1.335
 1562SOL     OW 5584   3.152   0.193   2.680
 1562SOL    HW1 5585   3.053   0.210   2.682
 1562SOL    HW2 5586   3.177   0.135   2.758
 1563SOL     OW 5587   2.126   2.179   4.259
 1563SOL    HW1 5588   2.147   2.264   4.307
 1563SOL    HW2 5589   2.209   2.125   4.248
 1564SOL     OW 5590   0.248   0.873   2.909
 1564SOL    HW1 5591   0.154   0.887   2.942
 1564SOL    HW2 5592   0.278   0.780   2.934
 1565SOL     OW 5593   3.883   1.245   4.427
 1565SOL    HW1 5594   3.938   1.186   4.368
 1565SOL    HW2 5595   3.903   1.341   4.408
 1566SOL     OW 5596   5.813   4.232   3.629
 1566SOL    HW1 5597   5.801   4.200   3.723
 1566SOL    HW2 5598   5.860   4.320   3.630
 1567SOL     OW 5599   5.598   0.518   5.058
 1567SOL    HW1 5600   5.593   0.616   5.074
 1567SOL    HW2 5601   5.512   0.487   5.017
 1568SOL     OW 5602   3.099   4.509   1.357
 1568SOL    HW1 5603   3.036   4.473   1.289
 1568SOL    HW2 5604   3.050   4.573   1.416
 1569SOL     OW 5605   2.995   1.025   2.671
 1569SOL    HW1 5606   2.925   1.082   2.715
 1569SOL    HW2 5607   3.037   0.966   2.740
 1570SOL     OW 5608   3.045   6.057   6.272
 1570SOL    HW1 5609   3.097   5.977   6.243
 1570SOL    HW2 5610   3.007   6.103   6.192
 1571SOL     OW 5611   0.161   3.500   4.017
 1571SOL    HW1 5612   0.132   3.548   4.100
 1571SOL    HW2 5613   0.108   3.416   4.008
 1572SOL     OW 5614   2.984   5.611   2.624
 1572SOL    HW1 5615   2.939   5.683   2.571
 1572SOL    HW2 5616   2.916   5.560   2.676
 1573SOL     OW 5617   5.142   5.959   0.052
 1573SOL    HW1 5618   5.137   5.869   0.095
 1573SOL    HW2 5619   5.234   5.974   0.016
 1574SOL     OW 5620   0.904   4.551   3.388
 1574SOL    HW1 5621   0.923   4.472   3.331
 1574SOL    HW2 5622   0.977   4.619   3.377
 1575SOL     OW 5623   6.713   2.742   0.148
 1575SOL    HW1 5624   6.687   2.671   0.082
 1575SOL    HW2 5625   6.634   2.801   0.166
 1576SOL     OW 5626   1.614   6.549   1.283
 1576SOL    HW1 5627   1.576   6.607   1.355
 1576SOL    HW2 5628   1.612   6.453   1.313
 1577SOL     OW 5629   4.000   5.858   4.774
 1577SOL    HW1 5630   4.099   5.847   4.765
 1577SOL    HW2 5631   3.962   5.887   4.686
 1578SOL     OW 5632   5.086   1.334   1.806
 1578SOL    HW1 5633   5.062   1.286   1.722
 1578SOL    HW2 5634   5.090   1.433   1.789
 1579SOL     OW 5635   1.522   2.722   1.925
 1579SOL    HW1 5636   1.427   2.723   1.956
 1579SOL    HW2 5637   1.526   2.744   1.828
 1580SOL     OW 5638   2.898   3.635   2.705
 1580SOL    HW1 5639   2.995   3.614   2.718
 1580SOL    HW2 5640   2.846   3.603   2.783
 1581SOL     OW 5641   6.364   4.316   5.856
 1581SOL    HW1 5642   6.433   4.373   5.812
 1581SOL    HW2 5643   6.273   4.343   5.824
 1582SOL     OW 5644   4.669   6.144   5.137
 1582SOL    HW1 5645   4.599   6.077   5.110
 1582SOL    HW2 5646   4.711   6.116   5.223
 1583SOL     OW 5647   1.133   5.273   5.507
 1583SOL    HW1 5648   1.229   5.286   5.480
 1583SOL    HW2 5649   1.078   5.348   5.471
 1584SOL     OW 5650   6.784   3.967   0.317
 1584SOL    HW1 5651   6.826   3.973   0.407
 1584SOL    HW2 5652   6.719   3.891   0.315
 1585SOL     OW 5653   4.096   6.643   3.602
 1585SOL    HW1 5654   3.997   6.640   3.618
 1585SOL    HW2 5655   4.116   6.701   3.523
 1586SOL     OW 5656   3.771   6.135   3.465
 1586SOL    HW1 5657   3.831   6.190   3.525
 1586SOL    HW2 5658   3.719   6.071   3.520
 1587SOL     OW 5659   2.764   6.686   6.639
 1587SOL    HW1 5660   2.752   6.593   6.675
 1587SOL    HW2 5661   2.686   6.743   6.666
 1588SOL     OW 5662   6.631   1.541   3.703
 1588SOL    HW1 5663   6.658   1.596   3.782
 1588SOL    HW2 5664   6.704   1.476   3.680
 1589SOL     OW 5665   6.463   4.055   3.848
 1589SOL    HW1 5666   6.377   4.014   3.817
 1589SOL    HW2 5667   6.506   3.994   3.915
 1590SOL     OW 5668   6.890   2.365   3.873
 1590SOL    HW1 5669   6.911   2.268   3.861
 1590SOL    HW2 5670   6.965   2.409   3.923
 1591SOL     OW 5671   1.408   5.914   1.355
 1591SOL    HW1 5672   1.370   5.906   1.262
 1591SOL    HW2 5673   1.476   5.988   1.356
 1592SOL     OW 5674   0.027   3.942   6.177
 1592SOL    HW1 5675   0.083   3.969   6.099
 1592SOL    HW2 5676   6.992   4.019   6.206
 1593SOL     OW 5677   3.601   6.653   0.026
 1593SOL    HW1 5678   3.686   6.628   7.000
 1593SOL    HW2 5679   3.602   6.751   0.046
 1594SOL     OW 5680   5.848   0.499   2.698
 1594SOL    HW1 5681   5.893   0.582   2.732
 1594SOL    HW2 5682   5.918   0.436   2.664
 1595SOL     OW 5683   0.388   3.531   6.970
 1595SOL    HW1 5684   0.472   3.562   6.926
 1595SOL    HW2 5685   0.310   3.552   6.911
 1596SOL     OW 5686   4.712   5.034   3.442
 1596SOL    HW1 5687   4.671   4.964   3.384
 1596SOL    HW2 5688   4.660   5.043   3.527
 1597SOL     OW 5689   4.167   6.023   0.297
 1597SOL    HW1 5690   4.139   5.978   0.382
 1597SOL    HW2 5691   4.107   5.993   0.222
 1598SOL     OW 5692   1.372   4.979   6.382
 1598SOL    HW1 5693   1.337   4.904   6.438
 1598SOL    HW2 5694   1.308   5.056   6.386
 1599SOL     OW 5695   4.175   5.429   3.069
 1599SOL    HW1 5696   4.169   5.529   3.068
 1599SOL    HW2 5697   4.258   5.400   3.022
 1600SOL     OW 5698   3.732   0.389   2.215
 1600SOL    HW1 5699   3.635   0.379   2.237
 1600SOL    HW2 5700   3.765   0.477   2.250
 1601SOL     OW 5701   6.541   0.981   4.958
 1601SOL    HW1 5702   6.484   1.032   5.022
 1601SOL    HW2 5703   6.497   0.895   4.934
 1602SOL     OW 5704   4.060   6.155   3.947
 1602SOL    HW1 5705   4.068   6.152   3.847
 1602SOL    HW2 5706   3.989   6.220   3.973
 1603SOL     OW 5707   3.297   5.081   3.188
 1603SOL    HW1 5708   3.360   5.020   3.236
 1603SOL    HW2 5709   3.327   5.093   3.093
 1604SOL     OW 5710   4.471   5.117   2.257
 1604SOL    HW1 5711   4.464   5.193   2.322
 1604SOL    HW2 5712   4.455   5.152   2.164
 1605SOL     OW 5713   4.864   5.117   0.822
 1605SOL    HW1 5714   4.870   5.119   0.722
 1605SOL    HW2 5715   4.868   5.211   0.857
 1606SOL     OW 5716   3.336   5.915   4.504
 1606SOL    HW1 5717   3.304   5.824   4.532
 1606SOL    HW2 5718   3.402   5.905   4.429
 1607SOL     OW 5719   4.475   5.378   3.428
 1607SOL    HW1 5720   4.478   5.313   3.504
 1607SOL    HW2 5721   4.476   5.471   3.464
 1608SOL     OW 5722   5.051   1.846   3.695
 1608SOL    HW1 5723   5.018   1.796   3.615
 1608SOL    HW2 5724   5.103   1.785   3.753
 1609SOL     OW 5725   2.711   6.459   1.078
 1609SOL    HW1 5726   2.786   6.396   1.098
 1609SOL    HW2 5727   2.742   6.553   1.094
 1610SOL     OW 5728   5.670   0.187   1.010
 1610SOL    HW1 5729   5.662   0.099   1.057
 1610SOL    HW2 5730   5.762   0.223   1.023
 1611SOL     OW 5731   1.548   4.651   0.228
 1611SOL    HW1 5732   1.628   4.676   0.282
 1611SOL    HW2 5733   1.467   4.694   0.268
 1612SOL     OW 5734   4.452   0.341   2.479
 1612SOL    HW1 5735   4.361   0.318   2.445
 1612SOL    HW2 5736   4.471   0.437   2.458
 1613SOL     OW 5737   6.413   5.591   2.443
 1613SOL    HW1 5738   6.320   5.627   2.446
 1613SOL    HW2 5739   6.456   5.603   2.533
 1614SOL     OW 5740   6.290   1.250   6.215
 1614SOL    HW1 5741   6.335   1.236   6.304
 1614SOL    HW2 5742   6.359   1.255   6.144
 1615SOL     OW 5743   0.037   3.839   6.594
 1615SOL    HW1 5744   6.972   3.839   6.543
 1615SOL    HW2 5745   0.019   3.864   6.689
 1616SOL     OW 5746   0.980   0.974   3.922
 1616SOL    HW1 5747   1.070   0.996   3.884
 1616SOL    HW2 5748   0.985   0.974   4.022
 1617SOL     OW 5749   6.096   6.291   3.012
 1617SOL    HW1 5750   6.041   6.224   3.062
 1617SOL    HW2 5751   6.080   6.382   3.048
 1618SOL     OW 5752   3.529   5.526   3.486
 1618SOL    HW1 5753   3.438   5.556   3.458
 1618SOL    HW2 5754   3.561   5.456   3.422
 1619SOL     OW 5755   1.261   4.479   0.073
 1619SOL    HW1 5756   1.193   4.553   0.076
 1619SOL    HW2 5757   1.352   4.518   0.066
 1620SOL     OW 5758   3.520   5.677   4.874
 1620SOL    HW1 5759   3.574   5.645   4.951
 1620SOL    HW2 5760   3.577   5.680   4.792
 1621SOL     OW 5761   5.096   5.990   0.395
 1621SOL    HW1 5762   5.172   5.943   0.440
 1621SOL    HW2 5763   5.131   6.065   0.340
 1622SOL     OW 5764   6.720   4.200   4.621
 1622SOL    HW1 5765   6.726   4.297   4.644
 1622SOL    HW2 5766   6.734   4.188   4.523
 1623SOL     OW 5767   6.741   1.872   3.147
 1623SOL    HW1 5768   6.812   1.908   3.087
 1623SOL    HW2 5769   6.690   1.948   3.188
 1624SOL     OW 5770   3.430   2.909   0.887
 1624SOL    HW1 5771   3.387   2.826   0.849
 1624SOL    HW2 5772   3.527   2.909   0.862
 1625SOL     OW 5773   0.413   6.575   1.051
 1625SOL    HW1 5774   0.346   6.503   1.031
 1625SOL    HW2 5775   0.387   6.622   1.135
 1626SOL     OW 5776   2.427   1.931   1.765
 1626SOL    HW1 5777   2.496   1.922   1.692
 1626SOL    HW2 5778   2.412   2.027   1.785
 1627SOL     OW 5779   3.726   2.065   5.535
 1627SOL    HW1 5780   3.677   1.977   5.536
 1627SOL    HW2 5781   3.790   2.067   5.611
 1628SOL     OW 5782   5.591   6.596   1.038
 1628SOL    HW1 5783   5.527   6.655   1.088
 1628SOL    HW2 5784   5.547   6.507   1.021
 1629SOL     OW 5785   1.869   0.256   3.800
 1629SOL    HW1 5786   1.790   0.216   3.847
 1629SOL    HW2 5787   1.953   0.215   3.834
 1630SOL     OW 5788   0.395   3.903   6.283
 1630SOL    HW1 5789   0.482   3.952   6.270
 1630SOL    HW2 5790   0.408   3.829   6.349
 1631SOL     OW 5791   6.605   3.751   0.301
 1631SOL    HW1 5792   6.633   3.656   0.311
 1631SOL    HW2 5793   6.541   3.759   0.224
 1632SOL     OW 5794   6.708   5.931   2.360
 1632SOL    HW1 5795   6.753   5.868   2.297
 1632SOL    HW2 5796   6.751   6.021   2.354
 1633SOL     OW 5797   5.650   3.633   4.724
 1633SOL    HW1 5798   5.709   3.552   4.735
 1633SOL    HW2 5799   5.574   3.627   4.789
 1634SOL     OW 5800   6.676   1.810   5.340
 1634SOL    HW1 5801   6.665   1.812   5.440
 1634SOL    HW2 5802   6.626   1.887   5.300
 1635SOL     OW 5803   3.707   5.952   3.268
 1635SOL    HW1 5804   3.731   6.007   3.188
 1635SOL    HW2 5805   3.716   6.006   3.351
 1636SOL     OW 5806   6.329   6.157   1.335
 1636SOL    HW1 5807   6.357   6.078   1.390
 1636SOL    HW2 5808   6.403   6.183   1.274
 1637SOL     OW 5809   0.629   1.024   2.778
 1637SOL    HW1 5810   0.691   1.097   2.751
 1637SOL    HW2 5811   0.637   0.947   2.714
 1638SOL     OW 5812   5.889   2.583   2.046
 1638SOL    HW1 5813   5.964   2.562   1.984
 1638SOL    HW2 5814   5.818   2.634   1.996
 1639SOL     OW 5815   5.480   2.767   2.129
 1639SOL    HW1 5816   5.551   2.714   2.174
 1639SOL    HW2 5817   5.408   2.789   2.195
 1640SOL     OW 5818   6.500   6.966   6.643
 1640SOL    HW1 5819   6.431   6.962   6.715
 1640SOL    HW2 5820   6.520   0.040   6.621
 1641SOL     OW 5821   6.099   2.102   3.127
 1641SOL    HW1 5822   6.015   2.125   3.078
 1641SOL    HW2 5823   6.082   2.025   3.188
 1642SOL     OW 5824   0.083   2.736   6.258
 1642SOL    HW1 5825   0.013   2.702   6.195
 1642SOL    HW2 5826   0.053   2.723   6.352
 1643SOL     OW 5827   2.060   5.747   3.803
 1643SOL    HW1 5828   2.013   5.664   3.776
 1643SOL    HW2 5829   2.014   5.827   3.763
 1644SOL     OW 5830   6.121   2.855   1.772
 1644SOL    HW1 5831   6.021   2.844   1.773
 1644SOL    HW2 5832   6.143   2.952   1.762
 1645SOL     OW 5833   2.003   0.622   5.843
 1645SOL    HW1 5834   1.962   0.637   5.753
 1645SOL    HW2 5835   2.095   0.584   5.832
 1646SOL     OW 5836   1.317   4.795   0.324
 1646SOL    HW1 5837   1.264   4.711   0.329
 1646SOL    HW2 5838   1.324   4.837   0.415
 1647SOL     OW 5839   5.622   3.099   4.440
 1647SOL    HW1 5840   5.589   3.005   4.455
 1647SOL    HW2 5841   5.565   3.163   4.492
 1648SOL     OW 5842   5.582   6.063   1.350
 1648SOL    HW1 5843   5.488   6.098   1.352
 1648SOL    HW2 5844   5.593   6.001   1.272
 1649SOL     OW 5845   3.810   0.919   2.967
 1649SOL    HW1 5846   3.764   0.994   2.919
 1649SOL    HW2 5847   3.835   0.949   3.059
 1650SOL     OW 5848   2.540   4.152   6.468
 1650SOL    HW1 5849   2.520   4.093   6.390
 1650SOL    HW2 5850   2.473   4.227   6.470
 1651SOL     OW 5851   0.763   2.837   3.922
 1651SOL    HW1 5852   0.851   2.882   3.936
 1651SOL    HW2 5853   0.760   2.752   3.976
 1652SOL     OW 5854   0.416   3.262   1.839
 1652SOL    HW1 5855   0.398   3.361   1.843
 1652SOL    HW2 5856   0.493   3.239   1.898
 1653SOL     OW 5857   0.109   4.905   2.632
 1653SOL    HW1 5858   0.202   4.868   2.631
 1653SOL    HW2 5859   0.105   4.985   2.692
 1654SOL     OW 5860   0.222   2.779   2.379
 1654SOL    HW1 5861   0.291   2.794   2.308
 1654SOL    HW2 5862   0.231   2.849   2.449
 1655SOL     OW 5863   6.864   0.550   5.052
 1655SOL    HW1 5864   6.828   0.494   5.126
 1655SOL    HW2 5865   6.891   0.640   5.088
 1656SOL     OW 5866   1.937   4.270   3.167
 1656SOL    HW1 5867   1.983   4.333   3.105
 1656SOL    HW2 5868   1.890   4.199   3.114
 1657SOL     OW 5869   0.496   6.727   5.669
 1657SOL    HW1 5870   0.408   6.699   5.630
 1657SOL    HW2 5871   0.569   6.708   5.603
 1658SOL     OW 5872   5.628   6.760   5.888
 1658SOL    HW1 5873   5.542   6.722   5.855
 1658SOL    HW2 5874   5.654   6.838   5.831
 1659SOL     OW 5875   4.224   6.845   6.332
 1659SOL    HW1 5876   4.245   6.812   6.424
 1659SOL    HW2 5877   4.125   6.844   6.318
 1660SOL     OW 5878   2.097   0.949   2.032
 1660SOL    HW1 5879   2.038   1.025   2.005
 1660SOL    HW2 5880   2.044   0.881   2.083
 1661SOL     OW 5881   5.113   4.607   2.991
 1661SOL    HW1 5882   5.033   4.640   2.941
 1661SOL    HW2 5883   5.098   4.618   3.089
 1662SOL     OW 5884   0.291   1.779   3.855
 1662SOL    HW1 5885   0.313   1.730   3.940
 1662SOL    HW2 5886   0.264   1.713   3.785
 1663SOL     OW 5887   5.034   4.971   0.326
 1663SOL    HW1 5888   5.009   5.044   0.261
 1663SOL    HW2 5889   5.134   4.961   0.327
 1664SOL     OW 5890   1.115   6.968   5.855
 1664SOL    HW1 5891   1.041   7.014   5.904
 1664SOL    HW2 5892   1.187   0.013   5.833
 1665SOL     OW 5893   3.117   4.259   0.385
 1665SOL    HW1 5894   3.105   4.289   0.480
 1665SOL    HW2 5895   3.215   4.249   0.366
 1666SOL     OW 5896   5.387   6.707   5.747
 1666SOL    HW1 5897   5.390   6.778   5.676
 1666SOL    HW2 5898   5.324   6.735   5.819
 1667SOL     OW 5899   0.171   6.294   1.273
 1667SOL    HW1 5900   0.072   6.284   1.280
 1667SOL    HW2 5901   0.194   6.321   1.179
 1668SOL     OW 5902   6.023   4.027   2.626
 1668SOL    HW1 5903   6.086   3.974   2.569
 1668SOL    HW2 5904   5.930   4.015   2.593
 1669SOL     OW 5905   6.290   3.856   5.617
 1669SOL    HW1 5906   6.323   3.830   5.526
 1669SOL    HW2 5907   6.213   3.798   5.643
 1670SOL     OW 5908   2.248   4.510   6.283
 1670SOL    HW1 5909   2.270   4.468   6.371
 1670SOL    HW2 5910   2.183   4.451   6.234
 1671SOL     OW 5911   6.128   2.018   1.068
 1671SOL    HW1 5912   6.070   2.085   1.022
 1671SOL    HW2 5913   6.109   2.020   1.167
 1672SOL     OW 5914   0.520   2.805   0.861
 1672SOL    HW1 5915   0.602   2.794   0.917
 1672SOL    HW2 5916   0.457   2.869   0.904
 1673SOL     OW 5917   1.640   0.251   4.261
 1673SOL    HW1 5918   1.649   0.260   4.360
 1673SOL    HW2 5919   1.715   0.196   4.225
 1674SOL     OW 5920   4.743   1.770   2.492
 1674SOL    HW1 5921   4.659   1.749   2.541
 1674SOL    HW2 5922   4.804   1.823   2.552
 1675SOL     OW 5923   5.231   0.396   1.775
 1675SOL    HW1 5924   5.175   0.363   1.850
 1675SOL    HW2 5925   5.174   0.412   1.694
 1676SOL     OW 5926   1.251   2.387   2.758
 1676SOL    HW1 5927   1.277   2.291   2.769
 1676SOL    HW2 5928   1.221   2.424   2.846
 1677SOL     OW 5929   3.838   2.968   3.593
 1677SOL    HW1 5930   3.806   3.053   3.551
 1677SOL    HW2 5931   3.772   2.938   3.662
 1678SOL     OW 5932   1.539   0.184   1.121
 1678SOL    HW1 5933   1.573   0.254   1.057
 1678SOL    HW2 5934   1.550   0.093   1.080
 1679SOL     OW 5935   0.241   1.977   6.686
 1679SOL    HW1 5936   0.312   2.017   6.628
 1679SOL    HW2 5937   0.212   2.045   6.754
 1680SOL     OW 5938   5.618   2.720   3.439
 1680SOL    HW1 5939   5.690   2.681   3.381
 1680SOL    HW2 5940   5.618   2.673   3.527
 1681SOL     OW 5941   2.809   6.462   4.603
 1681SOL    HW1 5942   2.833   6.554   4.572
 1681SOL    HW2 5943   2.739   6.469   4.675
 1682SOL     OW 5944   3.552   0.082   4.080
 1682SOL    HW1 5945   3.645   0.112   4.060
 1682SOL    HW2 5946   3.487   0.143   4.034
 1683SOL     OW 5947   6.171   4.404   2.937
 1683SOL    HW1 5948   6.225   4.432   2.857
 1683SOL    HW2 5949   6.076   4.389   2.908
 1684SOL     OW 5950   2.557   4.655   1.937
 1684SOL    HW1 5951   2.566   4.671   1.839
 1684SOL    HW2 5952   2.648   4.641   1.976
 1685SOL     OW 5953   0.320   1.002   5.688
 1685SOL    HW1 5954   0.261   1.061   5.632
 1685SOL    HW2 5955   0.298   0.906   5.669
 1686SOL     OW 5956   4.430   5.447   2.956
 1686SOL    HW1 5957   4.448   5.493   3.042
 1686SOL    HW2 5958   4.437   5.348   2.969
 1687SOL     OW 5959   5.145   4.456   1.583
 1687SOL    HW1 5960   5.241   4.440   1.562
 1687SOL    HW2 5961   5.090   4.438   1.502
 1688SOL     OW 5962   1.361   0.876   2.437
 1688SOL    HW1 5963   1.397   0.968   2.453
 1688SOL    HW2 5964   1.302   0.876   2.356
 1689SOL     OW 5965   4.583   0.387   1.497
 1689SOL    HW1 5966   4.544   0.358   1.584
 1689SOL    HW2 5967   4.616   0.481   1.505
 1690SOL     OW 5968   0.526   5.378   3.634
 1690SOL    HW1 5969   0.534   5.464   3.583
 1690SOL    HW2 5970   0.434   5.370   3.672
 1691SOL     OW 5971   4.362   2.471   5.368
 1691SOL    HW1 5972   4.334   2.401   5.433
 1691SOL    HW2 5973   4.282   2.521   5.336
 1692SOL     OW 5974   4.920   4.632   1.631
 1692SOL    HW1 5975   4.968   4.699   1.687
 1692SOL    HW2 5976   4.984   4.563   1.599
 1693SOL     OW 5977   5.667   0.046   5.167
 1693SOL    HW1 5978   5.600   0.094   5.112
 1693SOL    HW2 5979   5.639   0.047   5.263
 1694SOL     OW 5980   4.671   1.819   5.941
 1694SOL    HW1 5981   4.740   1.748   5.956
 1694SOL    HW2 5982   4.580   1.779   5.942
 1695SOL     OW 5983   4.014   0.751   6.812
 1695SOL    HW1 5984   4.051   0.823   6.753
 1695SOL    HW2 5985   3.915   0.757   6.815
 1696SOL     OW 5986   5.378   6.474   0.628
 1696SOL    HW1 5987   5.396   6.481   0.530
 1696SOL    HW2 5988   5.306   6.407   0.644
 1697SOL     OW 5989   5.012   2.878   2.022
 1697SOL    HW1 5990   5.101   2.899   1.983
 1697SOL    HW2 5991   4.947   2.949   1.996
 1698SOL     OW 5992   4.595   0.840   1.542
 1698SOL    HW1 5993   4.583   0.757   1.597
 1698SOL    HW2 5994   4.542   0.914   1.583
 1699SOL     OW 5995   2.429   0.322   0.250
 1699SOL    HW1 5996   2.388   0.261   0.183
 1699SOL    HW2 5997   2.425   0.279   0.340
 1700SOL     OW 5998   5.582   2.830   2.782
 1700SOL    HW1 5999   5.523   2.750   2.768
 1700SOL    HW2 6000   5.597   2.875   2.694
 1701SOL     OW 6001   6.939   6.233   5.059
 1701SOL    HW1 6002   6.962   6.147   5.014
 1701SOL    HW2 6003   6.996   6.307   5.021
 1702SOL     OW 6004   2.193   2.079   6.622
 1702SOL    HW1 6005   2.216   2.048   6.530
 1702SOL    HW2 6006   2.144   2.166   6.618
 1703SOL     OW 6007   1.697   1.646   1.807
 1703SOL    HW1 6008   1.605   1.633   1.844
 1703SOL    HW2 6009   1.718   1.744   1.805
 1704SOL     OW 6010   3.279   1.744   0.911
 1704SOL    HW1 6011   3.285   1.834   0.868
 1704SOL    HW2 6012   3.185   1.729   0.943
 1705SOL     OW 6013   3.958   2.480   0.600
 1705SOL    HW1 6014   4.042   2.485   0.654
 1705SOL    HW2 6015   3.910   2.567   0.605
 1706SOL     OW 6016   5.925   2.429   6.521
 1706SOL    HW1 6017   5.848   2.473   6.566
 1706SOL    HW2 6018   5.966   2.361   6.583
 1707SOL     OW 6019   4.414   1.804   2.186
 1707SOL    HW1 6020   4.465   1.761   2.112
 1707SOL    HW2 6021   4.316   1.793   2.170
 1708SOL     OW 6022   3.480   5.039   2.362
 1708SOL    HW1 6023   3.521   5.128   2.381
 1708SOL    HW2 6024   3.499   5.013   2.267
 1709SOL     OW 6025   4.564   5.473   0.756
 1709SOL    HW1 6026   4.557   5.415   0.675
 1709SOL    HW2 6027   4.549   5.417   0.838
 1710SOL     OW 6028   4.863   4.908   3.017
 1710SOL    HW1 6029   4.818   4.818   3.014
 1710SOL    HW2 6030   4.909   4.918   3.105
 1711SOL     OW 6031   4.140   5.187   6.828
 1711SOL    HW1 6032   4.094   5.197   6.916
 1711SOL    HW2 6033   4.180   5.275   6.801
 1712SOL     OW 6034   0.646   1.642   1.941
 1712SOL    HW1 6035   0.657   1.606   1.848
 1712SOL    HW2 6036   0.591   1.726   1.937
 1713SOL     OW 6037   3.684   1.144   2.879
 1713SOL    HW1 6038   3.767   1.184   2.841
 1713SOL    HW2 6039   3.663   1.186   2.967
 1714SOL     OW 6040   3.371   3.703   0.280
 1714SOL    HW1 6041   3.291   3.748   0.240
 1714SOL    HW2 6042   3.387   3.616   0.234
 1715SOL     OW 6043   2.250   6.233   2.521
 1715SOL    HW1 6044   2.335   6.182   2.522
 1715SOL    HW2 6045   2.257   6.311   2.584
 1716SOL     OW 6046   4.409   1.276   3.495
 1716SOL    HW1 6047   4.382   1.264   3.591
 1716SOL    HW2 6048   4.370   1.361   3.460
 1717SOL     OW 6049   3.265   6.313   4.943
 1717SOL    HW1 6050   3.298   6.221   4.966
 1717SOL    HW2 6051   3.332   6.359   4.886
 1718SOL     OW 6052   1.041   2.987   1.726
 1718SOL    HW1 6053   1.127   2.937   1.722
 1718SOL    HW2 6054   0.965   2.924   1.711
 1719SOL     OW 6055   0.937   5.632   2.687
 1719SOL    HW1 6056   1.012   5.624   2.622
 1719SOL    HW2 6057   0.967   5.602   2.777
 1720SOL     OW 6058   0.753   3.472   5.786
 1720SOL    HW1 6059   0.662   3.437   5.762
 1720SOL    HW2 6060   0.807   3.398   5.827
 1721SOL     OW 6061   1.450   2.365   0.435
 1721SOL    HW1 6062   1.471   2.463   0.429
 1721SOL    HW2 6063   1.530   2.312   0.407
 1722SOL     OW 6064   2.537   2.336   3.976
 1722SOL    HW1 6065   2.572   2.304   4.065
 1722SOL    HW2 6066   2.495   2.426   3.987
 1723SOL     OW 6067   5.762   4.432   1.068
 1723SOL    HW1 6068   5.806   4.517   1.037
 1723SOL    HW2 6069   5.824   4.355   1.054
 1724SOL     OW 6070   5.933   2.749   1.277
 1724SOL    HW1 6071   5.875   2.746   1.195
 1724SOL    HW2 6072   6.023   2.784   1.252
 1725SOL     OW 6073   1.790   6.271   6.440
 1725SOL    HW1 6074   1.875   6.272   6.388
 1725SOL    HW2 6075   1.796   6.202   6.512
 1726SOL     OW 6076   5.586   4.160   2.731
 1726SOL    HW1 6077   5.524   4.169   2.653
 1726SOL    HW2 6078   5.607   4.250   2.768
 1727SOL     OW 6079   3.146   4.072   3.293
 1727SOL    HW1 6080   3.184   4.122   3.216
 1727SOL    HW2 6081   3.212   4.003   3.325
 1728SOL     OW 6082   5.207   2.572   4.276
 1728SOL    HW1 6083   5.121   2.550   4.321
 1728SOL    HW2 6084   5.231   2.500   4.212
 1729SOL     OW 6085   1.174   2.425   3.021
 1729SOL    HW1 6086   1.123   2.469   3.095
 1729SOL    HW2 6087   1.269   2.413   3.049
 1730SOL     OW 6088   2.031   5.367   4.161
 1730SOL    HW1 6089   2.105   5.434   4.172
 1730SOL    HW2 6090   1.979   5.360   4.246
 1731SOL     OW 6091   6.158   5.101   3.402
 1731SOL    HW1 6092   6.195   5.021   3.354
 1731SOL    HW2 6093   6.059   5.106   3.386
 1732SOL     OW 6094   2.398   3.449   5.618
 1732SOL    HW1 6095   2.426   3.431   5.524
 1732SOL    HW2 6096   2.368   3.364   5.661
 1733SOL     OW 6097   1.847   3.240   5.958
 1733SOL    HW1 6098   1.944   3.255   5.978
 1733SOL    HW2 6099   1.797   3.231   6.044
 1734SOL     OW 6100   6.549   3.046   0.525
 1734SOL    HW1 6101   6.508   3.087   0.606
 1734SOL    HW2 6102   6.563   2.948   0.541
 1735SOL     OW 6103   3.935   5.570   6.261
 1735SOL    HW1 6104   3.899   5.508   6.190
 1735SOL    HW2 6105   4.002   5.631   6.219
 1736SOL     OW 6106   5.028   2.443   0.216
 1736SOL    HW1 6107   5.001   2.448   0.313
 1736SOL    HW2 6108   4.955   2.398   0.164
 1737SOL     OW 6109   4.179   1.778   5.591
 1737SOL    HW1 6110   4.109   1.840   5.628
 1737SOL    HW2 6111   4.182   1.786   5.492
 1738SOL     OW 6112   2.109   3.416   4.200
 1738SOL    HW1 6113   2.197   3.384   4.166
 1738SOL    HW2 6114   2.068   3.346   4.259
 1739SOL     OW 6115   5.980   0.537   3.463
 1739SOL    HW1 6116   6.030   0.482   3.396
 1739SOL    HW2 6117   5.888   0.499   3.477
 1740SOL     OW 6118   6.365   3.430   4.880
 1740SOL    HW1 6119   6.418   3.459   4.800
 1740SOL    HW2 6120   6.322   3.510   4.923
 1741SOL     OW 6121   0.035   1.731   4.789
 1741SOL    HW1 6122   7.010   1.763   4.705
 1741SOL    HW2 6123   6.988   1.694   4.852
 1742SOL     OW 6124   6.486   6.377   6.463
 1742SOL    HW1 6125   6.501   6.475   6.474
 1742SOL    HW2 6126   6.486   6.353   6.366
 1743SOL     OW 6127   1.464   1.376   2.177
 1743SOL    HW1 6128   1.379   1.337   2.143
 1743SOL    HW2 6129   1.454   1.400   2.274
 1744SOL     OW 6130   3.671   2.080   4.842
 1744SOL    HW1 6131   3.713   2.088   4.752
 1744SOL    HW2 6132   3.719   2.139   4.907
 1745SOL     OW 6133   5.993   6.662   1.324
 1745SOL    HW1 6134   6.061   6.634   1.257
 1745SOL    HW2 6135   5.907   6.682   1.277
 1746SOL     OW 6136   2.578   4.612   3.336
 1746SOL    HW1 6137   2.643   4.670   3.385
 1746SOL    HW2 6138   2.579   4.635   3.239
 1747SOL     OW 6139   4.133   0.453   2.697
 1747SOL    HW1 6140   4.104   0.455   2.792
 1747SOL    HW2 6141   4.190   0.373   2.681
 1748SOL     OW 6142   6.649   2.883   4.874
 1748SOL    HW1 6143   6.594   2.923   4.802
 1748SOL    HW2 6144   6.738   2.928   4.877
 1749SOL     OW 6145   0.696   5.032   1.562
 1749SOL    HW1 6146   0.740   5.089   1.631
 1749SOL    HW2 6147   0.752   5.029   1.480
 1750SOL     OW 6148   3.729   6.658   6.551
 1750SOL    HW1 6149   3.828   6.649   6.562
 1750SOL    HW2 6150   3.692   6.573   6.512
 1751SOL     OW 6151   6.035   3.012   5.151
 1751SOL    HW1 6152   6.063   2.916   5.146
 1751SOL    HW2 6153   6.104   3.064   5.202
 1752SOL     OW 6154   6.640   1.003   1.994
 1752SOL    HW1 6155   6.696   0.972   1.917
 1752SOL    HW2 6156   6.543   0.993   1.971
 1753SOL     OW 6157   5.816   1.190   1.864
 1753SOL    HW1 6158   5.758   1.170   1.784
 1753SOL    HW2 6159   5.828   1.288   1.873
 1754SOL     OW 6160   3.001   5.745   3.774
 1754SOL    HW1 6161   3.032   5.650   3.773
 1754SOL    HW2 6162   2.908   5.749   3.812
 1755SOL     OW 6163   6.164   6.639   4.463
 1755SOL    HW1 6164   6.212   6.622   4.549
 1755SOL    HW2 6165   6.090   6.571   4.453
 1756SOL     OW 6166   4.995   6.357   0.407
 1756SOL    HW1 6167   4.897   6.346   0.426
 1756SOL    HW2 6168   5.023   6.287   0.341
 1757SOL     OW 6169   2.714   4.903   5.115
 1757SOL    HW1 6170   2.801   4.940   5.149
 1757SOL    HW2 6171   2.720   4.803   5.110
 1758SOL     OW 6172   1.878   6.092   4.501
 1758SOL    HW1 6173   1.836   6.020   4.555
 1758SOL    HW2 6174   1.815   6.169   4.493
 1759SOL     OW 6175   1.258   6.231   0.155
 1759SOL    HW1 6176   1.168   6.190   0.142
 1759SOL    HW2 6177   1.263   6.317   0.105
 1760SOL     OW 6178   0.005   1.140   4.795
 1760SOL    HW1 6179   6.951   1.076   4.812
 1760SOL    HW2 6180   0.076   1.127   4.864
 1761SOL     OW 6181   5.695   1.283   2.837
 1761SOL    HW1 6182   5.792   1.304   2.830
 1761SOL    HW2 6183   5.654   1.340   2.908
 1762SOL     OW 6184   0.964   1.419   5.595
 1762SOL    HW1 6185   1.034   1.379   5.654
 1762SOL    HW2 6186   1.002   1.498   5.547
 1763SOL     OW 6187   1.070   4.367   3.900
 1763SOL    HW1 6188   1.042   4.295   3.964
 1763SOL    HW2 6189   1.145   4.420   3.939
 1764SOL     OW 6190   1.456   5.792   3.575
 1764SOL    HW1 6191   1.540   5.805   3.522
 1764SOL    HW2 6192   1.449   5.697   3.605
 1765SOL     OW 6193   5.381   3.273   2.595
 1765SOL    HW1 6194   5.437   3.252   2.676
 1765SOL    HW2 6195   5.343   3.364   2.604
 1766SOL     OW 6196   4.231   4.803   3.770
 1766SOL    HW1 6197   4.217   4.807   3.671
 1766SOL    HW2 6198   4.142   4.809   3.816
 1767SOL     OW 6199   0.351   5.099   2.301
 1767SOL    HW1 6200   0.395   5.084   2.390
 1767SOL    HW2 6201   0.271   5.039   2.293
 1768SOL     OW 6202   5.325   4.707   2.116
 1768SOL    HW1 6203   5.254   4.721   2.184
 1768SOL    HW2 6204   5.414   4.703   2.161
 1769SOL     OW 6205   5.741   0.443   0.456
 1769SOL    HW1 6206   5.718   0.351   0.489
 1769SOL    HW2 6207   5.663   0.481   0.407
 1770SOL     OW 6208   1.645   5.111   0.537
 1770SOL    HW1 6209   1.731   5.091   0.584
 1770SOL    HW2 6210   1.569   5.072   0.589
 1771SOL     OW 6211   1.978   2.986   6.390
 1771SOL    HW1 6212   1.959   2.898   6.432
 1771SOL    HW2 6213   1.974   2.976   6.290
 1772SOL     OW 6214   2.196   4.138   2.627
 1772SOL    HW1 6215   2.230   4.054   2.669
 1772SOL    HW2 6216   2.197   4.128   2.527
 1773SOL     OW 6217   2.458   6.282   6.309
 1773SOL    HW1 6218   2.395   6.233   6.250
 1773SOL    HW2 6219   2.488   6.221   6.383
 1774SOL     OW 6220   5.359   5.906   0.777
 1774SOL    HW1 6221   5.395   5.813   0.787
 1774SOL    HW2 6222   5.278   5.916   0.836
 1775SOL     OW 6223   2.091   5.222   0.546
 1775SOL    HW1 6224   2.124   5.130   0.528
 1775SOL    HW2 6225   2.016   5.243   0.483
 1776SOL     OW 6226   4.672   2.556   5.911
 1776SOL    HW1 6227   4.633   2.520   5.826
 1776SOL    HW2 6228   4.602   2.609   5.958
 1777SOL     OW 6229   4.477   6.552   0.266
 1777SOL    HW1 6230   4.406   6.515   0.325
 1777SOL    HW2 6231   4.567   6.529   0.303
 1778SOL     OW 6232   6.252   0.003   4.237
 1778SOL    HW1 6233   6.177   6.975   4.192
 1778SOL    HW2 6234   6.241   7.018   4.337
 1779SOL     OW 6235   5.559   0.719   3.938
 1779SOL    HW1 6236   5.595   0.812   3.950
 1779SOL    HW2 6237   5.461   0.723   3.920
 1780SOL     OW 6238   2.435   4.890   5.473
 1780SOL    HW1 6239   2.365   4.861   5.408
 1780SOL    HW2 6240   2.501   4.949   5.425
 1781SOL     OW 6241   4.217   0.636   5.362
 1781SOL    HW1 6242   4.176   0.604   5.447
 1781SOL    HW2 6243   4.183   0.727   5.341
 1782SOL     OW 6244   5.928   1.969   2.333
 1782SOL    HW1 6245   5.903   1.926   2.420
 1782SOL    HW2 6246   6.024   1.999   2.338
 1783SOL     OW 6247   1.806   4.094   6.752
 1783SOL    HW1 6248   1.741   4.028   6.790
 1783SOL    HW2 6249   1.819   4.170   6.816
 1784SOL     OW 6250   2.852   6.671   2.036
 1784SOL    HW1 6251   2.771   6.669   2.093
 1784SOL    HW2 6252   2.827   6.652   1.941
 1785SOL     OW 6253   1.136   6.663   5.116
 1785SOL    HW1 6254   1.206   6.599   5.085
 1785SOL    HW2 6255   1.139   6.745   5.060
 1786SOL     OW 6256   1.124   6.531   0.853
 1786SOL    HW1 6257   1.196   6.463   0.864
 1786SOL    HW2 6258   1.082   6.521   0.763
 1787SOL     OW 6259   1.926   3.371   5.753
 1787SOL    HW1 6260   1.901   3.312   5.830
 1787SOL    HW2 6261   1.845   3.414   5.716
 1788SOL     OW 6262   4.626   3.561   0.883
 1788SOL    HW1 6263   4.652   3.471   0.849
 1788SOL    HW2 6264   4.601   3.620   0.805
 1789SOL     OW 6265   6.111   3.725   2.565
 1789SOL    HW1 6266   6.036   3.681   2.515
 1789SOL    HW2 6267   6.150   3.797   2.508
 1790SOL     OW 6268   1.649   1.922   4.895
 1790SOL    HW1 6269   1.605   1.914   4.805
 1790SOL    HW2 6270   1.629   1.840   4.949
 1791SOL     OW 6271   4.707   0.641   3.568
 1791SOL    HW1 6272   4.806   0.649   3.581
 1791SOL    HW2 6273   4.689   0.587   3.486
 1792SOL     OW 6274   0.445   2.153   6.593
 1792SOL    HW1 6275   0.424   2.239   6.547
 1792SOL    HW2 6276   0.543   2.134   6.587
 1793SOL     OW 6277   6.899   0.645   5.714
 1793SOL    HW1 6278   6.906   0.730   5.766
 1793SOL    HW2 6279   6.969   0.644   5.642
 1794SOL     OW 6280   0.684   0.607   6.394
 1794SOL    HW1 6281   0.628   0.688   6.378
 1794SOL    HW2 6282   0.630   0.525   6.374
 1795SOL     OW 6283   5.496   4.436   1.035
 1795SOL    HW1 6284   5.595   4.441   1.040
 1795SOL    HW2 6285   5.467   4.436   0.940
 1796SOL     OW 6286   0.066   0.007   0.235
 1796SOL    HW1 6287   0.075   6.933   0.205
 1796SOL    HW2 6288   6.991   0.035   0.225
 1797SOL     OW 6289   2.469   5.236   5.512
 1797SOL    HW1 6290   2.510   5.204   5.427
 1797SOL    HW2 6291   2.533   5.222   5.588
 1798SOL     OW 6292   2.242   3.764   5.196
 1798SOL    HW1 6293   2.304   3.686   5.204
 1798SOL    HW2 6294   2.294   3.849   5.209
 1799SOL     OW 6295   3.145   1.186   1.317
 1799SOL    HW1 6296   3.101   1.126   1.250
 1799SOL    HW2 6297   3.203   1.252   1.269
 1800SOL     OW 6298   5.770   2.984   5.210
 1800SOL    HW1 6299   5.851   3.011   5.159
 1800SOL    HW2 6300   5.728   3.066   5.252
 1801SOL     OW 6301   0.727   0.450   3.231
 1801SOL    HW1 6302   0.742   0.353   3.212
 1801SOL    HW2 6303   0.635   0.463   3.269
 1802SOL     OW 6304   6.863   5.127   3.987
 1802SOL    HW1 6305   6.811   5.195   4.038
 1802SOL    HW2 6306   6.835   5.128   3.891
 1803SOL     OW 6307   0.651   0.207   3.120
 1803SOL    HW1 6308   0.688   0.141   3.185
 1803SOL    HW2 6309   0.554   0.223   3.140
 1804SOL     OW 6310   2.295   3.095   6.220
 1804SOL    HW1 6311   2.210   3.134   6.253
 1804SOL    HW2 6312   2.357   3.168   6.192
 1805SOL     OW 6313   6.616   4.781   0.867
 1805SOL    HW1 6314   6.589   4.689   0.839
 1805SOL    HW2 6315   6.635   4.782   0.965
 1806SOL     OW 6316   0.012   0.974   1.035
 1806SOL    HW1 6317   0.001   1.010   1.128
 1806SOL    HW2 6318   0.109   0.973   1.011
 1807SOL     OW 6319   6.651   2.807   2.559
 1807SOL    HW1 6320   6.588   2.852   2.496
 1807SOL    HW2 6321   6.613   2.719   2.587
 1808SOL     OW 6322   5.051   1.520   6.504
 1808SOL    HW1 6323   5.074   1.611   6.540
 1808SOL    HW2 6324   5.100   1.506   6.418
 1809SOL     OW 6325   5.064   0.026   5.367
 1809SOL    HW1 6326   5.001   7.000   5.429
 1809SOL    HW2 6327   5.011   0.076   5.297
 1810SOL     OW 6328   1.073   0.278   3.982
 1810SOL    HW1 6329   1.003   0.207   3.982
 1810SOL    HW2 6330   1.066   0.332   4.065
 1811SOL     OW 6331   3.793   5.991   1.847
 1811SOL    HW1 6332   3.836   6.074   1.883
 1811SOL    HW2 6333   3.697   5.988   1.877
 1812SOL     OW 6334   4.650   6.242   6.696
 1812SOL    HW1 6335   4.563   6.232   6.744
 1812SOL    HW2 6336   4.689   6.331   6.716
 1813SOL     OW 6337   4.860   3.772   2.239
 1813SOL    HW1 6338   4.762   3.794   2.244
 1813SOL    HW2 6339   4.872   3.681   2.200
 1814SOL     OW 6340   6.457   5.959   0.436
 1814SOL    HW1 6341   6.395   5.950   0.358
 1814SOL    HW2 6342   6.549   5.931   0.408
 1815SOL     OW 6343   5.784   6.127   1.541
 1815SOL    HW1 6344   5.713   6.146   1.473
 1815SOL    HW2 6345   5.788   6.202   1.606
 1816SOL     OW 6346   4.310   4.867   5.085
 1816SOL    HW1 6347   4.222   4.894   5.125
 1816SOL    HW2 6348   4.326   4.922   5.002
 1817SOL     OW 6349   0.396   2.433   3.708
 1817SOL    HW1 6350   0.432   2.405   3.619
 1817SOL    HW2 6351   0.456   2.502   3.748
 1818SOL     OW 6352   2.616   1.263   0.511
 1818SOL    HW1 6353   2.566   1.215   0.439
 1818SOL    HW2 6354   2.708   1.285   0.479
 1819SOL     OW 6355   1.994   4.398   2.580
 1819SOL    HW1 6356   1.942   4.313   2.588
 1819SOL    HW2 6357   2.024   4.411   2.486
 1820SOL     OW 6358   3.127   0.459   5.001
 1820SOL    HW1 6359   3.106   0.520   4.924
 1820SOL    HW2 6360   3.213   0.412   4.984
 1821SOL     OW 6361   3.403   1.858   2.480
 1821SOL    HW1 6362   3.331   1.896   2.421
 1821SOL    HW2 6363   3.378   1.765   2.507
 1822SOL     OW 6364   0.442   3.903   2.876
 1822SOL    HW1 6365   0.399   3.829   2.927
 1822SOL    HW2 6366   0.447   3.878   2.779
 1823SOL     OW 6367   4.661   6.586   2.377
 1823SOL    HW1 6368   4.626   6.560   2.467
 1823SOL    HW2 6369   4.757   6.613   2.385
 1824SOL     OW 6370   4.390   3.141   1.726
 1824SOL    HW1 6371   4.469   3.106   1.777
 1824SOL    HW2 6372   4.382   3.240   1.742
 1825SOL     OW 6373   1.094   2.607   5.443
 1825SOL    HW1 6374   1.070   2.691   5.395
 1825SOL    HW2 6375   1.178   2.621   5.495
 1826SOL     OW 6376   3.156   2.283   1.311
 1826SOL    HW1 6377   3.073   2.334   1.333
 1826SOL    HW2 6378   3.226   2.302   1.380
 1827SOL     OW 6379   5.479   5.164   0.524
 1827SOL    HW1 6380   5.517   5.078   0.490
 1827SOL    HW2 6381   5.553   5.222   0.557
 1828SOL     OW 6382   1.847   3.888   5.319
 1828SOL    HW1 6383   1.750   3.896   5.342
 1828SOL    HW2 6384   1.890   3.821   5.380
 1829SOL     OW 6385   4.069   0.068   2.244
 1829SOL    HW1 6386   4.038   6.994   2.250
 1829SOL    HW2 6387   4.024   0.113   2.167
 1830SOL     OW 6388   4.794   1.016   6.461
 1830SOL    HW1 6389   4.842   1.099   6.490
 1830SOL    HW2 6390   4.832   0.938   6.509
 1831SOL     OW 6391   3.306   4.828   0.719
 1831SOL    HW1 6392   3.351   4.784   0.796
 1831SOL    HW2 6393   3.218   4.784   0.701
 1832SOL     OW 6394   2.819   3.309   6.765
 1832SOL    HW1 6395   2.732   3.258   6.770
 1832SOL    HW2 6396   2.874   3.287   6.845
 1833SOL     OW 6397   5.737   1.620   0.048
 1833SOL    HW1 6398   5.684   1.548   0.093
 1833SOL    HW2 6399   5.834   1.608   0.068
 1834SOL     OW 6400   0.594   2.966   5.592
 1834SOL    HW1 6401   0.591   2.986   5.494
 1834SOL    HW2 6402   0.654   2.888   5.608
 1835SOL     OW 6403   6.920   6.216   1.258
 1835SOL    HW1 6404   6.867   6.287   1.211
 1835SOL    HW2 6405   6.892   6.214   1.354
 1836SOL     OW 6406   5.305   2.089   2.566
 1836SOL    HW1 6407   5.216   2.106   2.608
 1836SOL    HW2 6408   5.324   1.990   2.568
 1837SOL     OW 6409   3.088   2.004   6.902
 1837SOL    HW1 6410   3.145   1.964   6.974
 1837SOL    HW2 6411   3.033   2.079   6.941
 1838SOL     OW 6412   5.001   0.790   1.370
 1838SOL    HW1 6413   5.094   0.754   1.375
 1838SOL    HW2 6414   4.964   0.771   1.279
 1839SOL     OW 6415   6.529   0.059   0.278
 1839SOL    HW1 6416   6.447   0.087   0.327
 1839SOL    HW2 6417   6.592   0.013   0.341
 1840SOL     OW 6418   4.399   6.443   4.421
 1840SOL    HW1 6419   4.315   6.445   4.475
 1840SOL    HW2 6420   4.432   6.537   4.409
 1841SOL     OW 6421   0.877   1.069   1.952
 1841SOL    HW1 6422   0.791   1.118   1.965
 1841SOL    HW2 6423   0.911   1.036   2.040
 1842SOL     OW 6424   0.841   5.052   1.312
 1842SOL    HW1 6425   0.874   5.144   1.334
 1842SOL    HW2 6426   0.918   4.993   1.290
 1843SOL     OW 6427   2.677   0.741   6.795
 1843SOL    HW1 6428   2.614   0.802   6.843
 1843SOL    HW2 6429   2.648   0.646   6.809
 1844SOL     OW 6430   5.836   2.839   6.324
 1844SOL    HW1 6431   5.930   2.834   6.356
 1844SOL    HW2 6432   5.775   2.799   6.393
 1845SOL     OW 6433   0.691   1.863   3.058
 1845SOL    HW1 6434   0.662   1.823   2.972
 1845SOL    HW2 6435   0.739   1.950   3.041
 1846SOL     OW 6436   2.668   1.883   1.576
 1846SOL    HW1 6437   2.758   1.927   1.580
 1846SOL    HW2 6438   2.674   1.792   1.618
 1847SOL     OW 6439   2.029   5.641   6.013
 1847SOL    HW1 6440   2.064   5.630   5.920
 1847SOL    HW2 6441   1.960   5.571   6.032
 1848SOL     OW 6442   3.500   6.620   3.208
 1848SOL    HW1 6443   3.487   6.525   3.235
 1848SOL    HW2 6444   3.571   6.626   3.138
 1849SOL     OW 6445   4.837   2.907   2.225
 1849SOL    HW1 6446   4.765   2.955   2.176
 1849SOL    HW2 6447   4.909   2.880   2.160
 1850SOL     OW 6448   4.109   2.058   0.491
 1850SOL    HW1 6449   4.153   2.008   0.565
 1850SOL    HW2 6450   4.148   2.150   0.485
 1851SOL     OW 6451   0.052   4.810   4.312
 1851SOL    HW1 6452   7.012   4.774   4.241
 1851SOL    HW2 6453   7.018   4.840   4.390
 1852SOL     OW 6454   0.929   0.668   2.677
 1852SOL    HW1 6455   1.003   0.613   2.640
 1852SOL    HW2 6456   0.951   0.697   2.770
 1853SOL     OW 6457   0.405   2.340   5.748
 1853SOL    HW1 6458   0.358   2.390   5.675
 1853SOL    HW2 6459   0.470   2.401   5.794
 1854SOL     OW 6460   0.650   6.807   3.256
 1854SOL    HW1 6461   0.574   6.841   3.200
 1854SOL    HW2 6462   0.651   6.855   3.344
 1855SOL     OW 6463   5.752   2.849   4.935
 1855SOL    HW1 6464   5.703   2.888   5.013
 1855SOL    HW2 6465   5.736   2.904   4.854
 1856SOL     OW 6466   4.094   3.314   0.340
 1856SOL    HW1 6467   4.124   3.385   0.276
 1856SOL    HW2 6468   4.008   3.275   0.308
 1857SOL     OW 6469   3.925   1.229   6.581
 1857SOL    HW1 6470   3.841   1.175   6.575
 1857SOL    HW2 6471   3.923   1.282   6.666
 1858SOL     OW 6472   5.388   2.289   4.535
 1858SOL    HW1 6473   5.350   2.282   4.628
 1858SOL    HW2 6474   5.325   2.246   4.470
 1859SOL     OW 6475   6.713   1.073   4.178
 1859SOL    HW1 6476   6.664   1.030   4.254
 1859SOL    HW2 6477   6.649   1.130   4.125
 1860SOL     OW 6478   2.349   1.318   6.244
 1860SOL    HW1 6479   2.328   1.266   6.162
 1860SOL    HW2 6480   2.448   1.318   6.260
 1861SOL     OW 6481   6.081   6.193   4.524
 1861SOL    HW1 6482   6.065   6.096   4.538
 1861SOL    HW2 6483   6.125   6.232   4.605
 1862SOL     OW 6484   3.014   5.412   5.304
 1862SOL    HW1 6485   2.946   5.444   5.237
 1862SOL    HW2 6486   3.080   5.485   5.321
 1863SOL     OW 6487   6.951   2.243   1.288
 1863SOL    HW1 6488   6.960   2.196   1.201
 1863SOL    HW2 6489   6.872   2.206   1.338
 1864SOL     OW 6490   3.069   5.666   1.854
 1864SOL    HW1 6491   2.977   5.699   1.835
 1864SOL    HW2 6492   3.081   5.656   1.953
 1865SOL     OW 6493   6.423   2.874   5.826
 1865SOL    HW1 6494   6.424   2.816   5.744
 1865SOL    HW2 6495   6.334   2.916   5.836
 1866SOL     OW 6496   0.991   5.715   3.498
 1866SOL    HW1 6497   1.079   5.741   3.457
 1866SOL    HW2 6498   0.951   5.794   3.543
 1867SOL     OW 6499   0.685   2.351   1.387
 1867SOL    HW1 6500   0.693   2.447   1.412
 1867SOL    HW2 6501   0.591   2.320   1.403
 1868SOL     OW 6502   5.998   3.614   6.623
 1868SOL    HW1 6503   5.906   3.616   6.584
 1868SOL    HW2 6504   6.029   3.520   6.631
 1869SOL     OW 6505   4.959   0.937   4.604
 1869SOL    HW1 6506   4.912   0.914   4.689
 1869SOL    HW2 6507   5.038   0.877   4.593
 1870SOL     OW 6508   6.337   6.882   5.427
 1870SOL    HW1 6509   6.294   6.961   5.383
 1870SOL    HW2 6510   6.357   6.904   5.522
 1871SOL     OW 6511   0.743   6.255   6.519
 1871SOL    HW1 6512   0.672   6.326   6.523
 1871SOL    HW2 6513   0.728   6.189   6.592
 1872SOL     OW 6514   2.880   3.131   1.481
 1872SOL    HW1 6515   2.924   3.115   1.570
 1872SOL    HW2 6516   2.782   3.116   1.488
 1873SOL     OW 6517   6.444   1.061   1.140
 1873SOL    HW1 6518   6.488   1.108   1.216
 1873SOL    HW2 6519   6.453   0.962   1.153
 1874SOL     OW 6520   0.830   5.240   0.289
 1874SOL    HW1 6521   0.737   5.277   0.285
 1874SOL    HW2 6522   0.866   5.228   0.197
 1875SOL     OW 6523   0.496   5.819   2.114
 1875SOL    HW1 6524   0.428   5.748   2.134
 1875SOL    HW2 6525   0.496   5.839   2.016
 1876SOL     OW 6526   0.493   4.863   0.787
 1876SOL    HW1 6527   0.415   4.802   0.798
 1876SOL    HW2 6528   0.544   4.868   0.874
 1877SOL     OW 6529   1.091   1.862   2.106
 1877SOL    HW1 6530   1.036   1.784   2.136
 1877SOL    HW2 6531   1.119   1.850   2.011
 1878SOL     OW 6532   5.201   3.873   3.938
 1878SOL    HW1 6533   5.138   3.878   3.861
 1878SOL    HW2 6534   5.190   3.785   3.985
 1879SOL     OW 6535   4.867   6.237   4.552
 1879SOL    HW1 6536   4.918   6.163   4.597
 1879SOL    HW2 6537   4.912   6.324   4.569
 1880SOL     OW 6538   0.186   1.177   4.380
 1880SOL    HW1 6539   0.223   1.256   4.429
 1880SOL    HW2 6540   0.107   1.142   4.430
 1881SOL     OW 6541   1.859   1.638   3.822
 1881SOL    HW1 6542   1.828   1.705   3.890
 1881SOL    HW2 6543   1.915   1.568   3.866
 1882SOL     OW 6544   1.805   5.444   0.172
 1882SOL    HW1 6545   1.796   5.521   0.108
 1882SOL    HW2 6546   1.714   5.410   0.196
 1883SOL     OW 6547   2.698   2.403   3.204
 1883SOL    HW1 6548   2.606   2.370   3.185
 1883SOL    HW2 6549   2.693   2.494   3.245
 1884SOL     OW 6550   4.333   1.045   0.607
 1884SOL    HW1 6551   4.407   1.067   0.671
 1884SOL    HW2 6552   4.275   1.125   0.595
 1885SOL     OW 6553   0.150   1.356   0.542
 1885SOL    HW1 6554   0.058   1.366   0.578
 1885SOL    HW2 6555   0.146   1.315   0.451
 1886SOL     OW 6556   3.536   2.870   6.342
 1886SOL    HW1 6557   3.512   2.918   6.257
 1886SOL    HW2 6558   3.573   2.935   6.408
 1887SOL     OW 6559   0.699   6.276   5.174
 1887SOL    HW1 6560   0.786   6.326   5.170
 1887SOL    HW2 6561   0.632   6.329   5.225
 1888SOL     OW 6562   1.896   1.862   5.624
 1888SOL    HW1 6563   1.920   1.870   5.720
 1888SOL    HW2 6564   1.798   1.879   5.612
 1889SOL     OW 6565   2.775   2.952   0.227
 1889SOL    HW1 6566   2.783   2.902   0.314
 1889SOL    HW2 6567   2.825   3.038   0.234
 1890SOL     OW 6568   6.362   5.973   6.906
 1890SOL    HW1 6569   6.450   5.978   6.955
 1890SOL    HW2 6570   6.360   6.044   6.835
 1891SOL     OW 6571   5.366   3.671   7.000
 1891SOL    HW1 6572   5.399   3.748   6.945
 1891SOL    HW2 6573   5.350   3.592   6.940
 1892SOL     OW 6574   4.282   0.081   2.420
 1892SOL    HW1 6575   4.374   0.064   2.386
 1892SOL    HW2 6576   4.216   0.062   2.347
 1893SOL     OW 6577   3.260   1.437   5.379
 1893SOL    HW1 6578   3.239   1.467   5.286
 1893SOL    HW2 6579   3.233   1.341   5.390
 1894SOL     OW 6580   4.923   3.808   1.430
 1894SOL    HW1 6581   4.841   3.765   1.394
 1894SOL    HW2 6582   4.901   3.898   1.467
 1895SOL     OW 6583   4.502   6.684   3.328
 1895SOL    HW1 6584   4.495   6.773   3.373
 1895SOL    HW2 6585   4.413   6.657   3.292
 1896SOL     OW 6586   6.362   1.633   5.668
 1896SOL    HW1 6587   6.440   1.646   5.730
 1896SOL    HW2 6588   6.374   1.691   5.587
 1897SOL     OW 6589   5.841   4.955   3.574
 1897SOL    HW1 6590   5.928   4.905   3.572
 1897SOL    HW2 6591   5.766   4.889   3.578
 1898SOL     OW 6592   5.909   6.593   6.801
 1898SOL    HW1 6593   5.853   6.525   6.847
 1898SOL    HW2 6594   5.959   6.647   6.869
 1899SOL     OW 6595   1.692   2.389   3.171
 1899SOL    HW1 6596   1.706   2.485   3.194
 1899SOL    HW2 6597   1.781   2.344   3.161
 1900SOL     OW 6598   2.550   6.273   2.221
 1900SOL    HW1 6599   2.609   6.305   2.295
 1900SOL    HW2 6600   2.482   6.343   2.199
 1901SOL     OW 6601   1.341   1.169   6.185
 1901SOL    HW1 6602   1.423   1.223   6.165
 1901SOL    HW2 6603   1.324   1.104   6.111
 1902SOL     OW 6604   1.575   2.700   5.260
 1902SOL    HW1 6605   1.576   2.693   5.160
 1902SOL    HW2 6606   1.481   2.713   5.292
 1903SOL     OW 6607   0.120   4.338   4.299
 1903SOL    HW1 6608   0.171   4.352   4.214
 1903SOL    HW2 6609   0.130   4.243   4.329
 1904SOL     OW 6610   0.523   0.353   4.356
 1904SOL    HW1 6611   0.460   0.429   4.375
 1904SOL    HW2 6612   0.603   0.389   4.308
 1905SOL     OW 6613   6.601   2.698   4.363
 1905SOL    HW1 6614   6.508   2.736   4.362
 1905SOL    HW2 6615   6.612   2.640   4.444
 1906SOL     OW 6616   2.763   5.962   6.713
 1906SOL    HW1 6617   2.801   6.011   6.635
 1906SOL    HW2 6618   2.666   5.985   6.723
 1907SOL     OW 6619   4.591   6.572   3.681
 1907SOL    HW1 6620   4.639   6.506   3.623
 1907SOL    HW2 6621   4.492   6.562   3.668
 1908SOL     OW 6622   5.029   7.014   6.987
 1908SOL    HW1 6623   4.948   0.000   6.929
 1908SOL    HW2 6624   5.050   0.082   0.006
 1909SOL     OW 6625   4.087   5.073   4.681
 1909SOL    HW1 6626   4.147   5.008   4.727
 1909SOL    HW2 6627   4.125   5.165   4.689
 1910SOL     OW 6628   5.159   3.377   4.737
 1910SOL    HW1 6629   5.075   3.394   4.790
 1910SOL    HW2 6630   5.140   3.306   4.668
 1911SOL     OW 6631   0.027   3.484   5.619
 1911SOL    HW1 6632   0.077   3.413   5.569
 1911SOL    HW2 6633   0.069   3.573   5.600
 1912SOL     OW 6634   2.597   5.883   3.364
 1912SOL    HW1 6635   2.543   5.806   3.400
 1912SOL    HW2 6636   2.690   5.851   3.346
 1913SOL     OW 6637   1.383   4.340   5.244
 1913SOL    HW1 6638   1.333   4.259   5.272
 1913SOL    HW2 6639   1.431   4.322   5.158
 1914SOL     OW 6640   4.682   1.407   6.038
 1914SOL    HW1 6641   4.778   1.425   6.059
 1914SOL    HW2 6642   4.675   1.356   5.952
 1915SOL     OW 6643   3.331   0.892   5.380
 1915SOL    HW1 6644   3.383   0.809   5.399
 1915SOL    HW2 6645   3.236   0.868   5.361
 1916SOL     OW 6646   4.257   6.433   2.386
 1916SOL    HW1 6647   4.302   6.443   2.298
 1916SOL    HW2 6648   4.289   6.349   2.430
 1917SOL     OW 6649   3.240   2.967   4.295
 1917SOL    HW1 6650   3.276   2.924   4.212
 1917SOL    HW2 6651   3.304   2.951   4.370
 1918SOL     OW 6652   6.441   6.138   5.065
 1918SOL    HW1 6653   6.469   6.054   5.110
 1918SOL    HW2 6654   6.511   6.166   4.999
 1919SOL     OW 6655   6.627   0.062   1.707
 1919SOL    HW1 6656   6.557   0.069   1.778
 1919SOL    HW2 6657   6.595   0.002   1.633
 1920SOL     OW 6658   6.307   5.961   4.325
 1920SOL    HW1 6659   6.391   5.986   4.277
 1920SOL    HW2 6660   6.270   5.876   4.287
 1921SOL     OW 6661   1.259   6.998   6.468
 1921SOL    HW1 6662   1.162   6.980   6.481
 1921SOL    HW2 6663   1.279   7.007   6.370
 1922SOL     OW 6664   3.602   4.323   1.079
 1922SOL    HW1 6665   3.567   4.264   1.152
 1922SOL    HW2 6666   3.526   4.362   1.028
 1923SOL     OW 6667   1.842   3.008   0.579
 1923SOL    HW1 6668   1.905   3.085   0.573
 1923SOL    HW2 6669   1.885   2.934   0.630
 1924SOL     OW 6670   1.065   3.881   1.710
 1924SOL    HW1 6671   1.013   3.798   1.691
 1924SOL    HW2 6672   1.162   3.862   1.701
 1925SOL     OW 6673   3.623   4.020   0.665
 1925SOL    HW1 6674   3.603   3.983   0.574
 1925SOL    HW2 6675   3.641   4.118   0.659
 1926SOL     OW 6676   0.999   0.419   3.146
 1926SOL    HW1 6677   0.925   0.482   3.168
 1926SOL    HW2 6678   1.004   0.406   3.047
 1927SOL     OW 6679   4.271   3.796   0.517
 1927SOL    HW1 6680   4.202   3.802   0.589
 1927SOL    HW2 6681   4.362   3.794   0.558
 1928SOL     OW 6682   0.340   5.161   5.646
 1928SOL    HW1 6683   0.437   5.138   5.646
 1928SOL    HW2 6684   0.315   5.197   5.556
 1929SOL     OW 6685   1.712   6.530   3.285
 1929SOL    HW1 6686   1.799   6.485   3.264
 1929SOL    HW2 6687   1.638   6.464   3.274
 1930SOL     OW 6688   6.527   4.919   0.168
 1930SOL    HW1 6689   6.518   4.864   0.251
 1930SOL    HW2 6690   6.569   4.864   0.096
 1931SOL     OW 6691   0.488   1.843   5.497
 1931SOL    HW1 6692   0.519   1.794   5.416
 1931SOL    HW2 6693   0.549   1.920   5.515
 1932SOL     OW 6694   5.860   2.652   2.604
 1932SOL    HW1 6695   5.878   2.736   2.553
 1932SOL    HW2 6696   5.761   2.638   2.611
 1933SOL     OW 6697   2.117   4.372   0.589
 1933SOL    HW1 6698   2.049   4.313   0.632
 1933SOL    HW2 6699   2.095   4.468   0.608
 1934SOL     OW 6700   0.104   5.922   4.356
 1934SOL    HW1 6701   0.123   5.841   4.413
 1934SOL    HW2 6702   0.181   5.985   4.362
 1935SOL     OW 6703   2.410   1.026   3.642
 1935SOL    HW1 6704   2.402   0.948   3.580
 1935SOL    HW2 6705   2.432   0.992   3.734
 1936SOL     OW 6706   6.823   6.181   5.700
 1936SOL    HW1 6707   6.735   6.168   5.654
 1936SOL    HW2 6708   6.889   6.115   5.666
 1937SOL     OW 6709   4.584   0.862   2.898
 1937SOL    HW1 6710   4.563   0.931   2.829
 1937SOL    HW2 6711   4.510   0.859   2.966
 1938SOL     OW 6712   4.805   0.669   4.134
 1938SOL    HW1 6713   4.824   0.740   4.066
 1938SOL    HW2 6714   4.800   0.711   4.224
 1939SOL     OW 6715   2.492   0.447   3.505
 1939SOL    HW1 6716   2.491   0.367   3.446
 1939SOL    HW2 6717   2.547   0.428   3.587
 1940SOL     OW 6718   6.474   5.331   6.396
 1940SOL    HW1 6719   6.441   5.260   6.334
 1940SOL    HW2 6720   6.427   5.323   6.484
 1941SOL     OW 6721   5.494   5.159   2.617
 1941SOL    HW1 6722   5.415   5.142   2.558
 1941SOL    HW2 6723   5.474   5.235   2.679
 1942SOL     OW 6724   6.483   4.582   3.048
 1942SOL    HW1 6725   6.508   4.572   3.145
 1942SOL    HW2 6726   6.545   4.647   3.005
 1943SOL     OW 6727   2.914   6.030   2.506
 1943SOL    HW1 6728   2.871   6.058   2.591
 1943SOL    HW2 6729   2.877   5.942   2.477
 1944SOL     OW 6730   6.982   6.861   2.136
 1944SOL    HW1 6731   6.936   6.943   2.100
 1944SOL    HW2 6732   6.958   6.848   2.232
 1945SOL     OW 6733   3.155   4.918   4.000
 1945SOL    HW1 6734   3.116   4.832   3.966
 1945SOL    HW2 6735   3.081   4.982   4.021
 1946SOL     OW 6736   1.935   0.076   0.426
 1946SOL    HW1 6737   2.011   0.139   0.408
 1946SOL    HW2 6738   1.969   7.004   0.437
 1947SOL     OW 6739   5.301   6.629   3.598
 1947SOL    HW1 6740   5.366   6.601   3.669
 1947SOL    HW2 6741   5.216   6.660   3.640
 1948SOL     OW 6742   6.674   3.986   5.937
 1948SOL    HW1 6743   6.658   3.951   6.029
 1948SOL    HW2 6744   6.766   4.025   5.932
 1949SOL     OW 6745   5.160   3.983   6.564
 1949SOL    HW1 6746   5.108   4.067   6.579
 1949SOL    HW2 6747   5.238   4.002   6.504
 1950SOL     OW 6748   2.783   4.886   0.860
 1950SOL    HW1 6749   2.684   4.871   0.865
 1950SOL    HW2 6750   2.820   4.899   0.952
 1951SOL     OW 6751   6.928   2.576   6.797
 1951SOL    HW1 6752   6.956   2.483   6.772
 1951SOL    HW2 6753   6.880   2.573   6.885
 1952SOL     OW 6754   3.734   2.857   5.642
 1952SOL    HW1 6755   3.784   2.807   5.572
 1952SOL    HW2 6756   3.796   2.923   5.686
 1953SOL     OW 6757   0.068   3.259   4.987
 1953SOL    HW1 6758   7.010   3.236   5.044
 1953SOL    HW2 6759   0.146   3.282   5.045
 1954SOL     OW 6760   2.536   2.175   3.740
 1954SOL    HW1 6761   2.542   2.076   3.753
 1954SOL    HW2 6762   2.559   2.222   3.825
 1955SOL     OW 6763   6.580   5.562   1.772
 1955SOL    HW1 6764   6.585   5.642   1.832
 1955SOL    HW2 6765   6.581   5.479   1.827
 1956SOL     OW 6766   5.732   6.602   2.334
 1956SOL    HW1 6767   5.749   6.513   2.378
 1956SOL    HW2 6768   5.689   6.587   2.245
 1957SOL     OW 6769   1.012   6.673   5.782
 1957SOL    HW1 6770   1.037   6.641   5.874
 1957SOL    HW2 6771   0.936   6.737   5.789
 1958SOL     OW 6772   4.907   2.983   5.967
 1958SOL    HW1 6773   4.969   2.992   6.046
 1958SOL    HW2 6774   4.921   2.894   5.924
 1959SOL     OW 6775   2.291   2.336   6.816
 1959SOL    HW1 6776   2.286   2.435   6.810
 1959SOL    HW2 6777   2.384   2.305   6.796
 1960SOL     OW 6778   5.359   6.614   2.294
 1960SOL    HW1 6779   5.385   6.704   2.260
 1960SOL    HW2 6780   5.262   6.599   2.277
 1961SOL     OW 6781   5.698   5.034   4.890
 1961SOL    HW1 6782   5.767   4.963   4.900
 1961SOL    HW2 6783   5.708   5.101   4.964
 1962SOL     OW 6784   6.872   6.768   3.069
 1962SOL    HW1 6785   6.783   6.780   3.112
 1962SOL    HW2 6786   6.935   6.839   3.102
 1963SOL     OW 6787   2.065   0.065   2.859
 1963SOL    HW1 6788   2.129   0.062   2.783
 1963SOL    HW2 6789   2.113   0.040   2.943
 1964SOL     OW 6790   5.666   4.087   2.319
 1964SOL    HW1 6791   5.691   4.178   2.287
 1964SOL    HW2 6792   5.614   4.039   2.248
 1965SOL     OW 6793   2.487   5.202   4.014
 1965SOL    HW1 6794   2.445   5.118   4.049
 1965SOL    HW2 6795   2.571   5.179   3.966
 1966SOL     OW 6796   6.490   6.310   6.190
 1966SOL    HW1 6797   6.576   6.280   6.150
 1966SOL    HW2 6798   6.426   6.334   6.117
 1967SOL     OW 6799   5.004   3.605   4.415
 1967SOL    HW1 6800   4.992   3.511   4.447
 1967SOL    HW2 6801   4.947   3.667   4.469
 1968SOL     OW 6802   3.822   5.312   5.633
 1968SOL    HW1 6803   3.845   5.220   5.604
 1968SOL    HW2 6804   3.828   5.375   5.556
 1969SOL     OW 6805   6.857   2.109   1.983
 1969SOL    HW1 6806   6.795   2.040   1.945
 1969SOL    HW2 6807   6.822   2.200   1.963
 1970SOL     OW 6808   1.738   6.559   4.057
 1970SOL    HW1 6809   1.683   6.541   3.976
 1970SOL    HW2 6810   1.835   6.550   4.034
 1971SOL     OW 6811   0.339   0.439   5.893
 1971SOL    HW1 6812   0.370   0.354   5.935
 1971SOL    HW2 6813   0.414   0.504   5.891
 1972SOL     OW 6814   1.306   4.796   4.196
 1972SOL    HW1 6815   1.250   4.843   4.264
 1972SOL    HW2 6816   1.382   4.750   4.242
 1973SOL     OW 6817   2.573   2.896   6.892
 1973SOL    HW1 6818   2.630   2.826   6.937
 1973SOL    HW2 6819   2.595   2.899   6.795
 1974SOL     OW 6820   5.572   0.542   4.220
 1974SOL    HW1 6821   5.500   0.498   4.273
 1974SOL    HW2 6822   5.537   0.567   4.129
 1975SOL     OW 6823   2.848   0.974   3.841
 1975SOL    HW1 6824   2.826   0.877   3.854
 1975SOL    HW2 6825   2.914   0.983   3.767
 1976SOL     OW 6826   6.749   4.799   0.400
 1976SOL    HW1 6827   6.650   4.793   0.392
 1976SOL    HW2 6828   6.782   4.733   0.467
 1977SOL     OW 6829   2.320   2.672   4.636
 1977SOL    HW1 6830   2.309   2.757   4.687
 1977SOL    HW2 6831   2.271   2.599   4.682
 1978SOL     OW 6832   6.842   1.563   4.928
 1978SOL    HW1 6833   6.779   1.593   5.000
 1978SOL    HW2 6834   6.916   1.510   4.969
 1979SOL     OW 6835   5.770   4.593   2.946
 1979SOL    HW1 6836   5.676   4.559   2.943
 1979SOL    HW2 6837   5.780   4.667   2.880
 1980SOL     OW 6838   4.152   0.463   1.517
 1980SOL    HW1 6839   4.073   0.505   1.474
 1980SOL    HW2 6840   4.201   0.407   1.451
 1981SOL     OW 6841   4.873   3.176   1.784
 1981SOL    HW1 6842   4.833   3.119   1.856
 1981SOL    HW2 6843   4.802   3.196   1.715
 1982SOL     OW 6844   6.026   0.112   5.155
 1982SOL    HW1 6845   5.953   0.181   5.158
 1982SOL    HW2 6846   6.018   0.060   5.070
 1983SOL     OW 6847   0.598   4.278   2.374
 1983SOL    HW1 6848   0.505   4.288   2.339
 1983SOL    HW2 6849   0.641   4.367   2.382
 1984SOL     OW 6850   4.472   1.165   5.722
 1984SOL    HW1 6851   4.441   1.227   5.650
 1984SOL    HW2 6852   4.406   1.090   5.732
 1985SOL     OW 6853   1.549   0.190   1.399
 1985SOL    HW1 6854   1.557   0.283   1.435
 1985SOL    HW2 6855   1.540   0.194   1.299
 1986SOL     OW 6856   0.955   2.137   6.570
 1986SOL    HW1 6857   1.003   2.064   6.619
 1986SOL    HW2 6858   1.022   2.205   6.540
 1987SOL     OW 6859   2.713   3.568   0.036
 1987SOL    HW1 6860   2.655   3.609   6.987
 1987SOL    HW2 6861   2.805   3.608   0.031
 1988SOL     OW 6862   4.786   3.022   0.185
 1988SOL    HW1 6863   4.825   3.048   0.096
 1988SOL    HW2 6864   4.838   3.067   0.258
 1989SOL     OW 6865   2.745   0.440   4.254
 1989SOL    HW1 6866   2.809   0.439   4.177
 1989SOL    HW2 6867   2.748   0.529   4.299
 1990SOL     OW 6868   2.217   1.285   2.560
 1990SOL    HW1 6869   2.193   1.367   2.508
 1990SOL    HW2 6870   2.305   1.250   2.528
 1991SOL     OW 6871   3.803   5.284   4.298
 1991SOL    HW1 6872   3.854   5.280   4.212
 1991SOL    HW2 6873   3.762   5.195   4.317
 1992SOL     OW 6874   2.419   6.452   5.637
 1992SOL    HW1 6875   2.453   6.511   5.564
 1992SOL    HW2 6876   2.489   6.445   5.709
 1993SOL     OW 6877   3.217   3.443   4.509
 1993SOL    HW1 6878   3.293   3.429   4.446
 1993SOL    HW2 6879   3.139   3.386   4.480
 1994SOL     OW 6880   5.687   2.611   2.247
 1994SOL    HW1 6881   5.764   2.609   2.183
 1994SOL    HW2 6882   5.705   2.548   2.323
 1995SOL     OW 6883   4.841   2.512   1.032
 1995SOL    HW1 6884   4.802   2.480   1.118
 1995SOL    HW2 6885   4.806   2.456   0.957
 1996SOL     OW 6886   3.131   4.018   6.053
 1996SOL    HW1 6887   3.075   4.031   6.135
 1996SOL    HW2 6888   3.122   4.098   5.994
 1997SOL     OW 6889   5.071   0.526   4.073
 1997SOL    HW1 6890   5.086   0.463   3.996
 1997SOL    HW2 6891   4.977   0.558   4.072
 1998SOL     OW 6892   3.110   4.896   5.018
 1998SOL    HW1 6893   3.010   4.900   5.006
 1998SOL    HW2 6894   3.132   4.836   5.095
 1999SOL     OW 6895   1.852   1.073   2.315
 1999SOL    HW1 6896   1.889   1.031   2.398
 1999SOL    HW2 6897   1.892   1.164   2.303
 2000SOL     OW 6898   4.364   2.056   4.724
 2000SOL    HW1 6899   4.313   2.049   4.638
 2000SOL    HW2 6900   4.333   2.137   4.774
 2001SOL     OW 6901   2.693   3.085   0.478
 2001SOL    HW1 6902   2.644   3.119   0.397
 2001SOL    HW2 6903   2.691   3.154   0.550
 2002SOL     OW 6904   2.020   5.040   5.020
 2002SOL    HW1 6905   2.109   5.058   5.063
 2002SOL    HW2 6906   2.012   4.943   5.001
 2003SOL     OW 6907   6.307   5.006   3.212
 2003SOL    HW1 6908   6.245   4.969   3.142
 2003SOL    HW2 6909   6.387   4.947   3.219
 2004SOL     OW 6910   3.313   0.262   5.992
 2004SOL    HW1 6911   3.252   0.339   6.011
 2004SOL    HW2 6912   3.371   0.243   6.072
 2005SOL     OW 6913   2.957   6.603   5.469
 2005SOL    HW1 6914   3.029   6.642   5.411
 2005SOL    HW2 6915   2.996   6.529   5.525
 2006SOL     OW 6916   4.340   5.411   3.746
 2006SOL    HW1 6917   4.296   5.380   3.831
 2006SOL    HW2 6918   4.398   5.338   3.710
 2007SOL     OW 6919   6.091   5.127   0.181
 2007SOL    HW1 6920   6.189   5.139   0.163
 2007SOL    HW2 6921   6.061   5.039   0.146
 2008SOL     OW 6922   6.926   6.440   3.896
 2008SOL    HW1 6923   6.882   6.351   3.903
 2008SOL    HW2 6924   6.960   6.468   3.985
 2009SOL     OW 6925   0.564   0.436   1.112
 2009SOL    HW1 6926   0.592   0.341   1.102
 2009SOL    HW2 6927   0.471   0.440   1.148
 2010SOL     OW 6928   1.312   0.053   0.884
 2010SOL    HW1 6929   1.282   0.041   0.978
 2010SOL    HW2 6930   1.343   0.148   0.870
 2011SOL     OW 6931   6.939   2.951   5.273
 2011SOL    HW1 6932   6.886   2.876   5.235
 2011SOL    HW2 6933   6.903   3.038   5.240
 2012SOL     OW 6934   0.619   3.975   1.285
 2012SOL    HW1 6935   0.666   3.968   1.197
 2012SOL    HW2 6936   0.629   3.889   1.336
 2013SOL     OW 6937   4.679   1.356   2.294
 2013SOL    HW1 6938   4.754   1.347   2.229
 2013SOL    HW2 6939   4.596   1.315   2.256
 2014SOL     OW 6940   2.668   5.418   3.401
 2014SOL    HW1 6941   2.764   5.435   3.424
 2014SOL    HW2 6942   2.613   5.499   3.420
 2015SOL     OW 6943   3.156   0.035   6.872
 2015SOL    HW1 6944   3.111   0.043   6.783
 2015SOL    HW2 6945   3.176   6.960   6.891
 2016SOL     OW 6946   6.594   5.086   3.666
 2016SOL    HW1 6947   6.518   5.059   3.725
 2016SOL    HW2 6948   6.560   5.101   3.573
 2017SOL     OW 6949   2.587   5.802   2.005
 2017SOL    HW1 6950   2.613   5.804   1.908
 2017SOL    HW2 6951   2.583   5.895   2.041
 2018SOL     OW 6952   0.365   4.952   6.253
 2018SOL    HW1 6953   0.272   4.940   6.288
 2018SOL    HW2 6954   0.400   4.864   6.221
 2019SOL     OW 6955   5.649   1.928   2.740
 2019SOL    HW1 6956   5.566   1.925   2.684
 2019SOL    HW2 6957   5.640   1.865   2.817
 2020SOL     OW 6958   2.151   5.627   3.069
 2020SOL    HW1 6959   2.056   5.595   3.064
 2020SOL    HW2 6960   2.212   5.548   3.075
 2021SOL     OW 6961   1.141   0.024   1.491
 2021SOL    HW1 6962   1.096   0.084   1.425
 2021SOL    HW2 6963   1.222   7.004   1.450
 2022SOL     OW 6964   2.508   4.170   0.941
 2022SOL    HW1 6965   2.578   4.187   1.010
 2022SOL    HW2 6966   2.422   4.213   0.969
 2023SOL     OW 6967   6.485   1.257   6.014
 2023SOL    HW1 6968   6.460   1.341   5.966
 2023SOL    HW2 6969   6.518   1.190   5.947
 2024SOL     OW 6970   6.106   0.778   3.387
 2024SOL    HW1 6971   6.081   0.686   3.419
 2024SOL    HW2 6972   6.054   0.800   3.305
 2025SOL     OW 6973   6.965   0.647   0.687
 2025SOL    HW1 6974   6.958   0.742   0.718
 2025SOL    HW2 6975   0.040   0.619   0.687
 2026SOL     OW 6976   1.377   1.421   5.021
 2026SOL    HW1 6977   1.403   1.331   4.986
 2026SOL    HW2 6978   1.277   1.429   5.020
 2027SOL     OW 6979   0.110   1.907   2.443
 2027SOL    HW1 6980   0.018   1.946   2.450
 2027SOL    HW2 6981   0.173   1.964   2.495
 2028SOL     OW 6982   4.300   3.489   6.379
 2028SOL    HW1 6983   4.287   3.410   6.438
 2028SOL    HW2 6984   4.223   3.553   6.391
 2029SOL     OW 6985   1.687   0.597   0.432
 2029SOL    HW1 6986   1.696   0.696   0.426
 2029SOL    HW2 6987   1.621   0.565   0.363
 2030SOL     OW 6988   0.874   1.079   3.077
 2030SOL    HW1 6989   0.800   1.014   3.060
 2030SOL    HW2 6990   0.836   1.170   3.091
 2031SOL     OW 6991   4.882   6.966   2.859
 2031SOL    HW1 6992   4.819   6.919   2.921
 2031SOL    HW2 6993   4.835   0.021   2.814
 2032SOL     OW 6994   5.102   6.762   1.684
 2032SOL    HW1 6995   5.136   6.675   1.650
 2032SOL    HW2 6996   5.005   6.754   1.706
 2033SOL     OW 6997   6.547   4.870   6.830
 2033SOL    HW1 6998   6.554   4.787   6.886
 2033SOL    HW2 6999   6.558   4.846   6.733
 2034SOL     OW 7000   2.364   6.819   3.022
 2034SOL    HW1 7001   2.299   6.888   3.054
 2034SOL    HW2 7002   2.412   6.780   3.101
 2035SOL     OW 7003   1.151   3.393   2.048
 2035SOL    HW1 7004   1.241   3.384   2.005
 2035SOL    HW2 7005   1.161   3.389   2.147
 2036SOL     OW 7006   1.729   4.834   0.514
 2036SOL    HW1 7007   1.694   4.823   0.607
 2036SOL    HW2 7008   1.696   4.920   0.475
 2037SOL     OW 7009   0.104   1.062   6.153
 2037SOL    HW1 7010   0.157   1.088   6.234
 2037SOL    HW2 7011   0.137   0.974   6.119
 2038SOL     OW 7012   0.757   0.556   4.483
 2038SOL    HW1 7013   0.843   0.577   4.531
 2038SOL    HW2 7014   0.778   0.521   4.391
 2039SOL     OW 7015   1.216   5.574   2.070
 2039SOL    HW1 7016   1.122   5.603   2.086
 2039SOL    HW2 7017   1.259   5.551   2.157
 2040SOL     OW 7018   3.604   3.771   4.663
 2040SOL    HW1 7019   3.641   3.819   4.742
 2040SOL    HW2 7020   3.655   3.686   4.647
 2041SOL     OW 7021   5.920   4.165   6.228
 2041SOL    HW1 7022   5.866   4.236   6.274
 2041SOL    HW2 7023   5.946   4.196   6.137
 2042SOL     OW 7024   3.939   5.967   0.146
 2042SOL    HW1 7025   3.888   5.984   0.061
 2042SOL    HW2 7026   3.926   5.872   0.173
 2043SOL     OW 7027   4.607   4.347   2.457
 2043SOL    HW1 7028   4.637   4.291   2.380
 2043SOL    HW2 7029   4.634   4.303   2.542
 2044SOL     OW 7030   6.085   0.855   1.962
 2044SOL    HW1 7031   6.078   0.955   1.956
 2044SOL    HW2 7032   6.111   0.819   1.872
 2045SOL     OW 7033   1.793   5.440   6.088
 2045SOL    HW1 7034   1.730   5.495   6.033
 2045SOL    HW2 7035   1.754   5.350   6.103
 2046SOL     OW 7036   5.982   0.733   4.592
 2046SOL    HW1 7037   5.954   0.816   4.543
 2046SOL    HW2 7038   5.967   0.654   4.533
 2047SOL     OW 7039   5.520   2.316   0.628
 2047SOL    HW1 7040   5.435   2.328   0.679
 2047SOL    HW2 7041   5.596   2.305   0.691
 2048SOL     OW 7042   4.244   0.364   5.682
 2048SOL    HW1 7043   4.294   0.295   5.734
 2048SOL    HW2 7044   4.158   0.384   5.729
 2049SOL     OW 7045   5.111   6.661   0.631
 2049SOL    HW1 7046   5.173   6.689   0.558
 2049SOL    HW2 7047   5.093   6.563   0.624
 2050SOL     OW 7048   5.505   2.287   4.081
 2050SOL    HW1 7049   5.506   2.220   4.007
 2050SOL    HW2 7050   5.529   2.243   4.167
 2051SOL     OW 7051   1.873   5.214   0.373
 2051SOL    HW1 7052   1.788   5.181   0.414
 2051SOL    HW2 7053   1.852   5.279   0.301
 2052SOL     OW 7054   1.264   3.398   0.862
 2052SOL    HW1 7055   1.287   3.332   0.935
 2052SOL    HW2 7056   1.335   3.468   0.858
 2053SOL     OW 7057   5.380   0.376   0.203
 2053SOL    HW1 7058   5.312   0.421   0.145
 2053SOL    HW2 7059   5.430   0.445   0.255
 2054SOL     OW 7060   6.474   3.138   1.268
 2054SOL    HW1 7061   6.465   3.204   1.193
 2054SOL    HW2 7062   6.571   3.123   1.287
 2055SOL     OW 7063   6.457   2.668   3.877
 2055SOL    HW1 7064   6.451   2.626   3.786
 2055SOL    HW2 7065   6.537   2.631   3.925
 2056SOL     OW 7066   1.127   1.018   2.751
 2056SOL    HW1 7067   1.161   0.929   2.781
 2056SOL    HW2 7068   1.204   1.076   2.724
 2057SOL     OW 7069   0.013   2.272   4.201
 2057SOL    HW1 7070   0.091   2.331   4.224
 2057SOL    HW2 7071   6.950   2.326   4.204
 2058SOL     OW 7072   0.059   2.528   1.871
 2058SOL    HW1 7073   7.006   2.519   1.937
 2058SOL    HW2 7074   0.064   2.623   1.839
 2059SOL     OW 7075   1.957   1.594   6.678
 2059SOL    HW1 7076   1.952   1.557   6.585
 2059SOL    HW2 7077   2.032   1.551   6.727
 2060SOL     OW 7078   0.619   5.604   2.415
 2060SOL    HW1 7079   0.633   5.545   2.495
 2060SOL    HW2 7080   0.597   5.696   2.446
 2061SOL     OW 7081   6.843   1.465   1.806
 2061SOL    HW1 7082   6.790   1.527   1.864
 2061SOL    HW2 7083   6.879   1.515   1.727
 2062SOL     OW 7084   4.062   1.022   3.301
 2062SOL    HW1 7085   4.157   1.046   3.324
 2062SOL    HW2 7086   4.061   0.957   3.225
 2063SOL     OW 7087   2.418   2.124   0.279
 2063SOL    HW1 7088   2.335   2.077   0.251
 2063SOL    HW2 7089   2.395   2.208   0.329
 2064SOL     OW 7090   0.407   2.492   0.180
 2064SOL    HW1 7091   0.422   2.537   0.268
 2064SOL    HW2 7092   0.334   2.424   0.189
 2065SOL     OW 7093   6.450   2.546   2.291
 2065SOL    HW1 7094   6.368   2.594   2.259
 2065SOL    HW2 7095   6.530   2.582   2.243
 2066SOL     OW 7096   1.998   6.333   4.002
 2066SOL    HW1 7097   2.054   6.334   4.086
 2066SOL    HW2 7098   1.924   6.266   4.012
 2067SOL     OW 7099   6.812   6.927   0.980
 2067SOL    HW1 7100   6.875   6.954   1.053
 2067SOL    HW2 7101   6.861   6.925   0.893
 2068SOL     OW 7102   2.023   1.292   4.975
 2068SOL    HW1 7103   1.953   1.347   4.930
 2068SOL    HW2 7104   2.028   1.202   4.931
 2069SOL     OW 7105   0.201   1.769   2.034
 2069SOL    HW1 7106   0.162   1.814   2.114
 2069SOL    HW2 7107   0.133   1.768   1.960
 2070SOL     OW 7108   0.355   1.374   2.516
 2070SOL    HW1 7109   0.270   1.426   2.507
 2070SOL    HW2 7110   0.432   1.437   2.523
 2071SOL     OW 7111   0.979   6.571   4.411
 2071SOL    HW1 7112   1.031   6.507   4.355
 2071SOL    HW2 7113   0.917   6.520   4.471
 2072SOL     OW 7114   4.968   5.311   2.158
 2072SOL    HW1 7115   5.067   5.320   2.170
 2072SOL    HW2 7116   4.945   5.319   2.061
 2073SOL     OW 7117   2.766   6.913   5.907
 2073SOL    HW1 7118   2.711   6.977   5.854
 2073SOL    HW2 7119   2.739   6.819   5.883
 2074SOL     OW 7120   5.674   1.482   2.111
 2074SOL    HW1 7121   5.673   1.569   2.160
 2074SOL    HW2 7122   5.581   1.450   2.096
 2075SOL     OW 7123   4.569   3.364   5.969
 2075SOL    HW1 7124   4.568   3.269   6.003
 2075SOL    HW2 7125   4.498   3.417   6.015
 2076SOL     OW 7126   4.867   0.518   0.929
 2076SOL    HW1 7127   4.868   0.425   0.892
 2076SOL    HW2 7128   4.818   0.518   1.016
 2077SOL     OW 7129   5.450   1.350   3.445
 2077SOL    HW1 7130   5.494   1.397   3.368
 2077SOL    HW2 7131   5.520   1.315   3.507
 2078SOL     OW 7132   3.964   5.489   5.273
 2078SOL    HW1 7133   3.976   5.457   5.179
 2078SOL    HW2 7134   3.867   5.490   5.296
 2079SOL     OW 7135   5.871   1.328   4.202
 2079SOL    HW1 7136   5.919   1.398   4.256
 2079SOL    HW2 7137   5.900   1.237   4.232
 2080SOL     OW 7138   3.060   2.115   4.391
 2080SOL    HW1 7139   3.139   2.094   4.334
 2080SOL    HW2 7140   3.091   2.144   4.482
 2081SOL     OW 7141   0.453   6.420   5.286
 2081SOL    HW1 7142   0.408   6.374   5.363
 2081SOL    HW2 7143   0.384   6.469   5.232
 2082SOL     OW 7144   5.233   0.247   1.028
 2082SOL    HW1 7145   5.153   0.207   1.073
 2082SOL    HW2 7146   5.211   0.339   0.996
 2083SOL     OW 7147   3.549   5.334   5.413
 2083SOL    HW1 7148   3.519   5.305   5.504
 2083SOL    HW2 7149   3.469   5.357   5.357
 2084SOL     OW 7150   0.111   3.171   3.361
 2084SOL    HW1 7151   0.167   3.119   3.298
 2084SOL    HW2 7152   0.161   3.186   3.446
 2085SOL     OW 7153   5.628   6.899   6.357
 2085SOL    HW1 7154   5.592   6.849   6.435
 2085SOL    HW2 7155   5.704   6.957   6.387
 2086SOL     OW 7156   2.765   5.020   0.626
 2086SOL    HW1 7157   2.693   4.976   0.572
 2086SOL    HW2 7158   2.776   4.971   0.713
 2087SOL     OW 7159   5.208   6.422   3.439
 2087SOL    HW1 7160   5.275   6.465   3.498
 2087SOL    HW2 7161   5.136   6.379   3.494
 2088SOL     OW 7162   2.969   6.891   0.506
 2088SOL    HW1 7163   3.058   6.844   0.505
 2088SOL    HW2 7164   2.966   6.957   0.431
 2089SOL     OW 7165   3.128   0.004   6.588
 2089SOL    HW1 7166   3.122   0.092   6.540
 2089SOL    HW2 7167   3.044   6.974   6.575
 2090SOL     OW 7168   3.220   3.510   4.159
 2090SOL    HW1 7169   3.134   3.501   4.109
 2090SOL    HW2 7170   3.244   3.607   4.168
 2091SOL     OW 7171   2.206   4.950   0.576
 2091SOL    HW1 7172   2.254   4.886   0.516
 2091SOL    HW2 7173   2.107   4.940   0.564
 2092SOL     OW 7174   6.434   5.793   1.112
 2092SOL    HW1 7175   6.532   5.774   1.108
 2092SOL    HW2 7176   6.419   5.888   1.140
 2093SOL     OW 7177   1.086   2.217   1.316
 2093SOL    HW1 7178   1.114   2.136   1.368
 2093SOL    HW2 7179   1.161   2.245   1.256
 2094SOL     OW 7180   5.912   0.466   2.343
 2094SOL    HW1 7181   5.948   0.413   2.420
 2094SOL    HW2 7182   5.957   0.436   2.258
 2095SOL     OW 7183   6.963   4.858   4.552
 2095SOL    HW1 7184   0.023   4.864   4.611
 2095SOL    HW2 7185   6.883   4.893   4.601
 2096SOL     OW 7186   4.830   4.028   3.257
 2096SOL    HW1 7187   4.826   4.066   3.164
 2096SOL    HW2 7188   4.865   3.934   3.253
 2097SOL     OW 7189   0.113   2.398   6.983
 2097SOL    HW1 7190   0.123   2.377   0.059
 2097SOL    HW2 7191   0.087   2.494   6.971
 2098SOL     OW 7192   4.425   0.659   4.465
 2098SOL    HW1 7193   4.506   0.716   4.483
 2098SOL    HW2 7194   4.453   0.574   4.421
 2099SOL     OW 7195   3.038   1.627   4.107
 2099SOL    HW1 7196   2.965   1.625   4.176
 2099SOL    HW2 7197   3.127   1.619   4.153
 2100SOL     OW 7198   3.786   4.308   6.983
 2100SOL    HW1 7199   3.850   4.352   0.025
 2100SOL    HW2 7200   3.813   4.326   6.889
 2101SOL     OW 7201   0.416   0.302   3.209
 2101SOL    HW1 7202   0.435   0.397   3.236
 2101SOL    HW2 7203   0.318   0.292   3.192
 2102SOL     OW 7204   0.088   4.996   2.304
 2102SOL    HW1 7205   0.028   4.968   2.378
 2102SOL    HW2 7206   0.040   5.059   2.243
 2103SOL     OW 7207   2.931   3.943   6.414
 2103SOL    HW1 7208   3.007   3.921   6.475
 2103SOL    HW2 7209   2.878   3.860   6.395
 2104SOL     OW 7210   1.253   3.831   5.049
 2104SOL    HW1 7211   1.221   3.757   4.990
 2104SOL    HW2 7212   1.353   3.830   5.053
 2105SOL     OW 7213   6.007   5.638   1.485
 2105SOL    HW1 7214   5.999   5.737   1.476
 2105SOL    HW2 7215   6.022   5.615   1.581
 2106SOL     OW 7216   5.173   5.547   6.786
 2106SOL    HW1 7217   5.196   5.454   6.755
 2106SOL    HW2 7218   5.254   5.591   6.822
 2107SOL     OW 7219   3.841   4.395   6.724
 2107SOL    HW1 7220   3.767   4.426   6.664
 2107SOL    HW2 7221   3.906   4.469   6.740
 2108SOL     OW 7222   4.888   4.754   5.881
 2108SOL    HW1 7223   4.861   4.813   5.957
 2108SOL    HW2 7224   4.973   4.789   5.840
 2109SOL     OW 7225   5.788   0.171   2.862
 2109SOL    HW1 7226   5.763   0.268   2.854
 2109SOL    HW2 7227   5.881   0.164   2.900
 2110SOL     OW 7228   2.627   5.207   5.722
 2110SOL    HW1 7229   2.627   5.207   5.822
 2110SOL    HW2 7230   2.654   5.116   5.689
 2111SOL     OW 7231   1.526   2.620   0.440
 2111SOL    HW1 7232   1.578   2.640   0.357
 2111SOL    HW2 7233   1.514   2.704   0.494
 2112SOL     OW 7234   4.970   3.102   1.378
 2112SOL    HW1 7235   4.975   3.078   1.475
 2112SOL    HW2 7236   4.896   3.050   1.335
 2113SOL     OW 7237   6.664   1.146   3.083
 2113SOL    HW1 7238   6.635   1.182   3.172
 2113SOL    HW2 7239   6.720   1.064   3.096
 2114SOL     OW 7240   1.772   4.340   6.906
 2114SOL    HW1 7241   1.725   4.332   6.993
 2114SOL    HW2 7242   1.731   4.413   6.852
 2115SOL     OW 7243   2.864   4.729   2.514
 2115SOL    HW1 7244   2.932   4.786   2.560
 2115SOL    HW2 7245   2.802   4.689   2.581
 2116SOL     OW 7246   0.031   4.059   3.385
 2116SOL    HW1 7247   0.070   3.969   3.364
 2116SOL    HW2 7248   0.066   4.090   3.473
 2117SOL     OW 7249   0.057   4.783   1.013
 2117SOL    HW1 7250   7.010   4.709   1.020
 2117SOL    HW2 7251   0.010   4.871   1.016
 2118SOL     OW 7252   6.770   3.659   2.239
 2118SOL    HW1 7253   6.848   3.656   2.301
 2118SOL    HW2 7254   6.713   3.578   2.254
 2119SOL     OW 7255   2.797   5.843   1.261
 2119SOL    HW1 7256   2.781   5.932   1.303
 2119SOL    HW2 7257   2.862   5.852   1.187
 2120SOL     OW 7258   0.009   5.297   2.291
 2120SOL    HW1 7259   0.069   5.272   2.367
 2120SOL    HW2 7260   0.064   5.311   2.208
 2121SOL     OW 7261   0.597   4.680   4.812
 2121SOL    HW1 7262   0.616   4.601   4.754
 2121SOL    HW2 7263   0.540   4.746   4.762
 2122SOL     OW 7264   4.835   4.365   5.329
 2122SOL    HW1 7265   4.825   4.465   5.333
 2122SOL    HW2 7266   4.751   4.322   5.361
 2123SOL     OW 7267   6.117   4.899   3.055
 2123SOL    HW1 7268   6.140   4.802   3.067
 2123SOL    HW2 7269   6.018   4.907   3.039
 2124SOL     OW 7270   2.765   1.439   0.862
 2124SOL    HW1 7271   2.715   1.494   0.928
 2124SOL    HW2 7272   2.754   1.478   0.770
 2125SOL     OW 7273   3.180   6.697   1.039
 2125SOL    HW1 7274   3.173   6.603   1.003
 2125SOL    HW2 7275   3.115   6.755   0.991
 2126SOL     OW 7276   2.810   1.023   1.416
 2126SOL    HW1 7277   2.878   0.962   1.457
 2126SOL    HW2 7278   2.727   0.972   1.395
 2127SOL     OW 7279   5.131   3.202   5.400
 2127SOL    HW1 7280   5.192   3.238   5.330
 2127SOL    HW2 7281   5.082   3.123   5.364
 2128SOL     OW 7282   0.461   5.148   4.127
 2128SOL    HW1 7283   0.556   5.157   4.096
 2128SOL    HW2 7284   0.403   5.212   4.076
 2129SOL     OW 7285   3.867   1.609   6.006
 2129SOL    HW1 7286   3.844   1.548   6.082
 2129SOL    HW2 7287   3.783   1.644   5.965
 2130SOL     OW 7288   3.884   6.348   3.651
 2130SOL    HW1 7289   3.887   6.415   3.725
 2130SOL    HW2 7290   3.878   6.396   3.563
 2131SOL     OW 7291   6.214   2.410   6.966
 2131SOL    HW1 7292   6.170   2.404   0.035
 2131SOL    HW2 7293   6.273   2.330   6.953
 2132SOL     OW 7294   2.236   2.954   0.803
 2132SOL    HW1 7295   2.298   2.951   0.724
 2132SOL    HW2 7296   2.289   2.964   0.887
 2133SOL     OW 7297   3.036   3.213   5.964
 2133SOL    HW1 7298   3.116   3.263   5.996
 2133SOL    HW2 7299   2.955   3.245   6.014
 2134SOL     OW 7300   1.063   6.909   1.238
 2134SOL    HW1 7301   1.133   6.976   1.215
 2134SOL    HW2 7302   0.973   6.943   1.211
 2135SOL     OW 7303   0.263   3.812   4.127
 2135SOL    HW1 7304   0.340   3.868   4.157
 2135SOL    HW2 7305   0.254   3.733   4.188
 2136SOL     OW 7306   2.189   4.919   1.380
 2136SOL    HW1 7307   2.147   4.991   1.325
 2136SOL    HW2 7308   2.190   4.946   1.476
 2137SOL     OW 7309   2.263   5.551   4.158
 2137SOL    HW1 7310   2.226   5.605   4.233
 2137SOL    HW2 7311   2.308   5.469   4.194
 2138SOL     OW 7312   5.049   1.599   1.765
 2138SOL    HW1 7313   4.990   1.670   1.805
 2138SOL    HW2 7314   5.141   1.637   1.750
 2139SOL     OW 7315   2.626   1.011   5.363
 2139SOL    HW1 7316   2.597   0.956   5.286
 2139SOL    HW2 7317   2.711   0.974   5.401
 2140SOL     OW 7318   2.176   1.002   4.980
 2140SOL    HW1 7319   2.259   0.983   4.929
 2140SOL    HW2 7320   2.192   0.983   5.077
 2141SOL     OW 7321   6.427   3.958   2.830
 2141SOL    HW1 7322   6.458   3.946   2.924
 2141SOL    HW2 7323   6.505   3.984   2.772
 2142SOL     OW 7324   1.493   2.006   2.930
 2142SOL    HW1 7325   1.479   2.066   2.851
 2142SOL    HW2 7326   1.472   1.912   2.904
 2143SOL     OW 7327   1.433   4.765   6.946
 2143SOL    HW1 7328   1.460   4.774   0.021
 2143SOL    HW2 7329   1.375   4.843   6.921
 2144SOL     OW 7330   5.835   5.076   4.116
 2144SOL    HW1 7331   5.817   5.087   4.018
 2144SOL    HW2 7332   5.914   5.017   4.130
 2145SOL     OW 7333   4.017   6.998   3.620
 2145SOL    HW1 7334   3.981   0.023   3.539
 2145SOL    HW2 7335   4.048   0.045   3.686
 2146SOL     OW 7336   1.998   2.685   0.410
 2146SOL    HW1 7337   2.088   2.641   0.411
 2146SOL    HW2 7338   2.002   2.771   0.460
 2147SOL     OW 7339   5.515   0.853   4.274
 2147SOL    HW1 7340   5.455   0.784   4.234
 2147SOL    HW2 7341   5.610   0.825   4.264
 2148SOL     OW 7342   0.398   3.665   6.474
 2148SOL    HW1 7343   0.323   3.615   6.430
 2148SOL    HW2 7344   0.442   3.606   6.542
 2149SOL     OW 7345   0.589   0.296   0.309
 2149SOL    HW1 7346   0.554   0.342   0.227
 2149SOL    HW2 7347   0.541   0.209   0.320
 2150SOL     OW 7348   2.222   3.219   1.370
 2150SOL    HW1 7349   2.312   3.222   1.329
 2150SOL    HW2 7350   2.199   3.309   1.407
 2151SOL     OW 7351   1.525   5.921   0.371
 2151SOL    HW1 7352   1.451   5.862   0.341
 2151SOL    HW2 7353   1.488   6.011   0.396
 2152SOL     OW 7354   4.612   5.651   4.290
 2152SOL    HW1 7355   4.648   5.694   4.206
 2152SOL    HW2 7356   4.659   5.689   4.369
 2153SOL     OW 7357   4.649   1.665   3.396
 2153SOL    HW1 7358   4.717   1.600   3.363
 2153SOL    HW2 7359   4.587   1.690   3.321
 2154SOL     OW 7360   3.094   0.181   3.480
 2154SOL    HW1 7361   3.150   0.100   3.464
 2154SOL    HW2 7362   3.091   0.237   3.397
 2155SOL     OW 7363   4.632   0.206   0.724
 2155SOL    HW1 7364   4.618   0.219   0.822
 2155SOL    HW2 7365   4.643   0.295   0.680
 2156SOL     OW 7366   5.437   1.583   4.735
 2156SOL    HW1 7367   5.407   1.656   4.796
 2156SOL    HW2 7368   5.513   1.616   4.679
 2157SOL     OW 7369   3.028   6.002   3.856
 2157SOL    HW1 7370   3.010   6.020   3.952
 2157SOL    HW2 7371   3.044   5.904   3.843
 2158SOL     OW 7372   3.687   0.378   0.179
 2158SOL    HW1 7373   3.598   0.415   0.153
 2158SOL    HW2 7374   3.674   0.302   0.242
 2159SOL     OW 7375   0.742   0.928   5.462
 2159SOL    HW1 7376   0.666   0.924   5.397
 2159SOL    HW2 7377   0.718   0.987   5.539
 2160SOL     OW 7378   6.123   6.696   0.267
 2160SOL    HW1 7379   6.027   6.696   0.239
 2160SOL    HW2 7380   6.160   6.789   0.261
 2161SOL     OW 7381   1.231   2.808   1.809
 2161SOL    HW1 7382   1.138   2.775   1.829
 2161SOL    HW2 7383   1.267   2.856   1.888
 2162SOL     OW 7384   0.920   6.932   1.638
 2162SOL    HW1 7385   0.934   6.833   1.635
 2162SOL    HW2 7386   0.989   6.978   1.582
 2163SOL     OW 7387   2.095   3.210   2.553
 2163SOL    HW1 7388   2.146   3.125   2.565
 2163SOL    HW2 7389   1.998   3.188   2.542
 2164SOL     OW 7390   2.096   2.639   2.684
 2164SOL    HW1 7391   2.047   2.580   2.748
 2164SOL    HW2 7392   2.174   2.681   2.730
 2165SOL     OW 7393   6.892   1.764   3.681
 2165SOL    HW1 7394   6.845   1.809   3.605
 2165SOL    HW2 7395   6.908   1.668   3.659
 2166SOL     OW 7396   6.846   4.288   2.812
 2166SOL    HW1 7397   6.946   4.284   2.803
 2166SOL    HW2 7398   6.818   4.235   2.893
 2167SOL     OW 7399   2.585   2.031   3.286
 2167SOL    HW1 7400   2.594   2.057   3.382
 2167SOL    HW2 7401   2.526   2.097   3.239
 2168SOL     OW 7402   1.621   2.104   3.159
 2168SOL    HW1 7403   1.585   2.067   3.074
 2168SOL    HW2 7404   1.691   2.172   3.139
 2169SOL     OW 7405   0.721   6.891   1.220
 2169SOL    HW1 7406   0.652   6.904   1.291
 2169SOL    HW2 7407   0.771   6.976   1.206
 2170SOL     OW 7408   0.837   3.882   5.531
 2170SOL    HW1 7409   0.788   3.940   5.466
 2170SOL    HW2 7410   0.931   3.869   5.500
 2171SOL     OW 7411   0.507   5.346   1.813
 2171SOL    HW1 7412   0.442   5.271   1.827
 2171SOL    HW2 7413   0.458   5.433   1.814
 2172SOL     OW 7414   1.421   1.193   4.862
 2172SOL    HW1 7415   1.405   1.261   4.791
 2172SOL    HW2 7416   1.517   1.196   4.891
 2173SOL     OW 7417   6.361   0.535   5.186
 2173SOL    HW1 7418   6.266   0.526   5.156
 2173SOL    HW2 7419   6.383   0.632   5.196
 2174SOL     OW 7420   6.330   6.857   5.980
 2174SOL    HW1 7421   6.391   6.790   6.022
 2174SOL    HW2 7422   6.293   6.918   6.050
 2175SOL     OW 7423   2.576   3.810   5.315
 2175SOL    HW1 7424   2.525   3.873   5.257
 2175SOL    HW2 7425   2.576   3.844   5.409
 2176SOL     OW 7426   5.717   2.426   1.696
 2176SOL    HW1 7427   5.737   2.482   1.616
 2176SOL    HW2 7428   5.749   2.332   1.681
 2177SOL     OW 7429   0.378   0.398   4.050
 2177SOL    HW1 7430   0.333   0.319   4.009
 2177SOL    HW2 7431   0.473   0.403   4.019
 2178SOL     OW 7432   0.494   2.072   2.664
 2178SOL    HW1 7433   0.501   2.108   2.757
 2178SOL    HW2 7434   0.489   1.973   2.667
 2179SOL     OW 7435   1.170   4.161   6.086
 2179SOL    HW1 7436   1.171   4.062   6.083
 2179SOL    HW2 7437   1.123   4.197   6.006
 2180SOL     OW 7438   0.827   6.338   2.421
 2180SOL    HW1 7439   0.901   6.403   2.404
 2180SOL    HW2 7440   0.814   6.326   2.520
 2181SOL     OW 7441   3.381   4.932   4.429
 2181SOL    HW1 7442   3.288   4.959   4.404
 2181SOL    HW2 7443   3.433   4.911   4.346
 2182SOL     OW 7444   0.331   5.919   2.521
 2182SOL    HW1 7445   0.304   5.989   2.587
 2182SOL    HW2 7446   0.274   5.927   2.439
 2183SOL     OW 7447   3.048   2.760   6.492
 2183SOL    HW1 7448   2.954   2.793   6.480
 2183SOL    HW2 7449   3.094   2.814   6.562
 2184SOL     OW 7450   6.411   1.394   6.866
 2184SOL    HW1 7451   6.447   1.487   6.866
 2184SOL    HW2 7452   6.391   1.366   6.771
 2185SOL     OW 7453   0.877   0.064   6.650
 2185SOL    HW1 7454   0.967   0.057   6.693
 2185SOL    HW2 7455   0.866   7.011   6.583
 2186SOL     OW 7456   0.089   4.794   5.980
 2186SOL    HW1 7457   0.163   4.728   5.966
 2186SOL    HW2 7458   0.095   4.865   5.910
 2187SOL     OW 7459   0.561   5.931   2.972
 2187SOL    HW1 7460   0.650   5.919   3.017
 2187SOL    HW2 7461   0.532   5.844   2.932
 2188SOL     OW 7462   2.390   0.415   0.931
 2188SOL    HW1 7463   2.468   0.353   0.933
 2188SOL    HW2 7464   2.361   0.435   1.025
 2189SOL     OW 7465   2.086   1.413   1.747
 2189SOL    HW1 7466   2.025   1.447   1.818
 2189SOL    HW2 7467   2.107   1.486   1.683
 2190SOL     OW 7468   6.541   3.809   2.268
 2190SOL    HW1 7469   6.474   3.763   2.210
 2190SOL    HW2 7470   6.633   3.774   2.248
 2191SOL     OW 7471   2.763   0.303   0.117
 2191SOL    HW1 7472   2.731   0.363   0.043
 2191SOL    HW2 7473   2.762   0.208   0.085
 2192SOL     OW 7474   4.776   1.529   1.124
 2192SOL    HW1 7475   4.691   1.562   1.085
 2192SOL    HW2 7476   4.841   1.508   1.050
 2193SOL     OW 7477   1.599   6.576   6.187
 2193SOL    HW1 7478   1.651   6.596   6.270
 2193SOL    HW2 7479   1.645   6.616   6.108
 2194SOL     OW 7480   1.148   3.894   5.992
 2194SOL    HW1 7481   1.119   3.822   6.056
 2194SOL    HW2 7482   1.119   3.870   5.900
 2195SOL     OW 7483   0.412   3.630   5.655
 2195SOL    HW1 7484   0.337   3.683   5.614
 2195SOL    HW2 7485   0.494   3.686   5.657
 2196SOL     OW 7486   2.786   0.348   6.013
 2196SOL    HW1 7487   2.701   0.385   5.975
 2196SOL    HW2 7488   2.786   0.360   6.112
 2197SOL     OW 7489   3.139   5.120   5.619
 2197SOL    HW1 7490   3.086   5.037   5.636
 2197SOL    HW2 7491   3.087   5.200   5.649
 2198SOL     OW 7492   0.642   0.361   6.709
 2198SOL    HW1 7493   0.605   0.282   6.758
 2198SOL    HW2 7494   0.702   0.330   6.636
 2199SOL     OW 7495   4.141   6.684   4.828
 2199SOL    HW1 7496   4.168   6.601   4.877
 2199SOL    HW2 7497   4.119   6.661   4.733
 2200SOL     OW 7498   2.566   1.985   4.047
 2200SOL    HW1 7499   2.627   1.942   4.114
 2200SOL    HW2 7500   2.570   2.084   4.057
 2201SOL     OW 7501   6.394   4.279   4.062
 2201SOL    HW1 7502   6.308   4.267   4.012
 2201SOL    HW2 7503   6.377   4.270   4.160
 2202SOL     OW 7504   3.492   6.415   2.167
 2202SOL    HW1 7505   3.581   6.413   2.121
 2202SOL    HW2 7506   3.424   6.368   2.111
 2203SOL     OW 7507   1.645   3.625   0.614
 2203SOL    HW1 7508   1.713   3.568   0.568
 2203SOL    HW2 7509   1.691   3.690   0.674
 2204SOL     OW 7510   5.284   3.534   1.305
 2204SOL    HW1 7511   5.245   3.574   1.388
 2204SOL    HW2 7512   5.263   3.592   1.226
 2205SOL     OW 7513   0.628   4.689   0.344
 2205SOL    HW1 7514   0.722   4.667   0.316
 2205SOL    HW2 7515   0.620   4.684   0.443
 2206SOL     OW 7516   3.002   1.900   5.843
 2206SOL    HW1 7517   3.068   1.969   5.813
 2206SOL    HW2 7518   2.915   1.916   5.798
 2207SOL     OW 7519   4.915   6.299   1.238
 2207SOL    HW1 7520   4.948   6.352   1.317
 2207SOL    HW2 7521   4.820   6.273   1.252
 2208SOL     OW 7522   0.057   5.878   3.664
 2208SOL    HW1 7523   0.116   5.905   3.588
 2208SOL    HW2 7524   6.988   5.921   3.652
 2209SOL     OW 7525   2.844   5.563   4.096
 2209SOL    HW1 7526   2.864   5.547   4.193
 2209SOL    HW2 7527   2.748   5.589   4.086
 2210SOL     OW 7528   4.736   6.999   0.654
 2210SOL    HW1 7529   4.691   0.055   0.698
 2210SOL    HW2 7530   4.802   6.958   0.717
 2211SOL     OW 7531   6.854   1.591   1.042
 2211SOL    HW1 7532   6.945   1.569   1.077
 2211SOL    HW2 7533   6.785   1.534   1.088
 2212SOL     OW 7534   2.533   6.087   6.785
 2212SOL    HW1 7535   2.530   6.186   6.772
 2212SOL    HW2 7536   2.470   6.060   6.858
 2213SOL     OW 7537   3.557   1.848   4.708
 2213SOL    HW1 7538   3.607   1.884   4.629
 2213SOL    HW2 7539   3.557   1.916   4.781
 2214SOL     OW 7540   4.372   3.767   6.971
 2214SOL    HW1 7541   4.469   3.774   6.948
 2214SOL    HW2 7542   4.362   3.741   0.046
 2215SOL     OW 7543   4.455   6.969   6.899
 2215SOL    HW1 7544   4.373   6.912   6.897
 2215SOL    HW2 7545   4.534   6.915   6.871
 2216SOL     OW 7546   0.694   6.853   6.345
 2216SOL    HW1 7547   0.648   6.862   6.433
 2216SOL    HW2 7548   0.767   6.920   6.338
 2217SOL     OW 7549   3.695   0.658   3.668
 2217SOL    HW1 7550   3.682   0.610   3.755
 2217SOL    HW2 7551   3.773   0.618   3.620
 2218SOL     OW 7552   0.613   5.889   5.877
 2218SOL    HW1 7553   0.639   5.985   5.881
 2218SOL    HW2 7554   0.635   5.845   5.965
 2219SOL     OW 7555   5.895   0.942   0.384
 2219SOL    HW1 7556   5.806   0.967   0.347
 2219SOL    HW2 7557   5.965   0.957   0.315
 2220SOL     OW 7558   0.953   5.900   5.500
 2220SOL    HW1 7559   0.893   5.851   5.564
 2220SOL    HW2 7560   1.000   5.835   5.441
 2221SOL     OW 7561   6.598   1.288   4.066
 2221SOL    HW1 7562   6.566   1.341   4.145
 2221SOL    HW2 7563   6.521   1.273   4.003
 2222SOL     OW 7564   4.864   6.583   2.042
 2222SOL    HW1 7565   4.813   6.658   2.084
 2222SOL    HW2 7566   4.802   6.528   1.986
 2223SOL     OW 7567   7.021   6.070   5.559
 2223SOL    HW1 7568   7.015   6.131   5.480
 2223SOL    HW2 7569   0.085   6.019   5.556
 2224SOL     OW 7570   5.706   4.191   0.759
 2224SOL    HW1 7571   5.691   4.167   0.855
 2224SOL    HW2 7572   5.795   4.156   0.730
 2225SOL     OW 7573   0.492   6.682   2.919
 2225SOL    HW1 7574   0.466   6.754   2.983
 2225SOL    HW2 7575   0.507   6.597   2.969
 2226SOL     OW 7576   2.139   5.393   0.747
 2226SOL    HW1 7577   2.120   5.338   0.666
 2226SOL    HW2 7578   2.180   5.336   0.818
 2227SOL     OW 7579   3.841   2.092   1.830
 2227SOL    HW1 7580   3.845   2.107   1.732
 2227SOL    HW2 7581   3.767   2.148   1.869
 2228SOL     OW 7582   5.617   4.966   0.126
 2228SOL    HW1 7583   5.681   4.919   0.065
 2228SOL    HW2 7584   5.660   5.050   0.160
 2229SOL     OW 7585   3.728   3.338   3.827
 2229SOL    HW1 7586   3.675   3.423   3.823
 2229SOL    HW2 7587   3.802   3.342   3.760
 2230SOL     OW 7588   5.776   0.201   0.606
 2230SOL    HW1 7589   5.827   0.182   0.522
 2230SOL    HW2 7590   5.755   0.114   0.652
 2231SOL     OW 7591   1.468   0.221   6.960
 2231SOL    HW1 7592   1.534   0.294   6.945
 2231SOL    HW2 7593   1.384   0.240   6.909
 2232SOL     OW 7594   1.127   0.649   5.420
 2232SOL    HW1 7595   1.197   0.602   5.366
 2232SOL    HW2 7596   1.139   0.625   5.516
 2233SOL     OW 7597   2.851   3.918   0.709
 2233SOL    HW1 7598   2.898   4.004   0.731
 2233SOL    HW2 7599   2.753   3.929   0.722
 2234SOL     OW 7600   4.657   1.384   1.331
 2234SOL    HW1 7601   4.682   1.431   1.247
 2234SOL    HW2 7602   4.734   1.330   1.364
 2235SOL     OW 7603   1.444   1.510   3.125
 2235SOL    HW1 7604   1.531   1.530   3.079
 2235SOL    HW2 7605   1.405   1.595   3.161
 2236SOL     OW 7606   2.086   4.236   5.435
 2236SOL    HW1 7607   2.023   4.306   5.468
 2236SOL    HW2 7608   2.045   4.188   5.358
 2237SOL     OW 7609   6.728   5.276   5.699
 2237SOL    HW1 7610   6.723   5.252   5.603
 2237SOL    HW2 7611   6.821   5.305   5.722
 2238SOL     OW 7612   5.370   4.203   2.243
 2238SOL    HW1 7613   5.445   4.220   2.179
 2238SOL    HW2 7614   5.343   4.289   2.287
 2239SOL     OW 7615   3.814   6.901   3.266
 2239SOL    HW1 7616   3.720   6.868   3.273
 2239SOL    HW2 7617   3.845   6.890   3.171
 2240SOL     OW 7618   5.098   5.176   3.242
 2240SOL    HW1 7619   5.127   5.092   3.288
 2240SOL    HW2 7620   5.008   5.203   3.277
 2241SOL     OW 7621   0.519   0.471   1.686
 2241SOL    HW1 7622   0.450   0.544   1.684
 2241SOL    HW2 7623   0.550   0.454   1.593
 2242SOL     OW 7624   4.847   3.163   3.360
 2242SOL    HW1 7625   4.775   3.223   3.394
 2242SOL    HW2 7626   4.877   3.194   3.270
 2243SOL     OW 7627   1.421   6.040   0.669
 2243SOL    HW1 7628   1.510   6.084   0.683
 2243SOL    HW2 7629   1.378   6.077   0.587
 2244SOL     OW 7630   2.780   0.301   0.404
 2244SOL    HW1 7631   2.719   0.280   0.480
 2244SOL    HW2 7632   2.727   0.302   0.319
 2245SOL     OW 7633   0.442   0.202   6.850
 2245SOL    HW1 7634   0.509   0.128   6.848
 2245SOL    HW2 7635   0.350   0.164   6.859
 2246SOL     OW 7636   2.281   0.953   5.215
 2246SOL    HW1 7637   2.379   0.963   5.202
 2246SOL    HW2 7638   2.253   0.996   5.301
 2247SOL     OW 7639   3.014   3.944   2.725
 2247SOL    HW1 7640   3.015   3.946   2.825
 2247SOL    HW2 7641   3.037   3.851   2.694
 2248SOL     OW 7642   5.264   4.127   5.041
 2248SOL    HW1 7643   5.206   4.205   5.016
 2248SOL    HW2 7644   5.347   4.128   4.986
 2249SOL     OW 7645   1.817   6.356   3.778
 2249SOL    HW1 7646   1.791   6.451   3.761
 2249SOL    HW2 7647   1.883   6.353   3.853
 2250SOL     OW 7648   4.302   4.660   6.612
 2250SOL    HW1 7649   4.351   4.744   6.636
 2250SOL    HW2 7650   4.215   4.658   6.662
 2251SOL     OW 7651   5.517   6.877   5.562
 2251SOL    HW1 7652   5.513   6.967   5.519
 2251SOL    HW2 7653   5.585   6.878   5.636
 2252SOL     OW 7654   4.401   1.386   2.914
 2252SOL    HW1 7655   4.347   1.431   2.985
 2252SOL    HW2 7656   4.358   1.404   2.825
 2253SOL     OW 7657   0.306   3.655   0.954
 2253SOL    HW1 7658   0.226   3.636   1.012
 2253SOL    HW2 7659   0.364   3.723   0.999
 2254SOL     OW 7660   3.798   3.533   2.784
 2254SOL    HW1 7661   3.874   3.509   2.724
 2254SOL    HW2 7662   3.713   3.494   2.749
 2255SOL     OW 7663   3.308   3.643   5.829
 2255SOL    HW1 7664   3.231   3.668   5.770
 2255SOL    HW2 7665   3.349   3.727   5.866
 2256SOL     OW 7666   4.709   6.776   2.156
 2256SOL    HW1 7667   4.680   6.741   2.245
 2256SOL    HW2 7668   4.733   6.873   2.164
 2257SOL     OW 7669   0.650   1.087   4.775
 2257SOL    HW1 7670   0.564   1.036   4.781
 2257SOL    HW2 7671   0.672   1.126   4.865
 2258SOL     OW 7672   2.718   5.884   3.849
 2258SOL    HW1 7673   2.678   5.814   3.791
 2258SOL    HW2 7674   2.734   5.967   3.794
 2259SOL     OW 7675   6.127   2.091   4.445
 2259SOL    HW1 7676   6.206   2.149   4.428
 2259SOL    HW2 7677   6.058   2.106   4.374
 2260SOL     OW 7678   1.272   3.702   1.633
 2260SOL    HW1 7679   1.354   3.654   1.602
 2260SOL    HW2 7680   1.194   3.677   1.575
 2261SOL     OW 7681   5.881   3.891   6.474
 2261SOL    HW1 7682   5.945   3.892   6.397
 2261SOL    HW2 7683   5.843   3.800   6.485
 2262SOL     OW 7684   6.395   0.345   4.477
 2262SOL    HW1 7685   6.492   0.368   4.468
 2262SOL    HW2 7686   6.370   0.280   4.405
 2263SOL     OW 7687   1.226   4.828   6.576
 2263SOL    HW1 7688   1.293   4.757   6.598
 2263SOL    HW2 7689   1.197   4.874   6.660
 2264SOL     OW 7690   2.008   0.009   5.444
 2264SOL    HW1 7691   1.932   6.966   5.460
 2264SOL    HW2 7692   1.998   0.088   5.505
 2265SOL     OW 7693   0.546   6.233   4.358
 2265SOL    HW1 7694   0.559   6.176   4.438
 2265SOL    HW2 7695   0.454   6.217   4.320
 2266SOL     OW 7696   4.554   1.812   6.706
 2266SOL    HW1 7697   4.597   1.722   6.713
 2266SOL    HW2 7698   4.598   1.865   6.634
 2267SOL     OW 7699   4.838   2.962   4.325
 2267SOL    HW1 7700   4.806   2.986   4.234
 2267SOL    HW2 7701   4.819   2.865   4.342
 2268SOL     OW 7702   0.346   5.051   5.999
 2268SOL    HW1 7703   0.288   5.132   5.988
 2268SOL    HW2 7704   0.362   5.035   6.097
 2269SOL     OW 7705   2.002   2.630   5.090
 2269SOL    HW1 7706   2.002   2.682   5.176
 2269SOL    HW2 7707   2.025   2.691   5.015
 2270SOL     OW 7708   4.882   1.674   6.028
 2270SOL    HW1 7709   4.918   1.697   6.119
 2270SOL    HW2 7710   4.915   1.583   6.002
 2271SOL     OW 7711   5.435   4.826   6.048
 2271SOL    HW1 7712   5.407   4.806   6.142
 2271SOL    HW2 7713   5.385   4.766   5.985
 2272SOL     OW 7714   5.833   1.038   5.850
 2272SOL    HW1 7715   5.752   1.095   5.859
 2272SOL    HW2 7716   5.833   0.992   5.761
 2273SOL     OW 7717   1.623   2.869   2.142
 2273SOL    HW1 7718   1.547   2.927   2.171
 2273SOL    HW2 7719   1.599   2.822   2.057
 2274SOL     OW 7720   0.540   1.048   6.512
 2274SOL    HW1 7721   0.510   0.959   6.479
 2274SOL    HW2 7722   0.497   1.068   6.599
 2275SOL     OW 7723   5.845   4.934   2.585
 2275SOL    HW1 7724   5.923   4.875   2.560
 2275SOL    HW2 7725   5.816   4.985   2.504
 2276SOL     OW 7726   1.231   1.941   1.089
 2276SOL    HW1 7727   1.234   2.041   1.080
 2276SOL    HW2 7728   1.157   1.916   1.152
 2277SOL     OW 7729   3.676   3.648   3.396
 2277SOL    HW1 7730   3.611   3.613   3.463
 2277SOL    HW2 7731   3.645   3.623   3.304
 2278SOL     OW 7732   0.647   2.074   4.120
 2278SOL    HW1 7733   0.597   2.020   4.052
 2278SOL    HW2 7734   0.669   2.016   4.198
 2279SOL     OW 7735   0.796   6.131   5.487
 2279SOL    HW1 7736   0.843   6.043   5.480
 2279SOL    HW2 7737   0.850   6.202   5.444
 2280SOL     OW 7738   5.076   1.734   5.151
 2280SOL    HW1 7739   4.990   1.746   5.102
 2280SOL    HW2 7740   5.119   1.648   5.123
 2281SOL     OW 7741   5.285   6.711   2.748
 2281SOL    HW1 7742   5.280   6.667   2.838
 2281SOL    HW2 7743   5.379   6.709   2.714
 2282SOL     OW 7744   4.193   5.997   5.677
 2282SOL    HW1 7745   4.258   6.039   5.740
 2282SOL    HW2 7746   4.154   6.068   5.618
 2283SOL     OW 7747   0.813   0.529   3.745
 2283SOL    HW1 7748   0.849   0.595   3.811
 2283SOL    HW2 7749   0.872   0.527   3.664
 2284SOL     OW 7750   1.401   3.214   6.631
 2284SOL    HW1 7751   1.472   3.285   6.629
 2284SOL    HW2 7752   1.422   3.144   6.562
 2285SOL     OW 7753   1.119   4.477   6.432
 2285SOL    HW1 7754   1.199   4.426   6.400
 2285SOL    HW2 7755   1.119   4.478   6.532
 2286SOL     OW 7756   4.592   6.014   4.327
 2286SOL    HW1 7757   4.636   6.086   4.380
 2286SOL    HW2 7758   4.656   5.938   4.314
 2287SOL     OW 7759   1.868   0.840   3.288
 2287SOL    HW1 7760   1.945   0.900   3.309
 2287SOL    HW2 7761   1.902   0.751   3.258
 2288SOL     OW 7762   0.147   6.437   2.796
 2288SOL    HW1 7763   0.118   6.343   2.777
 2288SOL    HW2 7764   0.104   6.468   2.881
 2289SOL     OW 7765   1.143   5.824   1.745
 2289SOL    HW1 7766   1.184   5.872   1.666
 2289SOL    HW2 7767   1.216   5.780   1.797
 2290SOL     OW 7768   1.105   5.068   0.638
 2290SOL    HW1 7769   1.046   5.037   0.713
 2290SOL    HW2 7770   1.118   5.167   0.644
 2291SOL     OW 7771   2.887   1.978   6.301
 2291SOL    HW1 7772   2.810   1.923   6.269
 2291SOL    HW2 7773   2.856   2.070   6.323
 2292SOL     OW 7774   1.407   0.971   4.525
 2292SOL    HW1 7775   1.401   1.047   4.590
 2292SOL    HW2 7776   1.329   0.910   4.539
 2293SOL     OW 7777   5.374   5.051   2.252
 2293SOL    HW1 7778   5.360   5.025   2.157
 2293SOL    HW2 7779   5.455   5.108   2.260
 2294SOL     OW 7780   4.444   6.528   6.852
 2294SOL    HW1 7781   4.420   6.499   6.760
 2294SOL    HW2 7782   4.479   6.450   6.904
 2295SOL     OW 7783   0.241   2.213   1.306
 2295SOL    HW1 7784   0.283   2.173   1.224
 2295SOL    HW2 7785   0.170   2.278   1.279
 2296SOL     OW 7786   2.953   6.870   0.051
 2296SOL    HW1 7787   3.033   6.840   7.020
 2296SOL    HW2 7788   2.898   6.790   0.076
 2297SOL     OW 7789   3.975   4.950   5.715
 2297SOL    HW1 7790   3.906   4.968   5.644
 2297SOL    HW2 7791   3.960   5.012   5.792
 2298SOL     OW 7792   3.586   2.596   0.815
 2298SOL    HW1 7793   3.624   2.606   0.907
 2298SOL    HW2 7794   3.577   2.499   0.792
 2299SOL     OW 7795   4.912   5.658   6.783
 2299SOL    HW1 7796   5.005   5.619   6.782
 2299SOL    HW2 7797   4.861   5.621   6.706
 2300SOL     OW 7798   1.893   5.279   1.037
 2300SOL    HW1 7799   1.990   5.267   1.056
 2300SOL    HW2 7800   1.867   5.373   1.058
 2301SOL     OW 7801   4.091   3.174   2.318
 2301SOL    HW1 7802   4.045   3.159   2.230
 2301SOL    HW2 7803   4.039   3.130   2.391
 2302SOL     OW 7804   3.387   5.913   2.717
 2302SOL    HW1 7805   3.326   5.975   2.667
 2302SOL    HW2 7806   3.481   5.925   2.686
 2303SOL     OW 7807   1.254   2.303   4.564
 2303SOL    HW1 7808   1.185   2.368   4.534
 2303SOL    HW2 7809   1.300   2.264   4.484
 2304SOL     OW 7810   2.017   1.279   3.601
 2304SOL    HW1 7811   1.987   1.203   3.658
 2304SOL    HW2 7812   2.046   1.355   3.659
 2305SOL     OW 7813   3.131   5.457   2.431
 2305SOL    HW1 7814   3.229   5.449   2.450
 2305SOL    HW2 7815   3.095   5.539   2.476
 2306SOL     OW 7816   1.392   4.037   1.317
 2306SOL    HW1 7817   1.396   3.938   1.301
 2306SOL    HW2 7818   1.412   4.056   1.413
 2307SOL     OW 7819   0.550   2.596   3.105
 2307SOL    HW1 7820   0.523   2.692   3.103
 2307SOL    HW2 7821   0.639   2.586   3.061
 2308SOL     OW 7822   0.119   6.904   6.806
 2308SOL    HW1 7823   0.131   6.983   6.866
 2308SOL    HW2 7824   0.180   6.912   6.727
 2309SOL     OW 7825   3.675   5.762   6.405
 2309SOL    HW1 7826   3.686   5.731   6.500
 2309SOL    HW2 7827   3.734   5.708   6.345
 2310SOL     OW 7828   5.273   1.162   1.931
 2310SOL    HW1 7829   5.246   1.067   1.912
 2310SOL    HW2 7830   5.202   1.224   1.897
 2311SOL     OW 7831   2.835   0.073   3.127
 2311SOL    HW1 7832   2.788   7.018   3.083
 2311SOL    HW2 7833   2.895   0.118   3.060
 2312SOL     OW 7834   3.863   0.302   3.031
 2312SOL    HW1 7835   3.922   0.367   2.983
 2312SOL    HW2 7836   3.919   0.229   3.071
 2313SOL     OW 7837   4.897   4.096   2.171
 2313SOL    HW1 7838   4.990   4.125   2.147
 2313SOL    HW2 7839   4.901   4.030   2.246
 2314SOL     OW 7840   6.213   7.006   3.713
 2314SOL    HW1 7841   6.248   6.993   3.620
 2314SOL    HW2 7842   6.241   0.075   3.747
 2315SOL     OW 7843   4.330   4.606   5.669
 2315SOL    HW1 7844   4.239   4.579   5.638
 2315SOL    HW2 7845   4.330   4.703   5.694
 2316SOL     OW 7846   3.262   1.013   5.894
 2316SOL    HW1 7847   3.254   0.973   5.985
 2316SOL    HW2 7848   3.234   1.109   5.897
 2317SOL     OW 7849   6.219   6.016   3.882
 2317SOL    HW1 7850   6.131   6.060   3.898
 2317SOL    HW2 7851   6.259   5.989   3.970
 2318SOL     OW 7852   2.082   4.474   5.161
 2318SOL    HW1 7853   2.099   4.392   5.106
 2318SOL    HW2 7854   2.130   4.465   5.248
 2319SOL     OW 7855   2.401   4.966   4.586
 2319SOL    HW1 7856   2.442   4.961   4.496
 2319SOL    HW2 7857   2.350   5.052   4.595
 2320SOL     OW 7858   1.146   3.204   5.214
 2320SOL    HW1 7859   1.083   3.133   5.245
 2320SOL    HW2 7860   1.226   3.206   5.274
 2321SOL     OW 7861   2.860   5.051   6.079
 2321SOL    HW1 7862   2.890   4.977   6.018
 2321SOL    HW2 7863   2.879   5.025   6.174
 2322SOL     OW 7864   2.095   3.658   2.543
 2322SOL    HW1 7865   2.092   3.636   2.446
 2322SOL    HW2 7866   2.107   3.573   2.595
 2323SOL     OW 7867   2.609   4.880   1.674
 2323SOL    HW1 7868   2.651   4.885   1.765
 2323SOL    HW2 7869   2.579   4.971   1.646
 2324SOL     OW 7870   0.867   5.353   2.048
 2324SOL    HW1 7871   0.836   5.408   2.126
 2324SOL    HW2 7872   0.840   5.258   2.061
 2325SOL     OW 7873   6.981   5.052   2.046
 2325SOL    HW1 7874   6.952   4.995   1.969
 2325SOL    HW2 7875   6.901   5.085   2.096
 2326SOL     OW 7876   1.153   0.024   6.809
 2326SOL    HW1 7877   1.228   6.992   6.769
 2326SOL    HW2 7878   1.171   0.122   6.797
 2327SOL     OW 7879   6.896   0.265   2.224
 2327SOL    HW1 7880   6.976   0.217   2.259
 2327SOL    HW2 7881   6.819   0.251   2.286
 2328SOL     OW 7882   1.278   1.829   2.336
 2328SOL    HW1 7883   1.223   1.857   2.257
 2328SOL    HW2 7884   1.345   1.760   2.308
 2329SOL     OW 7885   1.148   4.991   3.800
 2329SOL    HW1 7886   1.214   4.958   3.868
 2329SOL    HW2 7887   1.125   5.086   3.820
 2330SOL     OW 7888   6.772   3.246   0.383
 2330SOL    HW1 7889   6.832   3.296   0.445
 2330SOL    HW2 7890   6.714   3.184   0.435
 2331SOL     OW 7891   3.542   5.997   0.175
 2331SOL    HW1 7892   3.626   6.010   0.121
 2331SOL    HW2 7893   3.486   5.927   0.131
 2332SOL     OW 7894   5.627   0.180   5.861
 2332SOL    HW1 7895   5.614   0.210   5.955
 2332SOL    HW2 7896   5.721   0.148   5.849
 2333SOL     OW 7897   6.888   5.082   2.942
 2333SOL    HW1 7898   6.853   5.082   3.036
 2333SOL    HW2 7899   6.816   5.109   2.879
 2334SOL     OW 7900   2.614   0.983   5.885
 2334SOL    HW1 7901   2.540   1.019   5.942
 2334SOL    HW2 7902   2.608   1.022   5.793
 2335SOL     OW 7903   5.962   1.987   3.994
 2335SOL    HW1 7904   6.057   1.981   4.027
 2335SOL    HW2 7905   5.916   1.900   4.010
 2336SOL     OW 7906   2.190   1.652   3.487
 2336SOL    HW1 7907   2.260   1.720   3.464
 2336SOL    HW2 7908   2.227   1.587   3.552
 2337SOL     OW 7909   4.251   2.040   1.165
 2337SOL    HW1 7910   4.207   2.098   1.097
 2337SOL    HW2 7911   4.333   2.086   1.200
 2338SOL     OW 7912   0.391   3.314   4.022
 2338SOL    HW1 7913   0.408   3.291   4.118
 2338SOL    HW2 7914   0.315   3.378   4.016
 2339SOL     OW 7915   3.112   3.428   2.944
 2339SOL    HW1 7916   3.157   3.357   2.890
 2339SOL    HW2 7917   3.131   3.518   2.904
 2340SOL     OW 7918   0.635   5.149   6.463
 2340SOL    HW1 7919   0.659   5.089   6.540
 2340SOL    HW2 7920   0.575   5.100   6.400
 2341SOL     OW 7921   2.299   4.341   3.056
 2341SOL    HW1 7922   2.214   4.321   3.008
 2341SOL    HW2 7923   2.324   4.264   3.114
 2342SOL     OW 7924   3.102   6.660   4.553
 2342SOL    HW1 7925   3.132   6.665   4.458
 2342SOL    HW2 7926   3.114   6.749   4.597
 2343SOL     OW 7927   2.082   6.221   3.066
 2343SOL    HW1 7928   2.009   6.205   3.000
 2343SOL    HW2 7929   2.068   6.309   3.112
 2344SOL     OW 7930   6.732   5.028   0.831
 2344SOL    HW1 7931   6.800   5.043   0.760
 2344SOL    HW2 7932   6.697   4.935   0.826
 2345SOL     OW 7933   2.596   5.806   4.817
 2345SOL    HW1 7934   2.527   5.866   4.778
 2345SOL    HW2 7935   2.674   5.861   4.848
 2346SOL     OW 7936   4.007   3.351   6.254
 2346SOL    HW1 7937   4.039   3.422   6.191
 2346SOL    HW2 7938   3.921   3.312   6.220
 2347SOL     OW 7939   1.346   2.115   1.510
 2347SOL    HW1 7940   1.246   2.113   1.516
 2347SOL    HW2 7941   1.379   2.027   1.475
 2348SOL     OW 7942   1.548   6.291   3.042
 2348SOL    HW1 7943   1.494   6.356   3.096
 2348SOL    HW2 7944   1.626   6.259   3.096
 2349SOL     OW 7945   0.716   3.830   6.509
 2349SOL    HW1 7946   0.725   3.798   6.603
 2349SOL    HW2 7947   0.723   3.752   6.447
 2350SOL     OW 7948   5.894   4.154   5.529
 2350SOL    HW1 7949   5.979   4.149   5.581
 2350SOL    HW2 7950   5.907   4.110   5.440
 2351SOL     OW 7951   3.010   4.838   2.950
 2351SOL    HW1 7952   2.963   4.926   2.952
 2351SOL    HW2 7953   2.982   4.784   3.030
 2352SOL     OW 7954   6.840   2.978   3.413
 2352SOL    HW1 7955   6.896   2.965   3.331
 2352SOL    HW2 7956   6.750   3.012   3.386
 2353SOL     OW 7957   4.148   5.105   5.311
 2353SOL    HW1 7958   4.071   5.122   5.249
 2353SOL    HW2 7959   4.116   5.055   5.391
 2354SOL     OW 7960   2.774   2.218   4.498
 2354SOL    HW1 7961   2.739   2.303   4.535
 2354SOL    HW2 7962   2.871   2.228   4.477
 2355SOL     OW 7963   2.408   6.281   4.806
 2355SOL    HW1 7964   2.495   6.285   4.757
 2355SOL    HW2 7965   2.335   6.312   4.745
 2356SOL     OW 7966   0.720   3.001   6.786
 2356SOL    HW1 7967   0.820   2.999   6.792
 2356SOL    HW2 7968   0.688   3.095   6.795
 2357SOL     OW 7969   3.185   1.168   1.811
 2357SOL    HW1 7970   3.192   1.118   1.897
 2357SOL    HW2 7971   3.143   1.258   1.828
 2358SOL     OW 7972   2.792   4.787   5.842
 2358SOL    HW1 7973   2.775   4.764   5.937
 2358SOL    HW2 7974   2.853   4.719   5.801
 2359SOL     OW 7975   1.350   0.086   5.431
 2359SOL    HW1 7976   1.335   0.083   5.332
 2359SOL    HW2 7977   1.363   0.181   5.460
 2360SOL     OW 7978   6.286   3.786   0.895
 2360SOL    HW1 7979   6.272   3.764   0.992
 2360SOL    HW2 7980   6.270   3.703   0.840
 2361SOL     OW 7981   2.851   0.812   6.255
 2361SOL    HW1 7982   2.786   0.760   6.310
 2361SOL    HW2 7983   2.937   0.821   6.305
 2362SOL     OW 7984   3.286   5.139   3.560
 2362SOL    HW1 7985   3.295   5.056   3.504
 2362SOL    HW2 7986   3.318   5.120   3.653
 2363SOL     OW 7987   3.865   2.125   3.230
 2363SOL    HW1 7988   3.807   2.071   3.169
 2363SOL    HW2 7989   3.813   2.153   3.310
 2364SOL     OW 7990   0.980   2.749   1.429
 2364SOL    HW1 7991   0.958   2.651   1.437
 2364SOL    HW2 7992   0.897   2.800   1.407
 2365SOL     OW 7993   6.014   2.214   6.855
 2365SOL    HW1 7994   5.984   2.156   6.930
 2365SOL    HW2 7995   6.113   2.204   6.843
 2366SOL     OW 7996   3.886   5.234   0.647
 2366SOL    HW1 7997   3.826   5.248   0.568
 2366SOL    HW2 7998   3.934   5.147   0.638
 2367SOL     OW 7999   2.330   3.037   0.325
 2367SOL    HW1 8000   2.350   2.939   0.325
 2367SOL    HW2 8001   2.411   3.087   0.292
 2368SOL     OW 8002   5.739   0.614   3.776
 2368SOL    HW1 8003   5.690   0.680   3.833
 2368SOL    HW2 8004   5.802   0.560   3.833
 2369SOL     OW 8005   1.988   6.930   3.911
 2369SOL    HW1 8006   2.021   0.003   3.909
 2369SOL    HW2 8007   1.993   6.895   4.005
 2370SOL     OW 8008   5.993   2.710   6.766
 2370SOL    HW1 8009   5.986   2.791   6.824
 2370SOL    HW2 8010   5.974   2.628   6.820
 2371SOL     OW 8011   2.277   0.124   1.753
 2371SOL    HW1 8012   2.217   0.049   1.725
 2371SOL    HW2 8013   2.221   0.206   1.771
 2372SOL     OW 8014   6.904   2.717   2.112
 2372SOL    HW1 8015   6.978   2.785   2.119
 2372SOL    HW2 8016   6.940   2.627   2.134
 2373SOL     OW 8017   2.017   3.803   5.675
 2373SOL    HW1 8018   2.027   3.767   5.582
 2373SOL    HW2 8019   1.998   3.728   5.738
 2374SOL     OW 8020   6.510   1.983   5.238
 2374SOL    HW1 8021   6.410   1.983   5.228
 2374SOL    HW2 8022   6.547   2.069   5.202
 2375SOL     OW 8023   3.411   5.562   5.690
 2375SOL    HW1 8024   3.326   5.602   5.725
 2375SOL    HW2 8025   3.391   5.477   5.642
 2376SOL     OW 8026   6.162   3.738   3.457
 2376SOL    HW1 8027   6.221   3.713   3.380
 2376SOL    HW2 8028   6.095   3.666   3.474
 2377SOL     OW 8029   3.401   3.817   3.872
 2377SOL    HW1 8030   3.313   3.779   3.897
 2377SOL    HW2 8031   3.412   3.907   3.915
 2378SOL     OW 8032   4.827   2.102   0.326
 2378SOL    HW1 8033   4.856   2.046   0.248
 2378SOL    HW2 8034   4.805   2.195   0.294
 2379SOL     OW 8035   6.418   0.982   0.702
 2379SOL    HW1 8036   6.424   1.045   0.625
 2379SOL    HW2 8037   6.387   1.030   0.784
 2380SOL     OW 8038   6.625   2.768   0.598
 2380SOL    HW1 8039   6.714   2.800   0.566
 2380SOL    HW2 8040   6.599   2.686   0.547
 2381SOL     OW 8041   1.981   5.771   3.418
 2381SOL    HW1 8042   1.971   5.674   3.400
 2381SOL    HW2 8043   2.079   5.794   3.420
 2382SOL     OW 8044   1.745   3.328   4.490
 2382SOL    HW1 8045   1.725   3.404   4.552
 2382SOL    HW2 8046   1.782   3.251   4.542
 2383SOL     OW 8047   6.784   6.364   1.077
 2383SOL    HW1 8048   6.815   6.457   1.057
 2383SOL    HW2 8049   6.728   6.330   1.002
 2384SOL     OW 8050   4.930   1.942   2.076
 2384SOL    HW1 8051   4.979   1.973   2.158
 2384SOL    HW2 8052   4.843   1.902   2.103
 2385SOL     OW 8053   0.351   0.771   6.714
 2385SOL    HW1 8054   0.293   0.803   6.789
 2385SOL    HW2 8055   0.387   0.681   6.735
 2386SOL     OW 8056   4.742   5.778   5.149
 2386SOL    HW1 8057   4.814   5.822   5.202
 2386SOL    HW2 8058   4.654   5.793   5.193
 2387SOL     OW 8059   1.557   1.040   3.989
 2387SOL    HW1 8060   1.542   1.112   4.057
 2387SOL    HW2 8061   1.565   1.082   3.898
 2388SOL     OW 8062   6.576   2.946   3.875
 2388SOL    HW1 8063   6.638   2.947   3.796
 2388SOL    HW2 8064   6.568   2.852   3.909
 2389SOL     OW 8065   4.465   4.650   3.578
 2389SOL    HW1 8066   4.532   4.578   3.562
 2389SOL    HW2 8067   4.457   4.668   3.676
 2390SOL     OW 8068   4.025   3.800   2.708
 2390SOL    HW1 8069   3.984   3.887   2.682
 2390SOL    HW2 8070   4.033   3.795   2.808
 2391SOL     OW 8071   4.839   4.704   6.291
 2391SOL    HW1 8072   4.870   4.611   6.306
 2391SOL    HW2 8073   4.764   4.704   6.225
 2392SOL     OW 8074   2.514   6.883   6.644
 2392SOL    HW1 8075   2.554   6.843   6.562
 2392SOL    HW2 8076   2.419   6.911   6.624
 2393SOL     OW 8077   4.614   4.502   6.483
 2393SOL    HW1 8078   4.708   4.474   6.464
 2393SOL    HW2 8079   4.607   4.532   6.579
 2394SOL     OW 8080   6.879   4.362   4.935
 2394SOL    HW1 8081   6.966   4.361   4.984
 2394SOL    HW2 8082   6.806   4.389   4.997
 2395SOL     OW 8083   4.692   6.580   5.907
 2395SOL    HW1 8084   4.771   6.593   5.967
 2395SOL    HW2 8085   4.695   6.488   5.868
 2396SOL     OW 8086   3.912   5.242   1.171
 2396SOL    HW1 8087   3.978   5.316   1.180
 2396SOL    HW2 8088   3.904   5.216   1.075
 2397SOL     OW 8089   0.518   4.203   4.124
 2397SOL    HW1 8090   0.574   4.210   4.207
 2397SOL    HW2 8091   0.483   4.110   4.116
 2398SOL     OW 8092   5.118   4.328   6.432
 2398SOL    HW1 8093   5.188   4.356   6.367
 2398SOL    HW2 8094   5.158   4.266   6.499
 2399SOL     OW 8095   4.521   1.144   1.158
 2399SOL    HW1 8096   4.515   1.059   1.210
 2399SOL    HW2 8097   4.514   1.222   1.221
 2400SOL     OW 8098   2.559   4.235   0.498
 2400SOL    HW1 8099   2.576   4.139   0.476
 2400SOL    HW2 8100   2.475   4.243   0.552
 2401SOL     OW 8101   5.818   6.415   6.018
 2401SOL    HW1 8102   5.909   6.402   6.057
 2401SOL    HW2 8103   5.749   6.404   6.090
 2402SOL     OW 8104   0.819   6.821   4.074
 2402SOL    HW1 8105   0.811   6.741   4.133
 2402SOL    HW2 8106   0.883   6.801   4.000
 2403SOL     OW 8107   1.065   2.823   5.294
 2403SOL    HW1 8108   1.127   2.785   5.226
 2403SOL    HW2 8109   1.016   2.900   5.255
 2404SOL     OW 8110   2.332   0.890   0.969
 2404SOL    HW1 8111   2.397   0.965   0.968
 2404SOL    HW2 8112   2.373   0.809   0.929
 2405SOL     OW 8113   3.274   4.054   2.701
 2405SOL    HW1 8114   3.299   4.081   2.608
 2405SOL    HW2 8115   3.180   4.022   2.703
 2406SOL     OW 8116   4.125   1.411   0.747
 2406SOL    HW1 8117   4.165   1.385   0.659
 2406SOL    HW2 8118   4.147   1.342   0.815
 2407SOL     OW 8119   5.503   1.846   3.435
 2407SOL    HW1 8120   5.510   1.919   3.504
 2407SOL    HW2 8121   5.414   1.802   3.443
 2408SOL     OW 8122   4.701   4.498   2.077
 2408SOL    HW1 8123   4.788   4.454   2.098
 2408SOL    HW2 8124   4.630   4.428   2.066
 2409SOL     OW 8125   2.226   3.654   1.342
 2409SOL    HW1 8126   2.261   3.713   1.269
 2409SOL    HW2 8127   2.172   3.709   1.406
 2410SOL     OW 8128   3.385   2.867   3.762
 2410SOL    HW1 8129   3.343   2.955   3.782
 2410SOL    HW2 8130   3.321   2.809   3.712
 2411SOL     OW 8131   5.337   6.509   5.045
 2411SOL    HW1 8132   5.433   6.485   5.035
 2411SOL    HW2 8133   5.297   6.458   5.121
 2412SOL     OW 8134   5.431   3.876   1.345
 2412SOL    HW1 8135   5.502   3.811   1.316
 2412SOL    HW2 8136   5.347   3.826   1.366
 2413SOL     OW 8137   5.438   0.265   1.942
 2413SOL    HW1 8138   5.355   0.291   1.893
 2413SOL    HW2 8139   5.484   0.347   1.976
 2414SOL     OW 8140   4.881   3.336   3.740
 2414SOL    HW1 8141   4.859   3.239   3.753
 2414SOL    HW2 8142   4.839   3.390   3.813
 2415SOL     OW 8143   5.691   1.522   2.951
 2415SOL    HW1 8144   5.692   1.612   2.993
 2415SOL    HW2 8145   5.686   1.532   2.851
 2416SOL     OW 8146   5.134   1.741   6.203
 2416SOL    HW1 8147   5.165   1.771   6.112
 2416SOL    HW2 8148   5.155   1.644   6.215
 2417SOL     OW 8149   3.024   3.139   4.657
 2417SOL    HW1 8150   3.095   3.076   4.686
 2417SOL    HW2 8151   2.959   3.092   4.597
 2418SOL     OW 8152   3.391   3.280   3.574
 2418SOL    HW1 8153   3.383   3.374   3.608
 2418SOL    HW2 8154   3.354   3.217   3.642
 2419SOL     OW 8155   0.463   6.922   3.088
 2419SOL    HW1 8156   0.374   6.940   3.047
 2419SOL    HW2 8157   0.535   6.960   3.029
 2420SOL     OW 8158   2.715   0.162   1.646
 2420SOL    HW1 8159   2.638   0.208   1.603
 2420SOL    HW2 8160   2.789   0.228   1.661
 2421SOL     OW 8161   1.409   2.675   4.740
 2421SOL    HW1 8162   1.424   2.643   4.834
 2421SOL    HW2 8163   1.319   2.718   4.734
 2422SOL     OW 8164   5.087   2.206   1.073
 2422SOL    HW1 8165   5.053   2.201   1.167
 2422SOL    HW2 8166   5.085   2.301   1.042
 2423SOL     OW 8167   2.428   5.776   2.394
 2423SOL    HW1 8168   2.486   5.696   2.380
 2423SOL    HW2 8169   2.415   5.824   2.307
 2424SOL     OW 8170   5.963   1.247   0.076
 2424SOL    HW1 8171   5.972   1.159   0.123
 2424SOL    HW2 8172   6.054   1.279   0.047
 2425SOL     OW 8173   6.244   6.728   3.721
 2425SOL    HW1 8174   6.162   6.679   3.750
 2425SOL    HW2 8175   6.245   6.819   3.762
 2426SOL     OW 8176   2.316   4.381   4.443
 2426SOL    HW1 8177   2.393   4.431   4.483
 2426SOL    HW2 8178   2.326   4.380   4.343
 2427SOL     OW 8179   6.188   6.096   4.994
 2427SOL    HW1 8180   6.288   6.095   4.996
 2427SOL    HW2 8181   6.153   6.104   5.087
 2428SOL     OW 8182   0.819   0.535   1.150
 2428SOL    HW1 8183   0.736   0.478   1.149
 2428SOL    HW2 8184   0.823   0.587   1.235
 2429SOL     OW 8185   4.822   5.788   1.945
 2429SOL    HW1 8186   4.782   5.768   1.855
 2429SOL    HW2 8187   4.921   5.798   1.935
 2430SOL     OW 8188   6.143   0.797   2.720
 2430SOL    HW1 8189   6.238   0.826   2.731
 2430SOL    HW2 8190   6.127   0.714   2.774
 2431SOL     OW 8191   4.360   0.600   1.923
 2431SOL    HW1 8192   4.396   0.563   2.009
 2431SOL    HW2 8193   4.291   0.539   1.887
 2432SOL     OW 8194   3.811   6.197   2.202
 2432SOL    HW1 8195   3.869   6.216   2.282
 2432SOL    HW2 8196   3.819   6.273   2.137
 2433SOL     OW 8197   4.176   0.138   6.855
 2433SOL    HW1 8198   4.111   0.203   6.894
 2433SOL    HW2 8199   4.185   0.060   6.916
 2434SOL     OW 8200   3.738   1.952   5.934
 2434SOL    HW1 8201   3.723   1.940   6.032
 2434SOL    HW2 8202   3.698   1.875   5.885
 2435SOL     OW 8203   5.958   5.464   4.714
 2435SOL    HW1 8204   6.030   5.446   4.647
 2435SOL    HW2 8205   5.869   5.447   4.671
 2436SOL     OW 8206   3.086   5.664   0.309
 2436SOL    HW1 8207   3.167   5.644   0.363
 2436SOL    HW2 8208   3.057   5.758   0.325
 2437SOL     OW 8209   6.506   6.729   5.760
 2437SOL    HW1 8210   6.453   6.813   5.773
 2437SOL    HW2 8211   6.533   6.723   5.664
 2438SOL     OW 8212   3.032   2.015   0.844
 2438SOL    HW1 8213   2.977   1.932   0.831
 2438SOL    HW2 8214   3.127   1.991   0.859
 2439SOL     OW 8215   5.863   4.068   4.900
 2439SOL    HW1 8216   5.784   4.094   4.843
 2439SOL    HW2 8217   5.946   4.109   4.863
 2440SOL     OW 8218   5.801   5.026   6.197
 2440SOL    HW1 8219   5.824   5.118   6.168
 2440SOL    HW2 8220   5.741   4.983   6.129
 2441SOL     OW 8221   5.890   2.353   0.940
 2441SOL    HW1 8222   5.984   2.327   0.963
 2441SOL    HW2 8223   5.891   2.436   0.884
 2442SOL     OW 8224   0.303   3.739   4.484
 2442SOL    HW1 8225   0.239   3.706   4.553
 2442SOL    HW2 8226   0.396   3.714   4.510
 2443SOL     OW 8227   2.491   4.551   6.139
 2443SOL    HW1 8228   2.396   4.548   6.171
 2443SOL    HW2 8229   2.514   4.465   6.095
 2444SOL     OW 8230   2.657   3.489   5.704
 2444SOL    HW1 8231   2.563   3.475   5.674
 2444SOL    HW2 8232   2.720   3.462   5.631
 2445SOL     OW 8233   1.167   0.784   1.035
 2445SOL    HW1 8234   1.180   0.699   0.984
 2445SOL    HW2 8235   1.155   0.763   1.132
 2446SOL     OW 8236   6.419   4.484   6.078
 2446SOL    HW1 8237   6.518   4.466   6.080
 2446SOL    HW2 8238   6.378   4.431   6.004
 2447SOL     OW 8239   0.555   1.684   6.526
 2447SOL    HW1 8240   0.529   1.741   6.447
 2447SOL    HW2 8241   0.481   1.621   6.548
 2448SOL     OW 8242   1.124   6.890   4.189
 2448SOL    HW1 8243   1.120   6.859   4.093
 2448SOL    HW2 8244   1.155   6.984   4.192
 2449SOL     OW 8245   0.118   3.234   5.416
 2449SOL    HW1 8246   0.114   3.141   5.379
 2449SOL    HW2 8247   0.154   3.231   5.509
 2450SOL     OW 8248   2.114   3.370   3.040
 2450SOL    HW1 8249   2.022   3.408   3.037
 2450SOL    HW2 8250   2.181   3.442   3.023
 2451SOL     OW 8251   2.553   6.513   4.015
 2451SOL    HW1 8252   2.543   6.419   3.982
 2451SOL    HW2 8253   2.509   6.522   4.104
 2452SOL     OW 8254   1.229   2.396   4.184
 2452SOL    HW1 8255   1.185   2.334   4.119
 2452SOL    HW2 8256   1.325   2.407   4.159
 2453SOL     OW 8257   0.405   3.914   2.072
 2453SOL    HW1 8258   0.425   3.983   2.141
 2453SOL    HW2 8259   0.435   3.824   2.104
 2454SOL     OW 8260   2.533   0.887   2.168
 2454SOL    HW1 8261   2.472   0.956   2.129
 2454SOL    HW2 8262   2.529   0.892   2.268
 2455SOL     OW 8263   5.647   5.904   0.271
 2455SOL    HW1 8264   5.583   5.848   0.218
 2455SOL    HW2 8265   5.741   5.878   0.249
 2456SOL     OW 8266   3.915   6.340   1.085
 2456SOL    HW1 8267   3.861   6.348   1.169
 2456SOL    HW2 8268   3.977   6.418   1.078
 2457SOL     OW 8269   5.595   6.631   1.701
 2457SOL    HW1 8270   5.693   6.612   1.712
 2457SOL    HW2 8271   5.583   6.710   1.642
 2458SOL     OW 8272   0.605   5.869   3.469
 2458SOL    HW1 8273   0.623   5.942   3.535
 2458SOL    HW2 8274   0.623   5.781   3.512
 2459SOL     OW 8275   1.954   0.556   0.543
 2459SOL    HW1 8276   1.944   0.547   0.642
 2459SOL    HW2 8277   1.863   0.560   0.501
 2460SOL     OW 8278   3.123   5.347   1.441
 2460SOL    HW1 8279   3.139   5.251   1.465
 2460SOL    HW2 8280   3.209   5.389   1.410
 2461SOL     OW 8281   5.783   1.441   3.192
 2461SOL    HW1 8282   5.785   1.480   3.100
 2461SOL    HW2 8283   5.874   1.447   3.232
 2462SOL     OW 8284   1.834   4.488   6.495
 2462SOL    HW1 8285   1.845   4.404   6.441
 2462SOL    HW2 8286   1.924   4.518   6.529
 2463SOL     OW 8287   6.903   1.616   3.910
 2463SOL    HW1 8288   6.908   1.678   3.832
 2463SOL    HW2 8289   6.996   1.595   3.942
 2464SOL     OW 8290   1.601   3.304   1.337
 2464SOL    HW1 8291   1.530   3.239   1.365
 2464SOL    HW2 8292   1.569   3.355   1.257
 2465SOL     OW 8293   6.243   5.472   3.643
 2465SOL    HW1 8294   6.170   5.451   3.709
 2465SOL    HW2 8295   6.227   5.562   3.603
 2466SOL     OW 8296   3.431   1.143   2.137
 2466SOL    HW1 8297   3.447   1.065   2.197
 2466SOL    HW2 8298   3.516   1.166   2.090
 2467SOL     OW 8299   6.642   1.179   5.600
 2467SOL    HW1 8300   6.558   1.150   5.554
 2467SOL    HW2 8301   6.641   1.278   5.612
 2468SOL     OW 8302   6.937   3.645   0.397
 2468SOL    HW1 8303   6.992   3.690   0.467
 2468SOL    HW2 8304   6.971   3.671   0.307
 2469SOL     OW 8305   2.565   3.105   5.673
 2469SOL    HW1 8306   2.572   3.124   5.576
 2469SOL    HW2 8307   2.656   3.092   5.712
 2470SOL     OW 8308   5.455   2.713   0.279
 2470SOL    HW1 8309   5.490   2.627   0.316
 2470SOL    HW2 8310   5.468   2.714   0.180
 2471SOL     OW 8311   0.692   0.348   3.564
 2471SOL    HW1 8312   0.620   0.280   3.551
 2471SOL    HW2 8313   0.659   0.420   3.625
 2472SOL     OW 8314   5.280   1.589   3.212
 2472SOL    HW1 8315   5.377   1.565   3.220
 2472SOL    HW2 8316   5.243   1.610   3.303
 2473SOL     OW 8317   0.457   6.848   5.337
 2473SOL    HW1 8318   0.434   6.834   5.241
 2473SOL    HW2 8319   0.491   6.763   5.376
 2474SOL     OW 8320   5.418   5.283   4.885
 2474SOL    HW1 8321   5.402   5.266   4.982
 2474SOL    HW2 8322   5.495   5.345   4.874
 2475SOL     OW 8323   4.131   2.242   6.550
 2475SOL    HW1 8324   4.175   2.301   6.483
 2475SOL    HW2 8325   4.087   2.165   6.503
 2476SOL     OW 8326   0.369   1.889   3.584
 2476SOL    HW1 8327   0.435   1.827   3.541
 2476SOL    HW2 8328   0.360   1.866   3.681
 2477SOL     OW 8329   4.312   4.868   2.013
 2477SOL    HW1 8330   4.247   4.901   1.945
 2477SOL    HW2 8331   4.400   4.911   1.999
 2478SOL     OW 8332   6.419   6.989   3.037
 2478SOL    HW1 8333   6.413   0.063   3.068
 2478SOL    HW2 8334   6.380   6.981   2.945
 2479SOL     OW 8335   0.569   3.221   0.292
 2479SOL    HW1 8336   0.548   3.161   0.215
 2479SOL    HW2 8337   0.523   3.309   0.280
 2480SOL     OW 8338   0.916   4.320   1.715
 2480SOL    HW1 8339   0.992   4.374   1.752
 2480SOL    HW2 8340   0.912   4.232   1.762
 2481SOL     OW 8341   4.177   5.456   2.673
 2481SOL    HW1 8342   4.104   5.509   2.717
 2481SOL    HW2 8343   4.212   5.508   2.595
 2482SOL     OW 8344   4.838   2.679   4.418
 2482SOL    HW1 8345   4.932   2.708   4.439
 2482SOL    HW2 8346   4.811   2.607   4.481
 2483SOL     OW 8347   0.705   2.108   6.646
 2483SOL    HW1 8348   0.791   2.141   6.607
 2483SOL    HW2 8349   0.723   2.033   6.710
 2484SOL     OW 8350   3.143   2.219   6.142
 2484SOL    HW1 8351   3.053   2.190   6.110
 2484SOL    HW2 8352   3.189   2.270   6.070
 2485SOL     OW 8353   1.035   6.102   1.496
 2485SOL    HW1 8354   1.067   6.180   1.442
 2485SOL    HW2 8355   0.935   6.104   1.502
 2486SOL     OW 8356   0.984   5.051   3.027
 2486SOL    HW1 8357   1.049   5.023   3.097
 2486SOL    HW2 8358   0.912   5.106   3.069
 2487SOL     OW 8359   3.381   0.726   1.335
 2487SOL    HW1 8360   3.344   0.636   1.357
 2487SOL    HW2 8361   3.410   0.771   1.420
 2488SOL     OW 8362   3.479   6.253   6.278
 2488SOL    HW1 8363   3.552   6.186   6.290
 2488SOL    HW2 8364   3.427   6.262   6.363
 2489SOL     OW 8365   6.628   5.655   4.318
 2489SOL    HW1 8366   6.630   5.754   4.308
 2489SOL    HW2 8367   6.720   5.618   4.306
 2490SOL     OW 8368   5.349   3.565   1.638
 2490SOL    HW1 8369   5.325   3.469   1.649
 2490SOL    HW2 8370   5.306   3.601   1.556
 2491SOL     OW 8371   0.460   4.795   2.957
 2491SOL    HW1 8372   0.385   4.760   3.013
 2491SOL    HW2 8373   0.450   4.894   2.945
 2492SOL     OW 8374   4.508   2.635   6.143
 2492SOL    HW1 8375   4.560   2.573   6.201
 2492SOL    HW2 8376   4.462   2.703   6.200
 2493SOL     OW 8377   6.659   1.643   4.053
 2493SOL    HW1 8378   6.746   1.628   4.006
 2493SOL    HW2 8379   6.649   1.575   4.126
 2494SOL     OW 8380   4.287   4.424   1.341
 2494SOL    HW1 8381   4.302   4.427   1.440
 2494SOL    HW2 8382   4.343   4.494   1.297
 2495SOL     OW 8383   6.469   0.905   3.904
 2495SOL    HW1 8384   6.424   0.828   3.859
 2495SOL    HW2 8385   6.409   0.942   3.975
 2496SOL     OW 8386   1.712   5.627   6.504
 2496SOL    HW1 8387   1.621   5.643   6.466
 2496SOL    HW2 8388   1.775   5.697   6.470
 2497SOL     OW 8389   5.457   1.620   6.581
 2497SOL    HW1 8390   5.407   1.543   6.622
 2497SOL    HW2 8391   5.555   1.610   6.600
 2498SOL     OW 8392   0.756   3.686   4.761
 2498SOL    HW1 8393   0.785   3.782   4.753
 2498SOL    HW2 8394   0.812   3.640   4.830
 2499SOL     OW 8395   6.216   0.114   5.920
 2499SOL    HW1 8396   6.163   0.050   5.975
 2499SOL    HW2 8397   6.168   0.201   5.915
 2500SOL     OW 8398   4.624   3.685   6.507
 2500SOL    HW1 8399   4.550   3.739   6.467
 2500SOL    HW2 8400   4.592   3.592   6.522
 2501SOL     OW 8401   6.273   4.685   0.925
 2501SOL    HW1 8402   6.315   4.741   0.854
 2501SOL    HW2 8403   6.268   4.737   1.010
 2502SOL     OW 8404   1.646   6.367   2.756
 2502SOL    HW1 8405   1.632   6.447   2.697
 2502SOL    HW2 8406   1.595   6.379   2.841
 2503SOL     OW 8407   4.682   6.658   4.651
 2503SOL    HW1 8408   4.644   6.730   4.592
 2503SOL    HW2 8409   4.739   6.597   4.597
 2504SOL     OW 8410   2.098   4.220   3.415
 2504SOL    HW1 8411   2.053   4.256   3.497
 2504SOL    HW2 8412   2.051   4.254   3.334
 2505SOL     OW 8413   4.631   4.866   3.938
 2505SOL    HW1 8414   4.709   4.913   3.979
 2505SOL    HW2 8415   4.661   4.783   3.892
 2506SOL     OW 8416   0.239   1.688   0.915
 2506SOL    HW1 8417   0.206   1.736   0.996
 2506SOL    HW2 8418   0.242   1.590   0.934
 2507SOL     OW 8419   6.227   6.238   1.092
 2507SOL    HW1 8420   6.202   6.334   1.100
 2507SOL    HW2 8421   6.210   6.192   1.179
 2508SOL     OW 8422   2.435   2.622   1.801
 2508SOL    HW1 8423   2.534   2.611   1.812
 2508SOL    HW2 8424   2.398   2.671   1.880
 2509SOL     OW 8425   5.093   1.466   3.444
 2509SOL    HW1 8426   5.042   1.410   3.510
 2509SOL    HW2 8427   5.080   1.428   3.352
 2510SOL     OW 8428   4.037   5.787   1.378
 2510SOL    HW1 8429   3.975   5.710   1.365
 2510SOL    HW2 8430   4.116   5.778   1.318
 2511SOL     OW 8431   0.737   6.405   4.063
 2511SOL    HW1 8432   0.779   6.320   4.094
 2511SOL    HW2 8433   0.778   6.433   3.976
 2512SOL     OW 8434   5.098   3.139   4.052
 2512SOL    HW1 8435   5.147   3.184   3.977
 2512SOL    HW2 8436   5.088   3.041   4.032
 2513SOL     OW 8437   0.145   4.868   1.686
 2513SOL    HW1 8438   0.183   4.920   1.610
 2513SOL    HW2 8439   0.195   4.889   1.770
 2514SOL     OW 8440   0.936   1.796   4.152
 2514SOL    HW1 8441   0.952   1.806   4.250
 2514SOL    HW2 8442   0.910   1.702   4.132
 2515SOL     OW 8443   0.844   4.955   0.156
 2515SOL    HW1 8444   0.853   4.935   0.254
 2515SOL    HW2 8445   0.889   5.041   0.136
 2516SOL     OW 8446   5.223   6.136   4.448
 2516SOL    HW1 8447   5.152   6.155   4.516
 2516SOL    HW2 8448   5.191   6.065   4.385
 2517SOL     OW 8449   2.264   5.584   0.595
 2517SOL    HW1 8450   2.314   5.607   0.678
 2517SOL    HW2 8451   2.200   5.510   0.614
 2518SOL     OW 8452   2.478   2.665   6.251
 2518SOL    HW1 8453   2.473   2.661   6.351
 2518SOL    HW2 8454   2.418   2.738   6.217
 2519SOL     OW 8455   5.054   4.147   4.640
 2519SOL    HW1 8456   5.129   4.096   4.599
 2519SOL    HW2 8457   5.084   4.191   4.724
 2520SOL     OW 8458   2.832   5.271   2.080
 2520SOL    HW1 8459   2.830   5.329   2.161
 2520SOL    HW2 8460   2.861   5.179   2.106
 2521SOL     OW 8461   5.884   6.676   5.955
 2521SOL    HW1 8462   5.794   6.712   5.931
 2521SOL    HW2 8463   5.874   6.584   5.993
 2522SOL     OW 8464   1.353   3.256   4.649
 2522SOL    HW1 8465   1.375   3.346   4.611
 2522SOL    HW2 8466   1.369   3.257   4.748
 2523SOL     OW 8467   0.008   2.742   5.762
 2523SOL    HW1 8468   0.099   2.774   5.788
 2523SOL    HW2 8469   6.961   2.807   5.795
 2524SOL     OW 8470   0.791   0.159   4.797
 2524SOL    HW1 8471   0.794   0.135   4.894
 2524SOL    HW2 8472   0.791   0.075   4.742
 2525SOL     OW 8473   1.727   4.437   3.248
 2525SOL    HW1 8474   1.802   4.371   3.239
 2525SOL    HW2 8475   1.669   4.410   3.325
 2526SOL     OW 8476   0.302   2.155   5.343
 2526SOL    HW1 8477   0.236   2.109   5.285
 2526SOL    HW2 8478   0.390   2.160   5.296
 2527SOL     OW 8479   5.824   6.766   3.694
 2527SOL    HW1 8480   5.880   6.705   3.751
 2527SOL    HW2 8481   5.769   6.825   3.753
 2528SOL     OW 8482   5.875   5.243   0.461
 2528SOL    HW1 8483   5.848   5.257   0.556
 2528SOL    HW2 8484   5.944   5.171   0.456
 2529SOL     OW 8485   5.268   4.014   4.512
 2529SOL    HW1 8486   5.354   4.065   4.516
 2529SOL    HW2 8487   5.287   3.916   4.512
 2530SOL     OW 8488   1.181   6.711   3.541
 2530SOL    HW1 8489   1.129   6.796   3.534
 2530SOL    HW2 8490   1.119   6.633   3.538
 2531SOL     OW 8491   5.155   1.162   0.776
 2531SOL    HW1 8492   5.084   1.149   0.846
 2531SOL    HW2 8493   5.243   1.176   0.820
 2532SOL     OW 8494   1.009   4.297   5.810
 2532SOL    HW1 8495   0.969   4.382   5.847
 2532SOL    HW2 8496   1.105   4.313   5.789
 2533SOL     OW 8497   5.811   6.394   5.112
 2533SOL    HW1 8498   5.738   6.442   5.064
 2533SOL    HW2 8499   5.874   6.460   5.152
 2534SOL     OW 8500   6.675   2.113   3.277
 2534SOL    HW1 8501   6.631   2.101   3.366
 2534SOL    HW2 8502   6.767   2.150   3.291
 2535SOL     OW 8503   1.812   1.391   2.886
 2535SOL    HW1 8504   1.839   1.386   2.790
 2535SOL    HW2 8505   1.820   1.300   2.927
 2536SOL     OW 8506   0.062   0.934   3.992
 2536SOL    HW1 8507   0.015   0.943   4.080
 2536SOL    HW2 8508   0.127   0.858   3.998
 2537SOL     OW 8509   3.905   5.209   1.666
 2537SOL    HW1 8510   3.836   5.138   1.681
 2537SOL    HW2 8511   3.937   5.244   1.753
 2538SOL     OW 8512   1.679   4.500   4.968
 2538SOL    HW1 8513   1.692   4.598   4.952
 2538SOL    HW2 8514   1.745   4.448   4.915
 2539SOL     OW 8515   2.272   1.063   5.503
 2539SOL    HW1 8516   2.289   0.980   5.555
 2539SOL    HW2 8517   2.255   1.139   5.566
 2540SOL     OW 8518   5.441   2.131   2.328
 2540SOL    HW1 8519   5.369   2.131   2.259
 2540SOL    HW2 8520   5.402   2.110   2.417
 2541SOL     OW 8521   0.548   0.080   5.642
 2541SOL    HW1 8522   0.588   0.171   5.649
 2541SOL    HW2 8523   0.563   0.030   5.727
 2542SOL     OW 8524   3.619   1.653   3.714
 2542SOL    HW1 8525   3.706   1.689   3.679
 2542SOL    HW2 8526   3.638   1.586   3.787
 2543SOL     OW 8527   0.228   2.015   4.240
 2543SOL    HW1 8528   0.280   2.092   4.204
 2543SOL    HW2 8529   0.134   2.044   4.260
 2544SOL     OW 8530   6.556   6.137   2.136
 2544SOL    HW1 8531   6.564   6.211   2.070
 2544SOL    HW2 8532   6.647   6.105   2.162
 2545SOL     OW 8533   6.382   1.711   0.147
 2545SOL    HW1 8534   6.437   1.793   0.160
 2545SOL    HW2 8535   6.286   1.736   0.137
 2546SOL     OW 8536   6.555   3.779   2.545
 2546SOL    HW1 8537   6.604   3.858   2.581
 2546SOL    HW2 8538   6.528   3.795   2.450
 2547SOL     OW 8539   5.582   4.150   1.026
 2547SOL    HW1 8540   5.539   4.067   1.064
 2547SOL    HW2 8541   5.635   4.195   1.098
 2548SOL     OW 8542   6.380   6.986   5.696
 2548SOL    HW1 8543   6.463   0.018   5.714
 2548SOL    HW2 8544   6.321   6.988   5.776
 2549SOL     OW 8545   2.580   3.212   0.277
 2549SOL    HW1 8546   2.612   3.191   0.184
 2549SOL    HW2 8547   2.547   3.307   0.279
 2550SOL     OW 8548   4.430   6.071   0.437
 2550SOL    HW1 8549   4.342   6.112   0.414
 2550SOL    HW2 8550   4.437   5.980   0.394
 2551SOL     OW 8551   3.403   5.075   0.701
 2551SOL    HW1 8552   3.430   5.094   0.795
 2551SOL    HW2 8553   3.347   4.992   0.698
 2552SOL     OW 8554   2.391   4.862   1.950
 2552SOL    HW1 8555   2.481   4.824   1.971
 2552SOL    HW2 8556   2.346   4.805   1.882
 2553SOL     OW 8557   4.693   1.065   0.236
 2553SOL    HW1 8558   4.637   1.123   0.176
 2553SOL    HW2 8559   4.710   1.113   0.322
 2554SOL     OW 8560   1.274   5.381   1.200
 2554SOL    HW1 8561   1.301   5.316   1.270
 2554SOL    HW2 8562   1.250   5.333   1.116
 2555SOL     OW 8563   5.987   6.852   4.424
 2555SOL    HW1 8564   5.919   6.815   4.487
 2555SOL    HW2 8565   6.065   6.790   4.420
 2556SOL     OW 8566   3.460   6.746   0.617
 2556SOL    HW1 8567   3.529   6.790   0.560
 2556SOL    HW2 8568   3.494   6.656   0.647
 2557SOL     OW 8569   2.998   0.363   6.660
 2557SOL    HW1 8570   3.056   0.315   6.594
 2557SOL    HW2 8571   3.032   0.344   6.752
 2558SOL     OW 8572   4.757   2.630   1.572
 2558SOL    HW1 8573   4.743   2.670   1.662
 2558SOL    HW2 8574   4.718   2.690   1.502
 2559SOL     OW 8575   0.548   5.115   3.745
 2559SOL    HW1 8576   0.577   5.189   3.685
 2559SOL    HW2 8577   0.620   5.094   3.810
 2560SOL     OW 8578   5.095   2.370   3.107
 2560SOL    HW1 8579   5.071   2.465   3.091
 2560SOL    HW2 8580   5.046   2.311   3.043
 2561SOL     OW 8581   3.940   0.061   4.141
 2561SOL    HW1 8582   3.925   6.992   4.182
 2561SOL    HW2 8583   4.020   0.058   4.082
 2562SOL     OW 8584   2.085   0.014   4.696
 2562SOL    HW1 8585   2.008   7.006   4.639
 2562SOL    HW2 8586   2.090   6.978   4.778
 2563SOL     OW 8587   3.525   2.611   6.354
 2563SOL    HW1 8588   3.530   2.708   6.332
 2563SOL    HW2 8589   3.444   2.593   6.410
 2564SOL     OW 8590   1.359   1.656   0.028
 2564SOL    HW1 8591   1.437   1.718   0.025
 2564SOL    HW2 8592   1.277   1.705   7.021
 2565SOL     OW 8593   1.188   0.918   0.367
 2565SOL    HW1 8594   1.208   0.945   0.273
 2565SOL    HW2 8595   1.166   0.999   0.421
 2566SOL     OW 8596   3.084   0.804   1.307
 2566SOL    HW1 8597   3.162   0.750   1.338
 2566SOL    HW2 8598   3.045   0.855   1.384
 2567SOL     OW 8599   1.840   0.795   6.759
 2567SOL    HW1 8600   1.892   0.713   6.734
 2567SOL    HW2 8601   1.792   0.830   6.679
 2568SOL     OW 8602   1.969   5.753   0.711
 2568SOL    HW1 8603   1.981   5.723   0.806
 2568SOL    HW2 8604   1.895   5.700   0.669
 2569SOL     OW 8605   1.974   0.139   0.903
 2569SOL    HW1 8606   2.010   0.152   0.811
 2569SOL    HW2 8607   1.915   0.058   0.905
 2570SOL     OW 8608   0.447   6.359   4.848
 2570SOL    HW1 8609   0.503   6.432   4.888
 2570SOL    HW2 8610   0.446   6.280   4.909
 2571SOL     OW 8611   3.155   4.042   4.056
 2571SOL    HW1 8612   3.058   4.025   4.035
 2571SOL    HW2 8613   3.173   4.020   4.151
 2572SOL     OW 8614   1.810   5.127   2.245
 2572SOL    HW1 8615   1.907   5.113   2.262
 2572SOL    HW2 8616   1.786   5.222   2.263
 2573SOL     OW 8617   0.098   1.862   4.036
 2573SOL    HW1 8618   0.159   1.856   4.115
 2573SOL    HW2 8619   0.150   1.845   3.952
 2574SOL     OW 8620   0.785   3.740   2.253
 2574SOL    HW1 8621   0.763   3.794   2.334
 2574SOL    HW2 8622   0.814   3.648   2.279
 2575SOL     OW 8623   5.764   3.492   6.080
 2575SOL    HW1 8624   5.781   3.430   6.156
 2575SOL    HW2 8625   5.761   3.586   6.113
 2576SOL     OW 8626   1.929   0.294   3.266
 2576SOL    HW1 8627   1.893   0.318   3.356
 2576SOL    HW2 8628   1.899   0.202   3.241
 2577SOL     OW 8629   2.296   5.563   1.313
 2577SOL    HW1 8630   2.396   5.568   1.313
 2577SOL    HW2 8631   2.261   5.590   1.223
 2578SOL     OW 8632   4.946   2.404   4.384
 2578SOL    HW1 8633   4.903   2.314   4.382
 2578SOL    HW2 8634   4.992   2.417   4.472
 2579SOL     OW 8635   6.814   1.513   6.234
 2579SOL    HW1 8636   6.882   1.583   6.211
 2579SOL    HW2 8637   6.792   1.518   6.332
 2580SOL     OW 8638   1.451   1.725   6.056
 2580SOL    HW1 8639   1.444   1.822   6.030
 2580SOL    HW2 8640   1.487   1.719   6.149
 2581SOL     OW 8641   6.121   0.420   4.761
 2581SOL    HW1 8642   6.216   0.443   4.741
 2581SOL    HW2 8643   6.105   0.427   4.860
 2582SOL     OW 8644   0.416   5.593   3.013
 2582SOL    HW1 8645   0.499   5.567   2.963
 2582SOL    HW2 8646   0.442   5.647   3.093
 2583SOL     OW 8647   1.970   1.095   6.560
 2583SOL    HW1 8648   1.971   0.996   6.551
 2583SOL    HW2 8649   2.052   1.133   6.517
 2584SOL     OW 8650   5.243   0.203   2.818
 2584SOL    HW1 8651   5.247   0.107   2.848
 2584SOL    HW2 8652   5.273   0.210   2.723
 2585SOL     OW 8653   4.443   1.414   1.725
 2585SOL    HW1 8654   4.525   1.359   1.743
 2585SOL    HW2 8655   4.457   1.470   1.644
 2586SOL     OW 8656   6.698   1.703   4.425
 2586SOL    HW1 8657   6.732   1.679   4.334
 2586SOL    HW2 8658   6.614   1.756   4.417
 2587SOL     OW 8659   6.791   6.396   2.565
 2587SOL    HW1 8660   6.715   6.440   2.517
 2587SOL    HW2 8661   6.774   6.397   2.663
 2588SOL     OW 8662   5.099   0.321   1.997
 2588SOL    HW1 8663   5.002   0.313   2.019
 2588SOL    HW2 8664   5.153   0.310   2.081
 2589SOL     OW 8665   5.683   6.410   0.451
 2589SOL    HW1 8666   5.700   6.484   0.517
 2589SOL    HW2 8667   5.755   6.342   0.459
 2590SOL     OW 8668   3.751   6.817   2.789
 2590SOL    HW1 8669   3.765   6.910   2.822
 2590SOL    HW2 8670   3.720   6.820   2.694
 2591SOL     OW 8671   5.900   0.478   1.617
 2591SOL    HW1 8672   5.906   0.385   1.581
 2591SOL    HW2 8673   5.945   0.541   1.555
 2592SOL     OW 8674   2.972   5.104   1.593
 2592SOL    HW1 8675   3.009   5.141   1.679
 2592SOL    HW2 8676   2.873   5.119   1.590
 2593SOL     OW 8677   3.261   0.130   2.445
 2593SOL    HW1 8678   3.218   0.166   2.528
 2593SOL    HW2 8679   3.359   0.122   2.459
 2594SOL     OW 8680   1.549   6.841   6.422
 2594SOL    HW1 8681   1.486   6.772   6.386
 2594SOL    HW2 8682   1.585   6.810   6.510
 2595SOL     OW 8683   6.138   2.924   4.128
 2595SOL    HW1 8684   6.119   2.889   4.219
 2595SOL    HW2 8685   6.228   2.968   4.127
 2596SOL     OW 8686   4.377   2.347   1.583
 2596SOL    HW1 8687   4.458   2.365   1.638
 2596SOL    HW2 8688   4.300   2.400   1.619
 2597SOL     OW 8689   1.610   2.268   6.532
 2597SOL    HW1 8690   1.589   2.353   6.483
 2597SOL    HW2 8691   1.546   2.256   6.607
 2598SOL     OW 8692   6.001   2.454   2.708
 2598SOL    HW1 8693   5.951   2.524   2.658
 2598SOL    HW2 8694   5.999   2.475   2.806
 2599SOL     OW 8695   4.181   4.448   6.910
 2599SOL    HW1 8696   4.122   4.514   6.864
 2599SOL    HW2 8697   4.153   4.355   6.885
 2600SOL     OW 8698   6.920   3.242   3.567
 2600SOL    HW1 8699   6.852   3.304   3.529
 2600SOL    HW2 8700   6.957   3.184   3.494
 2601SOL     OW 8701   3.707   3.098   5.326
 2601SOL    HW1 8702   3.742   3.185   5.360
 2601SOL    HW2 8703   3.783   3.038   5.302
 2602SOL     OW 8704   5.802   5.723   5.734
 2602SOL    HW1 8705   5.891   5.683   5.755
 2602SOL    HW2 8706   5.766   5.682   5.649
 2603SOL     OW 8707   2.469   2.597   0.048
 2603SOL    HW1 8708   2.538   2.627   7.003
 2603SOL    HW2 8709   2.443   2.502   0.029
 2604SOL     OW 8710   5.826   1.321   1.375
 2604SOL    HW1 8711   5.857   1.264   1.298
 2604SOL    HW2 8712   5.763   1.270   1.432
 2605SOL     OW 8713   4.946   3.934   3.759
 2605SOL    HW1 8714   4.867   3.992   3.739
 2605SOL    HW2 8715   4.917   3.859   3.820
 2606SOL     OW 8716   0.111   4.726   1.283
 2606SOL    HW1 8717   0.109   4.755   1.187
 2606SOL    HW2 8718   0.030   4.669   1.301
 2607SOL     OW 8719   0.435   1.804   4.725
 2607SOL    HW1 8720   0.467   1.894   4.753
 2607SOL    HW2 8721   0.383   1.812   4.640
 2608SOL     OW 8722   5.098   0.105   0.658
 2608SOL    HW1 8723   5.189   0.138   0.682
 2608SOL    HW2 8724   5.098   0.071   0.564
 2609SOL     OW 8725   0.386   2.490   4.071
 2609SOL    HW1 8726   0.389   2.587   4.093
 2609SOL    HW2 8727   0.454   2.469   4.001
 2610SOL     OW 8728   5.529   5.493   4.762
 2610SOL    HW1 8729   5.451   5.534   4.809
 2610SOL    HW2 8730   5.602   5.561   4.752
 2611SOL     OW 8731   2.922   6.004   2.076
 2611SOL    HW1 8732   2.964   6.095   2.082
 2611SOL    HW2 8733   2.982   5.937   2.120
 2612SOL     OW 8734   6.206   6.777   4.818
 2612SOL    HW1 8735   6.195   6.686   4.859
 2612SOL    HW2 8736   6.123   6.830   4.833
 2613SOL     OW 8737   3.990   0.970   1.213
 2613SOL    HW1 8738   4.019   1.064   1.233
 2613SOL    HW2 8739   3.948   0.967   1.123
 2614SOL     OW 8740   0.105   6.097   6.219
 2614SOL    HW1 8741   0.200   6.092   6.189
 2614SOL    HW2 8742   0.091   6.180   6.272
 2615SOL     OW 8743   5.644   4.974   1.908
 2615SOL    HW1 8744   5.690   5.061   1.926
 2615SOL    HW2 8745   5.688   4.929   1.830
 2616SOL     OW 8746   4.139   3.464   2.369
 2616SOL    HW1 8747   4.223   3.411   2.363
 2616SOL    HW2 8748   4.062   3.407   2.341
 2617SOL     OW 8749   3.880   0.526   1.401
 2617SOL    HW1 8750   3.896   0.460   1.327
 2617SOL    HW2 8751   3.856   0.615   1.361
 2618SOL     OW 8752   0.782   0.528   0.415
 2618SOL    HW1 8753   0.854   0.594   0.397
 2618SOL    HW2 8754   0.768   0.470   0.334
 2619SOL     OW 8755   5.227   1.154   1.183
 2619SOL    HW1 8756   5.156   1.186   1.120
 2619SOL    HW2 8757   5.190   1.149   1.275
 2620SOL     OW 8758   1.883   4.579   4.572
 2620SOL    HW1 8759   1.936   4.506   4.616
 2620SOL    HW2 8760   1.806   4.538   4.524
 2621SOL     OW 8761   1.405   4.725   3.846
 2621SOL    HW1 8762   1.365   4.661   3.911
 2621SOL    HW2 8763   1.383   4.818   3.872
 2622SOL     OW 8764   2.651   2.960   6.237
 2622SOL    HW1 8765   2.560   2.922   6.252
 2622SOL    HW2 8766   2.687   2.925   6.150
 2623SOL     OW 8767   3.263   0.919   6.138
 2623SOL    HW1 8768   3.234   0.867   6.218
 2623SOL    HW2 8769   3.283   1.013   6.165
 2624SOL     OW 8770   6.631   2.118   4.192
 2624SOL    HW1 8771   6.685   2.122   4.276
 2624SOL    HW2 8772   6.572   2.199   4.186
 2625SOL     OW 8773   4.868   0.766   5.539
 2625SOL    HW1 8774   4.789   0.828   5.538
 2625SOL    HW2 8775   4.839   0.675   5.569
 2626SOL     OW 8776   2.415   0.203   2.161
 2626SOL    HW1 8777   2.511   0.194   2.187
 2626SOL    HW2 8778   2.408   0.235   2.067
 2627SOL     OW 8779   0.059   0.791   4.550
 2627SOL    HW1 8780   0.154   0.799   4.520
 2627SOL    HW2 8781   0.021   0.882   4.563
 2628SOL     OW 8782   3.259   5.913   5.637
 2628SOL    HW1 8783   3.283   5.888   5.544
 2628SOL    HW2 8784   3.313   5.992   5.666
 2629SOL     OW 8785   2.920   4.174   1.403
 2629SOL    HW1 8786   3.015   4.197   1.421
 2629SOL    HW2 8787   2.873   4.158   1.490
 2630SOL     OW 8788   2.920   2.194   2.287
 2630SOL    HW1 8789   2.920   2.239   2.197
 2630SOL    HW2 8790   2.842   2.226   2.340
 2631SOL     OW 8791   4.389   0.125   4.786
 2631SOL    HW1 8792   4.350   0.178   4.710
 2631SOL    HW2 8793   4.319   0.061   4.820
 2632SOL     OW 8794   5.676   1.553   1.372
 2632SOL    HW1 8795   5.616   1.576   1.295
 2632SOL    HW2 8796   5.716   1.463   1.357
 2633SOL     OW 8797   6.836   2.692   6.139
 2633SOL    HW1 8798   6.775   2.701   6.217
 2633SOL    HW2 8799   6.799   2.623   6.076
 2634SOL     OW 8800   2.903   5.315   1.275
 2634SOL    HW1 8801   2.999   5.314   1.301
 2634SOL    HW2 8802   2.849   5.269   1.345
 2635SOL     OW 8803   5.889   4.278   3.326
 2635SOL    HW1 8804   5.879   4.179   3.319
 2635SOL    HW2 8805   5.939   4.300   3.410
 2636SOL     OW 8806   5.896   0.561   5.051
 2636SOL    HW1 8807   5.808   0.521   5.077
 2636SOL    HW2 8808   5.885   0.612   4.966
 2637SOL     OW 8809   5.046   6.360   3.028
 2637SOL    HW1 8810   5.145   6.347   3.015
 2637SOL    HW2 8811   5.029   6.452   3.062
 2638SOL     OW 8812   5.832   5.745   0.892
 2638SOL    HW1 8813   5.863   5.706   0.979
 2638SOL    HW2 8814   5.822   5.844   0.902
 2639SOL     OW 8815   6.753   6.400   0.145
 2639SOL    HW1 8816   6.671   6.350   0.118
 2639SOL    HW2 8817   6.834   6.350   0.116
 2640SOL     OW 8818   6.525   6.940   6.361
 2640SOL    HW1 8819   6.523   6.914   6.458
 2640SOL    HW2 8820   6.454   7.008   6.344
 2641SOL     OW 8821   5.618   5.547   0.173
 2641SOL    HW1 8822   5.701   5.512   0.217
 2641SOL    HW2 8823   5.547   5.477   0.177
 2642SOL     OW 8824   6.284   0.197   3.367
 2642SOL    HW1 8825   6.191   0.233   3.358
 2642SOL    HW2 8826   6.340   0.234   3.293
 2643SOL     OW 8827   1.012   0.906   2.492
 2643SOL    HW1 8828   1.014   0.924   2.591
 2643SOL    HW2 8829   1.105   0.916   2.455
 2644SOL     OW 8830   0.501   5.579   6.088
 2644SOL    HW1 8831   0.549   5.507   6.136
 2644SOL    HW2 8832   0.550   5.666   6.100
 2645SOL     OW 8833   6.069   5.517   5.582
 2645SOL    HW1 8834   6.105   5.549   5.670
 2645SOL    HW2 8835   6.029   5.426   5.593
 2646SOL     OW 8836   6.627   6.047   0.005
 2646SOL    HW1 8837   6.632   5.949   0.024
 2646SOL    HW2 8838   6.715   6.089   0.024
 2647SOL     OW 8839   3.766   2.869   0.445
 2647SOL    HW1 8840   3.687   2.850   0.386
 2647SOL    HW2 8841   3.792   2.966   0.436
 2648SOL     OW 8842   3.234   1.049   2.502
 2648SOL    HW1 8843   3.285   1.108   2.564
 2648SOL    HW2 8844   3.142   1.035   2.537
 2649SOL     OW 8845   3.504   2.684   5.597
 2649SOL    HW1 8846   3.439   2.662   5.670
 2649SOL    HW2 8847   3.563   2.760   5.627
 2650SOL     OW 8848   0.041   6.179   1.914
 2650SOL    HW1 8849   0.123   6.210   1.865
 2650SOL    HW2 8850   0.059   6.179   2.013
 2651SOL     OW 8851   0.872   0.218   3.741
 2651SOL    HW1 8852   0.933   0.293   3.764
 2651SOL    HW2 8853   0.788   0.255   3.701
 2652SOL     OW 8854   3.333   3.444   2.550
 2652SOL    HW1 8855   3.355   3.415   2.457
 2652SOL    HW2 8856   3.288   3.533   2.548
 2653SOL     OW 8857   6.767   5.809   6.321
 2653SOL    HW1 8858   6.801   5.732   6.267
 2653SOL    HW2 8859   6.699   5.859   6.268
 2654SOL     OW 8860   5.324   2.219   6.422
 2654SOL    HW1 8861   5.318   2.129   6.379
 2654SOL    HW2 8862   5.355   2.286   6.355
 2655SOL     OW 8863   5.070   5.646   5.013
 2655SOL    HW1 8864   4.981   5.669   4.973
 2655SOL    HW2 8865   5.126   5.600   4.945
 2656SOL     OW 8866   5.436   3.520   3.848
 2656SOL    HW1 8867   5.431   3.527   3.948
 2656SOL    HW2 8868   5.477   3.603   3.811
 2657SOL     OW 8869   2.402   2.559   5.777
 2657SOL    HW1 8870   2.312   2.515   5.780
 2657SOL    HW2 8871   2.404   2.624   5.700
 2658SOL     OW 8872   5.689   4.489   5.559
 2658SOL    HW1 8873   5.724   4.582   5.544
 2658SOL    HW2 8874   5.668   4.447   5.471
 2659SOL     OW 8875   6.989   2.164   2.788
 2659SOL    HW1 8876   6.986   2.148   2.689
 2659SOL    HW2 8877   6.983   2.262   2.806
 2660SOL     OW 8878   6.374   2.035   3.399
 2660SOL    HW1 8879   6.455   2.056   3.454
 2660SOL    HW2 8880   6.320   1.964   3.445
 2661SOL     OW 8881   4.580   6.006   1.462
 2661SOL    HW1 8882   4.629   5.936   1.515
 2661SOL    HW2 8883   4.527   6.064   1.525
 2662SOL     OW 8884   3.349   6.558   3.661
 2662SOL    HW1 8885   3.273   6.526   3.603
 2662SOL    HW2 8886   3.401   6.479   3.693
 2663SOL     OW 8887   0.630   4.582   2.863
 2663SOL    HW1 8888   0.724   4.576   2.896
 2663SOL    HW2 8889   0.588   4.666   2.898
 2664SOL     OW 8890   4.209   3.598   1.801
 2664SOL    HW1 8891   4.165   3.614   1.889
 2664SOL    HW2 8892   4.231   3.685   1.758
 2665SOL     OW 8893   4.105   0.928   4.624
 2665SOL    HW1 8894   4.179   0.887   4.570
 2665SOL    HW2 8895   4.029   0.864   4.630
 2666SOL     OW 8896   5.841   6.245   1.827
 2666SOL    HW1 8897   5.757   6.192   1.839
 2666SOL    HW2 8898   5.902   6.230   1.904
 2667SOL     OW 8899   1.646   5.068   3.875
 2667SOL    HW1 8900   1.713   5.054   3.948
 2667SOL    HW2 8901   1.687   5.043   3.787
 2668SOL     OW 8902   6.957   2.326   5.747
 2668SOL    HW1 8903   7.000   2.323   5.837
 2668SOL    HW2 8904   7.017   2.284   5.679
 2669SOL     OW 8905   4.279   5.007   5.768
 2669SOL    HW1 8906   4.314   4.931   5.824
 2669SOL    HW2 8907   4.182   4.993   5.750
 2670SOL     OW 8908   1.730   0.545   6.283
 2670SOL    HW1 8909   1.724   0.466   6.222
 2670SOL    HW2 8910   1.806   0.532   6.348
 2671SOL     OW 8911   3.351   4.054   5.695
 2671SOL    HW1 8912   3.443   4.017   5.681
 2671SOL    HW2 8913   3.321   4.035   5.788
 2672SOL     OW 8914   0.647   4.275   0.183
 2672SOL    HW1 8915   0.622   4.190   0.229
 2672SOL    HW2 8916   0.571   4.306   0.125
 2673SOL     OW 8917   5.012   2.312   3.861
 2673SOL    HW1 8918   4.941   2.333   3.929
 2673SOL    HW2 8919   5.059   2.396   3.835
 2674SOL     OW 8920   5.042   5.692   5.567
 2674SOL    HW1 8921   4.990   5.692   5.653
 2674SOL    HW2 8922   5.131   5.649   5.582
 2675SOL     OW 8923   0.139   3.754   5.530
 2675SOL    HW1 8924   0.154   3.720   5.437
 2675SOL    HW2 8925   0.176   3.846   5.538
 2676SOL     OW 8926   4.119   0.352   2.248
 2676SOL    HW1 8927   4.057   0.346   2.170
 2676SOL    HW2 8928   4.110   0.270   2.304
 2677SOL     OW 8929   2.710   4.669   2.286
 2677SOL    HW1 8930   2.761   4.659   2.201
 2677SOL    HW2 8931   2.770   4.706   2.357
 2678SOL     OW 8932   6.993   5.583   6.333
 2678SOL    HW1 8933   6.967   5.610   6.425
 2678SOL    HW2 8934   6.934   5.507   6.304
 2679SOL     OW 8935   2.358   4.286   0.649
 2679SOL    HW1 8936   2.354   4.245   0.741
 2679SOL    HW2 8937   2.272   4.333   0.630
 2680SOL     OW 8938   0.969   1.959   1.686
 2680SOL    HW1 8939   0.906   1.890   1.651
 2680SOL    HW2 8940   0.926   2.010   1.761
 2681SOL     OW 8941   1.242   1.369   2.398
 2681SOL    HW1 8942   1.153   1.338   2.364
 2681SOL    HW2 8943   1.230   1.419   2.483
 2682SOL     OW 8944   6.554   2.395   3.432
 2682SOL    HW1 8945   6.563   2.303   3.470
 2682SOL    HW2 8946   6.570   2.391   3.333
 2683SOL     OW 8947   1.316   0.365   1.554
 2683SOL    HW1 8948   1.248   0.359   1.482
 2683SOL    HW2 8949   1.324   0.276   1.599
 2684SOL     OW 8950   2.488   6.053   3.124
 2684SOL    HW1 8951   2.453   5.991   3.054
 2684SOL    HW2 8952   2.465   6.018   3.215
 2685SOL     OW 8953   5.280   5.840   5.386
 2685SOL    HW1 8954   5.313   5.929   5.420
 2685SOL    HW2 8955   5.252   5.784   5.464
 2686SOL     OW 8956   1.184   2.918   4.328
 2686SOL    HW1 8957   1.207   2.859   4.406
 2686SOL    HW2 8958   1.214   3.011   4.346
 2687SOL     OW 8959   5.155   5.460   3.240
 2687SOL    HW1 8960   5.173   5.496   3.149
 2687SOL    HW2 8961   5.138   5.361   3.234
 2688SOL     OW 8962   3.554   4.951   6.143
 2688SOL    HW1 8963   3.581   4.954   6.046
 2688SOL    HW2 8964   3.490   4.876   6.157
 2689SOL     OW 8965   6.860   2.995   4.066
 2689SOL    HW1 8966   6.812   3.046   4.137
 2689SOL    HW2 8967   6.834   3.029   3.976
 2690SOL     OW 8968   2.901   3.637   3.558
 2690SOL    HW1 8969   2.899   3.734   3.536
 2690SOL    HW2 8970   2.850   3.585   3.489
 2691SOL     OW 8971   1.259   5.961   1.561
 2691SOL    HW1 8972   1.178   6.010   1.530
 2691SOL    HW2 8973   1.318   5.941   1.483
 2692SOL     OW 8974   6.676   6.067   3.088
 2692SOL    HW1 8975   6.669   6.001   3.013
 2692SOL    HW2 8976   6.757   6.125   3.073
 2693SOL     OW 8977   1.567   3.844   3.395
 2693SOL    HW1 8978   1.563   3.900   3.478
 2693SOL    HW2 8979   1.643   3.779   3.402
 2694SOL     OW 8980   2.550   0.154   3.518
 2694SOL    HW1 8981   2.518   0.072   3.566
 2694SOL    HW2 8982   2.648   0.146   3.501
 2695SOL     OW 8983   3.640   2.097   2.499
 2695SOL    HW1 8984   3.573   2.100   2.424
 2695SOL    HW2 8985   3.729   2.128   2.465
 2696SOL     OW 8986   3.906   3.344   5.357
 2696SOL    HW1 8987   3.993   3.393   5.366
 2696SOL    HW2 8988   3.882   3.302   5.444
 2697SOL     OW 8989   2.331   2.142   4.685
 2697SOL    HW1 8990   2.304   2.046   4.677
 2697SOL    HW2 8991   2.428   2.148   4.709
 2698SOL     OW 8992   2.160   3.407   6.967
 2698SOL    HW1 8993   2.061   3.415   6.959
 2698SOL    HW2 8994   2.183   3.325   7.020
 2699SOL     OW 8995   4.055   5.872   1.785
 2699SOL    HW1 8996   3.973   5.922   1.813
 2699SOL    HW2 8997   4.085   5.813   1.860
 2700SOL     OW 8998   1.483   3.727   2.980
 2700SOL    HW1 8999   1.487   3.727   2.880
 2700SOL    HW2 9000   1.445   3.813   3.013
 2701SOL     OW 9001   3.323   6.736   6.020
 2701SOL    HW1 9002   3.408   6.761   5.972
 2701SOL    HW2 9003   3.259   6.812   6.017
 2702SOL     OW 9004   0.239   0.308   2.827
 2702SOL    HW1 9005   0.154   0.286   2.779
 2702SOL    HW2 9006   0.289   0.224   2.847
 2703SOL     OW 9007   2.022   1.535   3.028
 2703SOL    HW1 9008   1.925   1.558   3.024
 2703SOL    HW2 9009   2.065   1.558   2.940
 2704SOL     OW 9010   1.762   5.648   0.525
 2704SOL    HW1 9011   1.851   5.612   0.498
 2704SOL    HW2 9012   1.744   5.733   0.475
 2705SOL     OW 9013   0.396   5.055   2.919
 2705SOL    HW1 9014   0.315   5.030   2.865
 2705SOL    HW2 9015   0.448   5.125   2.870
 2706SOL     OW 9016   6.630   1.745   1.720
 2706SOL    HW1 9017   6.649   1.807   1.796
 2706SOL    HW2 9018   6.600   1.798   1.640
 2707SOL     OW 9019   2.283   1.694   5.682
 2707SOL    HW1 9020   2.286   1.768   5.615
 2707SOL    HW2 9021   2.340   1.618   5.651
 2708SOL     OW 9022   1.913   2.655   1.064
 2708SOL    HW1 9023   1.838   2.671   1.000
 2708SOL    HW2 9024   1.966   2.739   1.074
 2709SOL     OW 9025   4.749   6.485   1.664
 2709SOL    HW1 9026   4.701   6.550   1.605
 2709SOL    HW2 9027   4.684   6.441   1.726
 2710SOL     OW 9028   5.521   3.793   2.418
 2710SOL    HW1 9029   5.462   3.716   2.394
 2710SOL    HW2 9030   5.615   3.774   2.389
 2711SOL     OW 9031   1.285   0.139   1.714
 2711SOL    HW1 9032   1.314   0.069   1.779
 2711SOL    HW2 9033   1.227   0.097   1.645
 2712SOL     OW 9034   3.438   4.700   0.937
 2712SOL    HW1 9035   3.378   4.664   1.008
 2712SOL    HW2 9036   3.490   4.777   0.972
 2713SOL     OW 9037   2.155   3.129   4.651
 2713SOL    HW1 9038   2.210   3.050   4.680
 2713SOL    HW2 9039   2.203   3.213   4.673
 2714SOL     OW 9040   5.227   6.894   5.206
 2714SOL    HW1 9041   5.174   6.946   5.273
 2714SOL    HW2 9042   5.300   6.844   5.252
 2715SOL     OW 9043   6.864   0.778   0.122
 2715SOL    HW1 9044   6.808   0.815   0.196
 2715SOL    HW2 9045   6.948   0.739   0.160
 2716SOL     OW 9046   0.593   6.662   2.675
 2716SOL    HW1 9047   0.560   6.663   2.770
 2716SOL    HW2 9048   0.644   6.746   2.657
 2717SOL     OW 9049   1.258   0.345   2.646
 2717SOL    HW1 9050   1.281   0.402   2.568
 2717SOL    HW2 9051   1.264   0.398   2.731
 2718SOL     OW 9052   1.429   4.686   3.566
 2718SOL    HW1 9053   1.473   4.764   3.522
 2718SOL    HW2 9054   1.425   4.702   3.665
 2719SOL     OW 9055   3.971   5.083   2.074
 2719SOL    HW1 9056   3.874   5.100   2.060
 2719SOL    HW2 9057   4.014   5.063   1.986
 2720SOL     OW 9058   1.232   5.754   4.346
 2720SOL    HW1 9059   1.175   5.775   4.267
 2720SOL    HW2 9060   1.175   5.744   4.427
 2721SOL     OW 9061   4.266   0.342   4.462
 2721SOL    HW1 9062   4.348   0.383   4.421
 2721SOL    HW2 9063   4.258   0.370   4.557
 2722SOL     OW 9064   1.470   5.612   1.356
 2722SOL    HW1 9065   1.463   5.633   1.453
 2722SOL    HW2 9066   1.389   5.563   1.325
 2723SOL     OW 9067   1.264   1.081   5.259
 2723SOL    HW1 9068   1.244   1.006   5.196
 2723SOL    HW2 9069   1.191   1.149   5.254
 2724SOL     OW 9070   3.204   5.440   6.266
 2724SOL    HW1 9071   3.265   5.486   6.202
 2724SOL    HW2 9072   3.111   5.477   6.257
 2725SOL     OW 9073   3.444   5.090   2.946
 2725SOL    HW1 9074   3.543   5.086   2.964
 2725SOL    HW2 9075   3.428   5.146   2.865
 2726SOL     OW 9076   5.105   5.658   2.315
 2726SOL    HW1 9077   5.048   5.598   2.371
 2726SOL    HW2 9078   5.195   5.668   2.359
 2727SOL     OW 9079   2.340   5.435   3.115
 2727SOL    HW1 9080   2.365   5.463   3.207
 2727SOL    HW2 9081   2.337   5.335   3.110
 2728SOL     OW 9082   3.588   0.319   5.887
 2728SOL    HW1 9083   3.516   0.308   5.818
 2728SOL    HW2 9084   3.546   0.350   5.972
 2729SOL     OW 9085   6.114   4.844   2.784
 2729SOL    HW1 9086   6.075   4.933   2.806
 2729SOL    HW2 9087   6.150   4.801   2.867
 2730SOL     OW 9088   1.725   4.421   1.597
 2730SOL    HW1 9089   1.795   4.350   1.606
 2730SOL    HW2 9090   1.763   4.499   1.546
 2731SOL     OW 9091   2.951   3.802   1.720
 2731SOL    HW1 9092   3.010   3.725   1.744
 2731SOL    HW2 9093   2.995   3.888   1.747
 2732SOL     OW 9094   5.472   2.034   3.191
 2732SOL    HW1 9095   5.555   2.031   3.247
 2732SOL    HW2 9096   5.393   2.051   3.250
 2733SOL     OW 9097   1.608   0.657   5.731
 2733SOL    HW1 9098   1.672   0.637   5.806
 2733SOL    HW2 9099   1.518   0.622   5.755
 2734SOL     OW 9100   2.552   6.253   3.889
 2734SOL    HW1 9101   2.606   6.184   3.937
 2734SOL    HW2 9102   2.485   6.208   3.830
 2735SOL     OW 9103   2.150   4.388   1.749
 2735SOL    HW1 9104   2.161   4.361   1.844
 2735SOL    HW2 9105   2.240   4.396   1.706
 2736SOL     OW 9106   4.262   6.954   5.894
 2736SOL    HW1 9107   4.220   6.940   5.804
 2736SOL    HW2 9108   4.221   6.891   5.960
 2737SOL     OW 9109   4.150   3.381   5.887
 2737SOL    HW1 9110   4.113   3.474   5.885
 2737SOL    HW2 9111   4.074   3.316   5.897
 2738SOL     OW 9112   5.794   4.678   3.999
 2738SOL    HW1 9113   5.725   4.617   3.961
 2738SOL    HW2 9114   5.828   4.739   3.927
 2739SOL     OW 9115   5.871   3.701   0.899
 2739SOL    HW1 9116   5.832   3.636   0.834
 2739SOL    HW2 9117   5.800   3.732   0.962
 2740SOL     OW 9118   6.315   2.443   2.880
 2740SOL    HW1 9119   6.239   2.420   2.820
 2740SOL    HW2 9120   6.306   2.393   2.966
 2741SOL     OW 9121   1.234   2.408   6.085
 2741SOL    HW1 9122   1.135   2.414   6.098
 2741SOL    HW2 9123   1.257   2.430   5.990
 2742SOL     OW 9124   2.026   6.618   6.086
 2742SOL    HW1 9125   2.103   6.563   6.055
 2742SOL    HW2 9126   2.058   6.710   6.111
 2743SOL     OW 9127   5.267   4.874   0.592
 2743SOL    HW1 9128   5.237   4.967   0.614
 2743SOL    HW2 9129   5.319   4.836   0.668
 2744SOL     OW 9130   4.127   0.977   6.680
 2744SOL    HW1 9131   4.096   1.072   6.672
 2744SOL    HW2 9132   4.141   0.939   6.589
 2745SOL     OW 9133   2.251   5.761   1.023
 2745SOL    HW1 9134   2.336   5.709   1.015
 2745SOL    HW2 9135   2.267   5.843   1.078
 2746SOL     OW 9136   1.609   1.927   6.502
 2746SOL    HW1 9137   1.685   1.902   6.562
 2746SOL    HW2 9138   1.626   1.891   6.410
 2747SOL     OW 9139   5.291   5.706   3.980
 2747SOL    HW1 9140   5.346   5.788   3.996
 2747SOL    HW2 9141   5.334   5.627   4.025
 2748SOL     OW 9142   3.763   1.669   4.365
 2748SOL    HW1 9143   3.819   1.667   4.283
 2748SOL    HW2 9144   3.699   1.745   4.359
 2749SOL     OW 9145   4.340   5.305   4.400
 2749SOL    HW1 9146   4.394   5.375   4.448
 2749SOL    HW2 9147   4.302   5.344   4.316
 2750SOL     OW 9148   0.698   5.883   1.707
 2750SOL    HW1 9149   0.702   5.842   1.799
 2750SOL    HW2 9150   0.758   5.832   1.645
 2751SOL     OW 9151   1.044   6.821   6.932
 2751SOL    HW1 9152   1.056   6.911   6.890
 2751SOL    HW2 9153   1.061   6.749   6.864
 2752SOL     OW 9154   6.338   6.136   5.386
 2752SOL    HW1 9155   6.419   6.193   5.406
 2752SOL    HW2 9156   6.272   6.190   5.333
 2753SOL     OW 9157   2.887   5.801   5.121
 2753SOL    HW1 9158   2.959   5.866   5.097
 2753SOL    HW2 9159   2.802   5.851   5.140
 2754SOL     OW 9160   0.941   5.985   4.550
 2754SOL    HW1 9161   0.932   6.015   4.645
 2754SOL    HW2 9162   0.932   6.064   4.490
 2755SOL     OW 9163   3.862   5.924   2.093
 2755SOL    HW1 9164   3.845   6.022   2.106
 2755SOL    HW2 9165   3.853   5.902   1.996
 2756SOL     OW 9166   0.418   2.601   5.281
 2756SOL    HW1 9167   0.345   2.647   5.232
 2756SOL    HW2 9168   0.502   2.654   5.274
 2757SOL     OW 9169   4.285   3.448   0.148
 2757SOL    HW1 9170   4.252   3.396   0.069
 2757SOL    HW2 9171   4.366   3.404   0.186
 2758SOL     OW 9172   0.281   6.570   2.028
 2758SOL    HW1 9173   0.285   6.638   1.955
 2758SOL    HW2 9174   0.295   6.479   1.990
 2759SOL     OW 9175   3.538   3.470   5.873
 2759SOL    HW1 9176   3.455   3.524   5.870
 2759SOL    HW2 9177   3.517   3.377   5.904
 2760SOL     OW 9178   5.825   5.924   2.622
 2760SOL    HW1 9179   5.822   5.845   2.560
 2760SOL    HW2 9180   5.734   5.963   2.631
 2761SOL     OW 9181   1.253   2.808   3.705
 2761SOL    HW1 9182   1.191   2.831   3.780
 2761SOL    HW2 9183   1.308   2.729   3.730
 2762SOL     OW 9184   3.117   2.216   0.669
 2762SOL    HW1 9185   3.120   2.135   0.728
 2762SOL    HW2 9186   3.032   2.215   0.616
 2763SOL     OW 9187   6.619   1.928   3.987
 2763SOL    HW1 9188   6.663   1.851   4.033
 2763SOL    HW2 9189   6.583   1.992   4.055
 2764SOL     OW 9190   0.650   2.996   3.333
 2764SOL    HW1 9191   0.675   3.058   3.407
 2764SOL    HW2 9192   0.640   3.048   3.248
 2765SOL     OW 9193   6.202   6.818   6.532
 2765SOL    HW1 9194   6.103   6.823   6.546
 2765SOL    HW2 9195   6.240   6.910   6.530
 2766SOL     OW 9196   4.654   0.031   0.215
 2766SOL    HW1 9197   4.715   6.976   0.237
 2766SOL    HW2 9198   4.633   0.082   0.298
 2767SOL     OW 9199   0.313   5.410   6.453
 2767SOL    HW1 9200   0.256   5.481   6.411
 2767SOL    HW2 9201   0.351   5.351   6.382
 2768SOL     OW 9202   4.075   6.685   1.565
 2768SOL    HW1 9203   4.076   6.781   1.538
 2768SOL    HW2 9204   4.016   6.633   1.504
 2769SOL     OW 9205   0.493   4.628   5.760
 2769SOL    HW1 9206   0.477   4.637   5.662
 2769SOL    HW2 9207   0.585   4.659   5.781
 2770SOL     OW 9208   2.737   6.149   0.560
 2770SOL    HW1 9209   2.761   6.084   0.488
 2770SOL    HW2 9210   2.638   6.148   0.574
 2771SOL     OW 9211   4.762   0.560   5.011
 2771SOL    HW1 9212   4.740   0.631   5.078
 2771SOL    HW2 9213   4.844   0.585   4.961
 2772SOL     OW 9214   4.489   0.759   4.057
 2772SOL    HW1 9215   4.563   0.740   3.993
 2772SOL    HW2 9216   4.404   0.772   4.007
 2773SOL     OW 9217   5.931   2.629   4.922
 2773SOL    HW1 9218   5.880   2.708   4.957
 2773SOL    HW2 9219   5.939   2.560   4.994
 2774SOL     OW 9220   5.756   1.919   4.343
 2774SOL    HW1 9221   5.763   1.904   4.245
 2774SOL    HW2 9222   5.660   1.924   4.370
 2775SOL     OW 9223   0.023   3.259   4.009
 2775SOL    HW1 9224   6.990   3.264   4.094
 2775SOL    HW2 9225   6.982   3.241   3.932
 2776SOL     OW 9226   5.049   4.999   6.231
 2776SOL    HW1 9227   4.963   4.980   6.184
 2776SOL    HW2 9228   5.067   4.927   6.298
 2777SOL     OW 9229   2.466   2.013   6.565
 2777SOL    HW1 9230   2.486   2.049   6.474
 2777SOL    HW2 9231   2.393   2.066   6.607
 2778SOL     OW 9232   2.636   0.712   5.923
 2778SOL    HW1 9233   2.617   0.810   5.913
 2778SOL    HW2 9234   2.550   0.661   5.921
 2779SOL     OW 9235   4.848   0.956   1.499
 2779SOL    HW1 9236   4.905   0.913   1.429
 2779SOL    HW2 9237   4.754   0.923   1.490
 2780SOL     OW 9238   7.008   1.204   5.251
 2780SOL    HW1 9239   0.039   1.166   5.327
 2780SOL    HW2 9240   6.939   1.268   5.286
 2781SOL     OW 9241   5.543   1.012   3.544
 2781SOL    HW1 9242   5.579   1.094   3.589
 2781SOL    HW2 9243   5.618   0.951   3.519
 2782SOL     OW 9244   5.649   0.843   5.966
 2782SOL    HW1 9245   5.635   0.749   5.932
 2782SOL    HW2 9246   5.724   0.885   5.915
 2783SOL     OW 9247   6.107   3.466   1.640
 2783SOL    HW1 9248   6.049   3.536   1.598
 2783SOL    HW2 9249   6.082   3.377   1.604
 2784SOL     OW 9250   0.853   3.088   0.979
 2784SOL    HW1 9251   0.756   3.103   0.994
 2784SOL    HW2 9252   0.866   3.005   0.925
 2785SOL     OW 9253   6.132   3.339   2.275
 2785SOL    HW1 9254   6.055   3.276   2.269
 2785SOL    HW2 9255   6.138   3.375   2.368
 2786SOL     OW 9256   0.681   6.034   6.225
 2786SOL    HW1 9257   0.588   6.069   6.214
 2786SOL    HW2 9258   0.745   6.111   6.226
 2787SOL     OW 9259   0.236   5.618   6.809
 2787SOL    HW1 9260   0.273   5.526   6.794
 2787SOL    HW2 9261   0.183   5.646   6.728
 2788SOL     OW 9262   2.861   0.077   6.071
 2788SOL    HW1 9263   2.834   7.018   6.018
 2788SOL    HW2 9264   2.826   0.160   6.026
 2789SOL     OW 9265   1.011   1.987   4.967
 2789SOL    HW1 9266   0.918   1.987   5.003
 2789SOL    HW2 9267   1.022   2.064   4.904
 2790SOL     OW 9268   1.607   5.410   2.154
 2790SOL    HW1 9269   1.655   5.374   2.074
 2790SOL    HW2 9270   1.554   5.491   2.128
 2791SOL     OW 9271   1.051   2.971   3.836
 2791SOL    HW1 9272   1.021   3.013   3.751
 2791SOL    HW2 9273   1.099   3.038   3.892
 2792SOL     OW 9274   3.405   1.841   5.921
 2792SOL    HW1 9275   3.331   1.779   5.895
 2792SOL    HW2 9276   3.389   1.875   6.014
 2793SOL     OW 9277   3.981   3.505   0.632
 2793SOL    HW1 9278   3.914   3.463   0.570
 2793SOL    HW2 9279   3.937   3.521   0.721
 2794SOL     OW 9280   1.081   2.572   0.120
 2794SOL    HW1 9281   1.120   2.663   0.112
 2794SOL    HW2 9282   1.139   2.515   0.179
 2795SOL     OW 9283   1.242   6.247   1.213
 2795SOL    HW1 9284   1.280   6.311   1.280
 2795SOL    HW2 9285   1.308   6.233   1.139
 2796SOL     OW 9286   1.819   6.101   6.633
 2796SOL    HW1 9287   1.798   6.017   6.683
 2796SOL    HW2 9288   1.880   6.158   6.689
 2797SOL     OW 9289   5.220   4.952   3.335
 2797SOL    HW1 9290   5.222   4.854   3.355
 2797SOL    HW2 9291   5.305   4.994   3.367
 2798SOL     OW 9292   5.060   1.228   1.548
 2798SOL    HW1 9293   5.101   1.142   1.578
 2798SOL    HW2 9294   5.009   1.213   1.464
 2799SOL     OW 9295   3.463   6.489   4.338
 2799SOL    HW1 9296   3.435   6.506   4.243
 2799SOL    HW2 9297   3.388   6.447   4.389
 2800SOL     OW 9298   5.500   0.270   6.071
 2800SOL    HW1 9299   5.471   0.205   6.142
 2800SOL    HW2 9300   5.420   0.301   6.020
 2801SOL     OW 9301   0.327   4.680   3.957
 2801SOL    HW1 9302   0.352   4.758   4.015
 2801SOL    HW2 9303   0.233   4.692   3.924
 2802SOL     OW 9304   1.872   5.124   5.387
 2802SOL    HW1 9305   1.863   5.073   5.473
 2802SOL    HW2 9306   1.904   5.216   5.407
 2803SOL     OW 9307   3.973   2.736   6.157
 2803SOL    HW1 9308   3.948   2.713   6.251
 2803SOL    HW2 9309   3.982   2.652   6.103
 2804SOL     OW 9310   0.128   2.534   3.704
 2804SOL    HW1 9311   0.087   2.487   3.782
 2804SOL    HW2 9312   0.214   2.490   3.680
 2805SOL     OW 9313   3.218   3.564   0.758
 2805SOL    HW1 9314   3.149   3.551   0.828
 2805SOL    HW2 9315   3.245   3.475   0.720
 2806SOL     OW 9316   0.265   2.922   6.149
 2806SOL    HW1 9317   0.258   3.010   6.197
 2806SOL    HW2 9318   0.198   2.858   6.187
 2807SOL     OW 9319   4.122   1.470   3.596
 2807SOL    HW1 9320   4.061   1.549   3.590
 2807SOL    HW2 9321   4.191   1.475   3.523
 2808SOL     OW 9322   0.602   5.061   5.589
 2808SOL    HW1 9323   0.687   5.112   5.577
 2808SOL    HW2 9324   0.599   4.985   5.525
 2809SOL     OW 9325   0.220   5.496   2.021
 2809SOL    HW1 9326   0.204   5.400   2.047
 2809SOL    HW2 9327   0.303   5.529   2.067
 2810SOL     OW 9328   1.930   6.707   3.165
 2810SOL    HW1 9329   1.866   6.758   3.222
 2810SOL    HW2 9330   1.926   6.741   3.071
 2811SOL     OW 9331   0.985   1.112   0.794
 2811SOL    HW1 9332   1.055   1.125   0.724
 2811SOL    HW2 9333   0.903   1.165   0.770
 2812SOL     OW 9334   1.180   1.693   0.725
 2812SOL    HW1 9335   1.262   1.656   0.683
 2812SOL    HW2 9336   1.203   1.774   0.779
 2813SOL     OW 9337   0.811   3.466   2.305
 2813SOL    HW1 9338   0.719   3.430   2.290
 2813SOL    HW2 9339   0.863   3.403   2.363
 2814SOL     OW 9340   2.758   3.995   0.127
 2814SOL    HW1 9341   2.777   3.942   0.044
 2814SOL    HW2 9342   2.715   4.082   0.103
 2815SOL     OW 9343   0.481   4.944   4.819
 2815SOL    HW1 9344   0.390   4.904   4.831
 2815SOL    HW2 9345   0.478   5.042   4.841
 2816SOL     OW 9346   0.766   5.790   5.118
 2816SOL    HW1 9347   0.733   5.696   5.132
 2816SOL    HW2 9348   0.862   5.795   5.143
 2817SOL     OW 9349   3.208   0.882   2.244
 2817SOL    HW1 9350   3.281   0.940   2.279
 2817SOL    HW2 9351   3.211   0.793   2.289
 2818SOL     OW 9352   2.151   0.585   0.338
 2818SOL    HW1 9353   2.184   0.679   0.347
 2818SOL    HW2 9354   2.078   0.569   0.405
 2819SOL     OW 9355   0.734   0.231   6.487
 2819SOL    HW1 9356   0.775   0.230   6.396
 2819SOL    HW2 9357   0.781   0.165   6.545
 2820SOL     OW 9358   1.706   2.151   0.196
 2820SOL    HW1 9359   1.613   2.158   0.159
 2820SOL    HW2 9360   1.761   2.227   0.162
 2821SOL     OW 9361   3.268   3.502   6.065
 2821SOL    HW1 9362   3.262   3.545   5.975
 2821SOL    HW2 9363   3.331   3.554   6.123
 2822SOL     OW 9364   5.062   2.669   0.013
 2822SOL    HW1 9365   5.115   2.594   6.994
 2822SOL    HW2 9366   4.975   2.633   0.047
 2823SOL     OW 9367   4.843   3.400   1.452
 2823SOL    HW1 9368   4.753   3.360   1.465
 2823SOL    HW2 9369   4.854   3.428   1.357
 2824SOL     OW 9370   0.818   4.342   4.652
 2824SOL    HW1 9371   0.755   4.266   4.659
 2824SOL    HW2 9372   0.770   4.423   4.617
 2825SOL     OW 9373   5.356   1.323   6.407
 2825SOL    HW1 9374   5.437   1.273   6.375
 2825SOL    HW2 9375   5.361   1.334   6.506
 2826SOL     OW 9376   2.422   2.681   6.607
 2826SOL    HW1 9377   2.334   2.673   6.655
 2826SOL    HW2 9378   2.433   2.775   6.575
 2827SOL     OW 9379   6.107   1.550   6.491
 2827SOL    HW1 9380   6.052   1.560   6.408
 2827SOL    HW2 9381   6.057   1.495   6.558
 2828SOL     OW 9382   1.336   3.173   1.374
 2828SOL    HW1 9383   1.297   3.187   1.283
 2828SOL    HW2 9384   1.294   3.094   1.418
 2829SOL     OW 9385   3.211   3.413   2.191
 2829SOL    HW1 9386   3.309   3.421   2.175
 2829SOL    HW2 9387   3.165   3.494   2.154
 2830SOL     OW 9388   3.390   6.356   4.687
 2830SOL    HW1 9389   3.431   6.265   4.674
 2830SOL    HW2 9390   3.314   6.368   4.624
 2831SOL     OW 9391   6.082   1.423   1.539
 2831SOL    HW1 9392   6.029   1.486   1.597
 2831SOL    HW2 9393   6.022   1.385   1.468
 2832SOL     OW 9394   0.698   3.838   2.469
 2832SOL    HW1 9395   0.733   3.898   2.542
 2832SOL    HW2 9396   0.666   3.752   2.509
 2833SOL     OW 9397   1.339   2.821   2.721
 2833SOL    HW1 9398   1.421   2.869   2.691
 2833SOL    HW2 9399   1.258   2.874   2.694
 2834SOL     OW 9400   3.952   6.676   4.557
 2834SOL    HW1 9401   3.938   6.770   4.525
 2834SOL    HW2 9402   3.902   6.661   4.641
 2835SOL     OW 9403   6.362   0.380   6.854
 2835SOL    HW1 9404   6.437   0.445   6.857
 2835SOL    HW2 9405   6.276   0.426   6.878
 2836SOL     OW 9406   3.211   6.021   2.553
 2836SOL    HW1 9407   3.253   6.099   2.507
 2836SOL    HW2 9408   3.155   5.970   2.488
 2837SOL     OW 9409   4.990   4.390   1.378
 2837SOL    HW1 9410   5.002   4.344   1.290
 2837SOL    HW2 9411   4.894   4.415   1.390
 2838SOL     OW 9412   6.590   4.279   6.325
 2838SOL    HW1 9413   6.661   4.305   6.391
 2838SOL    HW2 9414   6.627   4.283   6.233
 2839SOL     OW 9415   6.026   3.555   5.385
 2839SOL    HW1 9416   5.957   3.484   5.374
 2839SOL    HW2 9417   6.041   3.601   5.297
 2840SOL     OW 9418   6.080   6.771   4.115
 2840SOL    HW1 9419   6.167   6.753   4.162
 2840SOL    HW2 9420   6.071   6.708   4.038
 2841SOL     OW 9421   5.290   3.960   2.334
 2841SOL    HW1 9422   5.367   3.900   2.355
 2841SOL    HW2 9423   5.322   4.039   2.282
 2842SOL     OW 9424   1.045   0.411   3.496
 2842SOL    HW1 9425   1.032   0.381   3.401
 2842SOL    HW2 9426   1.106   0.347   3.542
 2843SOL     OW 9427   2.416   2.678   3.649
 2843SOL    HW1 9428   2.377   2.770   3.644
 2843SOL    HW2 9429   2.343   2.611   3.664
 2844SOL     OW 9430   4.854   3.703   0.622
 2844SOL    HW1 9431   4.912   3.736   0.696
 2844SOL    HW2 9432   4.775   3.763   0.612
 2845SOL     OW 9433   2.603   1.735   1.921
 2845SOL    HW1 9434   2.568   1.690   2.003
 2845SOL    HW2 9435   2.532   1.794   1.883
 2846SOL     OW 9436   6.608   6.689   6.757
 2846SOL    HW1 9437   6.627   6.787   6.746
 2846SOL    HW2 9438   6.664   6.653   6.832
 2847SOL     OW 9439   4.733   5.172   1.271
 2847SOL    HW1 9440   4.774   5.215   1.352
 2847SOL    HW2 9441   4.792   5.098   1.239
 2848SOL     OW 9442   0.830   4.267   5.322
 2848SOL    HW1 9443   0.841   4.276   5.421
 2848SOL    HW2 9444   0.812   4.356   5.283
 2849SOL     OW 9445   5.319   0.628   1.896
 2849SOL    HW1 9446   5.299   0.538   1.857
 2849SOL    HW2 9447   5.324   0.696   1.822
 2850SOL     OW 9448   1.459   0.498   2.006
 2850SOL    HW1 9449   1.389   0.428   2.005
 2850SOL    HW2 9450   1.471   0.534   2.099
 2851SOL     OW 9451   3.002   3.533   1.286
 2851SOL    HW1 9452   3.038   3.509   1.376
 2851SOL    HW2 9453   3.023   3.628   1.266
 2852SOL     OW 9454   6.894   4.601   5.787
 2852SOL    HW1 9455   6.886   4.556   5.698
 2852SOL    HW2 9456   6.988   4.633   5.799
 2853SOL     OW 9457   6.951   4.247   5.275
 2853SOL    HW1 9458   6.912   4.335   5.303
 2853SOL    HW2 9459   6.880   4.193   5.229
 2854SOL     OW 9460   3.527   0.891   6.485
 2854SOL    HW1 9461   3.595   0.833   6.441
 2854SOL    HW2 9462   3.479   0.945   6.415
 2855SOL     OW 9463   2.249   1.388   4.672
 2855SOL    HW1 9464   2.204   1.299   4.675
 2855SOL    HW2 9465   2.322   1.386   4.604
 2856SOL     OW 9466   0.492   5.709   3.912
 2856SOL    HW1 9467   0.578   5.757   3.896
 2856SOL    HW2 9468   0.444   5.751   3.989
 2857SOL     OW 9469   6.691   4.280   0.953
 2857SOL    HW1 9470   6.776   4.272   0.901
 2857SOL    HW2 9471   6.680   4.200   1.011
 2858SOL     OW 9472   4.772   4.664   2.533
 2858SOL    HW1 9473   4.725   4.578   2.515
 2858SOL    HW2 9474   4.729   4.710   2.611
 2859SOL     OW 9475   5.290   5.012   1.636
 2859SOL    HW1 9476   5.300   5.079   1.563
 2859SOL    HW2 9477   5.262   5.058   1.720
 2860SOL     OW 9478   1.155   6.888   2.050
 2860SOL    HW1 9479   1.203   6.854   2.132
 2860SOL    HW2 9480   1.119   6.810   1.998
 2861SOL     OW 9481   4.271   3.996   5.946
 2861SOL    HW1 9482   4.285   3.927   5.875
 2861SOL    HW2 9483   4.268   4.087   5.904
 2862SOL     OW 9484   4.544   2.181   0.055
 2862SOL    HW1 9485   4.546   2.095   0.005
 2862SOL    HW2 9486   4.462   2.185   0.112
 2863SOL     OW 9487   5.748   1.488   5.058
 2863SOL    HW1 9488   5.845   1.486   5.034
 2863SOL    HW2 9489   5.710   1.577   5.034
 2864SOL     OW 9490   4.011   4.817   0.726
 2864SOL    HW1 9491   4.110   4.806   0.718
 2864SOL    HW2 9492   3.976   4.751   0.791
 2865SOL     OW 9493   5.494   4.927   5.331
 2865SOL    HW1 9494   5.486   5.021   5.296
 2865SOL    HW2 9495   5.588   4.896   5.321
 2866SOL     OW 9496   3.666   4.281   0.628
 2866SOL    HW1 9497   3.635   4.374   0.609
 2866SOL    HW2 9498   3.732   4.283   0.703
 2867SOL     OW 9499   6.172   6.472   2.505
 2867SOL    HW1 9500   6.178   6.572   2.508
 2867SOL    HW2 9501   6.078   6.444   2.521
 2868SOL     OW 9502   0.552   0.626   5.952
 2868SOL    HW1 9503   0.590   0.671   5.870
 2868SOL    HW2 9504   0.596   0.664   6.033
 2869SOL     OW 9505   6.061   4.918   4.140
 2869SOL    HW1 9506   6.041   4.949   4.233
 2869SOL    HW2 9507   6.058   4.818   4.136
 2870SOL     OW 9508   0.023   1.631   1.859
 2870SOL    HW1 9509   0.027   1.598   1.765
 2870SOL    HW2 9510   6.970   1.697   1.869
 2871SOL     OW 9511   4.752   1.768   2.944
 2871SOL    HW1 9512   4.682   1.748   3.013
 2871SOL    HW2 9513   4.834   1.715   2.964
 2872SOL     OW 9514   2.573   2.164   2.918
 2872SOL    HW1 9515   2.638   2.207   2.855
 2872SOL    HW2 9516   2.606   2.073   2.943
 2873SOL     OW 9517   1.258   0.091   1.172
 2873SOL    HW1 9518   1.195   0.151   1.221
 2873SOL    HW2 9519   1.348   0.136   1.166
 2874SOL     OW 9520   2.153   1.706   3.222
 2874SOL    HW1 9521   2.124   1.624   3.174
 2874SOL    HW2 9522   2.147   1.690   3.321
 2875SOL     OW 9523   2.308   6.474   3.115
 2875SOL    HW1 9524   2.355   6.406   3.059
 2875SOL    HW2 9525   2.273   6.547   3.056
 2876SOL     OW 9526   2.121   6.656   1.734
 2876SOL    HW1 9527   2.143   6.569   1.778
 2876SOL    HW2 9528   2.043   6.698   1.780
 2877SOL     OW 9529   1.542   2.449   6.324
 2877SOL    HW1 9530   1.602   2.528   6.338
 2877SOL    HW2 9531   1.559   2.410   6.234
 2878SOL     OW 9532   4.063   3.138   4.325
 2878SOL    HW1 9533   4.048   3.166   4.230
 2878SOL    HW2 9534   4.107   3.049   4.327
 2879SOL     OW 9535   5.310   4.328   0.245
 2879SOL    HW1 9536   5.237   4.283   0.296
 2879SOL    HW2 9537   5.337   4.412   0.291
 2880SOL     OW 9538   1.937   1.135   3.391
 2880SOL    HW1 9539   1.852   1.093   3.421
 2880SOL    HW2 9540   1.977   1.186   3.468
 2881SOL     OW 9541   5.431   6.423   0.358
 2881SOL    HW1 9542   5.437   6.510   0.309
 2881SOL    HW2 9543   5.518   6.403   0.404
 2882SOL     OW 9544   4.457   6.358   0.070
 2882SOL    HW1 9545   4.538   6.300   0.075
 2882SOL    HW2 9546   4.448   6.411   0.154
 2883SOL     OW 9547   5.911   6.591   3.479
 2883SOL    HW1 9548   6.010   6.595   3.482
 2883SOL    HW2 9549   5.873   6.660   3.542
 2884SOL     OW 9550   5.809   5.614   4.043
 2884SOL    HW1 9551   5.753   5.541   4.005
 2884SOL    HW2 9552   5.896   5.576   4.076
 2885SOL     OW 9553   1.359   2.426   3.515
 2885SOL    HW1 9554   1.426   2.392   3.450
 2885SOL    HW2 9555   1.349   2.361   3.591
 2886SOL     OW 9556   2.418   4.171   5.638
 2886SOL    HW1 9557   2.470   4.154   5.555
 2886SOL    HW2 9558   2.439   4.102   5.706
 2887SOL     OW 9559   0.086   5.864   2.875
 2887SOL    HW1 9560   0.097   5.782   2.932
 2887SOL    HW2 9561   0.165   5.924   2.889
 2888SOL     OW 9562   5.820   0.064   6.505
 2888SOL    HW1 9563   5.789   0.158   6.520
 2888SOL    HW2 9564   5.829   0.017   6.592
 2889SOL     OW 9565   4.057   6.110   3.662
 2889SOL    HW1 9566   3.988   6.044   3.693
 2889SOL    HW2 9567   4.012   6.198   3.643
 2890SOL     OW 9568   0.597   2.258   1.075
 2890SOL    HW1 9569   0.647   2.292   0.996
 2890SOL    HW2 9570   0.648   2.278   1.158
 2891SOL     OW 9571   0.047   1.455   5.044
 2891SOL    HW1 9572   0.107   1.375   5.046
 2891SOL    HW2 9573   0.102   1.537   5.057
 2892SOL     OW 9574   5.074   3.872   2.079
 2892SOL    HW1 9575   5.135   3.848   2.155
 2892SOL    HW2 9576   4.979   3.871   2.111
 2893SOL     OW 9577   6.462   5.634   5.377
 2893SOL    HW1 9578   6.532   5.608   5.311
 2893SOL    HW2 9579   6.390   5.564   5.379
 2894SOL     OW 9580   2.487   5.263   2.134
 2894SOL    HW1 9581   2.498   5.361   2.115
 2894SOL    HW2 9582   2.459   5.250   2.228
 2895SOL     OW 9583   4.681   6.819   5.771
 2895SOL    HW1 9584   4.665   6.724   5.798
 2895SOL    HW2 9585   4.775   6.829   5.739
 2896SOL     OW 9586   5.462   0.176   4.490
 2896SOL    HW1 9587   5.557   0.151   4.469
 2896SOL    HW2 9588   5.411   0.093   4.514
 2897SOL     OW 9589   3.958   5.319   2.854
 2897SOL    HW1 9590   3.919   5.227   2.846
 2897SOL    HW2 9591   4.057   5.313   2.859
 2898SOL     OW 9592   5.435   2.905   2.428
 2898SOL    HW1 9593   5.371   2.964   2.478
 2898SOL    HW2 9594   5.396   2.813   2.421
 2899SOL     OW 9595   6.737   3.807   0.890
 2899SOL    HW1 9596   6.662   3.843   0.834
 2899SOL    HW2 9597   6.708   3.722   0.934
 2900SOL     OW 9598   2.255   2.996   5.590
 2900SOL    HW1 9599   2.245   2.897   5.574
 2900SOL    HW2 9600   2.294   3.039   5.508
 2901SOL     OW 9601   0.833   4.099   3.087
 2901SOL    HW1 9602   0.877   4.037   3.022
 2901SOL    HW2 9603   0.735   4.102   3.069
 2902SOL     OW 9604   5.666   5.713   3.799
 2902SOL    HW1 9605   5.648   5.625   3.842
 2902SOL    HW2 9606   5.743   5.758   3.845
 2903SOL     OW 9607   5.568   4.938   0.417
 2903SOL    HW1 9608   5.651   4.939   0.362
 2903SOL    HW2 9609   5.488   4.947   0.358
 2904SOL     OW 9610   2.004   4.094   5.206
 2904SOL    HW1 9611   2.071   4.074   5.135
 2904SOL    HW2 9612   1.957   4.010   5.232
 2905SOL     OW 9613   1.699   5.857   1.120
 2905SOL    HW1 9614   1.734   5.934   1.173
 2905SOL    HW2 9615   1.601   5.871   1.104
 2906SOL     OW 9616   6.012   5.921   4.625
 2906SOL    HW1 9617   6.096   5.870   4.644
 2906SOL    HW2 9618   5.965   5.879   4.548
 2907SOL     OW 9619   0.648   0.566   4.745
 2907SOL    HW1 9620   0.665   0.526   4.655
 2907SOL    HW2 9621   0.703   0.649   4.756
 2908SOL     OW 9622   4.401   0.054   3.189
 2908SOL    HW1 9623   4.322   7.015   3.183
 2908SOL    HW2 9624   4.448   0.056   3.101
 2909SOL     OW 9625   0.108   6.598   1.638
 2909SOL    HW1 9626   0.053   6.553   1.567
 2909SOL    HW2 9627   0.056   6.600   1.724
 2910SOL     OW 9628   0.578   0.674   4.191
 2910SOL    HW1 9629   0.641   0.606   4.155
 2910SOL    HW2 9630   0.506   0.628   4.244
 2911SOL     OW 9631   0.069   4.239   5.542
 2911SOL    HW1 9632   0.055   4.317   5.482
 2911SOL    HW2 9633   7.003   4.190   5.553
 2912SOL     OW 9634   1.086   1.128   1.484
 2912SOL    HW1 9635   0.993   1.090   1.482
 2912SOL    HW2 9636   1.081   1.225   1.506
 2913SOL     OW 9637   2.728   6.432   3.005
 2913SOL    HW1 9638   2.736   6.530   3.024
 2913SOL    HW2 9639   2.637   6.413   2.967
 2914SOL     OW 9640   4.140   5.449   1.157
 2914SOL    HW1 9641   4.194   5.367   1.139
 2914SOL    HW2 9642   4.199   5.522   1.190
 2915SOL     OW 9643   2.620   0.269   3.172
 2915SOL    HW1 9644   2.525   0.243   3.153
 2915SOL    HW2 9645   2.677   0.187   3.172
 2916SOL     OW 9646   2.036   5.858   6.772
 2916SOL    HW1 9647   2.022   5.903   6.861
 2916SOL    HW2 9648   1.949   5.819   6.742
 2917SOL     OW 9649   2.632   6.711   3.151
 2917SOL    HW1 9650   2.716   6.728   3.203
 2917SOL    HW2 9651   2.634   6.761   3.065
 2918SOL     OW 9652   5.063   3.010   1.626
 2918SOL    HW1 9653   5.156   3.019   1.661
 2918SOL    HW2 9654   5.001   3.067   1.681
 2919SOL     OW 9655   0.588   6.034   5.149
 2919SOL    HW1 9656   0.654   5.970   5.110
 2919SOL    HW2 9657   0.628   6.125   5.155
 2920SOL     OW 9658   2.134   2.652   2.188
 2920SOL    HW1 9659   2.106   2.569   2.140
 2920SOL    HW2 9660   2.228   2.642   2.221
 2921SOL     OW 9661   1.336   6.373   3.818
 2921SOL    HW1 9662   1.371   6.404   3.906
 2921SOL    HW2 9663   1.409   6.379   3.749
 2922SOL     OW 9664   4.253   5.432   4.173
 2922SOL    HW1 9665   4.240   5.353   4.113
 2922SOL    HW2 9666   4.183   5.501   4.152
 2923SOL     OW 9667   0.046   5.362   5.159
 2923SOL    HW1 9668   0.003   5.452   5.167
 2923SOL    HW2 9669   6.999   5.291   5.175
 2924SOL     OW 9670   5.960   1.612   6.269
 2924SOL    HW1 9671   5.983   1.583   6.176
 2924SOL    HW2 9672   5.941   1.710   6.270
 2925SOL     OW 9673   5.842   6.413   4.683
 2925SOL    HW1 9674   5.866   6.381   4.774
 2925SOL    HW2 9675   5.823   6.511   4.685
 2926SOL     OW 9676   6.543   2.358   4.123
 2926SOL    HW1 9677   6.587   2.417   4.056
 2926SOL    HW2 9678   6.472   2.410   4.172
 2927SOL     OW 9679   1.113   1.753   1.828
 2927SOL    HW1 9680   1.198   1.740   1.777
 2927SOL    HW2 9681   1.050   1.808   1.774
 2928SOL     OW 9682   6.191   3.226   0.338
 2928SOL    HW1 9683   6.181   3.126   0.341
 2928SOL    HW2 9684   6.260   3.250   0.270
 2929SOL     OW 9685   2.050   2.119   4.011
 2929SOL    HW1 9686   2.057   2.132   4.110
 2929SOL    HW2 9687   1.961   2.152   3.979
 2930SOL     OW 9688   0.671   4.230   4.347
 2930SOL    HW1 9689   0.635   4.303   4.405
 2930SOL    HW2 9690   0.768   4.247   4.329
 2931SOL     OW 9691   5.183   3.947   5.614
 2931SOL    HW1 9692   5.137   3.867   5.652
 2931SOL    HW2 9693   5.176   3.945   5.515
 2932SOL     OW 9694   5.879   5.033   1.371
 2932SOL    HW1 9695   5.972   5.059   1.396
 2932SOL    HW2 9696   5.861   4.939   1.401
 2933SOL     OW 9697   1.374   6.436   6.923
 2933SOL    HW1 9698   1.364   6.478   7.013
 2933SOL    HW2 9699   1.441   6.362   6.928
 2934SOL     OW 9700   3.865   4.672   0.922
 2934SOL    HW1 9701   3.807   4.625   0.989
 2934SOL    HW2 9702   3.808   4.715   0.852
 2935SOL     OW 9703   0.984   2.448   6.163
 2935SOL    HW1 9704   0.959   2.357   6.196
 2935SOL    HW2 9705   0.985   2.512   6.240
 2936SOL     OW 9706   4.968   6.368   1.869
 2936SOL    HW1 9707   4.882   6.319   1.874
 2936SOL    HW2 9708   4.977   6.428   1.949
 2937SOL     OW 9709   5.395   4.254   2.557
 2937SOL    HW1 9710   5.419   4.277   2.463
 2937SOL    HW2 9711   5.397   4.337   2.613
 2938SOL     OW 9712   0.682   5.798   6.132
 2938SOL    HW1 9713   0.701   5.894   6.153
 2938SOL    HW2 9714   0.717   5.741   6.206
 2939SOL     OW 9715   0.290   5.933   1.598
 2939SOL    HW1 9716   0.379   5.902   1.566
 2939SOL    HW2 9717   0.264   6.017   1.549
 2940SOL     OW 9718   4.475   6.818   3.832
 2940SOL    HW1 9719   4.376   6.804   3.823
 2940SOL    HW2 9720   4.523   6.740   3.792
 2941SOL     OW 9721   2.130   4.577   3.034
 2941SOL    HW1 9722   2.158   4.541   2.944
 2941SOL    HW2 9723   2.200   4.555   3.102
 2942SOL     OW 9724   3.862   1.555   1.083
 2942SOL    HW1 9725   3.878   1.642   1.129
 2942SOL    HW2 9726   3.831   1.487   1.149
 2943SOL     OW 9727   5.744   3.830   2.780
 2943SOL    HW1 9728   5.770   3.851   2.686
 2943SOL    HW2 9729   5.822   3.844   2.840
 2944SOL     OW 9730   2.147   5.727   2.195
 2944SOL    HW1 9731   2.121   5.758   2.286
 2944SOL    HW2 9732   2.112   5.634   2.180
 2945SOL     OW 9733   4.708   4.320   0.951
 2945SOL    HW1 9734   4.674   4.263   1.026
 2945SOL    HW2 9735   4.740   4.262   0.876
 2946SOL     OW 9736   3.519   3.454   4.656
 2946SOL    HW1 9737   3.551   3.363   4.683
 2946SOL    HW2 9738   3.441   3.480   4.713
 2947SOL     OW 9739   6.764   5.903   1.025
 2947SOL    HW1 9740   6.782   5.810   0.993
 2947SOL    HW2 9741   6.756   5.903   1.125
 2948SOL     OW 9742   6.990   3.689   2.414
 2948SOL    HW1 9743   0.055   3.640   2.426
 2948SOL    HW2 9744   7.005   3.771   2.359
 2949SOL     OW 9745   1.895   6.541   0.602
 2949SOL    HW1 9746   1.965   6.477   0.635
 2949SOL    HW2 9747   1.868   6.515   0.509
 2950SOL     OW 9748   6.159   5.701   2.501
 2950SOL    HW1 9749   6.183   5.674   2.595
 2950SOL    HW2 9750   6.121   5.793   2.501
 2951SOL     OW 9751   0.271   1.235   1.490
 2951SOL    HW1 9752   0.356   1.210   1.537
 2951SOL    HW2 9753   0.284   1.227   1.392
 2952SOL     OW 9754   6.917   1.616   5.348
 2952SOL    HW1 9755   6.867   1.533   5.324
 2952SOL    HW2 9756   6.862   1.696   5.323
 2953SOL     OW 9757   1.506   4.944   3.474
 2953SOL    HW1 9758   1.586   4.983   3.519
 2953SOL    HW2 9759   1.483   4.999   3.394
 2954SOL     OW 9760   0.205   4.043   6.452
 2954SOL    HW1 9761   0.258   3.982   6.393
 2954SOL    HW2 9762   0.133   3.991   6.497
 2955SOL     OW 9763   1.076   4.547   6.138
 2955SOL    HW1 9764   1.109   4.470   6.192
 2955SOL    HW2 9765   1.132   4.628   6.156
 2956SOL     OW 9766   5.203   4.709   4.193
 2956SOL    HW1 9767   5.204   4.609   4.181
 2956SOL    HW2 9768   5.112   4.739   4.220
 2957SOL     OW 9769   2.687   5.193   1.124
 2957SOL    HW1 9770   2.682   5.148   1.035
 2957SOL    HW2 9771   2.765   5.255   1.125
 2958SOL     OW 9772   1.844   4.547   2.904
 2958SOL    HW1 9773   1.909   4.574   2.975
 2958SOL    HW2 9774   1.870   4.589   2.817
 2959SOL     OW 9775   0.357   3.754   3.610
 2959SOL    HW1 9776   0.317   3.731   3.699
 2959SOL    HW2 9777   0.393   3.848   3.612
 2960SOL     OW 9778   4.904   6.939   1.054
 2960SOL    HW1 9779   4.940   6.885   0.977
 2960SOL    HW2 9780   4.804   6.941   1.049
 2961SOL     OW 9781   6.049   3.558   1.895
 2961SOL    HW1 9782   6.123   3.522   1.953
 2961SOL    HW2 9783   6.066   3.535   1.800
 2962SOL     OW 9784   6.986   0.603   3.854
 2962SOL    HW1 9785   7.005   0.635   3.761
 2962SOL    HW2 9786   6.904   0.648   3.889
 2963SOL     OW 9787   1.524   0.308   5.243
 2963SOL    HW1 9788   1.469   0.230   5.215
 2963SOL    HW2 9789   1.582   0.283   5.321
 2964SOL     OW 9790   1.530   1.359   6.193
 2964SOL    HW1 9791   1.579   1.444   6.172
 2964SOL    HW2 9792   1.511   1.354   6.291
 2965SOL     OW 9793   6.633   0.082   5.750
 2965SOL    HW1 9794   6.680   0.139   5.682
 2965SOL    HW2 9795   6.697   0.060   5.823
 2966SOL     OW 9796   2.642   6.075   2.080
 2966SOL    HW1 9797   2.736   6.074   2.115
 2966SOL    HW2 9798   2.594   6.155   2.115
 2967SOL     OW 9799   5.388   0.423   4.883
 2967SOL    HW1 9800   5.312   0.360   4.893
 2967SOL    HW2 9801   5.390   0.458   4.789
 2968SOL     OW 9802   0.830   3.872   1.128
 2968SOL    HW1 9803   0.905   3.877   1.193
 2968SOL    HW2 9804   0.848   3.934   1.052
 2969SOL     OW 9805   4.694   2.814   5.331
 2969SOL    HW1 9806   4.701   2.784   5.236
 2969SOL    HW2 9807   4.780   2.794   5.379
 2970SOL     OW 9808   2.466   2.404   5.321
 2970SOL    HW1 9809   2.490   2.420   5.417
 2970SOL    HW2 9810   2.532   2.450   5.262
 2971SOL     OW 9811   5.083   3.003   6.490
 2971SOL    HW1 9812   5.158   3.065   6.467
 2971SOL    HW2 9813   4.997   3.040   6.455
 2972SOL     OW 9814   6.623   5.230   5.960
 2972SOL    HW1 9815   6.548   5.291   5.987
 2972SOL    HW2 9816   6.642   5.243   5.863
 2973SOL     OW 9817   4.628   1.314   4.183
 2973SOL    HW1 9818   4.550   1.376   4.173
 2973SOL    HW2 9819   4.672   1.301   4.095
 2974SOL     OW 9820   4.500   0.020   2.268
 2974SOL    HW1 9821   4.595   0.040   2.244
 2974SOL    HW2 9822   4.458   6.988   2.194
 2975SOL     OW 9823   4.929   3.848   4.532
 2975SOL    HW1 9824   4.885   3.934   4.554
 2975SOL    HW2 9825   4.945   3.796   4.617
 2976SOL     OW 9826   4.048   0.938   1.963
 2976SOL    HW1 9827   4.013   0.900   1.878
 2976SOL    HW2 9828   4.143   0.910   1.976
 2977SOL     OW 9829   0.987   0.591   1.783
 2977SOL    HW1 9830   1.078   0.570   1.818
 2977SOL    HW2 9831   0.918   0.565   1.850
 2978SOL     OW 9832   4.363   5.289   6.988
 2978SOL    HW1 9833   4.360   5.348   0.048
 2978SOL    HW2 9834   4.308   5.330   6.915
 2979SOL     OW 9835   2.948   0.939   5.001
 2979SOL    HW1 9836   2.883   0.933   4.925
 2979SOL    HW2 9837   3.041   0.931   4.967
 2980SOL     OW 9838   2.892   3.526   4.394
 2980SOL    HW1 9839   2.986   3.521   4.362
 2980SOL    HW2 9840   2.882   3.472   4.477
 2981SOL     OW 9841   2.924   0.751   1.073
 2981SOL    HW1 9842   2.855   0.689   1.111
 2981SOL    HW2 9843   2.994   0.768   1.141
 2982SOL     OW 9844   2.078   0.812   0.936
 2982SOL    HW1 9845   2.009   0.833   1.006
 2982SOL    HW2 9846   2.169   0.829   0.974
 2983SOL     OW 9847   6.503   3.137   5.692
 2983SOL    HW1 9848   6.487   3.055   5.747
 2983SOL    HW2 9849   6.518   3.215   5.753
 2984SOL     OW 9850   0.267   5.649   1.445
 2984SOL    HW1 9851   0.326   5.568   1.450
 2984SOL    HW2 9852   0.323   5.732   1.455
 2985SOL     OW 9853   6.155   0.374   6.174
 2985SOL    HW1 9854   6.128   0.390   6.079
 2985SOL    HW2 9855   6.249   0.405   6.188
 2986SOL     OW 9856   3.461   3.516   2.140
 2986SOL    HW1 9857   3.507   3.499   2.053
 2986SOL    HW2 9858   3.519   3.572   2.199
 2987SOL     OW 9859   2.406   5.837   5.027
 2987SOL    HW1 9860   2.444   5.786   4.950
 2987SOL    HW2 9861   2.458   5.921   5.040
 2988SOL     OW 9862   0.088   1.738   6.423
 2988SOL    HW1 9863   0.015   1.717   6.488
 2988SOL    HW2 9864   0.135   1.822   6.452
 2989SOL     OW 9865   5.304   3.553   4.608
 2989SOL    HW1 9866   5.329   3.579   4.702
 2989SOL    HW2 9867   5.228   3.489   4.611
 2990SOL     OW 9868   5.532   2.065   4.762
 2990SOL    HW1 9869   5.508   2.137   4.828
 2990SOL    HW2 9870   5.622   2.085   4.723
 2991SOL     OW 9871   0.097   3.182   0.414
 2991SOL    HW1 9872   0.036   3.118   0.367
 2991SOL    HW2 9873   0.082   3.274   0.379
 2992SOL     OW 9874   0.495   4.182   4.902
 2992SOL    HW1 9875   0.413   4.238   4.889
 2992SOL    HW2 9876   0.496   4.146   4.995
 2993SOL     OW 9877   2.431   3.984   0.537
 2993SOL    HW1 9878   2.486   3.924   0.478
 2993SOL    HW2 9879   2.336   3.983   0.506
 2994SOL     OW 9880   3.356   5.923   5.381
 2994SOL    HW1 9881   3.275   5.977   5.357
 2994SOL    HW2 9882   3.438   5.979   5.370
 2995SOL     OW 9883   4.332   0.322   1.389
 2995SOL    HW1 9884   4.420   0.363   1.410
 2995SOL    HW2 9885   4.322   0.236   1.439
 2996SOL     OW 9886   6.710   0.771   4.009
 2996SOL    HW1 9887   6.630   0.808   3.963
 2996SOL    HW2 9888   6.758   0.845   4.057
 2997SOL     OW 9889   4.985   6.759   4.244
 2997SOL    HW1 9890   4.969   6.856   4.264
 2997SOL    HW2 9891   4.902   6.707   4.263
 2998SOL     OW 9892   2.861   0.612   1.634
 2998SOL    HW1 9893   2.936   0.658   1.589
 2998SOL    HW2 9894   2.859   0.638   1.731
 2999SOL     OW 9895   2.509   4.557   0.859
 2999SOL    HW1 9896   2.473   4.502   0.784
 2999SOL    HW2 9897   2.592   4.514   0.894
 3000SOL     OW 9898   2.578   4.113   5.391
 3000SOL    HW1 9899   2.575   4.196   5.336
 3000SOL    HW2 9900   2.520   4.043   5.349
 3001SOL     OW 9901   5.446   0.656   6.355
 3001SOL    HW1 9902   5.376   0.620   6.418
 3001SOL    HW2 9903   5.411   0.737   6.309
 3002SOL     OW 9904   1.650   1.927   1.779
 3002SOL    HW1 9905   1.580   1.935   1.850
 3002SOL    HW2 9906   1.613   1.874   1.702
 3003SOL     OW 9907   1.767   6.798   0.631
 3003SOL    HW1 9908   1.707   6.790   0.710
 3003SOL    HW2 9909   1.814   6.711   0.616
 3004SOL     OW 9910   2.385   6.738   3.369
 3004SOL    HW1 9911   2.440   6.709   3.290
 3004SOL    HW2 9912   2.437   6.804   3.423
 3005SOL     OW 9913   1.273   2.335   0.792
 3005SOL    HW1 9914   1.333   2.255   0.789
 3005SOL    HW2 9915   1.324   2.417   0.767
 3006SOL     OW 9916   5.188   1.458   6.238
 3006SOL    HW1 9917   5.232   1.387   6.292
 3006SOL    HW2 9918   5.170   1.425   6.146
 3007SOL     OW 9919   6.067   5.447   6.337
 3007SOL    HW1 9920   6.090   5.450   6.239
 3007SOL    HW2 9921   6.140   5.402   6.387
 3008SOL     OW 9922   4.501   3.591   5.594
 3008SOL    HW1 9923   4.523   3.645   5.675
 3008SOL    HW2 9924   4.404   3.567   5.596
 3009SOL     OW 9925   6.753   3.234   2.421
 3009SOL    HW1 9926   6.778   3.206   2.514
 3009SOL    HW2 9927   6.836   3.259   2.370
 3010SOL     OW 9928   4.502   5.294   1.978
 3010SOL    HW1 9929   4.585   5.248   1.949
 3010SOL    HW2 9930   4.425   5.260   1.924
 3011SOL     OW 9931   6.736   0.434   0.255
 3011SOL    HW1 9932   6.813   0.467   0.201
 3011SOL    HW2 9933   6.654   0.486   0.230
 3012SOL     OW 9934   1.976   1.431   4.724
 3012SOL    HW1 9935   1.945   1.523   4.747
 3012SOL    HW2 9936   2.075   1.431   4.710
 3013SOL     OW 9937   0.027   4.972   5.161
 3013SOL    HW1 9938   0.028   4.900   5.091
 3013SOL    HW2 9939   0.109   4.964   5.218
 3014SOL     OW 9940   5.273   0.328   6.319
 3014SOL    HW1 9941   5.340   0.256   6.333
 3014SOL    HW2 9942   5.264   0.382   6.403
 3015SOL     OW 9943   1.785   0.970   6.303
 3015SOL    HW1 9944   1.772   1.045   6.237
 3015SOL    HW2 9945   1.865   0.917   6.276
 3016SOL     OW 9946   2.291   6.768   4.250
 3016SOL    HW1 9947   2.321   6.680   4.288
 3016SOL    HW2 9948   2.325   6.842   4.307
 3017SOL     OW 9949   1.536   5.777   6.825
 3017SOL    HW1 9950   1.528   5.687   6.783
 3017SOL    HW2 9951   1.457   5.795   6.883
 3018SOL     OW 9952   3.414   1.086   1.657
 3018SOL    HW1 9953   3.348   1.128   1.719
 3018SOL    HW2 9954   3.505   1.125   1.673
 3019SOL     OW 9955   1.987   0.347   5.956
 3019SOL    HW1 9956   2.038   0.429   5.984
 3019SOL    HW2 9957   1.974   0.288   6.036
 3020SOL     OW 9958   5.846   5.067   6.835
 3020SOL    HW1 9959   5.872   5.111   6.921
 3020SOL    HW2 9960   5.929   5.046   6.783
 3021SOL     OW 9961   3.931   0.624   4.832
 3021SOL    HW1 9962   3.891   0.698   4.779
 3021SOL    HW2 9963   3.932   0.649   4.929
 3022SOL     OW 9964   4.587   6.151   3.604
 3022SOL    HW1 9965   4.678   6.110   3.604
 3022SOL    HW2 9966   4.530   6.106   3.672
 3023SOL     OW 9967   5.638   4.776   4.490
 3023SOL    HW1 9968   5.544   4.766   4.522
 3023SOL    HW2 9969   5.639   4.822   4.401
 3024SOL     OW 9970   0.166   1.015   0.604
 3024SOL    HW1 9971   0.166   1.104   0.558
 3024SOL    HW2 9972   0.088   0.961   0.571
 3025SOL     OW 9973   4.352   5.741   0.051
 3025SOL    HW1 9974   4.375   5.836   0.072
 3025SOL    HW2 9975   4.431   5.696   0.010
 3026SOL     OW 9976   0.300   0.421   2.077
 3026SOL    HW1 9977   0.260   0.330   2.087
 3026SOL    HW2 9978   0.387   0.414   2.028
 3027SOL     OW 9979   4.024   0.636   0.906
 3027SOL    HW1 9980   3.957   0.577   0.952
 3027SOL    HW2 9981   3.996   0.650   0.811
 3028SOL     OW 9982   3.112   3.515   5.426
 3028SOL    HW1 9983   3.191   3.554   5.378
 3028SOL    HW2 9984   3.138   3.427   5.467
 3029SOL     OW 9985   6.515   3.455   4.659
 3029SOL    HW1 9986   6.496   3.357   4.647
 3029SOL    HW2 9987   6.608   3.474   4.625
 3030SOL     OW 9988   2.236   2.410   6.479
 3030SOL    HW1 9989   2.314   2.398   6.540
 3030SOL    HW2 9990   2.151   2.392   6.528
 3031SOL     OW 9991   1.099   5.548   0.892
 3031SOL    HW1 9992   1.112   5.606   0.972
 3031SOL    HW2 9993   1.063   5.459   0.920
 3032SOL     OW 9994   2.306   0.156   3.382
 3032SOL    HW1 9995   2.400   0.167   3.414
 3032SOL    HW2 9996   2.259   0.087   3.436
 3033SOL     OW 9997   1.069   1.922   5.678
 3033SOL    HW1 9998   1.057   2.007   5.729
 3033SOL    HW2 9999   0.982   1.895   5.638
 3034SOL     OW10000   5.990   3.594   3.029
 3034SOL    HW110001   6.023   3.520   2.971
 3034SOL    HW210002   6.039   3.593   3.117
 3035SOL     OW10003   0.199   3.159   0.147
 3035SOL    HW110004   0.137   3.215   0.092
 3035SOL    HW210005   0.215   3.203   0.235
 3036SOL     OW10006   2.966   1.929   5.452
 3036SOL    HW110007   2.903   1.909   5.377
 3036SOL    HW210008   2.916   1.970   5.528
 3037SOL     OW10009   1.112   5.724   6.485
 3037SOL    HW110010   1.199   5.771   6.498
 3037SOL    HW210011   1.072   5.753   6.398
 3038SOL     OW10012   5.499   4.596   6.311
 3038SOL    HW110013   5.416   4.650   6.323
 3038SOL    HW210014   5.490   4.510   6.361
 3039SOL     OW10015   6.739   3.879   6.515
 3039SOL    HW110016   6.729   3.854   6.612
 3039SOL    HW210017   6.756   3.977   6.508
 3040SOL     OW10018   5.421   5.263   6.254
 3040SOL    HW110019   5.355   5.273   6.180
 3040SOL    HW210020   5.435   5.351   6.298
 3041SOL     OW10021   1.427   4.617   5.615
 3041SOL    HW110022   1.374   4.631   5.699
 3041SOL    HW210023   1.377   4.557   5.553
 3042SOL     OW10024   0.265   5.066   3.781
 3042SOL    HW110025   0.361   5.062   3.754
 3042SOL    HW210026   0.258   5.090   3.878
 3043SOL     OW10027   2.974   5.576   1.172
 3043SOL    HW110028   2.970   5.644   1.246
 3043SOL    HW210029   2.962   5.485   1.210
 3044SOL     OW10030   3.865   3.561   4.876
 3044SOL    HW110031   3.782   3.584   4.927
 3044SOL    HW210032   3.841   3.543   4.781
 3045SOL     OW10033   4.711   1.826   2.203
 3045SOL    HW110034   4.677   1.793   2.291
 3045SOL    HW210035   4.658   1.786   2.129
 3046SOL     OW10036   5.358   6.727   1.294
 3046SOL    HW110037   5.266   6.751   1.264
 3046SOL    HW210038   5.364   6.628   1.307
 3047SOL     OW10039   6.051   1.306   4.455
 3047SOL    HW110040   6.072   1.235   4.523
 3047SOL    HW210041   6.109   1.293   4.375
 3048SOL     OW10042   3.963   4.960   1.284
 3048SOL    HW110043   3.937   5.055   1.270
 3048SOL    HW210044   4.037   4.935   1.222
 3049SOL     OW10045   0.832   2.060   2.147
 3049SOL    HW110046   0.886   2.098   2.222
 3049SOL    HW210047   0.749   2.018   2.182
 3050SOL     OW10048   3.253   2.178   6.685
 3050SOL    HW110049   3.303   2.180   6.598
 3050SOL    HW210050   3.219   2.085   6.702
 3051SOL     OW10051   2.722   5.303   5.373
 3051SOL    HW110052   2.718   5.384   5.431
 3051SOL    HW210053   2.783   5.321   5.295
 3052SOL     OW10054   7.012   0.086   2.748
 3052SOL    HW110055   6.942   0.014   2.753
 3052SOL    HW210056   6.987   0.151   2.677
 3053SOL     OW10057   0.957   4.121   0.475
 3053SOL    HW110058   0.931   4.152   0.383
 3053SOL    HW210059   0.981   4.200   0.531
 3054SOL     OW10060   5.820   0.788   2.846
 3054SOL    HW110061   5.761   0.763   2.923
 3054SOL    HW210062   5.764   0.800   2.764
 3055SOL     OW10063   6.130   6.315   6.935
 3055SOL    HW110064   6.069   6.341   6.860
 3055SOL    HW210065   6.101   6.227   6.972
 3056SOL     OW10066   4.200   1.738   6.491
 3056SOL    HW110067   4.162   1.677   6.421
 3056SOL    HW210068   4.283   1.780   6.456
 3057SOL     OW10069   4.894   3.768   3.233
 3057SOL    HW110070   4.954   3.730   3.164
 3057SOL    HW210071   4.799   3.743   3.212
 3058SOL     OW10072   0.407   5.258   6.259
 3058SOL    HW110073   0.388   5.160   6.263
 3058SOL    HW210074   0.414   5.287   6.164
 3059SOL     OW10075   1.235   2.098   2.738
 3059SOL    HW110076   1.230   2.007   2.778
 3059SOL    HW210077   1.250   2.091   2.639
 3060SOL     OW10078   5.521   4.043   3.751
 3060SOL    HW110079   5.562   4.005   3.668
 3060SOL    HW210080   5.486   3.968   3.808
 3061SOL     OW10081   5.456   0.327   3.930
 3061SOL    HW110082   5.543   0.376   3.936
 3061SOL    HW210083   5.474   0.232   3.903
 3062SOL     OW10084   4.129   4.350   0.963
 3062SOL    HW110085   4.111   4.258   1.000
 3062SOL    HW210086   4.215   4.385   1.000
 3063SOL     OW10087   6.781   4.922   2.282
 3063SOL    HW110088   6.741   4.869   2.357
 3063SOL    HW210089   6.801   4.861   2.206
 3064SOL     OW10090   5.140   2.380   6.999
 3064SOL    HW110091   5.102   2.411   0.065
 3064SOL    HW210092   5.065   2.355   6.937
 3065SOL     OW10093   5.590   1.230   6.289
 3065SOL    HW110094   5.566   1.151   6.233
 3065SOL    HW210095   5.677   1.213   6.336
 3066SOL     OW10096   5.535   0.158   4.876
 3066SOL    HW110097   5.471   0.090   4.840
 3066SOL    HW210098   5.490   0.247   4.882
 3067SOL     OW10099   1.119   2.187   5.451
 3067SOL    HW110100   1.171   2.244   5.514
 3067SOL    HW210101   1.103   2.097   5.492
 3068SOL     OW10102   6.821   0.264   0.466
 3068SOL    HW110103   6.913   0.228   0.449
 3068SOL    HW210104   6.791   0.317   0.387
 3069SOL     OW10105   4.565   6.700   4.389
 3069SOL    HW110106   4.494   6.750   4.438
 3069SOL    HW210107   4.541   6.696   4.292
 3070SOL     OW10108   2.624   0.841   0.574
 3070SOL    HW110109   2.637   0.886   0.662
 3070SOL    HW210110   2.575   0.755   0.587
 3071SOL     OW10111   5.739   4.741   5.480
 3071SOL    HW110112   5.723   4.745   5.381
 3071SOL    HW210113   5.819   4.796   5.503
 3072SOL     OW10114   2.257   6.594   6.717
 3072SOL    HW110115   2.243   6.507   6.669
 3072SOL    HW210116   2.180   6.655   6.698
 3073SOL     OW10117   0.770   5.387   1.782
 3073SOL    HW110118   0.803   5.451   1.852
 3073SOL    HW210119   0.688   5.341   1.816
 3074SOL     OW10120   3.166   3.060   1.608
 3074SOL    HW110121   3.260   3.090   1.623
 3074SOL    HW210122   3.126   3.028   1.694
 3075SOL     OW10123   3.585   4.768   1.260
 3075SOL    HW110124   3.652   4.701   1.230
 3075SOL    HW210125   3.499   4.723   1.280
 3076SOL     OW10126   1.045   0.678   5.025
 3076SOL    HW110127   1.093   0.591   5.032
 3076SOL    HW210128   1.072   0.724   4.940
 3077SOL     OW10129   0.145   3.851   2.001
 3077SOL    HW110130   0.235   3.895   1.995
 3077SOL    HW210131   0.153   3.756   1.973
 3078SOL     OW10132   0.456   3.528   1.921
 3078SOL    HW110133   0.362   3.557   1.904
 3078SOL    HW210134   0.495   3.583   1.995
 3079SOL     OW10135   2.128   3.440   5.025
 3079SOL    HW110136   2.097   3.495   4.948
 3079SOL    HW210137   2.218   3.472   5.055
 3080SOL     OW10138   4.287   4.703   0.937
 3080SOL    HW110139   4.265   4.711   0.840
 3080SOL    HW210140   4.341   4.620   0.952
 3081SOL     OW10141   1.732   3.639   0.104
 3081SOL    HW110142   1.653   3.604   0.154
 3081SOL    HW210143   1.765   3.570   0.040
 3082SOL     OW10144   5.290   5.162   5.124
 3082SOL    HW110145   5.347   5.237   5.157
 3082SOL    HW210146   5.194   5.193   5.120
 3083SOL     OW10147   3.798   5.506   1.699
 3083SOL    HW110148   3.888   5.474   1.670
 3083SOL    HW210149   3.747   5.537   1.619
 3084SOL     OW10150   6.992   4.738   3.654
 3084SOL    HW110151   0.041   4.698   3.595
 3084SOL    HW210152   7.010   4.836   3.664
 3085SOL     OW10153   6.140   5.405   0.274
 3085SOL    HW110154   6.079   5.333   0.242
 3085SOL    HW210155   6.155   5.395   0.372
 3086SOL     OW10156   6.091   6.257   6.349
 3086SOL    HW110157   6.086   6.176   6.408
 3086SOL    HW210158   6.100   6.338   6.406
 3087SOL     OW10159   3.850   0.140   2.401
 3087SOL    HW110160   3.928   0.113   2.345
 3087SOL    HW210161   3.791   0.201   2.349
 3088SOL     OW10162   2.027   3.441   5.413
 3088SOL    HW110163   1.974   3.407   5.335
 3088SOL    HW210164   1.976   3.425   5.497
 3089SOL     OW10165   4.545   4.684   6.063
 3089SOL    HW110166   4.580   4.614   6.002
 3089SOL    HW210167   4.498   4.641   6.141
 3090SOL     OW10168   0.688   2.720   2.023
 3090SOL    HW110169   0.636   2.788   1.972
 3090SOL    HW210170   0.629   2.642   2.042
 3091SOL     OW10171   0.588   3.086   1.013
 3091SOL    HW110172   0.561   3.030   1.091
 3091SOL    HW210173   0.521   3.076   0.940
 3092SOL     OW10174   5.654   1.023   2.031
 3092SOL    HW110175   5.697   0.936   2.057
 3092SOL    HW210176   5.705   1.099   2.072
 3093SOL     OW10177   6.705   5.842   6.588
 3093SOL    HW110178   6.637   5.774   6.613
 3093SOL    HW210179   6.731   5.830   6.492
 3094SOL     OW10180   2.479   1.343   6.719
 3094SOL    HW110181   2.545   1.418   6.725
 3094SOL    HW210182   2.422   1.356   6.638
 3095SOL     OW10183   1.454   3.990   5.668
 3095SOL    HW110184   1.428   3.990   5.765
 3095SOL    HW210185   1.554   3.986   5.660
 3096SOL     OW10186   0.931   2.885   4.176
 3096SOL    HW110187   0.856   2.948   4.198
 3096SOL    HW210188   1.014   2.916   4.222
 3097SOL     OW10189   5.618   3.197   5.346
 3097SOL    HW110190   5.628   3.240   5.257
 3097SOL    HW210191   5.522   3.174   5.362
 3098SOL     OW10192   2.230   3.016   3.323
 3098SOL    HW110193   2.271   2.925   3.318
 3098SOL    HW210194   2.216   3.040   3.419
 3099SOL     OW10195   0.187   6.573   4.437
 3099SOL    HW110196   0.106   6.600   4.384
 3099SOL    HW210197   0.166   6.581   4.535
 3100SOL     OW10198   5.738   4.470   1.851
 3100SOL    HW110199   5.754   4.484   1.949
 3100SOL    HW210200   5.824   4.441   1.808
 3101SOL     OW10201   4.474   0.217   5.070
 3101SOL    HW110202   4.482   0.137   5.011
 3101SOL    HW210203   4.388   0.212   5.121
 3102SOL     OW10204   6.426   4.749   2.188
 3102SOL    HW110205   6.461   4.758   2.095
 3102SOL    HW210206   6.434   4.838   2.235
 3103SOL     OW10207   2.981   1.381   1.426
 3103SOL    HW110208   3.054   1.317   1.404
 3103SOL    HW210209   2.892   1.336   1.412
 3104SOL     OW10210   5.491   2.319   4.869
 3104SOL    HW110211   5.411   2.374   4.845
 3104SOL    HW210212   5.492   2.302   4.967
 3105SOL     OW10213   5.713   3.805   0.286
 3105SOL    HW110214   5.638   3.870   0.297
 3105SOL    HW210215   5.760   3.793   0.374
 3106SOL     OW10216   5.404   1.443   5.896
 3106SOL    HW110217   5.321   1.444   5.953
 3106SOL    HW210218   5.420   1.535   5.860
 3107SOL     OW10219   3.197   1.552   5.131
 3107SOL    HW110220   3.170   1.515   5.042
 3107SOL    HW210221   3.182   1.651   5.132
 3108SOL     OW10222   2.300   4.140   3.262
 3108SOL    HW110223   2.321   4.044   3.278
 3108SOL    HW210224   2.234   4.171   3.331
 3109SOL     OW10225   6.652   6.546   3.559
 3109SOL    HW110226   6.629   6.477   3.628
 3109SOL    HW210227   6.745   6.530   3.526
 3110SOL     OW10228   1.267   5.751   3.393
 3110SOL    HW110229   1.339   5.779   3.456
 3110SOL    HW210230   1.292   5.778   3.300
 3111SOL     OW10231   6.077   4.156   3.757
 3111SOL    HW110232   6.091   4.198   3.667
 3111SOL    HW210233   6.109   4.219   3.828
 3112SOL     OW10234   3.207   1.065   6.508
 3112SOL    HW110235   3.172   0.985   6.556
 3112SOL    HW210236   3.207   1.049   6.410
 3113SOL     OW10237   1.452   6.172   2.824
 3113SOL    HW110238   1.529   6.187   2.763
 3113SOL    HW210239   1.469   6.221   2.910
 3114SOL     OW10240   4.294   1.076   6.363
 3114SOL    HW110241   4.229   1.007   6.395
 3114SOL    HW210242   4.385   1.034   6.357
 3115SOL     OW10243   4.800   5.598   5.474
 3115SOL    HW110244   4.793   5.507   5.515
 3115SOL    HW210245   4.891   5.635   5.491
 3116SOL     OW10246   0.910   0.536   0.011
 3116SOL    HW110247   0.955   0.571   6.950
 3116SOL    HW210248   0.974   0.536   0.087
 3117SOL     OW10249   4.655   0.465   6.933
 3117SOL    HW110250   4.669   0.366   6.941
 3117SOL    HW210251   4.572   0.490   6.983
 3118SOL     OW10252   1.470   1.437   3.405
 3118SOL    HW110253   1.454   1.454   3.308
 3118SOL    HW210254   1.547   1.491   3.437
 3119SOL     OW10255   4.515   5.848   5.307
 3119SOL    HW110256   4.494   5.904   5.387
 3119SOL    HW210257   4.450   5.773   5.300
 3120SOL     OW10258   2.483   5.836   6.276
 3120SOL    HW110259   2.435   5.804   6.194
 3120SOL    HW210260   2.565   5.886   6.249
 3121SOL     OW10261   3.771   2.103   4.609
 3121SOL    HW110262   3.836   2.047   4.558
 3121SOL    HW210263   3.755   2.188   4.560
 3122SOL     OW10264   5.371   4.836   5.547
 3122SOL    HW110265   5.361   4.736   5.546
 3122SOL    HW210266   5.433   4.864   5.474
 3123SOL     OW10267   1.393   1.170   2.730
 3123SOL    HW110268   1.396   1.170   2.630
 3123SOL    HW210269   1.463   1.108   2.765
 3124SOL     OW10270   4.941   0.022   4.656
 3124SOL    HW110271   4.997   6.965   4.629
 3124SOL    HW210272   4.966   0.101   4.599
 3125SOL     OW10273   1.746   1.439   5.134
 3125SOL    HW110274   1.758   1.409   5.229
 3125SOL    HW210275   1.752   1.539   5.130
 3126SOL     OW10276   5.069   4.923   5.731
 3126SOL    HW110277   5.050   5.017   5.760
 3126SOL    HW210278   5.031   4.908   5.640
 3127SOL     OW10279   0.178   0.864   5.357
 3127SOL    HW110280   0.254   0.803   5.378
 3127SOL    HW210281   0.205   0.959   5.373
 3128SOL     OW10282   3.642   0.828   0.709
 3128SOL    HW110283   3.712   0.787   0.768
 3128SOL    HW210284   3.566   0.860   0.765
 3129SOL     OW10285   4.101   3.675   0.341
 3129SOL    HW110286   4.152   3.589   0.338
 3129SOL    HW210287   4.158   3.746   0.382
 3130SOL     OW10288   6.662   5.401   1.968
 3130SOL    HW110289   6.663   5.465   2.046
 3130SOL    HW210290   6.638   5.310   2.001
 3131SOL     OW10291   6.389   4.517   2.805
 3131SOL    HW110292   6.399   4.609   2.769
 3131SOL    HW210293   6.396   4.519   2.905
 3132SOL     OW10294   4.568   3.931   0.087
 3132SOL    HW110295   4.516   4.016   0.085
 3132SOL    HW210296   4.513   3.859   0.129
 3133SOL     OW10297   4.588   0.050   4.363
 3133SOL    HW110298   4.564   0.050   4.266
 3133SOL    HW210299   4.610   0.143   4.392
 3134SOL     OW10300   6.362   5.019   2.665
 3134SOL    HW110301   6.322   5.013   2.756
 3134SOL    HW210302   6.290   5.036   2.597
 3135SOL     OW10303   4.213   5.458   6.765
 3135SOL    HW110304   4.176   5.543   6.728
 3135SOL    HW210305   4.306   5.445   6.731
 3136SOL     OW10306   6.315   0.889   3.550
 3136SOL    HW110307   6.343   0.807   3.600
 3136SOL    HW210308   6.251   0.863   3.478
 3137SOL     OW10309   5.762   6.397   6.922
 3137SOL    HW110310   5.846   6.417   6.974
 3137SOL    HW210311   5.684   6.396   6.985
 3138SOL     OW10312   6.241   6.255   4.751
 3138SOL    HW110313   6.202   6.179   4.802
 3138SOL    HW210314   6.246   6.336   4.809
 3139SOL     OW10315   2.730   5.237   1.608
 3139SOL    HW110316   2.676   5.277   1.534
 3139SOL    HW210317   2.688   5.260   1.696
 3140SOL     OW10318   0.641   6.544   0.109
 3140SOL    HW110319   0.708   6.481   0.149
 3140SOL    HW210320   0.549   6.511   0.127
 3141SOL     OW10321   6.154   1.831   6.574
 3141SOL    HW110322   6.116   1.741   6.555
 3141SOL    HW210323   6.085   1.901   6.558
 3142SOL     OW10324   4.276   0.215   3.586
 3142SOL    HW110325   4.176   0.219   3.595
 3142SOL    HW210326   4.315   0.304   3.609
 3143SOL     OW10327   6.495   1.215   0.570
 3143SOL    HW110328   6.518   1.254   0.481
 3143SOL    HW210329   6.449   1.284   0.626
 3144SOL     OW10330   4.018   4.012   0.376
 3144SOL    HW110331   4.045   3.964   0.459
 3144SOL    HW210332   3.930   4.058   0.391
 3145SOL     OW10333   0.416   5.901   0.401
 3145SOL    HW110334   0.436   5.871   0.494
 3145SOL    HW210335   0.321   5.878   0.378
 3146SOL     OW10336   6.495   1.518   4.728
 3146SOL    HW110337   6.510   1.419   4.735
 3146SOL    HW210338   6.583   1.564   4.712
 3147SOL     OW10339   3.754   6.337   0.247
 3147SOL    HW110340   3.779   6.318   0.152
 3147SOL    HW210341   3.824   6.299   0.308
 3148SOL     OW10342   6.901   4.918   1.821
 3148SOL    HW110343   6.893   5.011   1.784
 3148SOL    HW210344   6.989   4.879   1.795
 3149SOL     OW10345   3.194   2.306   6.993
 3149SOL    HW110346   3.259   2.351   0.034
 3149SOL    HW210347   3.242   2.274   6.912
 3150SOL     OW10348   6.597   6.127   5.568
 3150SOL    HW110349   6.527   6.143   5.637
 3150SOL    HW210350   6.592   6.197   5.497
 3151SOL     OW10351   0.047   0.617   5.465
 3151SOL    HW110352   0.105   0.570   5.531
 3151SOL    HW210353   0.102   0.682   5.413
 3152SOL     OW10354   1.472   3.190   5.823
 3152SOL    HW110355   1.469   3.237   5.911
 3152SOL    HW210356   1.395   3.220   5.766
 3153SOL     OW10357   5.998   5.120   1.739
 3153SOL    HW110358   5.951   5.035   1.714
 3153SOL    HW210359   6.049   5.154   1.660
 3154SOL     OW10360   4.163   0.857   7.019
 3154SOL    HW110361   4.259   0.862   6.992
 3154SOL    HW210362   4.112   0.803   6.953
 3155SOL     OW10363   1.041   4.643   0.057
 3155SOL    HW110364   1.004   4.706   0.126
 3155SOL    HW210365   0.971   4.575   0.033
 3156SOL     OW10366   3.693   4.257   1.726
 3156SOL    HW110367   3.748   4.189   1.774
 3156SOL    HW210368   3.598   4.251   1.756
 3157SOL     OW10369   1.254   0.872   5.087
 3157SOL    HW110370   1.185   0.800   5.080
 3157SOL    HW210371   1.343   0.837   5.057
 3158SOL     OW10372   1.993   1.405   5.748
 3158SOL    HW110373   2.024   1.488   5.794
 3158SOL    HW210374   1.896   1.391   5.764
 3159SOL     OW10375   5.512   0.173   6.549
 3159SOL    HW110376   5.556   0.260   6.530
 3159SOL    HW210377   5.512   0.117   6.466
 3160SOL     OW10378   1.716   0.362   6.082
 3160SOL    HW110379   1.765   0.294   6.136
 3160SOL    HW210380   1.637   0.319   6.038
 3161SOL     OW10381   1.861   2.938   2.278
 3161SOL    HW110382   1.866   2.869   2.351
 3161SOL    HW210383   1.795   2.910   2.209
 3162SOL     OW10384   1.679   5.766   1.481
 3162SOL    HW110385   1.757   5.816   1.443
 3162SOL    HW210386   1.617   5.741   1.406
 3163SOL     OW10387   4.387   4.394   0.693
 3163SOL    HW110388   4.425   4.446   0.770
 3163SOL    HW210389   4.290   4.416   0.683
 3164SOL     OW10390   2.732   6.364   3.716
 3164SOL    HW110391   2.671   6.319   3.781
 3164SOL    HW210392   2.810   6.403   3.765
 3165SOL     OW10393   0.981   6.544   6.350
 3165SOL    HW110394   0.884   6.556   6.330
 3165SOL    HW210395   0.991   6.513   6.445
 3166SOL     OW10396   5.159   1.199   4.788
 3166SOL    HW110397   5.129   1.106   4.808
 3166SOL    HW210398   5.206   1.237   4.868
 3167SOL     OW10399   5.558   2.941   1.104
 3167SOL    HW110400   5.483   2.897   1.153
 3167SOL    HW210401   5.553   3.040   1.117
 3168SOL     OW10402   4.450   1.625   0.697
 3168SOL    HW110403   4.364   1.625   0.747
 3168SOL    HW210404   4.437   1.668   0.608
 3169SOL     OW10405   2.344   4.206   1.942
 3169SOL    HW110406   2.432   4.160   1.959
 3169SOL    HW210407   2.349   4.300   1.976
 3170SOL     OW10408   2.119   3.439   3.742
 3170SOL    HW110409   2.059   3.413   3.819
 3170SOL    HW210410   2.063   3.462   3.663
 3171SOL     OW10411   5.426   1.859   3.742
 3171SOL    HW110412   5.360   1.790   3.770
 3171SOL    HW210413   5.384   1.923   3.677
 3172SOL     OW10414   5.946   4.017   1.786
 3172SOL    HW110415   6.017   3.998   1.717
 3172SOL    HW210416   5.907   3.930   1.817
 3173SOL     OW10417   4.658   2.997   0.467
 3173SOL    HW110418   4.726   2.931   0.497
 3173SOL    HW210419   4.673   3.020   0.370
 3174SOL     OW10420   3.321   3.356   6.502
 3174SOL    HW110421   3.391   3.315   6.561
 3174SOL    HW210422   3.232   3.346   6.546
 3175SOL     OW10423   5.357   0.718   5.354
 3175SOL    HW110424   5.309   0.773   5.285
 3175SOL    HW210425   5.355   0.765   5.442
 3176SOL     OW10426   0.357   4.880   4.129
 3176SOL    HW110427   0.403   4.969   4.132
 3176SOL    HW210428   0.281   4.880   4.195
 3177SOL     OW10429   5.602   3.664   3.469
 3177SOL    HW110430   5.592   3.574   3.511
 3177SOL    HW210431   5.511   3.704   3.455
 3178SOL     OW10432   6.845   1.147   2.072
 3178SOL    HW110433   6.791   1.176   2.150
 3178SOL    HW210434   6.786   1.100   2.006
 3179SOL     OW10435   1.250   2.586   2.060
 3179SOL    HW110436   1.176   2.635   2.107
 3179SOL    HW210437   1.321   2.562   2.126
 3180SOL     OW10438   0.388   5.843   0.685
 3180SOL    HW110439   0.356   5.783   0.758
 3180SOL    HW210440   0.319   5.913   0.666
 3181SOL     OW10441   1.822   6.443   5.360
 3181SOL    HW110442   1.786   6.482   5.275
 3181SOL    HW210443   1.805   6.505   5.436
 3182SOL     OW10444   2.397   1.326   0.780
 3182SOL    HW110445   2.318   1.312   0.840
 3182SOL    HW210446   2.480   1.296   0.827
 3183SOL     OW10447   3.911   3.865   1.027
 3183SOL    HW110448   3.843   3.793   1.042
 3183SOL    HW210449   4.001   3.824   1.014
 3184SOL     OW10450   6.946   1.757   4.521
 3184SOL    HW110451   6.851   1.743   4.495
 3184SOL    HW210452   7.004   1.746   4.440
 3185SOL     OW10453   0.610   5.590   6.597
 3185SOL    HW110454   0.629   5.524   6.670
 3185SOL    HW210455   0.512   5.587   6.575
 3186SOL     OW10456   0.442   2.437   6.530
 3186SOL    HW110457   0.369   2.442   6.598
 3186SOL    HW210458   0.402   2.429   6.439
 3187SOL     OW10459   5.320   6.045   2.860
 3187SOL    HW110460   5.233   5.997   2.870
 3187SOL    HW210461   5.395   5.981   2.877
 3188SOL     OW10462   2.273   5.646   6.765
 3188SOL    HW110463   2.228   5.730   6.734
 3188SOL    HW210464   2.353   5.628   6.708
 3189SOL     OW10465   2.991   1.652   5.733
 3189SOL    HW110466   2.979   1.737   5.784
 3189SOL    HW210467   3.082   1.650   5.693
 3190SOL     OW10468   5.938   6.198   3.911
 3190SOL    HW110469   6.023   6.238   3.877
 3190SOL    HW210470   5.922   6.229   4.005
 3191SOL     OW10471   3.537   5.452   1.266
 3191SOL    HW110472   3.443   5.477   1.243
 3191SOL    HW210473   3.567   5.504   1.346
 3192SOL     OW10474   5.217   1.770   2.811
 3192SOL    HW110475   5.269   1.698   2.766
 3192SOL    HW210476   5.267   1.800   2.893
 3193SOL     OW10477   3.398   0.396   4.902
 3193SOL    HW110478   3.491   0.404   4.936
 3193SOL    HW210479   3.400   0.387   4.802
 3194SOL     OW10480   1.874   0.036   6.663
 3194SOL    HW110481   1.968   0.066   6.673
 3194SOL    HW210482   1.844   7.012   6.747
 3195SOL     OW10483   0.188   1.414   0.968
 3195SOL    HW110484   0.106   1.376   0.925
 3195SOL    HW210485   0.268   1.360   0.942
 3196SOL     OW10486   5.481   0.079   3.799
 3196SOL    HW110487   5.419   0.036   3.733
 3196SOL    HW210488   5.560   0.020   3.814
 3197SOL     OW10489   2.330   0.771   6.209
 3197SOL    HW110490   2.313   0.734   6.300
 3197SOL    HW210491   2.394   0.711   6.160
 3198SOL     OW10492   5.459   2.911   3.527
 3198SOL    HW110493   5.431   2.970   3.451
 3198SOL    HW210494   5.521   2.840   3.494
 3199SOL     OW10495   5.257   4.102   3.023
 3199SOL    HW110496   5.354   4.093   3.003
 3199SOL    HW210497   5.204   4.069   2.945
 3200SOL     OW10498   5.318   3.742   3.443
 3200SOL    HW110499   5.281   3.814   3.501
 3200SOL    HW210500   5.298   3.764   3.347
 3201SOL     OW10501   6.102   4.447   2.266
 3201SOL    HW110502   6.055   4.400   2.341
 3201SOL    HW210503   6.132   4.537   2.296
 3202SOL     OW10504   2.451   3.362   6.942
 3202SOL    HW110505   2.354   3.385   6.946
 3202SOL    HW210506   2.503   3.443   6.914
 3203SOL     OW10507   3.637   6.720   1.301
 3203SOL    HW110508   3.572   6.697   1.228
 3203SOL    HW210509   3.587   6.741   1.384
 3204SOL     OW10510   3.364   1.440   3.523
 3204SOL    HW110511   3.284   1.382   3.510
 3204SOL    HW210512   3.430   1.393   3.582
 3205SOL     OW10513   4.749   3.504   5.832
 3205SOL    HW110514   4.671   3.458   5.874
 3205SOL    HW210515   4.827   3.502   5.895
 3206SOL     OW10516   3.229   3.470   1.107
 3206SOL    HW110517   3.156   3.498   1.168
 3206SOL    HW210518   3.227   3.371   1.096
 3207SOL     OW10519   2.223   5.119   5.626
 3207SOL    HW110520   2.210   5.021   5.613
 3207SOL    HW210521   2.301   5.149   5.571
 3208SOL     OW10522   6.478   5.012   6.012
 3208SOL    HW110523   6.521   4.933   6.057
 3208SOL    HW210524   6.545   5.086   6.005
 3209SOL     OW10525   5.092   5.773   6.348
 3209SOL    HW110526   5.035   5.737   6.274
 3209SOL    HW210527   5.111   5.869   6.331
 3210SOL     OW10528   5.838   5.897   1.896
 3210SOL    HW110529   5.916   5.913   1.836
 3210SOL    HW210530   5.762   5.859   1.843
 3211SOL     OW10531   1.507   5.897   6.297
 3211SOL    HW110532   1.596   5.924   6.259
 3211SOL    HW210533   1.472   5.817   6.248
 3212SOL     OW10534   2.046   0.654   3.231
 3212SOL    HW110535   2.020   0.586   3.162
 3212SOL    HW210536   2.134   0.694   3.207
 3213SOL     OW10537   1.309   0.143   6.115
 3213SOL    HW110538   1.253   0.201   6.174
 3213SOL    HW210539   1.381   0.100   6.170
 3214SOL     OW10540   3.086   0.831   2.856
 3214SOL    HW110541   3.181   0.854   2.835
 3214SOL    HW210542   3.076   0.731   2.859
 3215SOL     OW10543   2.032   3.413   1.516
 3215SOL    HW110544   2.067   3.491   1.568
 3215SOL    HW210545   2.049   3.329   1.567
 3216SOL     OW10546   5.973   5.005   0.977
 3216SOL    HW110547   5.998   5.076   1.043
 3216SOL    HW210548   5.898   4.950   1.014
 3217SOL     OW10549   6.853   6.057   2.097
 3217SOL    HW110550   6.890   5.964   2.095
 3217SOL    HW210551   6.928   6.123   2.098
 3218SOL     OW10552   5.029   1.291   3.198
 3218SOL    HW110553   5.078   1.322   3.116
 3218SOL    HW210554   5.094   1.249   3.261
 3219SOL     OW10555   6.151   1.279   5.331
 3219SOL    HW110556   6.089   1.295   5.407
 3219SOL    HW210557   6.220   1.351   5.328
 3220SOL     OW10558   0.066   4.624   6.231
 3220SOL    HW110559   0.024   4.687   6.296
 3220SOL    HW210560   0.027   4.639   6.140
 3221SOL     OW10561   3.529   1.457   1.343
 3221SOL    HW110562   3.490   1.468   1.434
 3221SOL    HW210563   3.578   1.541   1.318
 3222SOL     OW10564   3.028   1.555   3.258
 3222SOL    HW110565   3.050   1.458   3.266
 3222SOL    HW210566   3.086   1.596   3.187
 3223SOL     OW10567   1.795   6.024   0.321
 3223SOL    HW110568   1.699   5.997   0.312
 3223SOL    HW210569   1.816   6.043   0.417
 3224SOL     OW10570   3.580   2.117   3.404
 3224SOL    HW110571   3.553   2.190   3.341
 3224SOL    HW210572   3.502   2.057   3.421
 3225SOL     OW10573   4.114   1.117   3.554
 3225SOL    HW110574   4.063   1.046   3.506
 3225SOL    HW210575   4.072   1.206   3.537
 3226SOL     OW10576   6.434   0.301   0.113
 3226SOL    HW110577   6.451   0.253   0.027
 3226SOL    HW210578   6.445   0.237   0.189
 3227SOL     OW10579   5.506   4.856   4.770
 3227SOL    HW110580   5.603   4.839   4.751
 3227SOL    HW210581   5.495   4.949   4.805
 3228SOL     OW10582   2.239   4.182   7.014
 3228SOL    HW110583   2.308   4.112   0.008
 3228SOL    HW210584   2.269   4.268   0.035
 3229SOL     OW10585   1.683   1.550   0.175
 3229SOL    HW110586   1.617   1.487   0.135
 3229SOL    HW210587   1.761   1.561   0.113
 3230SOL     OW10588   3.006   6.419   5.674
 3230SOL    HW110589   3.037   6.432   5.768
 3230SOL    HW210590   3.029   6.326   5.644
 3231SOL     OW10591   1.884   1.844   2.354
 3231SOL    HW110592   1.923   1.855   2.263
 3231SOL    HW210593   1.948   1.879   2.423
 3232SOL     OW10594   3.399   5.311   3.937
 3232SOL    HW110595   3.386   5.355   3.848
 3232SOL    HW210596   3.393   5.380   4.009
 3233SOL     OW10597   0.901   1.394   0.570
 3233SOL    HW110598   0.928   1.442   0.654
 3233SOL    HW210599   0.966   1.417   0.497
 3234SOL     OW10600   2.528   2.706   0.902
 3234SOL    HW110601   2.430   2.726   0.906
 3234SOL    HW210602   2.550   2.666   0.813
 3235SOL     OW10603   0.938   6.932   2.840
 3235SOL    HW110604   1.009   6.993   2.875
 3235SOL    HW210605   0.973   6.838   2.838
 3236SOL     OW10606   3.941   1.807   0.044
 3236SOL    HW110607   3.972   1.859   0.123
 3236SOL    HW210608   4.006   1.819   6.989
 3237SOL     OW10609   6.026   2.073   5.660
 3237SOL    HW110610   6.119   2.036   5.655
 3237SOL    HW210611   5.990   2.082   5.567
 3238SOL     OW10612   6.716   4.730   1.716
 3238SOL    HW110613   6.664   4.777   1.645
 3238SOL    HW210614   6.798   4.784   1.737
 3239SOL     OW10615   6.534   6.955   4.409
 3239SOL    HW110616   6.564   6.965   4.314
 3239SOL    HW210617   6.495   0.020   4.442
 3240SOL     OW10618   0.165   0.676   0.311
 3240SOL    HW110619   0.222   0.671   0.229
 3240SOL    HW210620   0.218   0.715   0.386
 3241SOL     OW10621   6.014   2.662   5.876
 3241SOL    HW110622   5.944   2.699   5.938
 3241SOL    HW210623   6.057   2.582   5.918
 3242SOL     OW10624   6.188   4.130   4.494
 3242SOL    HW110625   6.130   4.198   4.539
 3242SOL    HW210626   6.272   4.173   4.462
 3243SOL     OW10627   6.033   4.616   4.480
 3243SOL    HW110628   6.105   4.557   4.516
 3243SOL    HW210629   5.944   4.587   4.517
 3244SOL     OW10630   5.268   0.031   6.577
 3244SOL    HW110631   5.193   0.096   6.584
 3244SOL    HW210632   5.355   0.080   6.575
 3245SOL     OW10633   4.195   0.903   5.272
 3245SOL    HW110634   4.211   0.945   5.182
 3245SOL    HW210635   4.207   0.971   5.344
 3246SOL     OW10636   6.932   0.272   2.969
 3246SOL    HW110637   6.837   0.298   2.952
 3246SOL    HW210638   6.973   0.240   2.884
 3247SOL     OW10639   0.390   4.284   3.470
 3247SOL    HW110640   0.386   4.221   3.392
 3247SOL    HW210641   0.402   4.231   3.554
 3248SOL     OW10642   5.408   2.067   3.560
 3248SOL    HW110643   5.402   2.153   3.611
 3248SOL    HW210644   5.332   2.060   3.496
 3249SOL     OW10645   3.227   4.105   3.761
 3249SOL    HW110646   3.168   4.120   3.840
 3249SOL    HW210647   3.323   4.117   3.788
 3250SOL     OW10648   4.626   5.421   2.712
 3250SOL    HW110649   4.549   5.433   2.775
 3250SOL    HW210650   4.649   5.509   2.670
 3251SOL     OW10651   2.357   2.279   2.774
 3251SOL    HW110652   2.370   2.377   2.792
 3251SOL    HW210653   2.433   2.227   2.814
 3252SOL     OW10654   1.406   0.751   3.111
 3252SOL    HW110655   1.390   0.849   3.097
 3252SOL    HW210656   1.485   0.739   3.171
 3253SOL     OW10657   6.490   3.813   0.545
 3253SOL    HW110658   6.399   3.824   0.505
 3253SOL    HW210659   6.558   3.817   0.472
 3254SOL     OW10660   6.000   0.076   1.006
 3254SOL    HW110661   5.968   0.051   0.915
 3254SOL    HW210662   6.031   0.171   1.005
 3255SOL     OW10663   5.194   6.048   1.184
 3255SOL    HW110664   5.226   5.971   1.129
 3255SOL    HW210665   5.150   6.115   1.124
 3256SOL     OW10666   4.987   2.644   1.316
 3256SOL    HW110667   4.980   2.681   1.223
 3256SOL    HW210668   4.923   2.568   1.326
 3257SOL     OW10669   2.795   1.911   2.861
 3257SOL    HW110670   2.741   1.829   2.845
 3257SOL    HW210671   2.890   1.885   2.880
 3258SOL     OW10672   2.373   5.435   3.647
 3258SOL    HW110673   2.432   5.473   3.717
 3258SOL    HW210674   2.293   5.392   3.690
 3259SOL     OW10675   4.918   4.296   3.614
 3259SOL    HW110676   4.972   4.374   3.643
 3259SOL    HW210677   4.979   4.227   3.574
 3260SOL     OW10678   0.902   4.553   2.911
 3260SOL    HW110679   0.865   4.473   2.864
 3260SOL    HW210680   0.949   4.525   2.994
 3261SOL     OW10681   5.026   0.342   3.621
 3261SOL    HW110682   4.978   0.429   3.607
 3261SOL    HW210683   5.082   0.322   3.541
 3262SOL     OW10684   2.961   1.974   3.443
 3262SOL    HW110685   3.029   2.046   3.431
 3262SOL    HW210686   2.887   2.007   3.503
 3263SOL     OW10687   6.923   1.486   2.393
 3263SOL    HW110688   6.953   1.566   2.342
 3263SOL    HW210689   6.931   1.404   2.337
 3264SOL     OW10690   1.680   5.025   6.461
 3264SOL    HW110691   1.632   4.950   6.505
 3264SOL    HW210692   1.778   5.006   6.461
 3265SOL     OW10693   5.785   5.380   6.410
 3265SOL    HW110694   5.790   5.283   6.435
 3265SOL    HW210695   5.874   5.410   6.376
 3266SOL     OW10696   3.411   5.608   6.750
 3266SOL    HW110697   3.437   5.703   6.763
 3266SOL    HW210698   3.357   5.599   6.666
 3267SOL     OW10699   3.546   6.904   0.197
 3267SOL    HW110700   3.452   6.874   0.212
 3267SOL    HW210701   3.597   6.897   0.283
 3268SOL     OW10702   6.188   5.407   1.613
 3268SOL    HW110703   6.276   5.454   1.605
 3268SOL    HW210704   6.133   5.451   1.683
 3269SOL     OW10705   1.630   4.852   1.623
 3269SOL    HW110706   1.728   4.860   1.640
 3269SOL    HW210707   1.597   4.937   1.581
 3270SOL     OW10708   0.655   2.748   5.230
 3270SOL    HW110709   0.653   2.837   5.277
 3270SOL    HW210710   0.745   2.706   5.243
 3271SOL     OW10711   1.047   2.739   2.398
 3271SOL    HW110712   1.064   2.680   2.478
 3271SOL    HW210713   0.957   2.717   2.360
 3272SOL     OW10714   4.345   6.395   0.963
 3272SOL    HW110715   4.291   6.470   0.925
 3272SOL    HW210716   4.317   6.379   1.057
 3273SOL     OW10717   5.221   2.861   6.020
 3273SOL    HW110718   5.230   2.765   5.993
 3273SOL    HW210719   5.176   2.865   6.110
 3274SOL     OW10720   5.859   0.181   1.587
 3274SOL    HW110721   5.760   0.166   1.585
 3274SOL    HW210722   5.895   0.178   1.494
 3275SOL     OW10723   4.896   0.615   2.112
 3275SOL    HW110724   4.885   0.519   2.086
 3275SOL    HW210725   4.973   0.623   2.176
 3276SOL     OW10726   5.156   0.177   0.117
 3276SOL    HW110727   5.173   0.268   0.155
 3276SOL    HW210728   5.229   0.154   0.053
 3277SOL     OW10729   3.424   2.066   1.937
 3277SOL    HW110730   3.345   2.053   1.998
 3277SOL    HW210731   3.487   2.132   1.977
 3278SOL     OW10732   6.163   0.597   6.843
 3278SOL    HW110733   6.151   0.680   6.789
 3278SOL    HW210734   6.089   0.533   6.822
 3279SOL     OW10735   3.165   0.131   1.980
 3279SOL    HW110736   3.107   0.054   1.953
 3279SOL    HW210737   3.259   0.100   1.990
 3280SOL     OW10738   6.264   3.878   3.749
 3280SOL    HW110739   6.175   3.841   3.721
 3280SOL    HW210740   6.325   3.802   3.773
 3281SOL     OW10741   5.875   3.543   1.483
 3281SOL    HW110742   5.803   3.584   1.539
 3281SOL    HW210743   5.836   3.472   1.424
 3282SOL     OW10744   0.078   4.922   4.782
 3282SOL    HW110745   0.010   4.965   4.842
 3282SOL    HW210746   0.135   4.861   4.835
 3283SOL     OW10747   3.541   1.996   0.728
 3283SOL    HW110748   3.553   1.924   0.659
 3283SOL    HW210749   3.542   2.085   0.684
 3284SOL     OW10750   2.448   5.966   4.361
 3284SOL    HW110751   2.460   6.065   4.349
 3284SOL    HW210752   2.357   5.939   4.328
 3285SOL     OW10753   3.913   2.174   5.063
 3285SOL    HW110754   3.954   2.150   4.976
 3285SOL    HW210755   3.976   2.231   5.116
 3286SOL     OW10756   2.345   1.967   2.490
 3286SOL    HW110757   2.382   1.972   2.583
 3286SOL    HW210758   2.247   1.988   2.492
 3287SOL     OW10759   2.539   0.477   6.996
 3287SOL    HW110760   2.509   0.407   6.931
 3287SOL    HW210761   2.509   0.452   0.067
 3288SOL     OW10762   2.409   6.253   1.988
 3288SOL    HW110763   2.321   6.216   2.018
 3288SOL    HW210764   2.424   6.343   2.031
 3289SOL     OW10765   4.662   1.062   6.166
 3289SOL    HW110766   4.609   1.014   6.235
 3289SOL    HW210767   4.625   1.042   6.075
 3290SOL     OW10768   0.417   5.556   0.537
 3290SOL    HW110769   0.375   5.511   0.616
 3290SOL    HW210770   0.356   5.629   0.504
 3291SOL     OW10771   4.915   0.075   5.157
 3291SOL    HW110772   4.851   0.152   5.159
 3291SOL    HW210773   4.944   0.058   5.062
 3292SOL     OW10774   0.003   2.096   1.019
 3292SOL    HW110775   0.092   2.112   0.977
 3292SOL    HW210776   6.989   2.007   0.990
 3293SOL     OW10777   6.070   5.747   3.880
 3293SOL    HW110778   6.138   5.809   3.839
 3293SOL    HW210779   5.983   5.796   3.891
 3294SOL     OW10780   5.265   2.943   4.955
 3294SOL    HW110781   5.208   2.982   4.883
 3294SOL    HW210782   5.318   3.016   4.998
 3295SOL     OW10783   0.915   2.668   2.667
 3295SOL    HW110784   1.014   2.657   2.675
 3295SOL    HW210785   0.888   2.754   2.710
 3296SOL     OW10786   1.406   0.691   6.160
 3296SOL    HW110787   1.397   0.785   6.126
 3296SOL    HW210788   1.502   0.667   6.166
 3297SOL     OW10789   3.129   1.458   4.866
 3297SOL    HW110790   3.092   1.369   4.839
 3297SOL    HW210791   3.065   1.530   4.841
 3298SOL     OW10792   5.440   3.642   5.846
 3298SOL    HW110793   5.529   3.652   5.891
 3298SOL    HW210794   5.437   3.702   5.766
 3299SOL     OW10795   2.600   4.531   4.077
 3299SOL    HW110796   2.682   4.576   4.112
 3299SOL    HW210797   2.604   4.528   3.977
 3300SOL     OW10798   2.028   6.868   4.179
 3300SOL    HW110799   2.121   6.842   4.204
 3300SOL    HW210800   1.972   6.786   4.169
 3301SOL     OW10801   0.813   1.389   3.062
 3301SOL    HW110802   0.798   1.488   3.061
 3301SOL    HW210803   0.908   1.370   3.088
 3302SOL     OW10804   1.971   4.777   5.444
 3302SOL    HW110805   1.930   4.686   5.432
 3302SOL    HW210806   1.902   4.840   5.479
 3303SOL     OW10807   3.539   2.770   0.314
 3303SOL    HW110808   3.441   2.762   0.298
 3303SOL    HW210809   3.585   2.687   0.283
 3304SOL     OW10810   3.086   5.200   0.215
 3304SOL    HW110811   3.122   5.290   0.191
 3304SOL    HW210812   3.139   5.130   0.169
 3305SOL     OW10813   2.995   2.632   0.690
 3305SOL    HW110814   2.910   2.593   0.724
 3305SOL    HW210815   3.056   2.559   0.661
 3306SOL     OW10816   2.390   0.745   7.003
 3306SOL    HW110817   2.397   0.689   0.064
 3306SOL    HW210818   2.394   0.842   0.006
 3307SOL     OW10819   1.570   6.579   5.544
 3307SOL    HW110820   1.584   6.648   5.616
 3307SOL    HW210821   1.546   6.492   5.586
 3308SOL     OW10822   4.092   4.651   1.200
 3308SOL    HW110823   4.073   4.624   1.106
 3308SOL    HW210824   4.105   4.751   1.204
 3309SOL     OW10825   6.111   2.771   3.260
 3309SOL    HW110826   6.130   2.782   3.358
 3309SOL    HW210827   6.148   2.683   3.229
 3310SOL     OW10828   6.037   4.834   5.800
 3310SOL    HW110829   6.039   4.856   5.702
 3310SOL    HW210830   5.956   4.781   5.821
 3311SOL     OW10831   2.944   3.513   0.283
 3311SOL    HW110832   2.987   3.601   0.303
 3311SOL    HW210833   2.847   3.526   0.262
 3312SOL     OW10834   4.765   2.266   6.045
 3312SOL    HW110835   4.752   2.234   5.951
 3312SOL    HW210836   4.765   2.366   6.046
 3313SOL     OW10837   0.595   1.061   3.600
 3313SOL    HW110838   0.649   1.080   3.682
 3313SOL    HW210839   0.653   1.022   3.529
 3314SOL     OW10840   2.811   5.778   2.434
 3314SOL    HW110841   2.744   5.753   2.504
 3314SOL    HW210842   2.782   5.741   2.345
 3315SOL     OW10843   0.312   5.656   5.233
 3315SOL    HW110844   0.290   5.598   5.155
 3315SOL    HW210845   0.232   5.709   5.259
 3316SOL     OW10846   4.424   2.645   6.575
 3316SOL    HW110847   4.386   2.667   6.665
 3316SOL    HW210848   4.350   2.632   6.509
 3317SOL     OW10849   5.279   2.642   2.374
 3317SOL    HW110850   5.238   2.640   2.283
 3317SOL    HW210851   5.350   2.572   2.381
 3318SOL     OW10852   3.427   2.198   0.530
 3318SOL    HW110853   3.360   2.144   0.479
 3318SOL    HW210854   3.434   2.289   0.489
 3319SOL     OW10855   6.126   5.701   3.528
 3319SOL    HW110856   6.153   5.779   3.584
 3319SOL    HW210857   6.105   5.732   3.435
 3320SOL     OW10858   6.567   6.680   1.654
 3320SOL    HW110859   6.652   6.644   1.692
 3320SOL    HW210860   6.500   6.606   1.644
 3321SOL     OW10861   5.078   1.500   0.381
 3321SOL    HW110862   5.078   1.592   0.420
 3321SOL    HW210863   5.154   1.492   0.316
 3322SOL     OW10864   6.553   3.946   0.745
 3322SOL    HW110865   6.474   3.975   0.799
 3322SOL    HW210866   6.522   3.907   0.659
 3323SOL     OW10867   1.366   2.394   1.458
 3323SOL    HW110868   1.352   2.466   1.526
 3323SOL    HW210869   1.361   2.305   1.503
 3324SOL     OW10870   5.172   5.940   5.729
 3324SOL    HW110871   5.262   5.912   5.762
 3324SOL    HW210872   5.115   5.859   5.715
 3325SOL     OW10873   2.745   3.983   5.762
 3325SOL    HW110874   2.777   3.889   5.775
 3325SOL    HW210875   2.764   4.012   5.668
 3326SOL     OW10876   4.290   1.507   1.921
 3326SOL    HW110877   4.339   1.491   2.007
 3326SOL    HW210878   4.352   1.492   1.844
 3327SOL     OW10879   0.231   5.105   6.798
 3327SOL    HW110880   0.203   5.115   6.893
 3327SOL    HW210881   0.232   5.195   6.754
 3328SOL     OW10882   4.686   2.492   6.279
 3328SOL    HW110883   4.774   2.493   6.233
 3328SOL    HW210884   4.693   2.542   6.366
 3329SOL     OW10885   6.515   5.989   5.918
 3329SOL    HW110886   6.575   6.061   5.953
 3329SOL    HW210887   6.422   6.002   5.954
 3330SOL     OW10888   7.007   3.668   2.765
 3330SOL    HW110889   6.933   3.735   2.774
 3330SOL    HW210890   6.983   3.601   2.695
 3331SOL     OW10891   2.153   3.141   1.096
 3331SOL    HW110892   2.240   3.129   1.049
 3331SOL    HW210893   2.156   3.222   1.154
 3332SOL     OW10894   6.332   4.682   1.643
 3332SOL    HW110895   6.380   4.766   1.619
 3332SOL    HW210896   6.398   4.608   1.657
 3333SOL     OW10897   4.136   5.805   6.279
 3333SOL    HW110898   4.170   5.856   6.201
 3333SOL    HW210899   4.195   5.726   6.295
 3334SOL     OW10900   2.326   4.093   1.693
 3334SOL    HW110901   2.367   4.183   1.681
 3334SOL    HW210902   2.284   4.088   1.784
 3335SOL     OW10903   6.044   4.316   4.633
 3335SOL    HW110904   6.093   4.255   4.695
 3335SOL    HW210905   5.961   4.349   4.677
 3336SOL     OW10906   3.000   5.959   5.789
 3336SOL    HW110907   2.924   5.909   5.748
 3336SOL    HW210908   3.075   5.966   5.723
 3337SOL     OW10909   3.397   1.721   0.564
 3337SOL    HW110910   3.421   1.723   0.467
 3337SOL    HW210911   3.479   1.702   0.618
 3338SOL     OW10912   6.798   4.276   0.568
 3338SOL    HW110913   6.814   4.190   0.615
 3338SOL    HW210914   6.799   4.261   0.469
 3339SOL     OW10915   0.248   5.635   5.954
 3339SOL    HW110916   0.335   5.595   5.983
 3339SOL    HW210917   0.226   5.602   5.862
 3340SOL     OW10918   4.241   6.510   1.781
 3340SOL    HW110919   4.214   6.569   1.857
 3340SOL    HW210920   4.233   6.560   1.695
 3341SOL     OW10921   0.834   0.152   1.716
 3341SOL    HW110922   0.870   0.074   1.666
 3341SOL    HW210923   0.777   0.119   1.792
 3342SOL     OW10924   2.530   6.812   4.068
 3342SOL    HW110925   2.557   6.845   3.978
 3342SOL    HW210926   2.517   6.713   4.064
 3343SOL     OW10927   6.192   2.794   1.218
 3343SOL    HW110928   6.289   2.796   1.244
 3343SOL    HW210929   6.185   2.776   1.120
 3344SOL     OW10930   7.009   3.443   5.244
 3344SOL    HW110931   0.055   3.377   5.279
 3344SOL    HW210932   6.928   3.441   5.302
 3345SOL     OW10933   2.763   3.360   5.954
 3345SOL    HW110934   2.757   3.405   5.865
 3345SOL    HW210935   2.806   3.421   6.020
 3346SOL     OW10936   1.838   6.252   2.104
 3346SOL    HW110937   1.807   6.160   2.078
 3346SOL    HW210938   1.866   6.252   2.200
 3347SOL     OW10939   5.462   3.921   4.774
 3347SOL    HW110940   5.477   3.882   4.683
 3347SOL    HW210941   5.434   3.848   4.837
 3348SOL     OW10942   3.785   3.091   3.180
 3348SOL    HW110943   3.816   3.178   3.140
 3348SOL    HW210944   3.816   3.015   3.122
 3349SOL     OW10945   6.050   3.875   4.981
 3349SOL    HW110946   5.987   3.852   4.907
 3349SOL    HW210947   6.085   3.790   5.022
 3350SOL     OW10948   1.293   1.933   0.832
 3350SOL    HW110949   1.283   1.920   0.931
 3350SOL    HW210950   1.210   1.973   0.795
 3351SOL     OW10951   5.254   1.785   1.773
 3351SOL    HW110952   5.253   1.834   1.686
 3351SOL    HW210953   5.321   1.711   1.769
 3352SOL     OW10954   0.491   3.884   0.636
 3352SOL    HW110955   0.558   3.924   0.573
 3352SOL    HW210956   0.505   3.921   0.728
 3353SOL     OW10957   2.270   6.714   6.396
 3353SOL    HW110958   2.361   6.705   6.437
 3353SOL    HW210959   2.218   6.783   6.448
 3354SOL     OW10960   0.929   1.375   2.589
 3354SOL    HW110961   0.901   1.353   2.495
 3354SOL    HW210962   1.013   1.430   2.587
 3355SOL     OW10963   6.189   1.768   2.604
 3355SOL    HW110964   6.287   1.770   2.623
 3355SOL    HW210965   6.167   1.687   2.549
 3356SOL     OW10966   2.675   3.234   6.323
 3356SOL    HW110967   2.771   3.260   6.323
 3356SOL    HW210968   2.665   3.141   6.288
 3357SOL     OW10969   2.608   5.030   2.151
 3357SOL    HW110970   2.588   5.119   2.110
 3357SOL    HW210971   2.668   4.978   2.090
 3358SOL     OW10972   5.689   4.512   2.630
 3358SOL    HW110973   5.624   4.580   2.595
 3358SOL    HW210974   5.651   4.469   2.712
 3359SOL     OW10975   0.834   0.946   1.691
 3359SOL    HW110976   0.754   0.891   1.715
 3359SOL    HW210977   0.853   1.010   1.765
 3360SOL     OW10978   1.673   0.413   6.674
 3360SOL    HW110979   1.729   0.366   6.605
 3360SOL    HW210980   1.600   0.465   6.629
 3361SOL     OW10981   5.053   6.856   2.655
 3361SOL    HW110982   4.985   6.878   2.725
 3361SOL    HW210983   5.127   6.802   2.696
 3362SOL     OW10984   2.560   1.577   5.272
 3362SOL    HW110985   2.610   1.584   5.358
 3362SOL    HW210986   2.606   1.631   5.202
 3363SOL     OW10987   0.487   0.802   6.411
 3363SOL    HW110988   0.407   0.785   6.352
 3363SOL    HW210989   0.461   0.789   6.506
 3364SOL     OW10990   1.983   4.648   6.188
 3364SOL    HW110991   2.034   4.733   6.173
 3364SOL    HW210992   2.039   4.570   6.162
 3365SOL     OW10993   6.282   2.015   5.699
 3365SOL    HW110994   6.309   1.984   5.791
 3365SOL    HW210995   6.312   1.948   5.631
 3366SOL     OW10996   5.400   0.976   5.598
 3366SOL    HW110997   5.432   1.070   5.614
 3366SOL    HW210998   5.319   0.958   5.653
 3367SOL     OW10999   1.202   0.653   2.090
 3367SOL    HW111000   1.170   0.734   2.041
 3367SOL    HW211001   1.130   0.584   2.090
 3368SOL     OW11002   6.530   6.678   5.476
 3368SOL    HW111003   6.484   6.591   5.461
 3368SOL    HW211004   6.467   6.753   5.456
 3369SOL     OW11005   3.670   6.772   6.284
 3369SOL    HW111006   3.700   6.731   6.370
 3369SOL    HW211007   3.701   6.715   6.208
 3370SOL     OW11008   5.230   0.570   5.084
 3370SOL    HW111009   5.287   0.547   5.005
 3370SOL    HW211010   5.268   0.650   5.130
 3371SOL     OW11011   0.285   4.867   1.908
 3371SOL    HW111012   0.381   4.837   1.915
 3371SOL    HW211013   0.235   4.836   1.989
 3372SOL     OW11014   0.354   1.610   2.206
 3372SOL    HW111015   0.304   1.625   2.290
 3372SOL    HW211016   0.310   1.660   2.131
 3373SOL     OW11017   0.056   1.901   5.323
 3373SOL    HW111018   0.124   1.946   5.265
 3373SOL    HW211019   0.070   1.802   5.321
 3374SOL     OW11020   3.705   5.368   5.169
 3374SOL    HW111021   3.670   5.337   5.258
 3374SOL    HW211022   3.651   5.327   5.096
 3375SOL     OW11023   4.407   4.258   5.285
 3375SOL    HW111024   4.331   4.300   5.236
 3375SOL    HW211025   4.460   4.201   5.222
 3376SOL     OW11026   3.183   3.682   2.481
 3376SOL    HW111027   3.263   3.733   2.450
 3376SOL    HW211028   3.100   3.724   2.443
 3377SOL     OW11029   2.638   5.925   5.258
 3377SOL    HW111030   2.589   5.875   5.330
 3377SOL    HW211031   2.572   5.959   5.191
 3378SOL     OW11032   0.682   1.563   0.789
 3378SOL    HW111033   0.632   1.480   0.815
 3378SOL    HW211034   0.771   1.537   0.751
 3379SOL     OW11035   1.063   4.745   6.381
 3379SOL    HW111036   1.146   4.787   6.418
 3379SOL    HW211037   1.058   4.649   6.409
 3380SOL     OW11038   0.561   4.068   6.056
 3380SOL    HW111039   0.622   4.056   6.134
 3380SOL    HW211040   0.503   4.148   6.072
 3381SOL     OW11041   3.492   2.336   0.986
 3381SOL    HW111042   3.552   2.341   0.907
 3381SOL    HW211043   3.502   2.419   1.041
 3382SOL     OW11044   6.527   6.862   0.925
 3382SOL    HW111045   6.448   6.919   0.948
 3382SOL    HW211046   6.604   6.887   0.985
 3383SOL     OW11047   6.953   4.649   3.082
 3383SOL    HW111048   6.946   4.691   2.992
 3383SOL    HW211049   7.014   4.704   3.140
 3384SOL     OW11050   3.853   3.197   4.497
 3384SOL    HW111051   3.821   3.284   4.458
 3384SOL    HW211052   3.937   3.169   4.452
 3385SOL     OW11053   6.551   3.573   3.293
 3385SOL    HW111054   6.602   3.642   3.241
 3385SOL    HW211055   6.468   3.614   3.330
 3386SOL     OW11056   6.291   4.555   4.552
 3386SOL    HW111057   6.321   4.491   4.622
 3386SOL    HW211058   6.371   4.602   4.512
 3387SOL     OW11059   2.839   2.176   2.733
 3387SOL    HW111060   2.832   2.234   2.814
 3387SOL    HW211061   2.846   2.080   2.761
 3388SOL     OW11062   5.713   3.221   1.792
 3388SOL    HW111063   5.790   3.180   1.743
 3388SOL    HW211064   5.631   3.167   1.775
 3389SOL     OW11065   6.202   4.131   3.368
 3389SOL    HW111066   6.260   4.085   3.435
 3389SOL    HW211067   6.222   4.229   3.369
 3390SOL     OW11068   5.162   2.473   5.403
 3390SOL    HW111069   5.188   2.531   5.480
 3390SOL    HW211070   5.065   2.452   5.409
 3391SOL     OW11071   3.288   1.542   4.206
 3391SOL    HW111072   3.240   1.461   4.174
 3391SOL    HW211073   3.320   1.527   4.300
 3392SOL     OW11074   4.672   6.495   3.997
 3392SOL    HW111075   4.645   6.496   3.901
 3392SOL    HW211076   4.663   6.403   4.034
 3393SOL     OW11077   6.422   0.130   6.921
 3393SOL    HW111078   6.343   0.071   6.934
 3393SOL    HW211079   6.394   0.215   6.876
 3394SOL     OW11080   6.199   2.713   1.536
 3394SOL    HW111081   6.160   2.737   1.624
 3394SOL    HW211082   6.149   2.760   1.463
 3395SOL     OW11083   1.508   3.219   5.167
 3395SOL    HW111084   1.488   3.229   5.265
 3395SOL    HW211085   1.606   3.212   5.153
 3396SOL     OW11086   0.507   3.949   4.039
 3396SOL    HW111087   0.533   3.884   3.968
 3396SOL    HW211088   0.579   3.953   4.109
 3397SOL     OW11089   4.243   6.155   6.061
 3397SOL    HW111090   4.237   6.103   6.146
 3397SOL    HW211091   4.290   6.242   6.078
 3398SOL     OW11092   0.132   6.472   4.079
 3398SOL    HW111093   0.116   6.378   4.111
 3398SOL    HW211094   0.216   6.475   4.025
 3399SOL     OW11095   4.734   4.799   4.648
 3399SOL    HW111096   4.681   4.718   4.623
 3399SOL    HW211097   4.711   4.826   4.741
 3400SOL     OW11098   4.892   2.279   6.908
 3400SOL    HW111099   4.854   2.205   6.963
 3400SOL    HW211100   4.868   2.266   6.812
 3401SOL     OW11101   5.896   5.219   0.036
 3401SOL    HW111102   5.976   5.176   0.077
 3401SOL    HW211103   5.822   5.223   0.103
 3402SOL     OW11104   5.447   5.667   1.864
 3402SOL    HW111105   5.406   5.596   1.806
 3402SOL    HW211106   5.403   5.665   1.954
 3403SOL     OW11107   3.505   1.114   5.477
 3403SOL    HW111108   3.489   1.211   5.457
 3403SOL    HW211109   3.465   1.058   5.405
 3404SOL     OW11110   4.563   0.501   0.643
 3404SOL    HW111111   4.657   0.533   0.659
 3404SOL    HW211112   4.506   0.525   0.721
 3405SOL     OW11113   5.938   3.966   0.175
 3405SOL    HW111114   5.923   4.044   0.114
 3405SOL    HW211115   5.849   3.932   0.207
 3406SOL     OW11116   1.141   4.408   1.876
 3406SOL    HW111117   1.071   4.447   1.935
 3406SOL    HW211118   1.229   4.451   1.896
 3407SOL     OW11119   1.757   5.692   2.293
 3407SOL    HW111120   1.717   5.652   2.375
 3407SOL    HW211121   1.814   5.770   2.319
 3408SOL     OW11122   5.172   4.280   3.214
 3408SOL    HW111123   5.267   4.286   3.245
 3408SOL    HW211124   5.164   4.208   3.145
 3409SOL     OW11125   3.669   0.555   5.748
 3409SOL    HW111126   3.618   0.501   5.816
 3409SOL    HW211127   3.627   0.542   5.658
 3410SOL     OW11128   0.009   6.672   6.833
 3410SOL    HW111129   6.930   6.667   6.840
 3410SOL    HW211130   0.037   6.767   6.815
 3411SOL     OW11131   4.732   2.269   2.201
 3411SOL    HW111132   4.762   2.362   2.220
 3411SOL    HW211133   4.810   2.207   2.205
 3412SOL     OW11134   3.961   4.722   0.383
 3412SOL    HW111135   4.056   4.691   0.379
 3412SOL    HW211136   3.958   4.815   0.418
 3413SOL     OW11137   3.960   2.149   2.479
 3413SOL    HW111138   3.985   2.113   2.569
 3413SOL    HW211139   4.043   2.178   2.431
 3414SOL     OW11140   2.535   2.524   4.925
 3414SOL    HW111141   2.485   2.596   4.973
 3414SOL    HW211142   2.624   2.510   4.969
 3415SOL     OW11143   0.722   5.189   4.037
 3415SOL    HW111144   0.753   5.203   4.131
 3415SOL    HW211145   0.766   5.255   3.977
 3416SOL     OW11146   1.661   5.221   5.677
 3416SOL    HW111147   1.571   5.211   5.720
 3416SOL    HW211148   1.697   5.131   5.653
 3417SOL     OW11149   6.045   0.337   2.551
 3417SOL    HW111150   5.995   0.253   2.573
 3417SOL    HW211151   6.143   0.319   2.551
 3418SOL     OW11152   2.937   1.306   6.141
 3418SOL    HW111153   2.891   1.393   6.128
 3418SOL    HW211154   2.875   1.231   6.115
 3419SOL     OW11155   4.596   4.467   0.477
 3419SOL    HW111156   4.553   4.411   0.547
 3419SOL    HW211157   4.566   4.436   0.387
 3420SOL     OW11158   4.014   2.173   3.917
 3420SOL    HW111159   4.013   2.073   3.912
 3420SOL    HW211160   3.966   2.202   4.000
 3421SOL     OW11161   0.163   5.955   5.148
 3421SOL    HW111162   0.111   5.968   5.063
 3421SOL    HW211163   0.101   5.958   5.226
 3422SOL     OW11164   3.417   1.744   1.460
 3422SOL    HW111165   3.342   1.807   1.477
 3422SOL    HW211166   3.417   1.673   1.531
 3423SOL     OW11167   2.702   0.600   0.903
 3423SOL    HW111168   2.748   0.525   0.856
 3423SOL    HW211169   2.731   0.687   0.863
 3424SOL     OW11170   4.223   1.450   2.712
 3424SOL    HW111171   4.207   1.398   2.628
 3424SOL    HW211172   4.159   1.527   2.715
 3425SOL     OW11173   4.308   4.492   1.739
 3425SOL    HW111174   4.356   4.579   1.745
 3425SOL    HW211175   4.369   4.418   1.767
 3426SOL     OW11176   4.499   3.834   0.703
 3426SOL    HW111177   4.467   3.909   0.760
 3426SOL    HW211178   4.554   3.870   0.627
 3427SOL     OW11179   0.386   1.483   6.954
 3427SOL    HW111180   0.474   1.475   7.002
 3427SOL    HW211181   0.340   1.395   6.954
 3428SOL     OW11182   4.656   4.741   2.771
 3428SOL    HW111183   4.569   4.706   2.808
 3428SOL    HW211184   4.677   4.829   2.813
 3429SOL     OW11185   1.646   3.000   6.910
 3429SOL    HW111186   1.615   2.999   7.005
 3429SOL    HW211187   1.691   3.087   6.890
 3430SOL     OW11188   1.425   6.733   0.029
 3430SOL    HW111189   1.397   6.825   0.056
 3430SOL    HW211190   1.384   6.666   0.092
 3431SOL     OW11191   0.982   5.820   0.988
 3431SOL    HW111192   0.934   5.888   1.044
 3431SOL    HW211193   1.034   5.758   1.047
 3432SOL     OW11194   3.360   1.153   6.244
 3432SOL    HW111195   3.436   1.157   6.309
 3432SOL    HW211196   3.309   1.239   6.248
 3433SOL     OW11197   3.811   1.051   4.801
 3433SOL    HW111198   3.751   1.054   4.880
 3433SOL    HW211199   3.841   1.144   4.779
 3434SOL     OW11200   4.506   2.382   2.125
 3434SOL    HW111201   4.568   2.320   2.173
 3434SOL    HW211202   4.417   2.338   2.113
 3435SOL     OW11203   0.406   0.905   0.697
 3435SOL    HW111204   0.434   0.936   0.788
 3435SOL    HW211205   0.329   0.961   0.665
 3436SOL     OW11206   4.105   6.793   4.292
 3436SOL    HW111207   4.129   6.758   4.383
 3436SOL    HW211208   4.180   6.851   4.259
 3437SOL     OW11209   3.987   0.034   5.920
 3437SOL    HW111210   4.054   0.033   5.994
 3437SOL    HW211211   3.978   6.964   5.881
 3438SOL     OW11212   1.156   2.958   6.164
 3438SOL    HW111213   1.214   2.923   6.090
 3438SOL    HW211214   1.073   2.902   6.169
 3439SOL     OW11215   2.472   5.840   3.731
 3439SOL    HW111216   2.521   5.775   3.672
 3439SOL    HW211217   2.416   5.790   3.796
 3440SOL     OW11218   5.158   3.016   0.730
 3440SOL    HW111219   5.235   3.071   0.763
 3440SOL    HW211220   5.072   3.057   0.761
 3441SOL     OW11221   2.656   0.443   3.745
 3441SOL    HW111222   2.656   0.543   3.736
 3441SOL    HW211223   2.750   0.412   3.761
 3442SOL     OW11224   1.984   4.495   3.505
 3442SOL    HW111225   2.044   4.502   3.585
 3442SOL    HW211226   1.894   4.531   3.528
 3443SOL     OW11227   5.166   1.190   3.398
 3443SOL    HW111228   5.262   1.213   3.416
 3443SOL    HW211229   5.113   1.201   3.482
 3444SOL     OW11230   4.566   5.242   0.270
 3444SOL    HW111231   4.602   5.300   0.344
 3444SOL    HW211232   4.545   5.151   0.306
 3445SOL     OW11233   6.551   4.005   4.775
 3445SOL    HW111234   6.630   4.044   4.728
 3445SOL    HW211235   6.531   4.058   4.857
 3446SOL     OW11236   3.384   0.123   2.862
 3446SOL    HW111237   3.469   0.142   2.911
 3446SOL    HW211238   3.326   0.065   2.920
 3447SOL     OW11239   5.279   5.977   6.687
 3447SOL    HW111240   5.334   6.005   6.766
 3447SOL    HW211241   5.284   5.878   6.677
 3448SOL     OW11242   3.621   2.326   0.737
 3448SOL    HW111243   3.704   2.301   0.687
 3448SOL    HW211244   3.544   2.332   0.674
 3449SOL     OW11245   6.500   6.239   3.220
 3449SOL    HW111246   6.455   6.286   3.144
 3449SOL    HW211247   6.576   6.184   3.185
 3450SOL     OW11248   1.015   1.641   1.532
 3450SOL    HW111249   1.098   1.695   1.539
 3450SOL    HW211250   0.946   1.677   1.596
 3451SOL     OW11251   0.997   5.910   4.901
 3451SOL    HW111252   1.065   5.883   4.970
 3451SOL    HW211253   0.996   6.009   4.892
 3452SOL     OW11254   5.930   1.643   0.698
 3452SOL    HW111255   6.009   1.696   0.730
 3452SOL    HW211256   5.848   1.699   0.703
 3453SOL     OW11257   5.162   5.437   5.201
 3453SOL    HW111258   5.117   5.490   5.128
 3453SOL    HW211259   5.107   5.356   5.221
 3454SOL     OW11260   0.644   0.792   0.158
 3454SOL    HW111261   0.657   0.694   0.171
 3454SOL    HW211262   0.653   0.840   0.245
 3455SOL     OW11263   1.608   2.473   4.357
 3455SOL    HW111264   1.703   2.499   4.373
 3455SOL    HW211265   1.548   2.550   4.379
 3456SOL     OW11266   5.966   0.262   1.873
 3456SOL    HW111267   5.908   0.262   1.792
 3456SOL    HW211268   5.959   0.173   1.919
 3457SOL     OW11269   2.636   5.155   3.312
 3457SOL    HW111270   2.648   5.166   3.213
 3457SOL    HW211271   2.636   5.245   3.356
 3458SOL     OW11272   5.439   5.946   1.063
 3458SOL    HW111273   5.420   6.036   1.025
 3458SOL    HW211274   5.491   5.892   0.997
 3459SOL     OW11275   7.002   5.662   3.977
 3459SOL    HW111276   0.034   5.648   3.894
 3459SOL    HW211277   0.024   5.614   4.053
 3460SOL     OW11278   4.569   3.420   6.542
 3460SOL    HW111279   4.501   3.382   6.480
 3460SOL    HW211280   4.535   3.417   6.636
 3461SOL     OW11281   4.016   6.647   3.241
 3461SOL    HW111282   3.981   6.683   3.155
 3461SOL    HW211283   4.113   6.624   3.231
 3462SOL     OW11284   4.884   3.176   3.015
 3462SOL    HW111285   4.856   3.160   2.921
 3462SOL    HW211286   4.904   3.273   3.028
 3463SOL     OW11287   2.104   2.830   1.403
 3463SOL    HW111288   2.189   2.779   1.384
 3463SOL    HW211289   2.126   2.926   1.415
 3464SOL     OW11290   4.878   2.575   6.668
 3464SOL    HW111291   4.885   2.476   6.663
 3464SOL    HW211292   4.879   2.603   6.764
 3465SOL     OW11293   2.124   3.595   2.241
 3465SOL    HW111294   2.200   3.541   2.205
 3465SOL    HW211295   2.046   3.535   2.259
 3466SOL     OW11296   6.260   4.787   3.789
 3466SOL    HW111297   6.284   4.882   3.773
 3466SOL    HW211298   6.162   4.773   3.774
 3467SOL     OW11299   2.803   2.453   0.922
 3467SOL    HW111300   2.760   2.447   1.012
 3467SOL    HW211301   2.900   2.429   0.930
 3468SOL     OW11302   4.245   1.656   0.912
 3468SOL    HW111303   4.226   1.609   0.998
 3468SOL    HW211304   4.188   1.616   0.839
 3469SOL     OW11305   4.466   6.869   5.575
 3469SOL    HW111306   4.528   6.855   5.653
 3469SOL    HW211307   4.500   6.944   5.519
 3470SOL     OW11308   0.268   3.072   1.713
 3470SOL    HW111309   0.194   3.114   1.660
 3470SOL    HW211310   0.326   3.143   1.751
 3471SOL     OW11311   5.189   3.467   3.441
 3471SOL    HW111312   5.091   3.475   3.459
 3471SOL    HW211313   5.232   3.556   3.451
 3472SOL     OW11314   4.008   1.891   4.016
 3472SOL    HW111315   4.015   1.799   4.053
 3472SOL    HW211316   3.980   1.955   4.088
 3473SOL     OW11317   7.012   3.902   2.263
 3473SOL    HW111318   0.032   3.910   2.172
 3473SOL    HW211319   6.926   3.952   2.265
 3474SOL     OW11320   6.349   5.336   4.021
 3474SOL    HW111321   6.303   5.386   3.947
 3474SOL    HW211322   6.337   5.238   4.007
 3475SOL     OW11323   6.895   3.887   4.309
 3475SOL    HW111324   6.983   3.862   4.269
 3475SOL    HW211325   6.909   3.919   4.403
 3476SOL     OW11326   0.955   1.423   3.452
 3476SOL    HW111327   0.943   1.360   3.530
 3476SOL    HW211328   0.866   1.446   3.414
 3477SOL     OW11329   0.980   4.129   1.476
 3477SOL    HW111330   0.970   4.046   1.531
 3477SOL    HW211331   0.901   4.188   1.490
 3478SOL     OW11332   2.128   0.286   0.332
 3478SOL    HW111333   2.170   0.377   0.326
 3478SOL    HW211334   2.193   0.217   0.299
 3479SOL     OW11335   1.421   3.589   3.948
 3479SOL    HW111336   1.494   3.641   3.904
 3479SOL    HW211337   1.387   3.638   4.028
 3480SOL     OW11338   1.297   5.338   6.598
 3480SOL    HW111339   1.257   5.301   6.681
 3480SOL    HW211340   1.269   5.282   6.520
 3481SOL     OW11341   6.750   0.442   5.803
 3481SOL    HW111342   6.809   0.512   5.762
 3481SOL    HW211343   6.736   0.367   5.738
 3482SOL     OW11344   6.278   3.705   4.836
 3482SOL    HW111345   6.281   3.756   4.750
 3482SOL    HW211346   6.300   3.767   4.912
 3483SOL     OW11347   4.850   2.510   3.619
 3483SOL    HW111348   4.857   2.412   3.599
 3483SOL    HW211349   4.756   2.541   3.600
 3484SOL     OW11350   1.592   3.310   5.454
 3484SOL    HW111351   1.645   3.394   5.441
 3484SOL    HW211352   1.652   3.238   5.487
 3485SOL     OW11353   0.877   2.231   6.309
 3485SOL    HW111354   0.903   2.171   6.385
 3485SOL    HW211355   0.778   2.225   6.294
 3486SOL     OW11356   2.304   0.306   4.856
 3486SOL    HW111357   2.374   0.376   4.868
 3486SOL    HW211358   2.231   0.340   4.796
 3487SOL     OW11359   5.128   1.022   6.494
 3487SOL    HW111360   5.076   1.096   6.452
 3487SOL    HW211361   5.205   1.060   6.545
 3488SOL     OW11362   5.994   0.563   4.382
 3488SOL    HW111363   6.006   0.465   4.369
 3488SOL    HW211364   6.054   0.613   4.319
 3489SOL     OW11365   3.402   0.153   0.305
 3489SOL    HW111366   3.393   0.177   0.208
 3489SOL    HW211367   3.376   0.057   0.317
 3490SOL     OW11368   4.214   5.359   0.740
 3490SOL    HW111369   4.232   5.359   0.642
 3490SOL    HW211370   4.211   5.264   0.774
 3491SOL     OW11371   4.760   4.138   0.010
 3491SOL    HW111372   4.821   4.193   6.974
 3491SOL    HW211373   4.794   4.044   0.013
 3492SOL     OW11374   6.074   4.208   2.417
 3492SOL    HW111375   6.073   4.125   2.362
 3492SOL    HW211376   6.091   4.185   2.513
 3493SOL     OW11377   5.943   3.340   4.536
 3493SOL    HW111378   5.939   3.384   4.626
 3493SOL    HW211379   6.027   3.369   4.488
 3494SOL     OW11380   4.057   1.385   1.891
 3494SOL    HW111381   4.020   1.450   1.824
 3494SOL    HW211382   4.145   1.419   1.926
 3495SOL     OW11383   1.833   3.171   2.419
 3495SOL    HW111384   1.841   3.083   2.372
 3495SOL    HW211385   1.779   3.160   2.502
 3496SOL     OW11386   6.508   5.495   0.952
 3496SOL    HW111387   6.538   5.540   1.036
 3496SOL    HW211388   6.455   5.559   0.896
 3497SOL     OW11389   3.291   0.689   2.507
 3497SOL    HW111390   3.268   0.773   2.556
 3497SOL    HW211391   3.210   0.654   2.461
 3498SOL     OW11392   2.145   1.627   1.568
 3498SOL    HW111393   2.156   1.698   1.637
 3498SOL    HW211394   2.047   1.616   1.547
 3499SOL     OW11395   5.654   5.344   5.548
 3499SOL    HW111396   5.665   5.436   5.511
 3499SOL    HW211397   5.569   5.304   5.513
 3500SOL     OW11398   1.569   2.146   4.021
 3500SOL    HW111399   1.632   2.093   4.079
 3500SOL    HW211400   1.573   2.110   3.927
 3501SOL     OW11401   1.602   6.688   5.783
 3501SOL    HW111402   1.515   6.714   5.825
 3501SOL    HW211403   1.632   6.599   5.819
 3502SOL     OW11404   4.875   3.219   2.180
 3502SOL    HW111405   4.818   3.179   2.109
 3502SOL    HW211406   4.902   3.148   2.245
 3503SOL     OW11407   6.762   6.113   6.726
 3503SOL    HW111408   6.806   6.159   6.803
 3503SOL    HW211409   6.787   6.016   6.727
 3504SOL     OW11410   1.526   0.919   1.393
 3504SOL    HW111411   1.602   0.982   1.404
 3504SOL    HW211412   1.560   0.832   1.357
 3505SOL     OW11413   5.938   5.253   6.014
 3505SOL    HW111414   5.908   5.341   6.051
 3505SOL    HW211415   5.897   5.240   5.924
 3506SOL     OW11416   5.086   4.776   4.799
 3506SOL    HW111417   5.049   4.833   4.726
 3506SOL    HW211418   5.037   4.689   4.802
 3507SOL     OW11419   2.790   6.677   0.502
 3507SOL    HW111420   2.849   6.755   0.482
 3507SOL    HW211421   2.846   6.602   0.538
 3508SOL     OW11422   2.974   2.515   5.332
 3508SOL    HW111423   3.065   2.497   5.294
 3508SOL    HW211424   2.982   2.586   5.403
 3509SOL     OW11425   4.233   5.757   6.623
 3509SOL    HW111426   4.141   5.737   6.589
 3509SOL    HW211427   4.227   5.798   6.714
 3510SOL     OW11428   2.797   0.830   0.799
 3510SOL    HW111429   2.875   0.862   0.746
 3510SOL    HW211430   2.817   0.838   0.897
 3511SOL     OW11431   2.388   4.709   1.699
 3511SOL    HW111432   2.410   4.613   1.715
 3511SOL    HW211433   2.450   4.746   1.630
 3512SOL     OW11434   0.746   4.412   6.644
 3512SOL    HW111435   0.726   4.507   6.623
 3512SOL    HW211436   0.688   4.352   6.589
 3513SOL     OW11437   5.662   2.007   0.217
 3513SOL    HW111438   5.612   2.050   0.292
 3513SOL    HW211439   5.631   1.912   0.207
 3514SOL     OW11440   4.074   1.182   3.001
 3514SOL    HW111441   4.072   1.161   3.099
 3514SOL    HW211442   4.090   1.097   2.950
 3515SOL     OW11443   5.712   5.453   4.296
 3515SOL    HW111444   5.614   5.473   4.305
 3515SOL    HW211445   5.761   5.538   4.274
 3516SOL     OW11446   5.574   0.304   0.759
 3516SOL    HW111447   5.580   0.273   0.854
 3516SOL    HW211448   5.640   0.254   0.703
 3517SOL     OW11449   6.260   0.864   0.540
 3517SOL    HW111450   6.313   0.830   0.462
 3517SOL    HW211451   6.322   0.895   0.612
 3518SOL     OW11452   5.699   1.404   5.481
 3518SOL    HW111453   5.723   1.471   5.411
 3518SOL    HW211454   5.636   1.337   5.441
 3519SOL     OW11455   3.555   0.556   0.512
 3519SOL    HW111456   3.554   0.651   0.545
 3519SOL    HW211457   3.620   0.503   0.566
 3520SOL     OW11458   2.992   6.403   4.981
 3520SOL    HW111459   2.959   6.400   5.075
 3520SOL    HW211460   3.090   6.381   4.979
 3521SOL     OW11461   3.094   2.553   6.932
 3521SOL    HW111462   3.027   2.553   6.859
 3521SOL    HW211463   3.117   2.459   6.957
 3522SOL     OW11464   6.917   5.580   7.010
 3522SOL    HW111465   6.915   5.635   6.927
 3522SOL    HW211466   6.874   5.491   6.992
 3523SOL     OW11467   1.090   5.394   6.033
 3523SOL    HW111468   1.069   5.443   6.117
 3523SOL    HW211469   1.019   5.412   5.965
 3524SOL     OW11470   6.204   1.134   3.610
 3524SOL    HW111471   6.260   1.051   3.606
 3524SOL    HW211472   6.132   1.123   3.679
 3525SOL     OW11473   6.286   4.652   3.423
 3525SOL    HW111474   6.305   4.585   3.351
 3525SOL    HW211475   6.359   4.720   3.425
 3526SOL     OW11476   0.986   6.142   3.468
 3526SOL    HW111477   1.080   6.163   3.442
 3526SOL    HW211478   0.937   6.104   3.388
 3527SOL     OW11479   6.864   2.895   5.889
 3527SOL    HW111480   6.864   2.987   5.930
 3527SOL    HW211481   6.843   2.827   5.959
 3528SOL     OW11482   2.542   6.891   5.077
 3528SOL    HW111483   2.499   6.972   5.038
 3528SOL    HW211484   2.630   6.915   5.118
 3529SOL     OW11485   5.068   5.394   0.353
 3529SOL    HW111486   5.089   5.479   0.401
 3529SOL    HW211487   5.045   5.323   0.419
 3530SOL     OW11488   0.279   0.278   1.741
 3530SOL    HW111489   0.309   0.330   1.821
 3530SOL    HW211490   0.346   0.206   1.720
 3531SOL     OW11491   5.172   1.572   1.350
 3531SOL    HW111492   5.109   1.629   1.403
 3531SOL    HW211493   5.244   1.537   1.410
 3532SOL     OW11494   1.656   1.077   1.930
 3532SOL    HW111495   1.637   1.156   1.988
 3532SOL    HW211496   1.749   1.083   1.894
 3533SOL     OW11497   0.050   1.205   2.669
 3533SOL    HW111498   0.076   1.171   2.578
 3533SOL    HW211499   0.127   1.255   2.709
 3534SOL     OW11500   6.904   1.135   1.298
 3534SOL    HW111501   6.876   1.152   1.203
 3534SOL    HW211502   6.823   1.121   1.355
 3535SOL     OW11503   2.884   5.158   4.928
 3535SOL    HW111504   2.957   5.114   4.875
 3535SOL    HW211505   2.921   5.192   5.014
 3536SOL     OW11506   3.318   2.066   2.300
 3536SOL    HW111507   3.251   2.044   2.229
 3536SOL    HW211508   3.408   2.077   2.260
 3537SOL     OW11509   2.071   5.454   2.409
 3537SOL    HW111510   2.059   5.380   2.476
 3537SOL    HW211511   2.073   5.542   2.456
 3538SOL     OW11512   3.086   5.770   4.768
 3538SOL    HW111513   2.990   5.769   4.796
 3538SOL    HW211514   3.093   5.754   4.670
 3539SOL     OW11515   3.961   3.814   4.939
 3539SOL    HW111516   4.000   3.764   5.016
 3539SOL    HW211517   4.014   3.794   4.856
 3540SOL     OW11518   2.193   1.958   3.847
 3540SOL    HW111519   2.129   1.886   3.820
 3540SOL    HW211520   2.144   2.026   3.902
 3541SOL     OW11521   2.837   3.801   5.311
 3541SOL    HW111522   2.737   3.806   5.310
 3541SOL    HW211523   2.873   3.840   5.226
 3542SOL     OW11524   1.422   4.371   1.988
 3542SOL    HW111525   1.448   4.312   1.912
 3542SOL    HW211526   1.479   4.453   1.988
 3543SOL     OW11527   5.623   3.045   4.772
 3543SOL    HW111528   5.565   2.974   4.733
 3543SOL    HW211529   5.570   3.129   4.782
 3544SOL     OW11530   2.126   4.489   5.858
 3544SOL    HW111531   2.178   4.569   5.887
 3544SOL    HW211532   2.097   4.437   5.938
 3545SOL     OW11533   4.396   5.380   6.561
 3545SOL    HW111534   4.424   5.472   6.536
 3545SOL    HW211535   4.396   5.321   6.480
 3546SOL     OW11536   6.479   5.139   3.407
 3546SOL    HW111537   6.416   5.086   3.351
 3546SOL    HW211538   6.455   5.236   3.402
 3547SOL     OW11539   4.702   5.384   4.350
 3547SOL    HW111540   4.774   5.453   4.342
 3547SOL    HW211541   4.630   5.418   4.410
 3548SOL     OW11542   4.827   2.428   5.617
 3548SOL    HW111543   4.730   2.418   5.640
 3548SOL    HW211544   4.844   2.521   5.586
 3549SOL     OW11545   5.705   4.814   2.775
 3549SOL    HW111546   5.759   4.852   2.700
 3549SOL    HW211547   5.612   4.796   2.744
 3550SOL     OW11548   5.433   1.825   2.562
 3550SOL    HW111549   5.385   1.746   2.600
 3550SOL    HW211550   5.475   1.800   2.475
 3551SOL     OW11551   2.915   6.605   3.284
 3551SOL    HW111552   2.988   6.550   3.324
 3551SOL    HW211553   2.897   6.684   3.343
 3552SOL     OW11554   6.344   5.338   2.629
 3552SOL    HW111555   6.394   5.253   2.644
 3552SOL    HW211556   6.296   5.334   2.541
 3553SOL     OW11557   4.626   2.130   2.889
 3553SOL    HW111558   4.569   2.079   2.953
 3553SOL    HW211559   4.671   2.066   2.827
 3554SOL     OW11560   4.025   4.825   6.630
 3554SOL    HW111561   3.936   4.866   6.649
 3554SOL    HW211562   4.079   4.887   6.574
 3555SOL     OW11563   1.118   2.748   3.210
 3555SOL    HW111564   1.168   2.703   3.284
 3555SOL    HW211565   1.183   2.789   3.146
 3556SOL     OW11566   3.574   0.878   6.183
 3556SOL    HW111567   3.626   0.793   6.187
 3556SOL    HW211568   3.525   0.883   6.096
 3557SOL     OW11569   1.709   0.006   4.990
 3557SOL    HW111570   1.714   0.106   4.995
 3557SOL    HW211571   1.662   7.000   4.906
 3558SOL     OW11572   0.028   5.769   1.471
 3558SOL    HW111573   0.107   5.708   1.469
 3558SOL    HW211574   0.058   5.862   1.495
 3559SOL     OW11575   0.818   0.691   5.213
 3559SOL    HW111576   0.797   0.789   5.209
 3559SOL    HW211577   0.886   0.669   5.143
 3560SOL     OW11578   0.313   6.095   0.880
 3560SOL    HW111579   0.385   6.028   0.859
 3560SOL    HW211580   0.231   6.047   0.911
 3561SOL     OW11581   4.868   5.016   5.512
 3561SOL    HW111582   4.782   4.965   5.507
 3561SOL    HW211583   4.937   4.969   5.457
 3562SOL     OW11584   5.542   0.516   2.878
 3562SOL    HW111585   5.565   0.610   2.902
 3562SOL    HW211586   5.514   0.512   2.782
 3563SOL     OW11587   4.773   0.986   1.901
 3563SOL    HW111588   4.734   1.056   1.842
 3563SOL    HW211589   4.782   1.022   1.994
 3564SOL     OW11590   6.997   5.012   3.649
 3564SOL    HW111591   6.943   5.096   3.652
 3564SOL    HW211592   0.070   5.032   3.677
 3565SOL     OW11593   1.982   0.620   5.127
 3565SOL    HW111594   1.939   0.711   5.121
 3565SOL    HW211595   2.080   0.631   5.142
 3566SOL     OW11596   0.408   3.136   5.721
 3566SOL    HW111597   0.355   3.069   5.774
 3566SOL    HW211598   0.490   3.092   5.684
 3567SOL     OW11599   0.203   3.200   0.873
 3567SOL    HW111600   0.174   3.201   0.968
 3567SOL    HW211601   0.302   3.191   0.868
 3568SOL     OW11602   4.651   4.468   3.509
 3568SOL    HW111603   4.726   4.504   3.566
 3568SOL    HW211604   4.640   4.370   3.526
 3569SOL     OW11605   3.792   4.037   3.861
 3569SOL    HW111606   3.749   4.047   3.771
 3569SOL    HW211607   3.882   3.994   3.850
 3570SOL     OW11608   0.300   2.211   6.259
 3570SOL    HW111609   0.298   2.307   6.230
 3570SOL    HW211610   0.219   2.164   6.223
 3571SOL     OW11611   2.260   6.798   5.178
 3571SOL    HW111612   2.191   6.835   5.116
 3571SOL    HW211613   2.215   6.762   5.260
 3572SOL     OW11614   5.076   4.492   1.877
 3572SOL    HW111615   5.170   4.507   1.910
 3572SOL    HW211616   5.076   4.493   1.777
 3573SOL     OW11617   6.764   3.798   3.185
 3573SOL    HW111618   6.813   3.872   3.139
 3573SOL    HW211619   6.804   3.783   3.275
 3574SOL     OW11620   2.350   2.857   6.107
 3574SOL    HW111621   2.385   2.874   6.015
 3574SOL    HW211622   2.331   2.945   6.152
 3575SOL     OW11623   5.766   6.833   0.237
 3575SOL    HW111624   5.760   6.831   0.337
 3575SOL    HW211625   5.692   6.891   0.201
 3576SOL     OW11626   1.423   2.582   0.757
 3576SOL    HW111627   1.438   2.618   0.849
 3576SOL    HW211628   1.508   2.543   0.722
 3577SOL     OW11629   2.657   2.751   5.936
 3577SOL    HW111630   2.561   2.755   5.910
 3577SOL    HW211631   2.709   2.707   5.862
 3578SOL     OW11632   2.854   2.917   6.032
 3578SOL    HW111633   2.813   2.826   6.028
 3578SOL    HW211634   2.845   2.961   5.943
 3579SOL     OW11635   0.460   2.772   1.799
 3579SOL    HW111636   0.390   2.838   1.771
 3579SOL    HW211637   0.547   2.796   1.756
 3580SOL     OW11638   0.371   4.632   1.543
 3580SOL    HW111639   0.274   4.655   1.530
 3580SOL    HW211640   0.386   4.606   1.638
 3581SOL     OW11641   1.013   7.009   2.454
 3581SOL    HW111642   0.935   0.016   2.397
 3581SOL    HW211643   1.098   0.020   2.411
 3582SOL     OW11644   3.789   4.411   5.898
 3582SOL    HW111645   3.714   4.475   5.916
 3582SOL    HW211646   3.866   4.431   5.958
 3583SOL     OW11647   0.354   4.694   0.204
 3583SOL    HW111648   0.451   4.713   0.196
 3583SOL    HW211649   0.325   4.705   0.299
 3584SOL     OW11650   6.165   4.808   4.725
 3584SOL    HW111651   6.154   4.718   4.767
 3584SOL    HW211652   6.170   4.798   4.625
 3585SOL     OW11653   2.708   1.641   2.801
 3585SOL    HW111654   2.727   1.611   2.894
 3585SOL    HW211655   2.739   1.572   2.736
 3586SOL     OW11656   6.488   2.129   4.739
 3586SOL    HW111657   6.573   2.080   4.759
 3586SOL    HW211658   6.425   2.069   4.689
 3587SOL     OW11659   3.113   6.743   6.306
 3587SOL    HW111660   3.179   6.816   6.288
 3587SOL    HW211661   3.143   6.689   6.385
 3588SOL     OW11662   6.422   4.204   4.392
 3588SOL    HW111663   6.476   4.288   4.398
 3588SOL    HW211664   6.480   4.129   4.362
 3589SOL     OW11665   0.160   6.677   6.429
 3589SOL    HW111666   0.192   6.618   6.355
 3589SOL    HW211667   0.149   6.770   6.395
 3590SOL     OW11668   6.370   4.890   0.756
 3590SOL    HW111669   6.394   4.976   0.712
 3590SOL    HW211670   6.451   4.850   0.798
 3591SOL     OW11671   5.912   1.883   6.281
 3591SOL    HW111672   5.918   1.968   6.334
 3591SOL    HW211673   5.887   1.905   6.186
 3592SOL     OW11674   1.866   6.485   1.643
 3592SOL    HW111675   1.880   6.579   1.672
 3592SOL    HW211676   1.803   6.483   1.566
 3593SOL     OW11677   4.896   3.231   5.831
 3593SOL    HW111678   4.871   3.218   5.735
 3593SOL    HW211679   4.883   3.146   5.881
 3594SOL     OW11680   4.553   4.865   4.874
 3594SOL    HW111681   4.529   4.947   4.822
 3594SOL    HW211682   4.577   4.890   4.967
 3595SOL     OW11683   5.622   6.230   5.281
 3595SOL    HW111684   5.585   6.146   5.242
 3595SOL    HW211685   5.705   6.255   5.232
 3596SOL     OW11686   3.976   2.224   3.632
 3596SOL    HW111687   4.073   2.248   3.633
 3596SOL    HW211688   3.951   2.180   3.718
 3597SOL     OW11689   2.288   3.100   5.352
 3597SOL    HW111690   2.284   3.199   5.342
 3597SOL    HW211691   2.348   3.061   5.282
 3598SOL     OW11692   1.198   5.347   4.932
 3598SOL    HW111693   1.141   5.294   4.869
 3598SOL    HW211694   1.243   5.285   4.997
 3599SOL     OW11695   4.105   1.561   4.703
 3599SOL    HW111696   4.132   1.492   4.771
 3599SOL    HW211697   4.030   1.616   4.740
 3600SOL     OW11698   3.076   3.050   0.153
 3600SOL    HW111699   3.039   3.121   0.213
 3600SOL    HW211700   3.113   2.975   0.209
 3601SOL     OW11701   4.886   0.989   5.362
 3601SOL    HW111702   4.963   1.007   5.301
 3601SOL    HW211703   4.908   0.911   5.422
 3602SOL     OW11704   1.961   1.508   1.216
 3602SOL    HW111705   1.976   1.605   1.234
 3602SOL    HW211706   1.905   1.468   1.289
 3603SOL     OW11707   2.875   0.966   5.451
 3603SOL    HW111708   2.942   0.893   5.438
 3603SOL    HW211709   2.863   0.984   5.549
 3604SOL     OW11710   0.101   0.302   3.446
 3604SOL    HW111711   0.013   0.346   3.435
 3604SOL    HW211712   0.171   0.371   3.464
 3605SOL     OW11713   0.936   5.942   3.690
 3605SOL    HW111714   0.960   6.023   3.636
 3605SOL    HW211715   1.018   5.909   3.737
 3606SOL     OW11716   2.500   6.595   2.408
 3606SOL    HW111717   2.406   6.582   2.440
 3606SOL    HW211718   2.562   6.539   2.464
 3607SOL     OW11719   5.439   2.427   2.340
 3607SOL    HW111720   5.429   2.330   2.358
 3607SOL    HW211721   5.534   2.448   2.316
 3608SOL     OW11722   2.537   1.928   5.534
 3608SOL    HW111723   2.442   1.898   5.524
 3608SOL    HW211724   2.553   2.007   5.475
 3609SOL     OW11725   2.310   0.513   4.618
 3609SOL    HW111726   2.403   0.489   4.587
 3609SOL    HW211727   2.247   0.504   4.541
 3610SOL     OW11728   1.852   6.786   4.997
 3610SOL    HW111729   1.951   6.798   5.000
 3610SOL    HW211730   1.807   6.875   4.999
 3611SOL     OW11731   5.438   5.397   2.877
 3611SOL    HW111732   5.528   5.395   2.920
 3611SOL    HW211733   5.383   5.320   2.911
 3612SOL     OW11734   5.993   1.573   0.146
 3612SOL    HW111735   6.057   1.639   0.107
 3612SOL    HW211736   6.044   1.496   0.184
 3613SOL     OW11737   4.392   5.450   1.366
 3613SOL    HW111738   4.487   5.449   1.395
 3613SOL    HW211739   4.341   5.517   1.420
 3614SOL     OW11740   3.933   5.247   6.360
 3614SOL    HW111741   3.857   5.262   6.297
 3614SOL    HW211742   4.000   5.187   6.317
 3615SOL     OW11743   5.614   2.637   5.921
 3615SOL    HW111744   5.533   2.647   5.863
 3615SOL    HW211745   5.649   2.544   5.912
 3616SOL     OW11746   1.443   1.390   0.042
 3616SOL    HW111747   1.401   1.480   0.048
 3616SOL    HW211748   1.407   1.342   6.983
 3617SOL     OW11749   4.262   6.406   5.754
 3617SOL    HW111750   4.309   6.472   5.813
 3617SOL    HW211751   4.315   6.322   5.749
 3618SOL     OW11752   1.890   4.755   4.774
 3618SOL    HW111753   1.957   4.717   4.837
 3618SOL    HW211754   1.889   4.702   4.690
 3619SOL     OW11755   5.614   3.655   1.333
 3619SOL    HW111756   5.642   3.584   1.269
 3619SOL    HW211757   5.628   3.623   1.427
 3620SOL     OW11758   5.740   5.504   5.134
 3620SOL    HW111759   5.783   5.479   5.220
 3620SOL    HW211760   5.812   5.525   5.066
 3621SOL     OW11761   3.015   3.226   3.787
 3621SOL    HW111762   2.974   3.248   3.698
 3621SOL    HW211763   2.953   3.168   3.839
 3622SOL     OW11764   1.397   5.851   6.530
 3622SOL    HW111765   1.410   5.932   6.587
 3622SOL    HW211766   1.439   5.866   6.441
 3623SOL     OW11767   0.841   5.116   6.112
 3623SOL    HW111768   0.856   5.017   6.124
 3623SOL    HW211769   0.780   5.131   6.034
 3624SOL     OW11770   2.962   1.912   1.544
 3624SOL    HW111771   3.038   1.921   1.608
 3624SOL    HW211772   2.991   1.857   1.466
 3625SOL     OW11773   6.701   2.075   0.518
 3625SOL    HW111774   6.670   1.984   0.491
 3625SOL    HW211775   6.749   2.070   0.606
 3626SOL     OW11776   0.963   2.556   4.986
 3626SOL    HW111777   1.020   2.589   4.911
 3626SOL    HW211778   0.896   2.626   5.010
 3627SOL     OW11779   3.480   2.237   1.707
 3627SOL    HW111780   3.550   2.291   1.755
 3627SOL    HW211781   3.426   2.186   1.774
 3628SOL     OW11782   5.806   1.710   1.088
 3628SOL    HW111783   5.724   1.765   1.107
 3628SOL    HW211784   5.779   1.624   1.045
 3629SOL     OW11785   1.081   0.903   3.624
 3629SOL    HW111786   1.037   0.815   3.608
 3629SOL    HW211787   1.061   0.965   3.548
 3630SOL     OW11788   6.925   2.223   2.497
 3630SOL    HW111789   7.015   2.262   2.514
 3630SOL    HW211790   6.861   2.297   2.475
 3631SOL     OW11791   1.565   6.638   2.235
 3631SOL    HW111792   1.617   6.685   2.307
 3631SOL    HW211793   1.520   6.558   2.274
 3632SOL     OW11794   4.489   3.906   1.465
 3632SOL    HW111795   4.531   3.884   1.554
 3632SOL    HW211796   4.491   4.005   1.451
 3633SOL     OW11797   4.352   3.945   6.659
 3633SOL    HW111798   4.400   4.024   6.698
 3633SOL    HW211799   4.346   3.955   6.560
 3634SOL     OW11800   3.549   5.858   6.832
 3634SOL    HW111801   3.604   5.859   6.748
 3634SOL    HW211802   3.485   5.935   6.830
 3635SOL     OW11803   1.825   6.753   1.785
 3635SOL    HW111804   1.785   6.843   1.771
 3635SOL    HW211805   1.785   6.710   1.866
 3636SOL     OW11806   0.697   4.699   6.465
 3636SOL    HW111807   0.655   4.651   6.388
 3636SOL    HW211808   0.630   4.709   6.538
 3637SOL     OW11809   6.186   3.294   0.012
 3637SOL    HW111810   6.093   3.295   0.047
 3637SOL    HW211811   6.194   3.229   6.958
 3638SOL     OW11812   6.217   4.406   3.288
 3638SOL    HW111813   6.298   4.385   3.233
 3638SOL    HW211814   6.141   4.431   3.227
 3639SOL     OW11815   3.692   3.652   4.083
 3639SOL    HW111816   3.723   3.726   4.023
 3639SOL    HW211817   3.598   3.627   4.059
 3640SOL     OW11818   4.478   2.174   0.859
 3640SOL    HW111819   4.495   2.095   0.800
 3640SOL    HW211820   4.404   2.229   0.820
 3641SOL     OW11821   5.791   3.526   2.594
 3641SOL    HW111822   5.781   3.444   2.651
 3641SOL    HW211823   5.757   3.606   2.644
 3642SOL     OW11824   5.973   3.324   6.359
 3642SOL    HW111825   6.004   3.369   6.276
 3642SOL    HW211826   5.875   3.343   6.373
 3643SOL     OW11827   3.960   5.704   5.539
 3643SOL    HW111828   3.897   5.627   5.547
 3643SOL    HW211829   4.050   5.671   5.512
 3644SOL     OW11830   2.846   0.295   1.163
 3644SOL    HW111831   2.808   0.369   1.220
 3644SOL    HW211832   2.804   0.299   1.072
 3645SOL     OW11833   1.172   4.561   3.565
 3645SOL    HW111834   1.268   4.541   3.582
 3645SOL    HW211835   1.116   4.518   3.637
 3646SOL     OW11836   1.810   4.454   5.216
 3646SOL    HW111837   1.905   4.451   5.185
 3646SOL    HW211838   1.751   4.479   5.140
 3647SOL     OW11839   3.509   6.979   6.188
 3647SOL    HW111840   3.547   6.890   6.216
 3647SOL    HW211841   3.552   0.031   6.241
 3648SOL     OW11842   4.479   5.609   3.541
 3648SOL    HW111843   4.439   5.636   3.629
 3648SOL    HW211844   4.548   5.676   3.514
 3649SOL     OW11845   6.212   2.407   0.316
 3649SOL    HW111846   6.124   2.388   0.273
 3649SOL    HW211847   6.209   2.382   0.412
 3650SOL     OW11848   5.390   5.606   6.922
 3650SOL    HW111849   5.453   5.667   6.969
 3650SOL    HW211850   5.434   5.569   6.840
 3651SOL     OW11851   0.667   2.045   5.557
 3651SOL    HW111852   0.669   2.082   5.464
 3651SOL    HW211853   0.690   2.118   5.621
 3652SOL     OW11854   4.185   1.785   1.959
 3652SOL    HW111855   4.206   1.687   1.954
 3652SOL    HW211856   4.115   1.808   1.892
 3653SOL     OW11857   0.996   1.599   1.257
 3653SOL    HW111858   0.986   1.685   1.207
 3653SOL    HW211859   0.991   1.616   1.355
 3654SOL     OW11860   5.168   6.612   1.052
 3654SOL    HW111861   5.228   6.623   0.973
 3654SOL    HW211862   5.149   6.702   1.092
 3655SOL     OW11863   1.558   1.781   3.842
 3655SOL    HW111864   1.555   1.880   3.845
 3655SOL    HW211865   1.589   1.751   3.752
 3656SOL     OW11866   6.648   0.142   1.290
 3656SOL    HW111867   6.588   0.223   1.296
 3656SOL    HW211868   6.726   0.154   1.351
 3657SOL     OW11869   5.447   5.099   5.611
 3657SOL    HW111870   5.477   5.124   5.703
 3657SOL    HW211871   5.417   5.004   5.611
 3658SOL     OW11872   2.009   4.912   5.835
 3658SOL    HW111873   2.093   4.918   5.781
 3658SOL    HW211874   1.951   4.839   5.799
 3659SOL     OW11875   0.622   2.127   6.237
 3659SOL    HW111876   0.624   2.095   6.142
 3659SOL    HW211877   0.529   2.118   6.273
 3660SOL     OW11878   5.838   5.722   6.604
 3660SOL    HW111879   5.861   5.819   6.609
 3660SOL    HW211880   5.739   5.711   6.611
 3661SOL     OW11881   0.251   1.798   4.930
 3661SOL    HW111882   0.323   1.795   4.861
 3661SOL    HW211883   0.162   1.799   4.885
 3662SOL     OW11884   2.596   2.127   5.351
 3662SOL    HW111885   2.665   2.077   5.299
 3662SOL    HW211886   2.609   2.226   5.337
 3663SOL     OW11887   2.778   1.964   6.544
 3663SOL    HW111888   2.833   1.934   6.467
 3663SOL    HW211889   2.681   1.962   6.518
 3664SOL     OW11890   3.673   1.143   1.690
 3664SOL    HW111891   3.745   1.200   1.651
 3664SOL    HW211892   3.696   1.046   1.678
 3665SOL     OW11893   0.972   5.870   5.983
 3665SOL    HW111894   0.986   5.968   5.991
 3665SOL    HW211895   1.054   5.827   5.946
 3666SOL     OW11896   2.069   2.685   4.829
 3666SOL    HW111897   2.098   2.590   4.840
 3666SOL    HW211898   2.035   2.700   4.737
 3667SOL     OW11899   2.388   0.471   1.204
 3667SOL    HW111900   2.395   0.441   1.299
 3667SOL    HW211901   2.295   0.501   1.185
 3668SOL     OW11902   6.749   0.796   0.958
 3668SOL    HW111903   6.814   0.860   0.918
 3668SOL    HW211904   6.779   0.770   1.050
 3669SOL     OW11905   0.493   1.655   3.453
 3669SOL    HW111906   0.509   1.600   3.535
 3669SOL    HW211907   0.411   1.622   3.406
 3670SOL     OW11908   2.649   6.734   2.240
 3670SOL    HW111909   2.583   6.805   2.215
 3670SOL    HW211910   2.602   6.656   2.281
 3671SOL     OW11911   6.297   0.223   3.802
 3671SOL    HW111912   6.235   0.301   3.805
 3671SOL    HW211913   6.391   0.256   3.809
 3672SOL     OW11914   3.248   6.981   3.423
 3672SOL    HW111915   3.339   7.005   3.391
 3672SOL    HW211916   3.254   6.939   3.514
 3673SOL     OW11917   3.523   6.307   1.173
 3673SOL    HW111918   3.557   6.319   1.266
 3673SOL    HW211919   3.510   6.210   1.154
 3674SOL     OW11920   1.518   4.249   6.750
 3674SOL    HW111921   1.438   4.197   6.780
 3674SOL    HW211922   1.596   4.227   6.809
 3675SOL     OW11923   1.338   0.313   3.571
 3675SOL    HW111924   1.374   0.377   3.503
 3675SOL    HW211925   1.329   0.360   3.659
 3676SOL     OW11926   3.530   2.175   4.122
 3676SOL    HW111927   3.489   2.250   4.070
 3676SOL    HW211928   3.573   2.110   4.059
 3677SOL     OW11929   2.076   0.762   4.443
 3677SOL    HW111930   2.100   0.859   4.447
 3677SOL    HW211931   1.996   0.745   4.501
 3678SOL     OW11932   1.042   0.423   4.220
 3678SOL    HW111933   1.083   0.511   4.195
 3678SOL    HW211934   1.097   0.379   4.291
 3679SOL     OW11935   4.057   0.681   2.559
 3679SOL    HW111936   4.110   0.619   2.616
 3679SOL    HW211937   4.011   0.748   2.616
 3680SOL     OW11938   3.490   1.369   4.739
 3680SOL    HW111939   3.434   1.348   4.659
 3680SOL    HW211940   3.450   1.447   4.788
 3681SOL     OW11941   1.301   6.269   4.388
 3681SOL    HW111942   1.385   6.321   4.373
 3681SOL    HW211943   1.325   6.172   4.401
 3682SOL     OW11944   5.823   2.147   1.682
 3682SOL    HW111945   5.906   2.194   1.653
 3682SOL    HW211946   5.765   2.129   1.602
 3683SOL     OW11947   5.831   1.416   6.553
 3683SOL    HW111948   5.800   1.508   6.576
 3683SOL    HW211949   5.857   1.368   6.637
 3684SOL     OW11950   2.149   6.398   5.599
 3684SOL    HW111951   2.246   6.405   5.622
 3684SOL    HW211952   2.139   6.358   5.508
 3685SOL     OW11953   2.252   6.169   5.037
 3685SOL    HW111954   2.178   6.105   5.016
 3685SOL    HW211955   2.289   6.206   4.951
 3686SOL     OW11956   0.630   4.184   2.041
 3686SOL    HW111957   0.591   4.111   1.985
 3686SOL    HW211958   0.667   4.144   2.126
 3687SOL     OW11959   5.342   4.792   4.515
 3687SOL    HW111960   5.280   4.762   4.443
 3687SOL    HW211961   5.314   4.752   4.602
 3688SOL     OW11962   6.212   2.641   0.611
 3688SOL    HW111963   6.252   2.708   0.674
 3688SOL    HW211964   6.165   2.690   0.537
 3689SOL     OW11965   1.329   6.771   5.891
 3689SOL    HW111966   1.274   6.838   5.840
 3689SOL    HW211967   1.284   6.681   5.886
 3690SOL     OW11968   5.128   5.478   1.908
 3690SOL    HW111969   5.149   5.558   1.963
 3690SOL    HW211970   5.210   5.422   1.899
 3691SOL     OW11971   1.649   2.921   0.788
 3691SOL    HW111972   1.613   2.974   0.865
 3691SOL    HW211973   1.698   2.981   0.726
 3692SOL     OW11974   0.723   3.077   5.936
 3692SOL    HW111975   0.667   3.152   5.971
 3692SOL    HW211976   0.681   3.041   5.852
 3693SOL     OW11977   6.452   1.758   1.987
 3693SOL    HW111978   6.445   1.774   2.085
 3693SOL    HW211979   6.360   1.754   1.947
 3694SOL     OW11980   6.383   6.907   2.757
 3694SOL    HW111981   6.416   6.818   2.726
 3694SOL    HW211982   6.336   6.954   2.682
 3695SOL     OW11983   5.243   3.391   3.024
 3695SOL    HW111984   5.215   3.320   2.959
 3695SOL    HW211985   5.262   3.349   3.113
 3696SOL     OW11986   4.035   0.481   4.421
 3696SOL    HW111987   3.970   0.405   4.409
 3696SOL    HW211988   4.128   0.445   4.422
 3697SOL     OW11989   6.704   6.321   2.822
 3697SOL    HW111990   6.621   6.276   2.789
 3697SOL    HW211991   6.681   6.382   2.898
 3698SOL     OW11992   1.491   6.982   2.480
 3698SOL    HW111993   1.447   0.031   2.536
 3698SOL    HW211994   1.476   7.003   2.383
 3699SOL     OW11995   2.777   2.232   3.615
 3699SOL    HW111996   2.702   2.184   3.662
 3699SOL    HW211997   2.774   2.329   3.637
 3700SOL     OW11998   1.100   5.202   4.747
 3700SOL    HW111999   1.064   5.233   4.659
 3700SOL    HW212000   1.025   5.172   4.806
 3701SOL     OW12001   1.271   0.323   1.962
 3701SOL    HW112002   1.288   0.268   1.880
 3701SOL    HW212003   1.188   0.292   2.007
 3702SOL     OW12004   5.953   4.499   3.144
 3702SOL    HW112005   5.889   4.508   3.068
 3702SOL    HW212006   5.930   4.417   3.197
 3703SOL     OW12007   1.169   1.839   3.690
 3703SOL    HW112008   1.213   1.777   3.625
 3703SOL    HW212009   1.145   1.925   3.643
 3704SOL     OW12010   6.683   1.457   0.383
 3704SOL    HW112011   6.599   1.470   0.331
 3704SOL    HW212012   6.724   1.545   0.404
 3705SOL     OW12013   5.000   4.567   3.724
 3705SOL    HW112014   4.993   4.629   3.646
 3705SOL    HW212015   5.095   4.564   3.756
 3706SOL     OW12016   1.409   4.264   0.184
 3706SOL    HW112017   1.501   4.291   0.154
 3706SOL    HW212018   1.343   4.332   0.153
 3707SOL     OW12019   1.484   5.267   3.497
 3707SOL    HW112020   1.482   5.281   3.597
 3707SOL    HW212021   1.433   5.341   3.453
 3708SOL     OW12022   2.384   6.033   1.108
 3708SOL    HW112023   2.303   6.085   1.081
 3708SOL    HW212024   2.427   6.078   1.186
 3709SOL     OW12025   1.050   1.522   2.013
 3709SOL    HW112026   1.076   1.604   1.961
 3709SOL    HW212027   1.130   1.464   2.026
 3710SOL     OW12028   0.381   4.372   5.566
 3710SOL    HW112029   0.318   4.376   5.644
 3710SOL    HW212030   0.404   4.276   5.547
 3711SOL     OW12031   1.107   5.752   4.590
 3711SOL    HW112032   1.071   5.702   4.670
 3711SOL    HW212033   1.075   5.846   4.593
 3712SOL     OW12034   1.657   5.283   4.584
 3712SOL    HW112035   1.627   5.370   4.622
 3712SOL    HW212036   1.660   5.214   4.656
 3713SOL     OW12037   6.101   0.690   4.141
 3713SOL    HW112038   6.186   0.638   4.144
 3713SOL    HW212039   6.079   0.712   4.046
 3714SOL     OW12040   0.800   4.381   0.453
 3714SOL    HW112041   0.777   4.342   0.364
 3714SOL    HW212042   0.723   4.434   0.488
 3715SOL     OW12043   5.763   5.066   3.849
 3715SOL    HW112044   5.811   4.991   3.802
 3715SOL    HW212045   5.713   5.121   3.781
 3716SOL     OW12046   4.906   5.650   4.618
 3716SOL    HW112047   4.813   5.685   4.622
 3716SOL    HW212048   4.910   5.560   4.662
 3717SOL     OW12049   4.552   1.033   0.798
 3717SOL    HW112050   4.569   0.966   0.726
 3717SOL    HW212051   4.632   1.092   0.808
 3718SOL     OW12052   6.198   6.688   6.232
 3718SOL    HW112053   6.200   6.734   6.321
 3718SOL    HW212054   6.291   6.673   6.200
 3719SOL     OW12055   3.598   4.029   6.975
 3719SOL    HW112056   3.538   4.065   6.904
 3719SOL    HW212057   3.609   4.096   0.027
 3720SOL     OW12058   0.092   3.533   1.118
 3720SOL    HW112059   0.041   3.588   1.184
 3720SOL    HW212060   0.165   3.483   1.166
 3721SOL     OW12061   6.808   6.708   5.549
 3721SOL    HW112062   6.838   6.631   5.605
 3721SOL    HW212063   6.708   6.706   5.541
 3722SOL     OW12064   5.385   6.575   3.014
 3722SOL    HW112065   5.376   6.479   2.988
 3722SOL    HW212066   5.481   6.603   3.006
 3723SOL     OW12067   4.494   3.563   0.448
 3723SOL    HW112068   4.536   3.474   0.435
 3723SOL    HW212069   4.441   3.564   0.532
 3724SOL     OW12070   0.600   5.089   4.584
 3724SOL    HW112071   0.600   5.188   4.594
 3724SOL    HW212072   0.567   5.046   4.668
 3725SOL     OW12073   1.489   6.117   6.908
 3725SOL    HW112074   1.439   6.136   6.992
 3725SOL    HW212075   1.521   6.022   6.908
 3726SOL     OW12076   5.855   3.809   4.802
 3726SOL    HW112077   5.789   3.738   4.778
 3726SOL    HW212078   5.809   3.898   4.804
 3727SOL     OW12079   6.877   3.092   3.797
 3727SOL    HW112080   6.863   3.154   3.720
 3727SOL    HW212081   6.847   3.000   3.772
 3728SOL     OW12082   2.846   2.877   0.535
 3728SOL    HW112083   2.784   2.955   0.529
 3728SOL    HW212084   2.886   2.873   0.626
 3729SOL     OW12085   0.966   0.163   5.962
 3729SOL    HW112086   0.951   0.188   5.866
 3729SOL    HW212087   1.017   0.235   6.008
 3730SOL     OW12088   4.681   5.882   4.710
 3730SOL    HW112089   4.704   5.810   4.775
 3730SOL    HW212090   4.708   5.971   4.747
 3731SOL     OW12091   0.216   2.163   6.873
 3731SOL    HW112092   0.308   2.165   6.910
 3731SOL    HW212093   0.165   2.243   6.906
 3732SOL     OW12094   3.463   2.474   6.742
 3732SOL    HW112095   3.527   2.400   6.721
 3732SOL    HW212096   3.379   2.461   6.689
 3733SOL     OW12097   1.697   0.477   3.337
 3733SOL    HW112098   1.771   0.503   3.275
 3733SOL    HW212099   1.734   0.417   3.409
 3734SOL     OW12100   4.175   0.041   0.697
 3734SOL    HW112101   4.210   0.128   0.663
 3734SOL    HW212102   4.182   0.039   0.797
 3735SOL     OW12103   4.495   0.058   2.879
 3735SOL    HW112104   4.585   0.073   2.920
 3735SOL    HW212105   4.503   0.064   2.779
 3736SOL     OW12106   6.703   0.858   0.343
 3736SOL    HW112107   6.610   0.887   0.319
 3736SOL    HW212108   6.699   0.777   0.402
 3737SOL     OW12109   6.414   2.164   2.569
 3737SOL    HW112110   6.435   2.067   2.583
 3737SOL    HW212111   6.464   2.219   2.635
 3738SOL     OW12112   6.603   6.697   1.295
 3738SOL    HW112113   6.652   6.723   1.377
 3738SOL    HW212114   6.585   6.778   1.239
 3739SOL     OW12115   3.345   3.363   0.351
 3739SOL    HW112116   3.336   3.266   0.326
 3739SOL    HW212117   3.381   3.414   0.273
 3740SOL     OW12118   4.831   5.427   6.389
 3740SOL    HW112119   4.908   5.364   6.403
 3740SOL    HW212120   4.758   5.380   6.339
 3741SOL     OW12121   5.205   2.787   0.320
 3741SOL    HW112122   5.301   2.759   0.321
 3741SOL    HW212123   5.167   2.771   0.229
 3742SOL     OW12124   3.795   5.246   0.915
 3742SOL    HW112125   3.823   5.281   0.826
 3742SOL    HW212126   3.699   5.268   0.932
 3743SOL     OW12127   3.569   3.164   1.256
 3743SOL    HW112128   3.647   3.141   1.314
 3743SOL    HW212129   3.515   3.082   1.240
 3744SOL     OW12130   0.390   6.682   2.247
 3744SOL    HW112131   0.359   6.642   2.161
 3744SOL    HW212132   0.373   6.781   2.246
 3745SOL     OW12133   4.912   3.433   2.392
 3745SOL    HW112134   4.889   3.336   2.382
 3745SOL    HW212135   4.908   3.478   2.303
 3746SOL     OW12136   6.273   0.458   4.156
 3746SOL    HW112137   6.195   0.428   4.101
 3746SOL    HW212138   6.339   0.383   4.166
 3747SOL     OW12139   3.587   6.664   5.485
 3747SOL    HW112140   3.539   6.747   5.456
 3747SOL    HW212141   3.557   6.639   5.577
 3748SOL     OW12142   4.516   1.758   2.720
 3748SOL    HW112143   4.610   1.763   2.755
 3748SOL    HW212144   4.486   1.663   2.716
 3749SOL     OW12145   0.238   6.428   2.302
 3749SOL    HW112146   0.270   6.506   2.249
 3749SOL    HW212147   0.307   6.402   2.369
 3750SOL     OW12148   5.421   4.480   0.669
 3750SOL    HW112149   5.515   4.487   0.701
 3750SOL    HW212150   5.392   4.384   0.668
 3751SOL     OW12151   1.856   3.847   2.431
 3751SOL    HW112152   1.915   3.825   2.509
 3751SOL    HW212153   1.902   3.911   2.371
 3752SOL     OW12154   0.808   6.403   6.065
 3752SOL    HW112155   0.810   6.344   5.985
 3752SOL    HW212156   0.837   6.352   6.145
 3753SOL     OW12157   6.642   0.206   4.702
 3753SOL    HW112158   6.563   0.218   4.763
 3753SOL    HW212159   6.692   0.124   4.729
 3754SOL     OW12160   6.838   6.623   1.747
 3754SOL    HW112161   6.846   6.721   1.768
 3754SOL    HW212162   6.869   6.569   1.825
 3755SOL     OW12163   5.181   2.636   3.047
 3755SOL    HW112164   5.180   2.692   2.964
 3755SOL    HW212165   5.136   2.686   3.121
 3756SOL     OW12166   3.155   0.252   6.473
 3756SOL    HW112167   3.119   0.205   6.393
 3756SOL    HW212168   3.211   0.330   6.444
 3757SOL     OW12169   3.358   5.114   6.811
 3757SOL    HW112170   3.317   5.048   6.748
 3757SOL    HW212171   3.456   5.100   6.816
 3758SOL     OW12172   0.904   0.706   3.939
 3758SOL    HW112173   0.906   0.788   3.882
 3758SOL    HW212174   0.980   0.708   4.004
 3759SOL     OW12175   4.467   4.695   0.040
 3759SOL    HW112176   4.496   4.787   0.067
 3759SOL    HW212177   4.461   4.689   6.962
 3760SOL     OW12178   1.775   2.526   5.310
 3760SOL    HW112179   1.841   2.601   5.305
 3760SOL    HW212180   1.692   2.551   5.260
 3761SOL     OW12181   6.884   6.485   3.449
 3761SOL    HW112182   6.950   6.503   3.522
 3761SOL    HW212183   6.898   6.393   3.413
 3762SOL     OW12184   0.259   3.595   6.718
 3762SOL    HW112185   0.294   3.502   6.716
 3762SOL    HW212186   0.225   3.620   6.627
 3763SOL     OW12187   6.447   3.645   6.283
 3763SOL    HW112188   6.465   3.628   6.186
 3763SOL    HW212189   6.352   3.675   6.294
 3764SOL     OW12190   2.046   6.613   3.684
 3764SOL    HW112191   2.118   6.681   3.698
 3764SOL    HW212192   2.084   6.531   3.641
 3765SOL     OW12193   5.514   1.129   4.285
 3765SOL    HW112194   5.546   1.161   4.374
 3765SOL    HW212195   5.504   1.029   4.288
 3766SOL     OW12196   1.623   0.169   5.575
 3766SOL    HW112197   1.535   0.215   5.577
 3766SOL    HW212198   1.692   0.226   5.620
 3767SOL     OW12199   1.632   4.730   1.350
 3767SOL    HW112200   1.634   4.792   1.429
 3767SOL    HW212201   1.725   4.711   1.320
 3768SOL     OW12202   4.779   6.627   0.794
 3768SOL    HW112203   4.788   6.574   0.879
 3768SOL    HW212204   4.857   6.689   0.786
 3769SOL     OW12205   4.608   6.397   5.064
 3769SOL    HW112206   4.627   6.301   5.082
 3769SOL    HW212207   4.653   6.453   5.133
 3770SOL     OW12208   2.232   1.716   0.208
 3770SOL    HW112209   2.176   1.654   0.262
 3770SOL    HW212210   2.185   1.804   0.198
 3771SOL     OW12211   5.118   1.374   5.747
 3771SOL    HW112212   5.043   1.397   5.685
 3771SOL    HW212213   5.168   1.296   5.711
 3772SOL     OW12214   5.179   1.146   2.684
 3772SOL    HW112215   5.253   1.112   2.742
 3772SOL    HW212216   5.173   1.090   2.601
 3773SOL     OW12217   6.768   2.885   6.712
 3773SOL    HW112218   6.835   2.814   6.732
 3773SOL    HW212219   6.733   2.923   6.798
 3774SOL     OW12220   0.368   1.129   1.883
 3774SOL    HW112221   0.362   1.196   1.957
 3774SOL    HW212222   0.276   1.104   1.853
 3775SOL     OW12223   5.500   3.284   3.619
 3775SOL    HW112224   5.533   3.335   3.699
 3775SOL    HW212225   5.578   3.247   3.569
 3776SOL     OW12226   2.892   3.185   6.992
 3776SOL    HW112227   2.793   3.186   7.007
 3776SOL    HW212228   2.932   3.107   0.017
 3777SOL     OW12229   1.961   4.245   3.699
 3777SOL    HW112230   1.981   4.204   3.788
 3777SOL    HW212231   1.906   4.328   3.713
 3778SOL     OW12232   2.183   6.685   2.151
 3778SOL    HW112233   2.187   6.760   2.085
 3778SOL    HW212234   2.142   6.717   2.236
 3779SOL     OW12235   3.205   5.093   5.996
 3779SOL    HW112236   3.138   5.145   5.942
 3779SOL    HW212237   3.218   5.003   5.955
 3780SOL     OW12238   2.788   0.252   4.690
 3780SOL    HW112239   2.856   0.242   4.617
 3780SOL    HW212240   2.834   0.280   4.775
 3781SOL     OW12241   3.167   5.392   4.826
 3781SOL    HW112242   3.152   5.294   4.839
 3781SOL    HW212243   3.082   5.434   4.793
 3782SOL     OW12244   2.148   2.141   3.235
 3782SOL    HW112245   2.213   2.075   3.196
 3782SOL    HW212246   2.126   2.115   3.329
 3783SOL     OW12247   4.411   5.511   5.506
 3783SOL    HW112248   4.477   5.511   5.431
 3783SOL    HW212249   4.352   5.591   5.499
 3784SOL     OW12250   4.743   1.265   3.516
 3784SOL    HW112251   4.667   1.294   3.575
 3784SOL    HW212252   4.710   1.251   3.423
 3785SOL     OW12253   1.632   1.558   1.386
 3785SOL    HW112254   1.671   1.466   1.399
 3785SOL    HW212255   1.608   1.570   1.290
 3786SOL     OW12256   3.249   5.529   3.187
 3786SOL    HW112257   3.172   5.592   3.190
 3786SOL    HW212258   3.235   5.461   3.115
 3787SOL     OW12259   3.778   1.640   4.071
 3787SOL    HW112260   3.777   1.731   4.029
 3787SOL    HW212261   3.710   1.582   4.025
 3788SOL     OW12262   6.073   2.921   2.501
 3788SOL    HW112263   6.150   2.857   2.502
 3788SOL    HW212264   6.009   2.895   2.428
 3789SOL     OW12265   1.365   5.172   2.845
 3789SOL    HW112266   1.339   5.198   2.752
 3789SOL    HW212267   1.329   5.082   2.866
 3790SOL     OW12268   1.993   3.542   4.012
 3790SOL    HW112269   2.042   3.492   4.083
 3790SOL    HW212270   1.922   3.483   3.973
 3791SOL     OW12271   5.231   0.282   2.216
 3791SOL    HW112272   5.265   0.191   2.241
 3791SOL    HW212273   5.309   0.344   2.205
 3792SOL     OW12274   0.052   6.667   5.355
 3792SOL    HW112275   7.011   6.740   5.327
 3792SOL    HW212276   0.001   6.582   5.369
 3793SOL     OW12277   2.337   0.342   2.635
 3793SOL    HW112278   2.291   0.350   2.723
 3793SOL    HW212279   2.367   0.432   2.605
 3794SOL     OW12280   4.315   6.447   2.126
 3794SOL    HW112281   4.274   6.528   2.083
 3794SOL    HW212282   4.275   6.364   2.087
 3795SOL     OW12283   5.263   6.800   6.698
 3795SOL    HW112284   5.235   6.878   6.642
 3795SOL    HW212285   5.357   6.773   6.674
 3796SOL     OW12286   1.328   2.916   2.045
 3796SOL    HW112287   1.263   2.990   2.031
 3796SOL    HW212288   1.307   2.869   2.131
 3797SOL     OW12289   0.118   5.121   2.803
 3797SOL    HW112290   0.038   5.095   2.858
 3797SOL    HW212291   0.133   5.219   2.812
 3798SOL     OW12292   1.945   4.438   2.269
 3798SOL    HW112293   2.015   4.504   2.297
 3798SOL    HW212294   1.988   4.360   2.224
 3799SOL     OW12295   1.739   6.939   5.508
 3799SOL    HW112296   1.765   6.900   5.597
 3799SOL    HW212297   1.703   0.010   5.522
 3800SOL     OW12298   4.866   3.229   4.688
 3800SOL    HW112299   4.849   3.275   4.775
 3800SOL    HW212300   4.825   3.138   4.689
 3801SOL     OW12301   0.250   0.054   6.208
 3801SOL    HW112302   0.253   6.993   6.264
 3801SOL    HW212303   0.155   0.083   6.196
 3802SOL     OW12304   1.303   2.505   5.201
 3802SOL    HW112305   1.358   2.428   5.232
 3802SOL    HW212306   1.206   2.479   5.203
 3803SOL     OW12307   3.712   1.344   0.832
 3803SOL    HW112308   3.694   1.266   0.891
 3803SOL    HW212309   3.770   1.410   0.880
 3804SOL     OW12310   4.838   2.152   5.527
 3804SOL    HW112311   4.823   2.251   5.522
 3804SOL    HW212312   4.935   2.133   5.514
 3805SOL     OW12313   2.161   4.071   1.448
 3805SOL    HW112314   2.206   4.096   1.533
 3805SOL    HW212315   2.113   3.984   1.460
 3806SOL     OW12316   2.403   1.692   0.703
 3806SOL    HW112317   2.413   1.757   0.628
 3806SOL    HW212318   2.307   1.664   0.710
 3807SOL     OW12319   1.233   6.532   3.309
 3807SOL    HW112320   1.245   6.605   3.242
 3807SOL    HW212321   1.219   6.573   3.400
 3808SOL     OW12322   3.512   0.215   1.354
 3808SOL    HW112323   3.515   0.265   1.268
 3808SOL    HW212324   3.459   0.267   1.421
 3809SOL     OW12325   4.497   0.760   6.200
 3809SOL    HW112326   4.425   0.704   6.160
 3809SOL    HW212327   4.577   0.760   6.140
 3810SOL     OW12328   2.656   3.123   5.380
 3810SOL    HW112329   2.751   3.094   5.378
 3810SOL    HW212330   2.604   3.073   5.310
 3811SOL     OW12331   0.816   5.639   5.897
 3811SOL    HW112332   0.796   5.652   5.799
 3811SOL    HW212333   0.828   5.729   5.940
 3812SOL     OW12334   5.312   1.290   5.018
 3812SOL    HW112335   5.241   1.358   5.035
 3812SOL    HW212336   5.391   1.309   5.076
 3813SOL     OW12337   3.678   4.748   1.608
 3813SOL    HW112338   3.631   4.713   1.688
 3813SOL    HW212339   3.613   4.794   1.547
 3814SOL     OW12340   0.946   6.454   2.070
 3814SOL    HW112341   0.870   6.389   2.074
 3814SOL    HW212342   1.015   6.430   2.137
 3815SOL     OW12343   5.157   2.191   1.669
 3815SOL    HW112344   5.147   2.128   1.746
 3815SOL    HW212345   5.208   2.272   1.699
 3816SOL     OW12346   0.974   6.497   1.083
 3816SOL    HW112347   0.877   6.511   1.063
 3816SOL    HW212348   1.023   6.484   0.997
 3817SOL     OW12349   5.232   2.032   5.714
 3817SOL    HW112350   5.237   1.933   5.708
 3817SOL    HW212351   5.194   2.059   5.802
 3818SOL     OW12352   5.241   5.312   2.218
 3818SOL    HW112353   5.299   5.367   2.279
 3818SOL    HW212354   5.245   5.216   2.245
 3819SOL     OW12355   5.535   4.195   6.222
 3819SOL    HW112356   5.603   4.140   6.272
 3819SOL    HW212357   5.452   4.141   6.208
 3820SOL     OW12358   5.548   6.451   4.290
 3820SOL    HW112359   5.500   6.536   4.267
 3820SOL    HW212360   5.508   6.412   4.373
 3821SOL     OW12361   0.933   4.273   2.074
 3821SOL    HW112362   0.960   4.198   2.014
 3821SOL    HW212363   0.853   4.319   2.037
 3822SOL     OW12364   2.361   5.135   1.933
 3822SOL    HW112365   2.415   5.178   2.005
 3822SOL    HW212366   2.374   5.036   1.936
 3823SOL     OW12367   3.302   2.657   5.337
 3823SOL    HW112368   3.257   2.612   5.261
 3823SOL    HW212369   3.300   2.598   5.417
 3824SOL     OW12370   0.220   2.439   6.713
 3824SOL    HW112371   0.136   2.391   6.690
 3824SOL    HW212372   0.240   2.425   6.810
 3825SOL     OW12373   6.770   6.994   6.262
 3825SOL    HW112374   6.771   6.984   6.163
 3825SOL    HW212375   6.679   6.973   6.297
 3826SOL     OW12376   6.763   2.391   1.492
 3826SOL    HW112377   6.705   2.309   1.489
 3826SOL    HW212378   6.844   2.372   1.548
 3827SOL     OW12379   4.390   3.567   0.709
 3827SOL    HW112380   4.317   3.536   0.769
 3827SOL    HW212381   4.412   3.662   0.729
 3828SOL     OW12382   4.162   1.239   2.131
 3828SOL    HW112383   4.111   1.191   2.202
 3828SOL    HW212384   4.098   1.284   2.068
 3829SOL     OW12385   1.783   5.009   3.605
 3829SOL    HW112386   1.791   4.936   3.536
 3829SOL    HW212387   1.874   5.044   3.627
 3830SOL     OW12388   2.619   0.719   4.708
 3830SOL    HW112389   2.651   0.625   4.695
 3830SOL    HW212390   2.694   0.776   4.739
 3831SOL     OW12391   3.833   1.474   2.089
 3831SOL    HW112392   3.806   1.553   2.034
 3831SOL    HW212393   3.923   1.492   2.131
 3832SOL     OW12394   6.040   0.128   2.873
 3832SOL    HW112395   6.136   0.143   2.849
 3832SOL    HW212396   6.028   0.034   2.905
 3833SOL     OW12397   0.999   5.193   6.655
 3833SOL    HW112398   0.956   5.190   6.565
 3833SOL    HW212399   0.960   5.268   6.709
 3834SOL     OW12400   2.447   2.356   0.737
 3834SOL    HW112401   2.391   2.287   0.783
 3834SOL    HW212402   2.410   2.447   0.756
 3835SOL     OW12403   3.476   6.092   4.676
 3835SOL    HW112404   3.460   6.066   4.772
 3835SOL    HW212405   3.418   6.038   4.616
 3836SOL     OW12406   1.002   3.538   5.748
 3836SOL    HW112407   0.911   3.540   5.789
 3836SOL    HW212408   1.070   3.515   5.817
 3837SOL     OW12409   3.455   3.501   0.108
 3837SOL    HW112410   3.537   3.445   0.095
 3837SOL    HW212411   3.417   3.526   0.019
 3838SOL     OW12412   6.007   3.484   5.785
 3838SOL    HW112413   5.930   3.449   5.839
 3838SOL    HW212414   6.013   3.433   5.700
 3839SOL     OW12415   6.056   6.439   6.160
 3839SOL    HW112416   6.085   6.371   6.228
 3839SOL    HW212417   6.093   6.529   6.185
 3840SOL     OW12418   1.908   0.765   3.706
 3840SOL    HW112419   1.883   0.862   3.706
 3840SOL    HW212420   1.852   0.717   3.774
 3841SOL     OW12421   0.380   3.924   4.831
 3841SOL    HW112422   0.431   3.843   4.860
 3841SOL    HW212423   0.438   4.005   4.841
 3842SOL     OW12424   1.209   5.188   6.869
 3842SOL    HW112425   1.206   5.097   6.911
 3842SOL    HW212426   1.142   5.192   6.795
 3843SOL     OW12427   5.973   4.262   0.957
 3843SOL    HW112428   6.039   4.337   0.968
 3843SOL    HW212429   5.955   4.247   0.860
 3844SOL     OW12430   2.076   4.456   6.611
 3844SOL    HW112431   2.041   4.385   6.672
 3844SOL    HW212432   2.168   4.431   6.580
 3845SOL     OW12433   3.393   3.448   3.859
 3845SOL    HW112434   3.356   3.505   3.932
 3845SOL    HW212435   3.411   3.505   3.778
 3846SOL     OW12436   6.881   4.439   3.477
 3846SOL    HW112437   6.979   4.461   3.477
 3846SOL    HW212438   6.858   4.392   3.562
 3847SOL     OW12439   0.868   0.264   0.538
 3847SOL    HW112440   0.885   0.213   0.454
 3847SOL    HW212441   0.871   0.362   0.519
 3848SOL     OW12442   3.392   5.160   0.420
 3848SOL    HW112443   3.388   5.259   0.434
 3848SOL    HW212444   3.396   5.113   0.508
 3849SOL     OW12445   2.051   2.658   6.077
 3849SOL    HW112446   2.000   2.587   6.126
 3849SOL    HW212447   2.149   2.640   6.085
 3850SOL     OW12448   2.462   3.605   1.636
 3850SOL    HW112449   2.479   3.703   1.627
 3850SOL    HW212450   2.484   3.575   1.729
 3851SOL     OW12451   2.227   2.437   1.800
 3851SOL    HW112452   2.142   2.473   1.762
 3851SOL    HW212453   2.296   2.509   1.801
 3852SOL     OW12454   4.622   1.011   5.902
 3852SOL    HW112455   4.564   1.059   5.837
 3852SOL    HW212456   4.718   1.033   5.883
 3853SOL     OW12457   1.522   2.832   2.457
 3853SOL    HW112458   1.552   2.905   2.518
 3853SOL    HW212459   1.571   2.838   2.370
 3854SOL     OW12460   1.152   2.790   4.681
 3854SOL    HW112461   1.061   2.831   4.671
 3854SOL    HW212462   1.222   2.861   4.672
 3855SOL     OW12463   6.911   2.127   5.409
 3855SOL    HW112464   6.934   2.035   5.376
 3855SOL    HW212465   6.847   2.120   5.485
 3856SOL     OW12466   1.004   6.359   5.375
 3856SOL    HW112467   0.953   6.408   5.445
 3856SOL    HW212468   1.000   6.409   5.289
 3857SOL     OW12469   0.944   6.961   5.616
 3857SOL    HW112470   0.997   0.008   5.564
 3857SOL    HW212471   0.982   6.952   5.708
 3858SOL     OW12472   2.197   5.330   6.977
 3858SOL    HW112473   2.254   5.282   0.023
 3858SOL    HW212474   2.225   5.425   6.972
 3859SOL     OW12475   6.823   2.394   1.919
 3859SOL    HW112476   6.844   2.354   1.830
 3859SOL    HW212477   6.735   2.441   1.915
 3860SOL     OW12478   2.323   6.704   4.833
 3860SOL    HW112479   2.225   6.714   4.816
 3860SOL    HW212480   2.375   6.746   4.759
 3861SOL     OW12481   4.446   4.479   0.952
 3861SOL    HW112482   4.546   4.482   0.944
 3861SOL    HW212483   4.420   4.413   1.022
 3862SOL     OW12484   1.133   5.096   6.015
 3862SOL    HW112485   1.130   5.148   5.929
 3862SOL    HW212486   1.048   5.110   6.066
 3863SOL     OW12487   3.236   2.861   0.267
 3863SOL    HW112488   3.183   2.782   0.236
 3863SOL    HW212489   3.194   2.900   0.348
 3864SOL     OW12490   3.449   2.042   6.891
 3864SOL    HW112491   3.350   2.037   6.900
 3864SOL    HW212492   3.482   1.963   6.840
 3865SOL     OW12493   4.277   0.902   2.496
 3865SOL    HW112494   4.287   0.894   2.397
 3865SOL    HW212495   4.237   0.818   2.532
 3866SOL     OW12496   4.141   6.475   6.091
 3866SOL    HW112497   4.072   6.412   6.057
 3866SOL    HW212498   4.212   6.487   6.021
 3867SOL     OW12499   1.681   3.379   4.161
 3867SOL    HW112500   1.676   3.414   4.254
 3867SOL    HW212501   1.611   3.423   4.105
 3868SOL     OW12502   1.353   5.293   3.089
 3868SOL    HW112503   1.354   5.262   2.994
 3868SOL    HW212504   1.259   5.316   3.116
 3869SOL     OW12505   1.569   2.053   3.747
 3869SOL    HW112506   1.518   2.109   3.682
 3869SOL    HW212507   1.639   2.002   3.699
 3870SOL     OW12508   3.884   4.417   0.411
 3870SOL    HW112509   3.865   4.500   0.464
 3870SOL    HW212510   3.897   4.340   0.474
 3871SOL     OW12511   3.059   1.816   4.392
 3871SOL    HW112512   3.061   1.916   4.398
 3871SOL    HW212513   3.150   1.782   4.370
 3872SOL     OW12514   4.172   3.471   0.848
 3872SOL    HW112515   4.244   3.404   0.865
 3872SOL    HW212516   4.129   3.451   0.760
 3873SOL     OW12517   5.277   4.248   1.877
 3873SOL    HW112518   5.358   4.194   1.855
 3873SOL    HW212519   5.302   4.345   1.879
 3874SOL     OW12520   4.711   6.213   6.442
 3874SOL    HW112521   4.700   6.232   6.540
 3874SOL    HW212522   4.769   6.283   6.401
 3875SOL     OW12523   1.925   3.860   0.517
 3875SOL    HW112524   1.996   3.869   0.587
 3875SOL    HW212525   1.904   3.763   0.503
 3876SOL     OW12526   5.147   4.007   2.541
 3876SOL    HW112527   5.225   3.993   2.480
 3876SOL    HW212528   5.113   4.100   2.532
 3877SOL     OW12529   5.515   1.160   2.629
 3877SOL    HW112530   5.559   1.236   2.676
 3877SOL    HW212531   5.506   1.181   2.532
 3878SOL     OW12532   4.214   6.123   4.620
 3878SOL    HW112533   4.302   6.077   4.632
 3878SOL    HW212534   4.186   6.116   4.524
 3879SOL     OW12535   3.270   5.839   1.201
 3879SOL    HW112536   3.222   5.816   1.286
 3879SOL    HW212537   3.251   5.769   1.132
 3880SOL     OW12538   5.291   2.716   4.007
 3880SOL    HW112539   5.353   2.744   4.080
 3880SOL    HW212540   5.208   2.772   4.011
 3881SOL     OW12541   1.379   5.151   1.330
 3881SOL    HW112542   1.477   5.149   1.306
 3881SOL    HW212543   1.342   5.058   1.323
 3882SOL     OW12544   0.875   6.225   6.268
 3882SOL    HW112545   0.960   6.173   6.280
 3882SOL    HW212546   0.836   6.246   6.357
 3883SOL     OW12547   3.207   1.367   6.196
 3883SOL    HW112548   3.114   1.361   6.159
 3883SOL    HW212549   3.261   1.428   6.138
 3884SOL     OW12550   1.808   4.959   5.602
 3884SOL    HW112551   1.740   4.885   5.598
 3884SOL    HW212552   1.876   4.938   5.672
 3885SOL     OW12553   0.138   1.629   5.447
 3885SOL    HW112554   0.121   1.663   5.540
 3885SOL    HW212555   0.051   1.624   5.398
 3886SOL     OW12556   0.495   5.995   5.530
 3886SOL    HW112557   0.584   6.039   5.537
 3886SOL    HW212558   0.499   5.922   5.461
 3887SOL     OW12559   5.245   3.399   5.194
 3887SOL    HW112560   5.149   3.428   5.185
 3887SOL    HW212561   5.300   3.477   5.223
 3888SOL     OW12562   5.359   2.069   1.982
 3888SOL    HW112563   5.311   2.150   2.016
 3888SOL    HW212564   5.386   2.084   1.887
 3889SOL     OW12565   6.891   5.763   0.252
 3889SOL    HW112566   6.925   5.769   0.346
 3889SOL    HW212567   6.878   5.667   0.227
 3890SOL     OW12568   6.706   3.498   2.644
 3890SOL    HW112569   6.674   3.568   2.708
 3890SOL    HW212570   6.651   3.501   2.561
 3891SOL     OW12571   5.996   5.114   6.459
 3891SOL    HW112572   5.965   5.019   6.453
 3891SOL    HW212573   6.004   5.141   6.555
 3892SOL     OW12574   5.651   5.440   3.895
 3892SOL    HW112575   5.655   5.386   3.811
 3892SOL    HW212576   5.567   5.418   3.945
 3893SOL     OW12577   3.250   6.263   4.279
 3893SOL    HW112578   3.219   6.284   4.371
 3893SOL    HW212579   3.287   6.170   4.276
 3894SOL     OW12580   4.842   5.425   6.916
 3894SOL    HW112581   4.922   5.365   6.917
 3894SOL    HW212582   4.866   5.513   6.876
 3895SOL     OW12583   1.786   2.468   5.894
 3895SOL    HW112584   1.690   2.442   5.903
 3895SOL    HW212585   1.832   2.454   5.982
 3896SOL     OW12586   6.598   2.225   6.552
 3896SOL    HW112587   6.516   2.192   6.505
 3896SOL    HW212588   6.636   2.304   6.503
 3897SOL     OW12589   3.143   6.649   3.030
 3897SOL    HW112590   3.122   6.551   3.040
 3897SOL    HW212591   3.159   6.688   3.121
 3898SOL     OW12592   3.244   3.722   4.580
 3898SOL    HW112593   3.224   3.625   4.579
 3898SOL    HW212594   3.266   3.753   4.487
 3899SOL     OW12595   5.142   2.217   5.029
 3899SOL    HW112596   5.044   2.232   5.038
 3899SOL    HW212597   5.191   2.266   5.101
 3900SOL     OW12598   6.832   2.441   4.511
 3900SOL    HW112599   6.784   2.355   4.494
 3900SOL    HW212600   6.848   2.451   4.609
 3901SOL     OW12601   2.820   5.512   5.137
 3901SOL    HW112602   2.770   5.477   5.057
 3901SOL    HW212603   2.844   5.608   5.121
 3902SOL     OW12604   4.343   4.682   2.656
 3902SOL    HW112605   4.378   4.618   2.588
 3902SOL    HW212606   4.288   4.753   2.610
 3903SOL     OW12607   4.936   2.717   5.880
 3903SOL    HW112608   5.018   2.665   5.900
 3903SOL    HW212609   4.855   2.660   5.894
 3904SOL     OW12610   2.556   5.999   0.886
 3904SOL    HW112611   2.496   6.009   0.966
 3904SOL    HW212612   2.531   5.917   0.835
 3905SOL     OW12613   6.380   0.503   6.195
 3905SOL    HW112614   6.432   0.454   6.125
 3905SOL    HW212615   6.417   0.481   6.285
 3906SOL     OW12616   0.478   5.804   4.519
 3906SOL    HW112617   0.521   5.823   4.430
 3906SOL    HW212618   0.443   5.890   4.557
 3907SOL     OW12619   0.629   1.355   5.407
 3907SOL    HW112620   0.675   1.317   5.488
 3907SOL    HW212621   0.661   1.307   5.325
 3908SOL     OW12622   2.513   0.832   4.365
 3908SOL    HW112623   2.525   0.736   4.342
 3908SOL    HW212624   2.444   0.873   4.306
 3909SOL     OW12625   5.207   2.428   1.362
 3909SOL    HW112626   5.144   2.496   1.323
 3909SOL    HW212627   5.196   2.425   1.461
 3910SOL     OW12628   3.296   2.018   0.886
 3910SOL    HW112629   3.288   2.078   0.966
 3910SOL    HW212630   3.367   2.054   0.825
 3911SOL     OW12631   0.010   0.467   1.399
 3911SOL    HW112632   0.090   0.419   1.434
 3911SOL    HW212633   6.994   0.526   1.471
 3912SOL     OW12634   4.056   3.815   0.093
 3912SOL    HW112635   4.074   3.733   0.147
 3912SOL    HW212636   3.960   3.842   0.104
 3913SOL     OW12637   4.189   5.585   1.520
 3913SOL    HW112638   4.124   5.510   1.518
 3913SOL    HW212639   4.142   5.670   1.497
 3914SOL     OW12640   6.485   1.947   0.135
 3914SOL    HW112641   6.467   2.021   0.201
 3914SOL    HW212642   6.522   1.986   0.051
 3915SOL     OW12643   5.838   0.407   5.476
 3915SOL    HW112644   5.759   0.354   5.508
 3915SOL    HW212645   5.808   0.499   5.450
 3916SOL     OW12646   1.843   2.251   2.744
 3916SOL    HW112647   1.831   2.247   2.645
 3916SOL    HW212648   1.773   2.310   2.784
 3917SOL     OW12649   3.860   4.818   1.811
 3917SOL    HW112650   3.835   4.783   1.720
 3917SOL    HW212651   3.779   4.818   1.870
 3918SOL     OW12652   5.245   0.585   0.441
 3918SOL    HW112653   5.225   0.658   0.375
 3918SOL    HW212654   5.211   0.498   0.406
 3919SOL     OW12655   4.797   5.996   3.300
 3919SOL    HW112656   4.830   6.090   3.308
 3919SOL    HW212657   4.790   5.972   3.203
 3920SOL     OW12658   2.866   1.274   5.624
 3920SOL    HW112659   2.908   1.304   5.538
 3920SOL    HW212660   2.855   1.353   5.684
 3921SOL     OW12661   1.123   3.437   6.427
 3921SOL    HW112662   1.207   3.442   6.373
 3921SOL    HW212663   1.132   3.366   6.497
 3922SOL     OW12664   4.911   3.466   3.495
 3922SOL    HW112665   4.907   3.565   3.512
 3922SOL    HW212666   4.900   3.417   3.582
 3923SOL     OW12667   5.279   1.390   1.542
 3923SOL    HW112668   5.308   1.442   1.622
 3923SOL    HW212669   5.188   1.351   1.559
 3924SOL     OW12670   4.958   5.085   4.348
 3924SOL    HW112671   4.877   5.027   4.357
 3924SOL    HW212672   5.010   5.057   4.268
 3925SOL     OW12673   4.921   5.477   1.265
 3925SOL    HW112674   4.971   5.554   1.304
 3925SOL    HW212675   4.974   5.436   1.191
 3926SOL     OW12676   0.675   5.515   5.130
 3926SOL    HW112677   0.772   5.491   5.127
 3926SOL    HW212678   0.634   5.474   5.211
 3927SOL     OW12679   5.428   1.264   5.698
 3927SOL    HW112680   5.403   1.330   5.769
 3927SOL    HW212681   5.401   1.299   5.609
 3928SOL     OW12682   3.700   5.953   2.637
 3928SOL    HW112683   3.720   5.946   2.539
 3928SOL    HW212684   3.767   5.900   2.688
 3929SOL     OW12685   0.822   1.519   5.821
 3929SOL    HW112686   0.876   1.513   5.736
 3929SOL    HW212687   0.849   1.600   5.872
 3930SOL     OW12688   1.388   4.973   3.981
 3930SOL    HW112689   1.384   4.913   4.061
 3930SOL    HW212690   1.483   4.999   3.964
 3931SOL     OW12691   1.146   2.059   0.164
 3931SOL    HW112692   1.072   2.073   0.231
 3931SOL    HW212693   1.227   2.024   0.211
 3932SOL     OW12694   2.467   4.492   2.891
 3932SOL    HW112695   2.468   4.463   2.795
 3932SOL    HW212696   2.438   4.417   2.949
 3933SOL     OW12697   2.126   5.704   1.495
 3933SOL    HW112698   2.197   5.665   1.436
 3933SOL    HW212699   2.098   5.635   1.562
 3934SOL     OW12700   2.318   6.830   1.384
 3934SOL    HW112701   2.290   6.854   1.291
 3934SOL    HW212702   2.351   6.912   1.430
 3935SOL     OW12703   0.266   3.416   5.104
 3935SOL    HW112704   0.206   3.492   5.080
 3935SOL    HW212705   0.340   3.410   5.037
 3936SOL     OW12706   0.089   4.410   5.072
 3936SOL    HW112707   0.180   4.383   5.039
 3936SOL    HW212708   0.077   4.379   5.166
 3937SOL     OW12709   1.079   6.054   0.424
 3937SOL    HW112710   1.033   6.109   0.355
 3937SOL    HW212711   1.172   6.089   0.439
 3938SOL     OW12712   0.488   3.485   0.745
 3938SOL    HW112713   0.472   3.498   0.647
 3938SOL    HW212714   0.439   3.556   0.796
 3939SOL     OW12715   1.742   6.777   3.380
 3939SOL    HW112716   1.678   6.773   3.456
 3939SOL    HW212717   1.744   6.688   3.333
 3940SOL     OW12718   3.208   5.311   6.704
 3940SOL    HW112719   3.224   5.375   6.628
 3940SOL    HW212720   3.288   5.254   6.717
 3941SOL     OW12721   4.803   5.685   2.403
 3941SOL    HW112722   4.799   5.648   2.310
 3941SOL    HW212723   4.849   5.774   2.401
 3942SOL     OW12724   6.854   6.401   6.262
 3942SOL    HW112725   6.947   6.424   6.293
 3942SOL    HW212726   6.802   6.363   6.339
 3943SOL     OW12727   2.223   3.151   0.048
 3943SOL    HW112728   2.222   3.161   0.147
 3943SOL    HW212729   2.268   3.066   0.023
 3944SOL     OW12730   4.047   3.077   6.541
 3944SOL    HW112731   4.015   3.147   6.476
 3944SOL    HW212732   4.144   3.092   6.561
 3945SOL     OW12733   5.496   0.434   3.452
 3945SOL    HW112734   5.436   0.355   3.468
 3945SOL    HW212735   5.587   0.416   3.489
 3946SOL     OW12736   0.366   3.457   0.227
 3946SOL    HW112737   0.381   3.482   0.131
 3946SOL    HW212738   0.268   3.452   0.245
 3947SOL     OW12739   5.431   6.098   2.084
 3947SOL    HW112740   5.449   6.169   2.152
 3947SOL    HW212741   5.334   6.098   2.060
 3948SOL     OW12742   1.571   2.340   5.137
 3948SOL    HW112743   1.667   2.312   5.141
 3948SOL    HW212744   1.516   2.263   5.105
 3949SOL     OW12745   6.818   0.123   2.537
 3949SOL    HW112746   6.857   0.199   2.590
 3949SOL    HW212747   6.748   0.158   2.475
 3950SOL     OW12748   2.943   4.386   1.645
 3950SOL    HW112749   2.998   4.315   1.689
 3950SOL    HW212750   2.945   4.469   1.700
 3951SOL     OW12751   0.100   2.979   4.629
 3951SOL    HW112752   0.155   3.041   4.684
 3951SOL    HW212753   0.160   2.927   4.568
 3952SOL     OW12754   5.651   3.999   6.817
 3952SOL    HW112755   5.737   3.988   6.767
 3952SOL    HW212756   5.655   3.948   6.903
 3953SOL     OW12757   3.046   3.732   5.976
 3953SOL    HW112758   3.059   3.825   6.008
 3953SOL    HW212759   2.985   3.731   5.897
 3954SOL     OW12760   0.618   3.192   5.058
 3954SOL    HW112761   0.714   3.173   5.079
 3954SOL    HW212762   0.561   3.119   5.096
 3955SOL     OW12763   5.806   3.521   0.167
 3955SOL    HW112764   5.730   3.520   0.103
 3955SOL    HW212765   5.797   3.599   0.228
 3956SOL     OW12766   6.154   3.315   5.314
 3956SOL    HW112767   6.231   3.357   5.266
 3956SOL    HW212768   6.111   3.382   5.374
 3957SOL     OW12769   0.920   2.140   1.883
 3957SOL    HW112770   1.020   2.144   1.876
 3957SOL    HW212771   0.894   2.107   1.974
 3958SOL     OW12772   5.480   6.922   0.540
 3958SOL    HW112773   5.477   6.987   0.464
 3958SOL    HW212774   5.513   6.968   0.622
 3959SOL     OW12775   2.337   5.018   1.682
 3959SOL    HW112776   2.344   5.055   1.775
 3959SOL    HW212777   2.342   4.918   1.686
 3960SOL     OW12778   5.143   3.274   1.232
 3960SOL    HW112779   5.072   3.209   1.260
 3960SOL    HW212780   5.222   3.223   1.198
 3961SOL     OW12781   6.375   0.186   1.601
 3961SOL    HW112782   6.364   0.158   1.697
 3961SOL    HW212783   6.308   0.257   1.580
 3962SOL     OW12784   0.535   6.943   5.865
 3962SOL    HW112785   0.618   6.916   5.914
 3962SOL    HW212786   0.519   6.880   5.789
 3963SOL     OW12787   4.926   4.431   3.941
 3963SOL    HW112788   4.950   4.340   3.905
 3963SOL    HW212789   4.953   4.501   3.875
 3964SOL     OW12790   5.547   6.360   0.084
 3964SOL    HW112791   5.533   6.272   0.129
 3964SOL    HW212792   5.549   6.433   0.152
 3965SOL     OW12793   3.513   3.599   0.674
 3965SOL    HW112794   3.540   3.634   0.584
 3965SOL    HW212795   3.414   3.598   0.681
 3966SOL     OW12796   6.447   4.327   5.299
 3966SOL    HW112797   6.347   4.339   5.295
 3966SOL    HW212798   6.470   4.263   5.372
 3967SOL     OW12799   2.049   6.476   0.069
 3967SOL    HW112800   1.983   6.520   0.007
 3967SOL    HW212801   2.008   6.394   0.109
 3968SOL     OW12802   5.239   2.008   1.019
 3968SOL    HW112803   5.220   1.938   1.087
 3968SOL    HW212804   5.183   2.089   1.037
 3969SOL     OW12805   0.327   5.633   0.868
 3969SOL    HW112806   0.264   5.647   0.945
 3969SOL    HW212807   0.412   5.592   0.901
 3970SOL     OW12808   5.246   4.556   3.853
 3970SOL    HW112809   5.223   4.650   3.879
 3970SOL    HW212810   5.256   4.500   3.936
 3971SOL     OW12811   6.797   6.197   3.882
 3971SOL    HW112812   6.823   6.104   3.855
 3971SOL    HW212813   6.698   6.205   3.887
 3972SOL     OW12814   1.039   0.359   6.662
 3972SOL    HW112815   1.073   0.440   6.614
 3972SOL    HW212816   0.939   0.358   6.657
 3973SOL     OW12817   3.290   2.886   3.435
 3973SOL    HW112818   3.268   2.832   3.354
 3973SOL    HW212819   3.389   2.884   3.450
 3974SOL     OW12820   5.641   1.158   6.608
 3974SOL    HW112821   5.735   1.168   6.642
 3974SOL    HW212822   5.634   1.201   6.518
 3975SOL     OW12823   6.996   6.223   5.323
 3975SOL    HW112824   6.970   6.308   5.370
 3975SOL    HW212825   6.979   6.233   5.225
 3976SOL     OW12826   0.502   2.870   6.683
 3976SOL    HW112827   0.513   2.775   6.712
 3976SOL    HW212828   0.585   2.921   6.705
 3977SOL     OW12829   3.090   6.120   4.771
 3977SOL    HW112830   3.122   6.204   4.815
 3977SOL    HW212831   3.147   6.101   4.691
 3978SOL     OW12832   6.612   3.817   6.909
 3978SOL    HW112833   6.566   3.833   6.996
 3978SOL    HW212834   6.561   3.748   6.857
 3979SOL     OW12835   1.444   6.880   3.030
 3979SOL    HW112836   1.380   6.861   3.104
 3979SOL    HW212837   1.501   6.800   3.013
 3980SOL     OW12838   4.783   4.027   4.020
 3980SOL    HW112839   4.846   3.950   4.012
 3980SOL    HW212840   4.745   4.049   3.931
 3981SOL     OW12841   6.976   1.692   6.115
 3981SOL    HW112842   0.001   1.754   6.178
 3981SOL    HW212843   6.941   1.744   6.037
 3982SOL     OW12844   2.197   2.891   3.924
 3982SOL    HW112845   2.105   2.926   3.905
 3982SOL    HW212846   2.244   2.871   3.838
 3983SOL     OW12847   2.944   6.700   4.227
 3983SOL    HW112848   2.896   6.668   4.145
 3983SOL    HW212849   2.878   6.744   4.289
 3984SOL     OW12850   1.852   6.221   1.780
 3984SOL    HW112851   1.872   6.310   1.740
 3984SOL    HW212852   1.760   6.221   1.819
 3985SOL     OW12853   2.293   2.977   1.804
 3985SOL    HW112854   2.256   3.062   1.767
 3985SOL    HW212855   2.350   2.933   1.734
 3986SOL     OW12856   1.202   2.285   2.189
 3986SOL    HW112857   1.272   2.281   2.261
 3986SOL    HW212858   1.247   2.285   2.099
 3987SOL     OW12859   1.594   4.019   5.324
 3987SOL    HW112860   1.500   4.043   5.302
 3987SOL    HW212861   1.645   4.101   5.348
 3988SOL     OW12862   5.219   0.485   0.700
 3988SOL    HW112863   5.257   0.395   0.680
 3988SOL    HW212864   5.249   0.551   0.631
 3989SOL     OW12865   4.268   1.001   5.719
 3989SOL    HW112866   4.306   0.919   5.761
 3989SOL    HW212867   4.229   1.060   5.790
 3990SOL     OW12868   0.644   2.152   3.358
 3990SOL    HW112869   0.617   2.057   3.341
 3990SOL    HW212870   0.725   2.153   3.417
 3991SOL     OW12871   0.915   1.672   3.819
 3991SOL    HW112872   1.010   1.665   3.788
 3991SOL    HW212873   0.857   1.697   3.742
 3992SOL     OW12874   5.923   4.010   6.715
 3992SOL    HW112875   5.905   3.968   6.626
 3992SOL    HW212876   6.001   4.072   6.707
 3993SOL     OW12877   1.774   0.570   3.864
 3993SOL    HW112878   1.749   0.553   3.959
 3993SOL    HW212879   1.842   0.502   3.835
 3994SOL     OW12880   2.898   2.066   3.130
 3994SOL    HW112881   2.889   2.011   3.213
 3994SOL    HW212882   2.836   2.032   3.060
 3995SOL     OW12883   1.469   3.287   2.248
 3995SOL    HW112884   1.457   3.345   2.167
 3995SOL    HW212885   1.553   3.233   2.238
 3996SOL     OW12886   5.710   5.717   4.757
 3996SOL    HW112887   5.644   5.791   4.744
 3996SOL    HW212888   5.788   5.752   4.809
 3997SOL     OW12889   4.903   3.664   2.773
 3997SOL    HW112890   4.895   3.732   2.700
 3997SOL    HW212891   4.869   3.576   2.740
 3998SOL     OW12892   4.793   2.121   3.398
 3998SOL    HW112893   4.832   2.212   3.388
 3998SOL    HW212894   4.833   2.076   3.478
 3999SOL     OW12895   3.992   3.210   1.195
 3999SOL    HW112896   3.936   3.215   1.278
 3999SOL    HW212897   4.081   3.253   1.211
 4000SOL     OW12898   2.626   5.081   2.653
 4000SOL    HW112899   2.601   5.035   2.569
 4000SOL    HW212900   2.711   5.133   2.639
 4001SOL     OW12901   7.012   5.476   4.550
 4001SOL    HW112902   6.941   5.479   4.480
 4001SOL    HW212903   0.025   5.383   4.559
 4002SOL     OW12904   3.941   3.810   4.104
 4002SOL    HW112905   3.871   3.872   4.138
 4002SOL    HW212906   4.013   3.800   4.173
 4003SOL     OW12907   1.699   0.863   4.906
 4003SOL    HW112908   1.798   0.855   4.911
 4003SOL    HW212909   1.674   0.954   4.872
 4004SOL     OW12910   1.451   3.611   4.247
 4004SOL    HW112911   1.378   3.556   4.287
 4004SOL    HW212912   1.417   3.704   4.231
 4005SOL     OW12913   4.725   3.515   7.018
 4005SOL    HW112914   4.686   3.481   0.082
 4005SOL    HW212915   4.683   3.603   6.995
 4006SOL     OW12916   6.806   5.739   2.165
 4006SOL    HW112917   6.736   5.749   2.094
 4006SOL    HW212918   6.896   5.760   2.126
 4007SOL     OW12919   0.084   0.568   1.796
 4007SOL    HW112920   0.008   0.611   1.846
 4007SOL    HW212921   0.169   0.616   1.818
 4008SOL     OW12922   3.307   0.897   1.111
 4008SOL    HW112923   3.215   0.934   1.122
 4008SOL    HW212924   3.353   0.896   1.200
 4009SOL     OW12925   4.749   2.362   0.602
 4009SOL    HW112926   4.686   2.285   0.597
 4009SOL    HW212927   4.698   2.448   0.599
 4010SOL     OW12928   2.030   5.105   1.254
 4010SOL    HW112929   2.068   5.191   1.221
 4010SOL    HW212930   1.993   5.053   1.177
 4011SOL     OW12931   5.681   5.950   5.807
 4011SOL    HW112932   5.750   6.019   5.830
 4011SOL    HW212933   5.727   5.864   5.783
 4012SOL     OW12934   4.897   6.265   2.820
 4012SOL    HW112935   4.948   6.296   2.900
 4012SOL    HW212936   4.947   6.288   2.737
 4013SOL     OW12937   0.138   1.345   6.006
 4013SOL    HW112938   0.065   1.352   5.938
 4013SOL    HW212939   0.114   1.276   6.074
 4014SOL     OW12940   2.862   5.062   2.282
 4014SOL    HW112941   2.764   5.049   2.271
 4014SOL    HW212942   2.908   4.973   2.276
 4015SOL     OW12943   4.375   5.219   6.322
 4015SOL    HW112944   4.279   5.238   6.301
 4015SOL    HW212945   4.391   5.121   6.320
 4016SOL     OW12946   5.203   5.257   4.723
 4016SOL    HW112947   5.232   5.198   4.648
 4016SOL    HW212948   5.283   5.301   4.763
 4017SOL     OW12949   1.130   4.838   5.969
 4017SOL    HW112950   1.163   4.926   6.006
 4017SOL    HW212951   1.208   4.783   5.940
 4018SOL     OW12952   4.169   6.106   1.185
 4018SOL    HW112953   4.140   6.031   1.126
 4018SOL    HW212954   4.091   6.167   1.202
 4019SOL     OW12955   5.895   3.944   2.260
 4019SOL    HW112956   5.877   3.862   2.316
 4019SOL    HW212957   5.810   3.995   2.248
 4020SOL     OW12958   6.492   5.409   4.473
 4020SOL    HW112959   6.522   5.491   4.521
 4020SOL    HW212960   6.392   5.402   4.476
 4021SOL     OW12961   4.716   4.270   6.177
 4021SOL    HW112962   4.759   4.294   6.089
 4021SOL    HW212963   4.618   4.258   6.164
 4022SOL     OW12964   2.908   6.844   1.446
 4022SOL    HW112965   2.986   6.855   1.385
 4022SOL    HW212966   2.853   6.765   1.417
 4023SOL     OW12967   0.610   1.453   4.043
 4023SOL    HW112968   0.534   1.397   4.009
 4023SOL    HW212969   0.681   1.393   4.080
 4024SOL     OW12970   0.542   6.679   4.666
 4024SOL    HW112971   0.503   6.763   4.629
 4024SOL    HW212972   0.495   6.600   4.627
 4025SOL     OW12973   6.833   5.762   3.243
 4025SOL    HW112974   6.862   5.857   3.233
 4025SOL    HW212975   6.773   5.754   3.323
 4026SOL     OW12976   0.617   0.160   3.995
 4026SOL    HW112977   0.619   0.069   3.952
 4026SOL    HW212978   0.549   0.160   4.068
 4027SOL     OW12979   3.206   4.674   5.503
 4027SOL    HW112980   3.199   4.575   5.490
 4027SOL    HW212981   3.271   4.713   5.438
 4028SOL     OW12982   4.675   0.937   3.261
 4028SOL    HW112983   4.672   1.030   3.223
 4028SOL    HW212984   4.698   0.872   3.188
 4029SOL     OW12985   1.880   6.266   0.134
 4029SOL    HW112986   1.815   6.261   0.058
 4029SOL    HW212987   1.888   6.176   0.176
 4030SOL     OW12988   0.591   1.793   2.481
 4030SOL    HW112989   0.506   1.810   2.530
 4030SOL    HW212990   0.581   1.824   2.386
 4031SOL     OW12991   5.905   6.258   0.398
 4031SOL    HW112992   5.875   6.222   0.310
 4031SOL    HW212993   5.980   6.323   0.385
 4032SOL     OW12994   4.765   0.432   2.396
 4032SOL    HW112995   4.859   0.465   2.399
 4032SOL    HW212996   4.723   0.443   2.486
 4033SOL     OW12997   1.658   2.546   2.479
 4033SOL    HW112998   1.713   2.629   2.476
 4033SOL    HW212999   1.605   2.545   2.565
 4034SOL     OW13000   0.642   3.029   5.304
 4034SOL    HW113001   0.626   3.111   5.359
 4034SOL    HW213002   0.559   3.007   5.252
 4035SOL     OW13003   4.509   1.919   1.774
 4035SOL    HW113004   4.471   1.969   1.697
 4035SOL    HW213005   4.497   1.973   1.858
 4036SOL     OW13006   2.910   5.942   3.514
 4036SOL    HW113007   2.900   6.040   3.533
 4036SOL    HW213008   2.945   5.896   3.596
 4037SOL     OW13009   2.632   1.682   5.521
 4037SOL    HW113010   2.619   1.780   5.501
 4037SOL    HW213011   2.618   1.667   5.619
 4038SOL     OW13012   3.354   4.679   5.739
 4038SOL    HW113013   3.374   4.598   5.793
 4038SOL    HW213014   3.278   4.660   5.677
 4039SOL     OW13015   5.463   5.402   1.329
 4039SOL    HW113016   5.478   5.488   1.281
 4039SOL    HW213017   5.543   5.379   1.384
 4040SOL     OW13018   2.952   6.825   5.056
 4040SOL    HW113019   2.979   6.765   5.131
 4040SOL    HW213020   2.970   6.779   4.969
 4041SOL     OW13021   2.487   6.515   1.435
 4041SOL    HW113022   2.404   6.570   1.446
 4041SOL    HW213023   2.484   6.468   1.346
 4042SOL     OW13024   6.815   1.219   2.589
 4042SOL    HW113025   6.906   1.218   2.632
 4042SOL    HW213026   6.784   1.314   2.579
 4043SOL     OW13027   5.404   3.615   6.144
 4043SOL    HW113028   5.414   3.606   6.045
 4043SOL    HW213029   5.419   3.710   6.171
 4044SOL     OW13030   5.037   4.525   3.249
 4044SOL    HW113031   5.083   4.437   3.267
 4044SOL    HW213032   4.938   4.511   3.249
 4045SOL     OW13033   5.114   1.172   5.477
 4045SOL    HW113034   5.050   1.248   5.485
 4045SOL    HW213035   5.133   1.153   5.381
 4046SOL     OW13036   5.912   1.727   3.247
 4046SOL    HW113037   5.970   1.654   3.283
 4046SOL    HW213038   5.947   1.757   3.158
 4047SOL     OW13039   2.704   3.023   6.685
 4047SOL    HW113040   2.781   3.044   6.626
 4047SOL    HW213041   2.618   3.046   6.639
 4048SOL     OW13042   4.548   2.184   2.518
 4048SOL    HW113043   4.513   2.091   2.522
 4048SOL    HW213044   4.473   2.249   2.525
 4049SOL     OW13045   4.102   4.458   0.673
 4049SOL    HW113046   4.074   4.369   0.636
 4049SOL    HW213047   4.078   4.463   0.770
 4050SOL     OW13048   1.295   5.429   2.335
 4050SOL    HW113049   1.348   5.345   2.340
 4050SOL    HW213050   1.354   5.507   2.356
 4051SOL     OW13051   5.624   1.262   4.507
 4051SOL    HW113052   5.695   1.297   4.569
 4051SOL    HW213053   5.546   1.230   4.560
 4052SOL     OW13054   6.096   1.791   3.057
 4052SOL    HW113055   6.103   1.706   3.004
 4052SOL    HW213056   6.077   1.867   2.995
 4053SOL     OW13057   1.225   5.310   4.201
 4053SOL    HW113058   1.178   5.227   4.170
 4053SOL    HW213059   1.297   5.334   4.136
 4054SOL     OW13060   4.134   3.823   1.393
 4054SOL    HW113061   4.141   3.770   1.477
 4054SOL    HW213062   4.038   3.835   1.369
 4055SOL     OW13063   0.898   4.170   0.204
 4055SOL    HW113064   0.814   4.215   0.173
 4055SOL    HW213065   0.937   4.116   0.129
 4056SOL     OW13066   5.215   3.366   0.732
 4056SOL    HW113067   5.254   3.361   0.640
 4056SOL    HW213068   5.270   3.311   0.795
 4057SOL     OW13069   0.455   3.757   0.211
 4057SOL    HW113070   0.411   3.720   0.130
 4057SOL    HW213071   0.530   3.697   0.239
 4058SOL     OW13072   2.223   0.691   5.195
 4058SOL    HW113073   2.321   0.673   5.192
 4058SOL    HW213074   2.207   0.789   5.206
 4059SOL     OW13075   0.212   1.550   3.431
 4059SOL    HW113076   0.139   1.606   3.390
 4059SOL    HW213077   0.222   1.575   3.527
 4060SOL     OW13078   6.594   6.260   4.759
 4060SOL    HW113079   6.595   6.181   4.697
 4060SOL    HW213080   6.535   6.331   4.720
 4061SOL     OW13081   1.195   5.342   0.672
 4061SOL    HW113082   1.173   5.439   0.671
 4061SOL    HW213083   1.271   5.325   0.610
 4062SOL     OW13084   1.776   2.720   1.389
 4062SOL    HW113085   1.858   2.773   1.408
 4062SOL    HW213086   1.743   2.741   1.297
 4063SOL     OW13087   3.974   0.595   0.330
 4063SOL    HW113088   3.961   0.577   0.232
 4063SOL    HW213089   4.067   0.629   0.345
 4064SOL     OW13090   2.138   1.576   5.916
 4064SOL    HW113091   2.093   1.641   5.978
 4064SOL    HW213092   2.185   1.626   5.844
 4065SOL     OW13093   2.728   6.505   0.796
 4065SOL    HW113094   2.700   6.453   0.876
 4065SOL    HW213095   2.674   6.589   0.789
 4066SOL     OW13096   0.698   3.795   3.604
 4066SOL    HW113097   0.681   3.753   3.515
 4066SOL    HW213098   0.768   3.866   3.594
 4067SOL     OW13099   5.218   5.232   0.602
 4067SOL    HW113100   5.312   5.207   0.580
 4067SOL    HW213101   5.193   5.192   0.691
 4068SOL     OW13102   2.258   2.889   4.786
 4068SOL    HW113103   2.316   2.904   4.866
 4068SOL    HW213104   2.184   2.826   4.809
 4069SOL     OW13105   4.325   6.845   6.583
 4069SOL    HW113106   4.396   6.913   6.566
 4069SOL    HW213107   4.309   6.837   6.681
 4070SOL     OW13108   1.321   3.255   3.578
 4070SOL    HW113109   1.345   3.159   3.561
 4070SOL    HW213110   1.331   3.274   3.676
 4071SOL     OW13111   1.448   0.506   3.433
 4071SOL    HW113112   1.544   0.503   3.403
 4071SOL    HW213113   1.392   0.544   3.360
 4072SOL     OW13114   2.665   5.212   3.025
 4072SOL    HW113115   2.568   5.189   3.037
 4072SOL    HW213116   2.677   5.257   2.937
 4073SOL     OW13117   3.641   4.632   0.317
 4073SOL    HW113118   3.740   4.619   0.313
 4073SOL    HW213119   3.618   4.690   0.396
 4074SOL     OW13120   1.908   5.333   3.194
 4074SOL    HW113121   1.831   5.325   3.130
 4074SOL    HW213122   1.960   5.247   3.194
 4075SOL     OW13123   6.849   1.253   1.027
 4075SOL    HW113124   6.761   1.271   0.983
 4075SOL    HW213125   6.916   1.226   0.958
 4076SOL     OW13126   2.323   4.211   5.297
 4076SOL    HW113127   2.342   4.117   5.268
 4076SOL    HW213128   2.245   4.211   5.359
 4077SOL     OW13129   2.635   0.663   1.862
 4077SOL    HW113130   2.582   0.657   1.946
 4077SOL    HW213131   2.732   0.667   1.884
 4078SOL     OW13132   3.327   5.209   2.741
 4078SOL    HW113133   3.299   5.119   2.710
 4078SOL    HW213134   3.249   5.255   2.784
 4079SOL     OW13135   1.001   2.251   3.906
 4079SOL    HW113136   1.100   2.237   3.919
 4079SOL    HW213137   0.953   2.166   3.925
 4080SOL     OW13138   6.259   1.941   5.121
 4080SOL    HW113139   6.166   1.965   5.093
 4080SOL    HW213140   6.312   1.917   5.040
 4081SOL     OW13141   1.617   3.232   3.791
 4081SOL    HW113142   1.522   3.262   3.787
 4081SOL    HW213143   1.624   3.150   3.847
 4082SOL     OW13144   1.086   3.205   1.083
 4082SOL    HW113145   1.029   3.254   1.149
 4082SOL    HW213146   1.036   3.123   1.051
 4083SOL     OW13147   5.467   2.871   4.504
 4083SOL    HW113148   5.464   2.815   4.587
 4083SOL    HW213149   5.391   2.847   4.444
 4084SOL     OW13150   0.374   1.621   4.115
 4084SOL    HW113151   0.454   1.576   4.075
 4084SOL    HW213152   0.379   1.614   4.214
 4085SOL     OW13153   2.955   6.101   0.768
 4085SOL    HW113154   2.885   6.101   0.839
 4085SOL    HW213155   2.915   6.133   0.682
 4086SOL     OW13156   1.083   5.377   0.265
 4086SOL    HW113157   0.991   5.367   0.301
 4086SOL    HW213158   1.111   5.473   0.269
 4087SOL     OW13159   1.496   1.708   2.573
 4087SOL    HW113160   1.537   1.799   2.577
 4087SOL    HW213161   1.402   1.716   2.539
 4088SOL     OW13162   6.981   1.849   0.915
 4088SOL    HW113163   6.938   1.773   0.964
 4088SOL    HW213164   0.005   1.815   0.832
 4089SOL     OW13165   1.196   1.071   4.904
 4089SOL    HW113166   1.281   1.113   4.872
 4089SOL    HW213167   1.218   0.995   4.966
 4090SOL     OW13168   1.939   4.435   5.631
 4090SOL    HW113169   1.980   4.460   5.719
 4090SOL    HW213170   1.853   4.387   5.648
 4091SOL     OW13171   4.835   6.073   0.489
 4091SOL    HW113172   4.928   6.057   0.456
 4091SOL    HW213173   4.796   5.987   0.521
 4092SOL     OW13174   7.012   2.735   4.603
 4092SOL    HW113175   0.003   2.820   4.654
 4092SOL    HW213176   7.011   2.755   4.505
 4093SOL     OW13177   5.793   0.841   4.288
 4093SOL    HW113178   5.798   0.895   4.371
 4093SOL    HW213179   5.816   0.746   4.309
 4094SOL     OW13180   2.434   4.419   5.187
 4094SOL    HW113181   2.524   4.416   5.231
 4094SOL    HW213182   2.388   4.331   5.200
 4095SOL     OW13183   1.209   3.788   6.439
 4095SOL    HW113184   1.157   3.855   6.387
 4095SOL    HW213185   1.296   3.828   6.467
 4096SOL     OW13186   4.209   4.694   1.500
 4096SOL    HW113187   4.195   4.792   1.482
 4096SOL    HW213188   4.264   4.683   1.583
 4097SOL     OW13189   3.179   3.395   5.132
 4097SOL    HW113190   3.081   3.413   5.130
 4097SOL    HW213191   3.227   3.461   5.075
 4098SOL     OW13192   0.241   2.047   2.905
 4098SOL    HW113193   0.171   2.039   2.975
 4098SOL    HW213194   0.199   2.044   2.814
 4099SOL     OW13195   4.411   6.113   1.915
 4099SOL    HW113196   4.384   6.063   1.998
 4099SOL    HW213197   4.406   6.052   1.836
 4100SOL     OW13198   3.953   5.627   3.383
 4100SOL    HW113199   3.853   5.635   3.380
 4100SOL    HW213200   3.978   5.545   3.435
 4101SOL     OW13201   5.507   1.004   6.155
 4101SOL    HW113202   5.426   1.022   6.099
 4101SOL    HW213203   5.559   0.928   6.115
 4102SOL     OW13204   6.072   1.154   0.500
 4102SOL    HW113205   5.997   1.109   0.451
 4102SOL    HW213206   6.153   1.156   0.442
 4103SOL     OW13207   0.647   0.338   2.364
 4103SOL    HW113208   0.588   0.400   2.313
 4103SOL    HW213209   0.665   0.377   2.455
 4104SOL     OW13210   1.704   4.943   3.121
 4104SOL    HW113211   1.650   5.024   3.143
 4104SOL    HW213212   1.715   4.887   3.204
 4105SOL     OW13213   4.840   4.700   0.152
 4105SOL    HW113214   4.842   4.762   0.073
 4105SOL    HW213215   4.757   4.645   0.149
 4106SOL     OW13216   6.713   4.061   5.148
 4106SOL    HW113217   6.667   4.133   5.095
 4106SOL    HW213218   6.675   3.972   5.124
 4107SOL     OW13219   0.308   0.678   0.976
 4107SOL    HW113220   0.321   0.596   0.921
 4107SOL    HW213221   0.214   0.682   1.010
 4108SOL     OW13222   6.368   3.477   5.694
 4108SOL    HW113223   6.317   3.546   5.745
 4108SOL    HW213224   6.304   3.408   5.660
 4109SOL     OW13225   3.444   5.955   3.557
 4109SOL    HW113226   3.368   5.908   3.601
 4109SOL    HW213227   3.436   5.945   3.457
 4110SOL     OW13228   4.996   3.475   5.969
 4110SOL    HW113229   4.932   3.509   6.039
 4110SOL    HW213230   4.970   3.382   5.944
 4111SOL     OW13231   4.634   3.158   6.890
 4111SOL    HW113232   4.719   3.159   6.942
 4111SOL    HW213233   4.651   3.121   6.799
 4112SOL     OW13234   3.562   1.303   4.397
 4112SOL    HW113235   3.592   1.398   4.408
 4112SOL    HW213236   3.639   1.242   4.411
 4113SOL     OW13237   3.349   5.270   4.502
 4113SOL    HW113238   3.406   5.307   4.575
 4113SOL    HW213239   3.351   5.170   4.505
 4114SOL     OW13240   3.016   1.948   2.196
 4114SOL    HW113241   2.986   2.030   2.245
 4114SOL    HW213242   2.936   1.902   2.158
 4115SOL     OW13243   5.346   4.495   1.919
 4115SOL    HW113244   5.339   4.548   2.004
 4115SOL    HW213245   5.404   4.545   1.854
 4116SOL     OW13246   3.015   1.341   2.047
 4116SOL    HW113247   2.946   1.389   2.101
 4116SOL    HW213248   3.098   1.396   2.042
 4117SOL     OW13249   1.176   5.632   1.153
 4117SOL    HW113250   1.128   5.659   1.236
 4117SOL    HW213251   1.215   5.541   1.165
 4118SOL     OW13252   2.220   6.455   0.497
 4118SOL    HW113253   2.280   6.526   0.532
 4118SOL    HW213254   2.170   6.413   0.573
 4119SOL     OW13255   3.973   0.591   3.616
 4119SOL    HW113256   3.944   0.634   3.702
 4119SOL    HW213257   4.059   0.632   3.585
 4120SOL     OW13258   3.767   0.434   1.638
 4120SOL    HW113259   3.771   0.520   1.689
 4120SOL    HW213260   3.810   0.447   1.549
 4121SOL     OW13261   6.632   2.935   5.166
 4121SOL    HW113262   6.606   3.029   5.188
 4121SOL    HW213263   6.639   2.924   5.067
 4122SOL     OW13264   1.395   5.898   5.931
 4122SOL    HW113265   1.415   5.834   6.005
 4122SOL    HW213266   1.382   5.990   5.968
 4123SOL     OW13267   5.119   3.781   6.396
 4123SOL    HW113268   5.128   3.809   6.301
 4123SOL    HW213269   5.118   3.862   6.455
 4124SOL     OW13270   5.111   0.017   3.929
 4124SOL    HW113271   5.149   0.110   3.933
 4124SOL    HW213272   5.089   7.015   3.834
 4125SOL     OW13273   4.744   1.167   1.019
 4125SOL    HW113274   4.757   1.192   0.923
 4125SOL    HW213275   4.648   1.176   1.043
 4126SOL     OW13276   2.057   4.239   4.337
 4126SOL    HW113277   2.132   4.294   4.374
 4126SOL    HW213278   2.022   4.281   4.254
 4127SOL     OW13279   6.219   3.635   5.877
 4127SOL    HW113280   6.127   3.596   5.878
 4127SOL    HW213281   6.226   3.706   5.947
 4128SOL     OW13282   0.801   2.049   2.817
 4128SOL    HW113283   0.873   2.065   2.884
 4128SOL    HW213284   0.760   2.137   2.790
 4129SOL     OW13285   5.721   2.381   5.856
 4129SOL    HW113286   5.671   2.394   5.770
 4129SOL    HW213287   5.813   2.347   5.836
 4130SOL     OW13288   5.976   4.169   0.698
 4130SOL    HW113289   6.002   4.073   0.709
 4130SOL    HW213290   6.014   4.205   0.614
 4131SOL     OW13291   6.548   4.525   3.533
 4131SOL    HW113292   6.614   4.460   3.571
 4131SOL    HW213293   6.559   4.613   3.578
 4132SOL     OW13294   5.183   2.541   3.844
 4132SOL    HW113295   5.131   2.609   3.792
 4132SOL    HW213296   5.231   2.587   3.919
 4133SOL     OW13297   3.486   1.386   0.991
 4133SOL    HW113298   3.511   1.331   1.070
 4133SOL    HW213299   3.553   1.372   0.918
 4134SOL     OW13300   1.278   1.360   6.829
 4134SOL    HW113301   1.200   1.420   6.809
 4134SOL    HW213302   1.342   1.362   6.752
 4135SOL     OW13303   1.196   0.782   1.663
 4135SOL    HW113304   1.241   0.706   1.710
 4135SOL    HW213305   1.122   0.747   1.605
 4136SOL     OW13306   1.147   2.205   3.321
 4136SOL    HW113307   1.107   2.284   3.367
 4136SOL    HW213308   1.207   2.236   3.248
 4137SOL     OW13309   2.998   4.631   6.326
 4137SOL    HW113310   2.987   4.661   6.232
 4137SOL    HW213311   3.028   4.708   6.382
 4138SOL     OW13312   4.186   4.973   3.299
 4138SOL    HW113313   4.245   5.030   3.243
 4138SOL    HW213314   4.090   4.994   3.279
 4139SOL     OW13315   2.174   1.331   0.080
 4139SOL    HW113316   2.141   1.237   0.070
 4139SOL    HW213317   2.272   1.335   0.059
 4140SOL     OW13318   4.802   1.487   5.159
 4140SOL    HW113319   4.775   1.391   5.154
 4140SOL    HW213320   4.798   1.518   5.254
 4141SOL     OW13321   5.284   5.807   0.506
 4141SOL    HW113322   5.331   5.826   0.592
 4141SOL    HW213323   5.349   5.768   0.441
 4142SOL     OW13324   6.136   3.964   1.528
 4142SOL    HW113325   6.143   3.867   1.509
 4142SOL    HW213326   6.155   4.016   1.445
 4143SOL     OW13327   0.318   2.929   1.000
 4143SOL    HW113328   0.252   2.973   1.061
 4143SOL    HW213329   0.269   2.876   0.930
 4144SOL     OW13330   4.775   0.832   2.599
 4144SOL    HW113331   4.814   0.883   2.675
 4144SOL    HW213332   4.706   0.889   2.553
 4145SOL     OW13333   1.981   6.779   2.531
 4145SOL    HW113334   1.966   6.813   2.624
 4145SOL    HW213335   1.901   6.799   2.475
 4146SOL     OW13336   5.294   6.758   0.460
 4146SOL    HW113337   5.354   6.826   0.501
 4146SOL    HW213338   5.317   6.748   0.363
 4147SOL     OW13339   3.346   2.093   5.397
 4147SOL    HW113340   3.324   2.034   5.475
 4147SOL    HW213341   3.396   2.040   5.328
 4148SOL     OW13342   6.574   0.651   3.457
 4148SOL    HW113343   6.627   0.701   3.388
 4148SOL    HW213344   6.626   0.647   3.542
 4149SOL     OW13345   5.530   3.783   1.893
 4149SOL    HW113346   5.477   3.699   1.876
 4149SOL    HW213347   5.532   3.838   1.810
 4150SOL     OW13348   5.277   0.554   6.557
 4150SOL    HW113349   5.324   0.529   6.642
 4150SOL    HW213350   5.181   0.573   6.576
 4151SOL     OW13351   0.718   5.275   0.691
 4151SOL    HW113352   0.622   5.292   0.665
 4151SOL    HW213353   0.752   5.195   0.643
 4152SOL     OW13354   3.758   4.171   1.420
 4152SOL    HW113355   3.744   4.182   1.519
 4152SOL    HW213356   3.730   4.079   1.393
 4153SOL     OW13357   6.336   4.715   5.805
 4153SOL    HW113358   6.343   4.741   5.901
 4153SOL    HW213359   6.244   4.681   5.786
 4154SOL     OW13360   5.483   2.883   6.070
 4154SOL    HW113361   5.389   2.881   6.035
 4154SOL    HW213362   5.546   2.870   5.994
 4155SOL     OW13363   0.810   3.259   1.848
 4155SOL    HW113364   0.838   3.260   1.752
 4155SOL    HW213365   0.835   3.345   1.891
 4156SOL     OW13366   6.057   6.800   5.390
 4156SOL    HW113367   6.150   6.801   5.353
 4156SOL    HW213368   6.061   6.813   5.490
 4157SOL     OW13369   3.648   1.034   5.042
 4157SOL    HW113370   3.564   1.069   5.083
 4157SOL    HW213371   3.727   1.072   5.089
 4158SOL     OW13372   1.063   6.562   3.914
 4158SOL    HW113373   1.153   6.524   3.935
 4158SOL    HW213374   1.012   6.499   3.856
 4159SOL     OW13375   1.046   2.920   4.973
 4159SOL    HW113376   1.133   2.871   4.973
 4159SOL    HW213377   1.062   3.018   4.961
 4160SOL     OW13378   1.314   1.074   0.822
 4160SOL    HW113379   1.222   1.054   0.856
 4160SOL    HW213380   1.380   1.015   0.869
 4161SOL     OW13381   6.237   1.463   0.465
 4161SOL    HW113382   6.269   1.436   0.556
 4161SOL    HW213383   6.138   1.456   0.461
 4162SOL     OW13384   6.213   0.088   5.344
 4162SOL    HW113385   6.118   0.070   5.319
 4162SOL    HW213386   6.271   0.077   5.264
 4163SOL     OW13387   5.624   1.376   4.118
 4163SOL    HW113388   5.719   1.359   4.143
 4163SOL    HW213389   5.564   1.329   4.183
 4164SOL     OW13390   2.105   0.569   6.129
 4164SOL    HW113391   2.018   0.613   6.103
 4164SOL    HW213392   2.181   0.622   6.092
 4165SOL     OW13393   4.244   6.720   2.535
 4165SOL    HW113394   4.273   6.650   2.469
 4165SOL    HW213395   4.146   6.709   2.554
 4166SOL     OW13396   5.857   2.590   0.813
 4166SOL    HW113397   5.818   2.616   0.901
 4166SOL    HW213398   5.897   2.671   0.769
 4167SOL     OW13399   2.043   2.609   1.680
 4167SOL    HW113400   2.073   2.698   1.644
 4167SOL    HW213401   1.993   2.560   1.609
 4168SOL     OW13402   1.283   5.273   0.946
 4168SOL    HW113403   1.238   5.296   0.859
 4168SOL    HW213404   1.381   5.295   0.940
 4169SOL     OW13405   5.953   3.634   4.473
 4169SOL    HW113406   5.867   3.685   4.470
 4169SOL    HW213407   5.973   3.598   4.383
 4170SOL     OW13408   4.574   2.469   5.698
 4170SOL    HW113409   4.538   2.377   5.682
 4170SOL    HW213410   4.507   2.537   5.665
 4171SOL     OW13411   5.838   3.769   1.865
 4171SOL    HW113412   5.741   3.792   1.853
 4171SOL    HW213413   5.858   3.682   1.820
 4172SOL     OW13414   1.889   1.943   0.235
 4172SOL    HW113415   1.880   1.898   0.146
 4172SOL    HW213416   1.829   2.023   0.237
 4173SOL     OW13417   5.426   3.605   4.882
 4173SOL    HW113418   5.336   3.643   4.904
 4173SOL    HW213419   5.485   3.610   4.962
 4174SOL     OW13420   4.558   1.339   4.480
 4174SOL    HW113421   4.600   1.318   4.392
 4174SOL    HW213422   4.460   1.322   4.475
 4175SOL     OW13423   2.801   0.749   2.775
 4175SOL    HW113424   2.769   0.688   2.847
 4175SOL    HW213425   2.892   0.783   2.797
 4176SOL     OW13426   5.781   6.267   2.784
 4176SOL    HW113427   5.817   6.334   2.849
 4176SOL    HW213428   5.848   6.194   2.769
 4177SOL     OW13429   6.919   6.009   2.741
 4177SOL    HW113430   6.976   5.964   2.810
 4177SOL    HW213431   6.823   5.984   2.757
 4178SOL     OW13432   3.737   2.526   5.679
 4178SOL    HW113433   3.677   2.529   5.759
 4178SOL    HW213434   3.818   2.581   5.696
 4179SOL     OW13435   5.442   3.199   6.022
 4179SOL    HW113436   5.539   3.180   6.007
 4179SOL    HW213437   5.387   3.137   5.966
 4180SOL     OW13438   4.284   3.834   1.661
 4180SOL    HW113439   4.249   3.926   1.642
 4180SOL    HW213440   4.381   3.830   1.637
 4181SOL     OW13441   0.412   1.028   6.771
 4181SOL    HW113442   0.412   0.931   6.745
 4181SOL    HW213443   0.452   1.038   6.861
 4182SOL     OW13444   5.302   1.010   3.167
 4182SOL    HW113445   5.269   1.054   3.251
 4182SOL    HW213446   5.376   0.946   3.190
 4183SOL     OW13447   1.257   1.775   1.519
 4183SOL    HW113448   1.326   1.742   1.584
 4183SOL    HW213449   1.276   1.737   1.428
 4184SOL     OW13450   4.500   5.534   0.361
 4184SOL    HW113451   4.518   5.620   0.313
 4184SOL    HW213452   4.426   5.484   0.315
 4185SOL     OW13453   0.114   0.416   4.216
 4185SOL    HW113454   0.208   0.438   4.191
 4185SOL    HW213455   0.061   0.399   4.133
 4186SOL     OW13456   2.973   4.107   0.858
 4186SOL    HW113457   2.909   4.109   0.934
 4186SOL    HW213458   2.970   4.194   0.809
 4187SOL     OW13459   4.193   4.002   6.964
 4187SOL    HW113460   4.158   3.951   0.022
 4187SOL    HW213461   4.272   4.056   6.992
 4188SOL     OW13462   4.976   6.478   4.612
 4188SOL    HW113463   5.039   6.486   4.689
 4188SOL    HW213464   5.005   6.540   4.539
 4189SOL     OW13465   2.189   2.356   4.012
 4189SOL    HW113466   2.278   2.352   4.057
 4189SOL    HW213467   2.161   2.264   3.985
 4190SOL     OW13468   3.129   0.142   1.235
 4190SOL    HW113469   3.178   0.075   1.178
 4190SOL    HW213470   3.107   0.223   1.180
 4191SOL     OW13471   6.371   1.849   2.333
 4191SOL    HW113472   6.305   1.920   2.307
 4191SOL    HW213473   6.448   1.890   2.381
 4192SOL     OW13474   6.409   1.523   3.042
 4192SOL    HW113475   6.415   1.622   3.027
 4192SOL    HW213476   6.448   1.501   3.131
 4193SOL     OW13477   1.548   6.885   2.054
 4193SOL    HW113478   1.637   6.917   2.023
 4193SOL    HW213479   1.558   6.795   2.096
 4194SOL     OW13480   0.362   0.578   4.450
 4194SOL    HW113481   0.328   0.589   4.543
 4194SOL    HW213482   0.322   0.648   4.391
 4195SOL     OW13483   4.780   0.708   1.890
 4195SOL    HW113484   4.825   0.665   1.968
 4195SOL    HW213485   4.790   0.807   1.896
 4196SOL     OW13486   4.528   2.529   3.833
 4196SOL    HW113487   4.452   2.474   3.868
 4196SOL    HW213488   4.536   2.515   3.734
 4197SOL     OW13489   4.437   4.641   3.860
 4197SOL    HW113490   4.443   4.584   3.941
 4197SOL    HW213491   4.342   4.671   3.847
 4198SOL     OW13492   5.711   3.639   5.696
 4198SOL    HW113493   5.654   3.613   5.618
 4198SOL    HW213494   5.724   3.560   5.756
 4199SOL     OW13495   3.071   4.111   5.311
 4199SOL    HW113496   3.090   4.089   5.215
 4199SOL    HW213497   3.115   4.043   5.370
 4200SOL     OW13498   2.356   6.938   6.147
 4200SOL    HW113499   2.270   6.931   6.197
 4200SOL    HW213500   2.393   6.847   6.129
 4201SOL     OW13501   5.710   6.228   4.349
 4201SOL    HW113502   5.686   6.322   4.324
 4201SOL    HW213503   5.781   6.194   4.287
 4202SOL     OW13504   5.268   4.400   4.062
 4202SOL    HW113505   5.335   4.342   4.015
 4202SOL    HW213506   5.260   4.372   4.157
 4203SOL     OW13507   5.486   5.779   3.600
 4203SOL    HW113508   5.543   5.759   3.680
 4203SOL    HW213509   5.518   5.726   3.522
 4204SOL     OW13510   3.305   3.761   0.930
 4204SOL    HW113511   3.271   3.720   1.014
 4204SOL    HW213512   3.294   3.696   0.855
 4205SOL     OW13513   2.945   5.371   3.085
 4205SOL    HW113514   2.855   5.332   3.064
 4205SOL    HW213515   3.000   5.303   3.133
 4206SOL     OW13516   5.809   6.947   4.182
 4206SOL    HW113517   5.821   7.018   4.113
 4206SOL    HW213518   5.898   6.923   4.222
 4207SOL     OW13519   1.102   0.645   1.313
 4207SOL    HW113520   1.187   0.628   1.362
 4207SOL    HW213521   1.033   0.680   1.376
 4208SOL     OW13522   0.914   3.343   1.247
 4208SOL    HW113523   0.843   3.374   1.310
 4208SOL    HW213524   1.002   3.383   1.273
 4209SOL     OW13525   2.895   0.290   4.928
 4209SOL    HW113526   2.965   0.357   4.954
 4209SOL    HW213527   2.818   0.297   4.992
 4210SOL     OW13528   4.990   2.448   0.490
 4210SOL    HW113529   5.056   2.478   0.558
 4210SOL    HW213530   4.915   2.398   0.535
 4211SOL     OW13531   4.695   4.158   3.472
 4211SOL    HW113532   4.785   4.173   3.513
 4211SOL    HW213533   4.706   4.118   3.381
 4212SOL     OW13534   6.328   0.019   2.468
 4212SOL    HW113535   6.238   7.018   2.431
 4212SOL    HW213536   6.341   0.118   2.469
 4213SOL     OW13537   0.895   0.549   2.374
 4213SOL    HW113538   0.855   0.512   2.458
 4213SOL    HW213539   0.866   0.643   2.361
 4214SOL     OW13540   1.631   3.561   4.614
 4214SOL    HW113541   1.655   3.559   4.711
 4214SOL    HW213542   1.548   3.615   4.601
 4215SOL     OW13543   0.798   5.434   4.574
 4215SOL    HW113544   0.874   5.368   4.573
 4215SOL    HW213545   0.762   5.442   4.667
 4216SOL     OW13546   1.708   3.538   5.413
 4216SOL    HW113547   1.663   3.626   5.398
 4216SOL    HW213548   1.762   3.515   5.333
 4217SOL     OW13549   6.874   0.421   3.457
 4217SOL    HW113550   6.865   0.462   3.367
 4217SOL    HW213551   6.917   0.486   3.520
 4218SOL     OW13552   3.589   6.658   2.933
 4218SOL    HW113553   3.653   6.706   2.873
 4218SOL    HW213554   3.505   6.712   2.943
 4219SOL     OW13555   4.748   6.367   3.562
 4219SOL    HW113556   4.836   6.365   3.609
 4219SOL    HW213557   4.698   6.282   3.580
 4220SOL     OW13558   0.438   3.363   3.245
 4220SOL    HW113559   0.521   3.391   3.294
 4220SOL    HW213560   0.373   3.439   3.245
 4221SOL     OW13561   5.371   5.667   6.204
 4221SOL    HW113562   5.294   5.606   6.189
 4221SOL    HW213563   5.452   5.614   6.227
 4222SOL     OW13564   4.170   2.694   0.362
 4222SOL    HW113565   4.250   2.635   0.372
 4222SOL    HW213566   4.177   2.771   0.426
 4223SOL     OW13567   3.823   4.030   2.704
 4223SOL    HW113568   3.867   4.118   2.685
 4223SOL    HW213569   3.727   4.045   2.726
 4224SOL     OW13570   4.256   2.224   4.944
 4224SOL    HW113571   4.165   2.183   4.940
 4224SOL    HW213572   4.250   2.315   4.987
 4225SOL     OW13573   5.418   0.552   4.634
 4225SOL    HW113574   5.511   0.580   4.610
 4225SOL    HW213575   5.371   0.517   4.553
 4226SOL     OW13576   1.421   1.177   3.439
 4226SOL    HW113577   1.429   1.275   3.419
 4226SOL    HW213578   1.347   1.163   3.505
 4227SOL     OW13579   6.052   4.282   0.237
 4227SOL    HW113580   5.981   4.233   0.187
 4227SOL    HW213581   6.098   4.346   0.176
 4228SOL     OW13582   6.225   5.293   2.352
 4228SOL    HW113583   6.199   5.388   2.333
 4228SOL    HW213584   6.310   5.271   2.303
 4229SOL     OW13585   4.656   4.672   5.609
 4229SOL    HW113586   4.598   4.753   5.617
 4229SOL    HW213587   4.612   4.595   5.655
 4230SOL     OW13588   3.210   0.196   4.386
 4230SOL    HW113589   3.146   0.152   4.323
 4230SOL    HW213590   3.300   0.153   4.378
 4231SOL     OW13591   4.024   6.419   5.634
 4231SOL    HW113592   4.118   6.414   5.670
 4231SOL    HW213593   4.020   6.488   5.562
 4232SOL     OW13594   2.265   3.866   1.926
 4232SOL    HW113595   2.199   3.792   1.917
 4232SOL    HW213596   2.340   3.852   1.861
 4233SOL     OW13597   5.761   6.955   1.135
 4233SOL    HW113598   5.850   6.997   1.119
 4233SOL    HW213599   5.761   6.860   1.101
 4234SOL     OW13600   3.221   3.911   5.480
 4234SOL    HW113601   3.166   3.835   5.515
 4234SOL    HW213602   3.249   3.970   5.556
 4235SOL     OW13603   6.541   3.604   5.512
 4235SOL    HW113604   6.477   3.555   5.572
 4235SOL    HW213605   6.604   3.657   5.568
 4236SOL     OW13606   1.348   4.204   4.853
 4236SOL    HW113607   1.389   4.115   4.834
 4236SOL    HW213608   1.407   4.255   4.915
 4237SOL     OW13609   5.482   4.196   4.440
 4237SOL    HW113610   5.398   4.250   4.433
 4237SOL    HW213611   5.511   4.169   4.348
 4238SOL     OW13612   4.156   5.099   3.770
 4238SOL    HW113613   4.127   5.110   3.674
 4238SOL    HW213614   4.117   5.014   3.806
 4239SOL     OW13615   4.988   5.705   5.847
 4239SOL    HW113616   5.026   5.660   5.928
 4239SOL    HW213617   4.889   5.694   5.848
 4240SOL     OW13618   2.594   4.570   6.477
 4240SOL    HW113619   2.629   4.569   6.384
 4240SOL    HW213620   2.499   4.602   6.477
 4241SOL     OW13621   3.607   0.774   0.008
 4241SOL    HW113622   3.630   0.786   0.104
 4241SOL    HW213623   3.557   0.688   7.017
 4242SOL     OW13624   1.479   0.047   2.220
 4242SOL    HW113625   1.493   6.996   2.152
 4242SOL    HW213626   1.545   0.121   2.204
 4243SOL     OW13627   1.412   3.013   3.579
 4243SOL    HW113628   1.505   2.981   3.600
 4243SOL    HW213629   1.345   2.950   3.619
 4244SOL     OW13630   3.510   6.054   1.502
 4244SOL    HW113631   3.586   5.993   1.523
 4244SOL    HW213632   3.424   6.012   1.533
 4245SOL     OW13633   6.695   3.286   1.826
 4245SOL    HW113634   6.695   3.192   1.860
 4245SOL    HW213635   6.708   3.286   1.727
 4246SOL     OW13636   4.239   2.282   3.813
 4246SOL    HW113637   4.153   2.246   3.849
 4246SOL    HW213638   4.295   2.317   3.888
 4247SOL     OW13639   1.774   4.710   6.358
 4247SOL    HW113640   1.778   4.621   6.403
 4247SOL    HW213641   1.853   4.720   6.297
 4248SOL     OW13642   1.562   0.454   3.020
 4248SOL    HW113643   1.631   0.525   3.007
 4248SOL    HW213644   1.556   0.430   3.117
 4249SOL     OW13645   6.421   0.038   5.182
 4249SOL    HW113646   6.504   0.044   5.238
 4249SOL    HW213647   6.418   6.969   5.138
 4250SOL     OW13648   6.349   5.556   4.198
 4250SOL    HW113649   6.438   5.543   4.242
 4250SOL    HW213650   6.328   5.477   4.140
 4251SOL     OW13651   6.112   2.450   5.486
 4251SOL    HW113652   6.164   2.527   5.450
 4251SOL    HW213653   6.102   2.380   5.415
 4252SOL     OW13654   0.192   6.346   6.997
 4252SOL    HW113655   0.287   6.322   6.974
 4252SOL    HW213656   0.183   6.445   7.006
 4253SOL     OW13657   4.344   5.694   2.805
 4253SOL    HW113658   4.378   5.600   2.817
 4253SOL    HW213659   4.383   5.753   2.875
 4254SOL     OW13660   2.064   3.249   6.324
 4254SOL    HW113661   2.042   3.245   6.227
 4254SOL    HW213662   2.002   3.188   6.375
 4255SOL     OW13663   1.331   3.124   3.181
 4255SOL    HW113664   1.317   3.222   3.166
 4255SOL    HW213665   1.418   3.109   3.226
 4256SOL     OW13666   0.553   6.054   1.301
 4256SOL    HW113667   0.475   6.102   1.341
 4256SOL    HW213668   0.521   5.978   1.245
 4257SOL     OW13669   6.621   0.038   4.144
 4257SOL    HW113670   6.615   7.020   4.052
 4257SOL    HW213671   6.716   0.062   4.163
 4258SOL     OW13672   3.197   5.657   0.976
 4258SOL    HW113673   3.161   5.738   0.929
 4258SOL    HW213674   3.146   5.576   0.948
 4259SOL     OW13675   1.136   0.500   0.495
 4259SOL    HW113676   1.175   0.591   0.512
 4259SOL    HW213677   1.125   0.452   0.581
 4260SOL     OW13678   5.130   1.274   4.519
 4260SOL    HW113679   5.198   1.322   4.463
 4260SOL    HW213680   5.149   1.290   4.616
 4261SOL     OW13681   2.639   6.230   4.309
 4261SOL    HW113682   2.603   6.320   4.285
 4261SOL    HW213683   2.681   6.188   4.229
 4262SOL     OW13684   2.322   4.383   6.558
 4262SOL    HW113685   2.370   4.401   6.644
 4262SOL    HW213686   2.283   4.291   6.562
 4263SOL     OW13687   1.457   1.912   3.458
 4263SOL    HW113688   1.551   1.905   3.494
 4263SOL    HW213689   1.397   1.852   3.512
 4264SOL     OW13690   4.766   1.806   5.306
 4264SOL    HW113691   4.781   1.905   5.297
 4264SOL    HW213692   4.852   1.762   5.332
 4265SOL     OW13693   2.428   0.110   5.939
 4265SOL    HW113694   2.414   0.082   6.034
 4265SOL    HW213695   2.440   0.029   5.882
 4266SOL     OW13696   1.661   5.171   1.783
 4266SOL    HW113697   1.723   5.159   1.705
 4266SOL    HW213698   1.674   5.262   1.822
 4267SOL     OW13699   1.311   4.361   4.642
 4267SOL    HW113700   1.377   4.344   4.568
 4267SOL    HW213701   1.338   4.309   4.723
 4268SOL     OW13702   1.153   4.063   6.641
 4268SOL    HW113703   1.122   4.086   6.549
 4268SOL    HW213704   1.161   4.146   6.696
 4269SOL     OW13705   2.813   1.316   5.085
 4269SOL    HW113706   2.854   1.397   5.127
 4269SOL    HW213707   2.842   1.234   5.134
 4270SOL     OW13708   3.567   2.872   0.052
 4270SOL    HW113709   3.592   2.842   0.144
 4270SOL    HW213710   3.504   2.806   0.012
 4271SOL     OW13711   6.682   0.986   1.450
 4271SOL    HW113712   6.755   0.935   1.495
 4271SOL    HW213713   6.594   0.963   1.492
 4272SOL     OW13714   6.897   0.828   6.638
 4272SOL    HW113715   6.929   0.919   6.664
 4272SOL    HW213716   6.959   0.759   6.675
 4273SOL     OW13717   2.965   6.258   4.503
 4273SOL    HW113718   2.902   6.321   4.549
 4273SOL    HW213719   2.956   6.269   4.404
 4274SOL     OW13720   6.656   1.655   2.299
 4274SOL    HW113721   6.706   1.597   2.363
 4274SOL    HW213722   6.559   1.632   2.302
 4275SOL     OW13723   0.288   2.291   3.351
 4275SOL    HW113724   0.220   2.254   3.415
 4275SOL    HW213725   0.342   2.360   3.398
 4276SOL     OW13726   2.181   6.092   3.284
 4276SOL    HW113727   2.160   6.133   3.373
 4276SOL    HW213728   2.138   6.145   3.211
 4277SOL     OW13729   6.450   5.585   3.037
 4277SOL    HW113730   6.448   5.587   2.937
 4277SOL    HW213731   6.359   5.608   3.072
 4278SOL     OW13732   1.180   6.684   1.405
 4278SOL    HW113733   1.117   6.745   1.357
 4278SOL    HW213734   1.222   6.732   1.481
 4279SOL     OW13735   1.184   1.838   3.981
 4279SOL    HW113736   1.176   1.835   3.881
 4279SOL    HW213737   1.092   1.847   4.021
 4280SOL     OW13738   2.188   6.441   6.486
 4280SOL    HW113739   2.214   6.525   6.438
 4280SOL    HW213740   2.132   6.384   6.425
 4281SOL     OW13741   5.402   5.905   3.210
 4281SOL    HW113742   5.446   5.832   3.159
 4281SOL    HW213743   5.303   5.901   3.196
 4282SOL     OW13744   4.452   5.049   1.665
 4282SOL    HW113745   4.520   5.012   1.727
 4282SOL    HW213746   4.415   5.134   1.702
 4283SOL     OW13747   4.844   1.850   4.257
 4283SOL    HW113748   4.834   1.774   4.321
 4283SOL    HW213749   4.803   1.825   4.169
 4284SOL     OW13750   4.624   5.340   6.240
 4284SOL    HW113751   4.653   5.361   6.147
 4284SOL    HW213752   4.536   5.293   6.238
 4285SOL     OW13753   3.591   1.354   6.147
 4285SOL    HW113754   3.507   1.364   6.093
 4285SOL    HW213755   3.581   1.277   6.210
 4286SOL     OW13756   6.103   0.362   6.461
 4286SOL    HW113757   6.124   0.357   6.364
 4286SOL    HW213758   6.187   0.379   6.512
 4287SOL     OW13759   3.466   0.657   1.063
 4287SOL    HW113760   3.409   0.640   0.982
 4287SOL    HW213761   3.415   0.714   1.128
 4288SOL     OW13762   0.061   5.833   2.052
 4288SOL    HW113763   0.085   5.783   1.969
 4288SOL    HW213764   0.127   5.907   2.066
 4289SOL     OW13765   0.334   4.702   4.654
 4289SOL    HW113766   0.329   4.764   4.575
 4289SOL    HW213767   0.288   4.616   4.631
 4290SOL     OW13768   0.395   1.105   3.012
 4290SOL    HW113769   0.485   1.062   3.012
 4290SOL    HW213770   0.325   1.034   3.003
 4291SOL     OW13771   4.061   4.388   6.316
 4291SOL    HW113772   3.976   4.440   6.325
 4291SOL    HW213773   4.111   4.393   6.402
 4292SOL     OW13774   6.235   1.443   1.879
 4292SOL    HW113775   6.305   1.372   1.881
 4292SOL    HW213776   6.167   1.425   1.951
 4293SOL     OW13777   3.919   2.863   6.827
 4293SOL    HW113778   3.948   2.841   6.921
 4293SOL    HW213779   3.969   2.806   6.762
 4294SOL     OW13780   2.618   1.523   6.439
 4294SOL    HW113781   2.598   1.591   6.510
 4294SOL    HW213782   2.666   1.446   6.479
 4295SOL     OW13783   4.210   5.937   2.954
 4295SOL    HW113784   4.303   5.910   2.978
 4295SOL    HW213785   4.197   5.932   2.855
 4296SOL     OW13786   2.465   6.567   2.750
 4296SOL    HW113787   2.529   6.643   2.761
 4296SOL    HW213788   2.503   6.501   2.684
 4297SOL     OW13789   5.411   5.730   0.287
 4297SOL    HW113790   5.463   5.649   0.259
 4297SOL    HW213791   5.320   5.727   0.245
 4298SOL     OW13792   1.842   0.392   0.767
 4298SOL    HW113793   1.938   0.420   0.758
 4298SOL    HW213794   1.812   0.348   0.682
 4299SOL     OW13795   1.044   2.535   6.881
 4299SOL    HW113796   1.047   2.522   6.980
 4299SOL    HW213797   1.035   2.446   6.836
 4300SOL     OW13798   3.098   0.149   1.517
 4300SOL    HW113799   3.085   0.062   1.564
 4300SOL    HW213800   3.092   0.134   1.418
 4301SOL     OW13801   2.468   5.972   0.003
 4301SOL    HW113802   2.390   6.032   7.006
 4301SOL    HW213803   2.509   5.997   0.090
 4302SOL     OW13804   2.708   4.934   5.631
 4302SOL    HW113805   2.639   4.908   5.563
 4302SOL    HW213806   2.703   4.872   5.709
 4303SOL     OW13807   4.954   5.685   3.309
 4303SOL    HW113808   5.033   5.623   3.309
 4303SOL    HW213809   4.880   5.645   3.254
 4304SOL     OW13810   3.489   3.978   1.605
 4304SOL    HW113811   3.498   4.061   1.551
 4304SOL    HW213812   3.579   3.935   1.617
 4305SOL     OW13813   0.936   6.270   5.737
 4305SOL    HW113814   1.034   6.270   5.717
 4305SOL    HW213815   0.892   6.347   5.691
 4306SOL     OW13816   5.414   4.209   4.789
 4306SOL    HW113817   5.325   4.256   4.794
 4306SOL    HW213818   5.399   4.112   4.769
 4307SOL     OW13819   0.587   1.016   5.768
 4307SOL    HW113820   0.612   1.067   5.850
 4307SOL    HW213821   0.497   1.047   5.736
 4308SOL     OW13822   4.753   5.787   6.429
 4308SOL    HW113823   4.772   5.864   6.490
 4308SOL    HW213824   4.764   5.702   6.480
 4309SOL     OW13825   1.308   0.998   0.137
 4309SOL    HW113826   1.283   0.952   0.052
 4309SOL    HW213827   1.395   0.960   0.170
 4310SOL     OW13828   6.528   2.298   2.782
 4310SOL    HW113829   6.462   2.368   2.805
 4310SOL    HW213830   6.617   2.340   2.765
 4311SOL     OW13831   0.659   6.921   1.607
 4311SOL    HW113832   0.757   6.916   1.631
 4311SOL    HW213833   0.636   6.846   1.545
 4312SOL     OW13834   6.569   4.552   2.288
 4312SOL    HW113835   6.624   4.584   2.364
 4312SOL    HW213836   6.515   4.628   2.252
 4313SOL     OW13837   0.280   3.124   6.438
 4313SOL    HW113838   0.288   3.156   6.343
 4313SOL    HW213839   0.302   3.199   6.500
 4314SOL     OW13840   0.916   1.417   6.230
 4314SOL    HW113841   0.817   1.431   6.228
 4314SOL    HW213842   0.945   1.375   6.144
 4315SOL     OW13843   2.534   0.935   5.109
 4315SOL    HW113844   2.508   0.970   5.020
 4315SOL    HW213845   2.618   0.880   5.101
 4316SOL     OW13846   4.885   6.120   1.526
 4316SOL    HW113847   4.841   6.097   1.613
 4316SOL    HW213848   4.959   6.055   1.508
 4317SOL     OW13849   4.686   0.769   6.007
 4317SOL    HW113850   4.688   0.715   5.924
 4317SOL    HW213851   4.663   0.864   5.985
 4318SOL     OW13852   0.763   6.602   4.249
 4318SOL    HW113853   0.751   6.518   4.196
 4318SOL    HW213854   0.838   6.589   4.314
 4319SOL     OW13855   1.244   4.279   2.480
 4319SOL    HW113856   1.200   4.228   2.554
 4319SOL    HW213857   1.187   4.275   2.398
 4320SOL     OW13858   3.567   0.192   0.525
 4320SOL    HW113859   3.518   0.163   0.607
 4320SOL    HW213860   3.502   0.205   0.450
 4321SOL     OW13861   6.607   6.808   3.123
 4321SOL    HW113862   6.567   6.894   3.091
 4321SOL    HW213863   6.548   6.768   3.193
 4322SOL     OW13864   1.541   2.592   4.987
 4322SOL    HW113865   1.638   2.599   4.961
 4322SOL    HW213866   1.524   2.502   5.028
 4323SOL     OW13867   4.497   4.964   0.301
 4323SOL    HW113868   4.398   4.950   0.307
 4323SOL    HW213869   4.526   4.954   0.206
 4324SOL     OW13870   0.940   4.783   5.565
 4324SOL    HW113871   0.938   4.855   5.634
 4324SOL    HW213872   0.881   4.707   5.594
 4325SOL     OW13873   2.044   0.071   2.418
 4325SOL    HW113874   2.109   0.126   2.365
 4325SOL    HW213875   2.086   0.044   2.505
 4326SOL     OW13876   5.081   2.009   1.848
 4326SOL    HW113877   5.144   1.937   1.820
 4326SOL    HW213878   5.034   1.983   1.932
 4327SOL     OW13879   2.664   5.667   3.657
 4327SOL    HW113880   2.674   5.582   3.709
 4327SOL    HW213881   2.715   5.661   3.572
 4328SOL     OW13882   6.883   0.081   4.185
 4328SOL    HW113883   6.923   0.136   4.258
 4328SOL    HW213884   6.923   0.108   4.098
 4329SOL     OW13885   6.824   2.184   6.720
 4329SOL    HW113886   6.740   2.206   6.672
 4329SOL    HW213887   6.803   2.157   6.814
 4330SOL     OW13888   2.717   5.349   4.460
 4330SOL    HW113889   2.790   5.381   4.400
 4330SOL    HW213890   2.674   5.428   4.504
 4331SOL     OW13891   5.917   1.944   2.053
 4331SOL    HW113892   5.940   1.956   2.150
 4331SOL    HW213893   5.818   1.952   2.042
 4332SOL     OW13894   1.278   5.217   1.929
 4332SOL    HW113895   1.221   5.286   1.885
 4332SOL    HW213896   1.231   5.180   2.009
 4333SOL     OW13897   4.506   2.298   6.265
 4333SOL    HW113898   4.546   2.241   6.194
 4333SOL    HW213899   4.570   2.371   6.289
 4334SOL     OW13900   6.993   2.834   4.345
 4334SOL    HW113901   6.914   2.891   4.367
 4334SOL    HW213902   0.053   2.891   4.333
 4335SOL     OW13903   2.728   3.871   1.546
 4335SOL    HW113904   2.766   3.846   1.456
 4335SOL    HW213905   2.792   3.842   1.617
 4336SOL     OW13906   2.840   6.145   5.350
 4336SOL    HW113907   2.763   6.104   5.301
 4336SOL    HW213908   2.850   6.241   5.323
 4337SOL     OW13909   1.056   5.294   3.902
 4337SOL    HW113910   1.014   5.237   3.973
 4337SOL    HW213911   1.027   5.263   3.812
 4338SOL     OW13912   3.154   2.109   5.747
 4338SOL    HW113913   3.142   2.194   5.695
 4338SOL    HW213914   3.236   2.062   5.713
 4339SOL     OW13915   4.058   4.657   5.912
 4339SOL    HW113916   4.043   4.570   5.959
 4339SOL    HW213917   4.018   4.652   5.820
 4340SOL     OW13918   6.374   3.999   1.679
 4340SOL    HW113919   6.285   3.993   1.634
 4340SOL    HW213920   6.413   4.090   1.665
 4341SOL     OW13921   6.558   6.148   1.568
 4341SOL    HW113922   6.505   6.067   1.540
 4341SOL    HW213923   6.516   6.189   1.649
 4342SOL     OW13924   4.933   3.840   2.580
 4342SOL    HW113925   5.019   3.887   2.560
 4342SOL    HW213926   4.857   3.892   2.540
 4343SOL     OW13927   3.905   6.668   5.817
 4343SOL    HW113928   3.914   6.594   5.750
 4343SOL    HW213929   3.954   6.749   5.785
 4344SOL     OW13930   0.109   3.827   3.101
 4344SOL    HW113931   0.106   3.919   3.064
 4344SOL    HW213932   0.151   3.766   3.034
 4345SOL     OW13933   3.231   3.244   2.719
 4345SOL    HW113934   3.275   3.298   2.648
 4345SOL    HW213935   3.300   3.188   2.766
 4346SOL     OW13936   1.119   2.944   2.619
 4346SOL    HW113937   1.119   2.980   2.526
 4346SOL    HW213938   1.030   2.961   2.661
 4347SOL     OW13939   6.742   5.514   0.343
 4347SOL    HW113940   6.777   5.510   0.437
 4347SOL    HW213941   6.743   5.423   0.303
 4348SOL     OW13942   5.832   4.976   4.526
 4348SOL    HW113943   5.765   4.902   4.517
 4348SOL    HW213944   5.799   5.042   4.595
 4349SOL     OW13945   0.312   3.316   4.346
 4349SOL    HW113946   0.351   3.228   4.320
 4349SOL    HW213947   0.306   3.321   4.446
 4350SOL     OW13948   3.347   1.145   4.129
 4350SOL    HW113949   3.272   1.179   4.186
 4350SOL    HW213950   3.407   1.087   4.183
 4351SOL     OW13951   0.662   5.783   0.355
 4351SOL    HW113952   0.599   5.861   0.347
 4351SOL    HW213953   0.632   5.710   0.294
 4352SOL     OW13954   3.243   4.831   1.500
 4352SOL    HW113955   3.149   4.813   1.529
 4352SOL    HW213956   3.298   4.854   1.580
 4353SOL     OW13957   2.549   3.008   1.248
 4353SOL    HW113958   2.624   2.974   1.304
 4353SOL    HW213959   2.541   3.107   1.260
 4354SOL     OW13960   5.856   6.510   2.914
 4354SOL    HW113961   5.955   6.519   2.902
 4354SOL    HW213962   5.808   6.572   2.852
 4355SOL     OW13963   2.014   5.304   2.642
 4355SOL    HW113964   1.930   5.340   2.682
 4355SOL    HW213965   2.044   5.223   2.693
 4356SOL     OW13966   6.227   2.688   5.406
 4356SOL    HW113967   6.137   2.726   5.431
 4356SOL    HW213968   6.260   2.732   5.323
 4357SOL     OW13969   5.560   0.506   1.986
 4357SOL    HW113970   5.628   0.579   1.981
 4357SOL    HW213971   5.473   0.538   1.948
 4358SOL     OW13972   3.039   0.256   0.334
 4358SOL    HW113973   2.941   0.269   0.348
 4358SOL    HW213974   3.089   0.290   0.414
 4359SOL     OW13975   3.005   1.752   0.796
 4359SOL    HW113976   3.035   1.673   0.743
 4359SOL    HW213977   2.953   1.720   0.876
 4360SOL     OW13978   2.223   4.751   4.103
 4360SOL    HW113979   2.167   4.668   4.097
 4360SOL    HW213980   2.301   4.733   4.163
 4361SOL     OW13981   6.924   1.935   0.104
 4361SOL    HW113982   6.974   1.860   0.061
 4361SOL    HW213983   6.982   2.017   0.106
 4362SOL     OW13984   1.345   5.487   3.378
 4362SOL    HW113985   1.300   5.574   3.395
 4362SOL    HW213986   1.299   5.439   3.303
 4363SOL     OW13987   4.010   1.025   2.556
 4363SOL    HW113988   4.090   0.990   2.508
 4363SOL    HW213989   4.010   1.125   2.553
 4364SOL     OW13990   3.938   3.032   2.505
 4364SOL    HW113991   3.967   3.082   2.586
 4364SOL    HW213992   3.865   2.968   2.528
 4365SOL     OW13993   1.788   1.326   1.371
 4365SOL    HW113994   1.805   1.291   1.463
 4365SOL    HW213995   1.807   1.255   1.303
 4366SOL     OW13996   4.700   0.002   4.769
 4366SOL    HW113997   4.789   0.014   4.726
 4366SOL    HW213998   4.673   0.087   4.814
 4367SOL     OW13999   3.013   6.106   3.096
 4367SOL    HW114000   3.071   6.188   3.107
 4367SOL    HW214001   2.917   6.133   3.101
 4368SOL     OW14002   4.731   4.120   3.753
 4368SOL    HW114003   4.798   4.189   3.726
 4368SOL    HW214004   4.655   4.121   3.688
 4369SOL     OW14005   5.154   3.926   3.579
 4369SOL    HW114006   5.095   3.941   3.659
 4369SOL    HW214007   5.151   4.007   3.520
 4370SOL     OW14008   3.859   4.448   1.671
 4370SOL    HW114009   3.807   4.364   1.689
 4370SOL    HW214010   3.810   4.526   1.708
 4371SOL     OW14011   2.032   0.848   1.662
 4371SOL    HW114012   2.033   0.891   1.572
 4371SOL    HW214013   2.113   0.876   1.714
 4372SOL     OW14014   1.452   3.321   4.919
 4372SOL    HW114015   1.547   3.337   4.893
 4372SOL    HW214016   1.448   3.289   5.014
 4373SOL     OW14017   3.220   0.783   6.350
 4373SOL    HW114018   3.154   0.819   6.416
 4373SOL    HW214019   3.257   0.697   6.384
 4374SOL     OW14020   2.499   6.691   0.805
 4374SOL    HW114021   2.455   6.720   0.890
 4374SOL    HW214022   2.513   6.770   0.746
 4375SOL     OW14023   4.501   1.745   5.306
 4375SOL    HW114024   4.598   1.739   5.329
 4375SOL    HW214025   4.487   1.823   5.244
 4376SOL     OW14026   2.246   5.922   6.627
 4376SOL    HW114027   2.175   5.888   6.688
 4376SOL    HW214028   2.226   6.017   6.602
 4377SOL     OW14029   5.445   0.040   6.239
 4377SOL    HW114030   5.517   6.999   6.271
 4377SOL    HW214031   5.357   7.013   6.241
 4378SOL     OW14032   2.839   5.480   2.283
 4378SOL    HW114033   2.937   5.473   2.304
 4378SOL    HW214034   2.825   5.552   2.215
 4379SOL     OW14035   1.091   0.272   1.393
 4379SOL    HW114036   1.077   0.325   1.310
 4379SOL    HW214037   1.030   0.305   1.465
 4380SOL     OW14038   2.017   5.111   4.407
 4380SOL    HW114039   2.043   5.062   4.324
 4380SOL    HW214040   1.972   5.047   4.470
 4381SOL     OW14041   4.934   6.291   5.515
 4381SOL    HW114042   4.923   6.376   5.463
 4381SOL    HW214043   5.029   6.263   5.512
 4382SOL     OW14044   4.887   3.421   3.221
 4382SOL    HW114045   4.899   3.424   3.321
 4382SOL    HW214046   4.887   3.514   3.185
 4383SOL     OW14047   1.140   1.830   6.931
 4383SOL    HW114048   1.131   1.919   6.975
 4383SOL    HW214049   1.061   1.773   6.954
 4384SOL     OW14050   3.866   6.586   1.428
 4384SOL    HW114051   3.847   6.498   1.384
 4384SOL    HW214052   3.811   6.658   1.385
 4385SOL     OW14053   5.941   1.679   2.205
 4385SOL    HW114054   5.846   1.699   2.230
 4385SOL    HW214055   5.976   1.754   2.149
 4386SOL     OW14056   1.084   3.575   6.680
 4386SOL    HW114057   1.078   3.600   6.584
 4386SOL    HW214058   1.083   3.475   6.688
 4387SOL     OW14059   6.821   2.995   1.897
 4387SOL    HW114060   6.868   2.989   1.809
 4387SOL    HW214061   6.797   2.903   1.928
 4388SOL     OW14062   2.939   1.507   5.235
 4388SOL    HW114063   3.016   1.559   5.200
 4388SOL    HW214064   2.916   1.539   5.327
 4389SOL     OW14065   5.293   1.906   2.195
 4389SOL    HW114066   5.208   1.948   2.227
 4389SOL    HW214067   5.327   1.956   2.115
 4390SOL     OW14068   4.379   2.611   1.752
 4390SOL    HW114069   4.396   2.702   1.714
 4390SOL    HW214070   4.296   2.573   1.710
 4391SOL     OW14071   0.501   5.845   1.125
 4391SOL    HW114072   0.488   5.763   1.181
 4391SOL    HW214073   0.534   5.820   1.035
 4392SOL     OW14074   5.644   3.417   4.360
 4392SOL    HW114075   5.724   3.381   4.408
 4392SOL    HW214076   5.561   3.381   4.403
 4393SOL     OW14077   4.783   5.767   3.837
 4393SOL    HW114078   4.779   5.671   3.809
 4393SOL    HW214079   4.849   5.815   3.779
 4394SOL     OW14080   4.688   0.999   2.259
 4394SOL    HW114081   4.651   0.995   2.351
 4394SOL    HW214082   4.765   0.936   2.251
 4395SOL     OW14083   4.721   1.895   1.493
 4395SOL    HW114084   4.779   1.969   1.526
 4395SOL    HW214085   4.625   1.922   1.499
 4396SOL     OW14086   1.309   0.927   4.215
 4396SOL    HW114087   1.370   0.956   4.143
 4396SOL    HW214088   1.340   0.964   4.303
 4397SOL     OW14089   6.513   0.190   6.551
 4397SOL    HW114090   6.606   0.197   6.514
 4397SOL    HW214091   6.470   0.280   6.550
 4398SOL     OW14092   0.075   4.608   3.872
 4398SOL    HW114093   0.034   4.634   3.784
 4398SOL    HW214094   0.006   4.615   3.944
 4399SOL     OW14095   2.737   1.285   1.409
 4399SOL    HW114096   2.773   1.192   1.415
 4399SOL    HW214097   2.642   1.285   1.441
 4400SOL     OW14098   3.632   5.657   3.980
 4400SOL    HW114099   3.595   5.675   3.889
 4400SOL    HW214100   3.632   5.741   4.034
 4401SOL     OW14101   5.599   6.774   4.099
 4401SOL    HW114102   5.535   6.766   4.175
 4401SOL    HW214103   5.683   6.817   4.131
 4402SOL     OW14104   6.745   0.808   3.278
 4402SOL    HW114105   6.694   0.893   3.291
 4402SOL    HW214106   6.841   0.823   3.299
 4403SOL     OW14107   0.929   6.602   2.619
 4403SOL    HW114108   0.890   6.555   2.698
 4403SOL    HW214109   0.868   6.677   2.591
 4404SOL     OW14110   1.488   4.161   3.459
 4404SOL    HW114111   1.487   4.160   3.359
 4404SOL    HW214112   1.424   4.093   3.494
 4405SOL     OW14113   3.607   4.419   6.549
 4405SOL    HW114114   3.580   4.494   6.609
 4405SOL    HW214115   3.550   4.420   6.467
 4406SOL     OW14116   5.411   3.551   1.901
 4406SOL    HW114117   5.391   3.557   1.803
 4406SOL    HW214118   5.330   3.577   1.953
 4407SOL     OW14119   0.198   6.621   0.016
 4407SOL    HW114120   0.147   6.632   6.952
 4407SOL    HW214121   0.255   6.702   0.032
 4408SOL     OW14122   5.131   6.336   0.650
 4408SOL    HW114123   5.094   6.330   0.558
 4408SOL    HW214124   5.093   6.263   0.707
 4409SOL     OW14125   2.199   1.059   2.292
 4409SOL    HW114126   2.224   1.141   2.345
 4409SOL    HW214127   2.148   1.087   2.210
 4410SOL     OW14128   2.694   5.600   1.542
 4410SOL    HW114129   2.771   5.549   1.580
 4410SOL    HW214130   2.621   5.606   1.609
 4411SOL     OW14131   3.691   2.952   2.575
 4411SOL    HW114132   3.643   3.032   2.608
 4411SOL    HW214133   3.643   2.914   2.495
 4412SOL     OW14134   3.290   1.967   6.202
 4412SOL    HW114135   3.207   2.023   6.197
 4412SOL    HW214136   3.303   1.934   6.295
 4413SOL     OW14137   4.047   5.535   4.700
 4413SOL    HW114138   3.950   5.515   4.708
 4413SOL    HW214139   4.061   5.605   4.630
 4414SOL     OW14140   3.504   5.446   1.883
 4414SOL    HW114141   3.524   5.403   1.795
 4414SOL    HW214142   3.430   5.395   1.929
 4415SOL     OW14143   4.506   2.223   1.131
 4415SOL    HW114144   4.460   2.259   1.049
 4415SOL    HW214145   4.599   2.196   1.107
 4416SOL     OW14146   3.534   1.309   3.754
 4416SOL    HW114147   3.557   1.246   3.679
 4416SOL    HW214148   3.446   1.282   3.794
 4417SOL     OW14149   0.771   0.547   0.714
 4417SOL    HW114150   0.679   0.540   0.753
 4417SOL    HW214151   0.770   0.513   0.620
 4418SOL     OW14152   3.982   0.272   3.604
 4418SOL    HW114153   3.984   0.327   3.521
 4418SOL    HW214154   3.926   0.317   3.673
 4419SOL     OW14155   0.156   5.301   0.457
 4419SOL    HW114156   0.195   5.209   0.465
 4419SOL    HW214157   0.230   5.367   0.444
 4420SOL     OW14158   4.158   0.514   6.799
 4420SOL    HW114159   4.094   0.589   6.786
 4420SOL    HW214160   4.224   0.538   6.871
 4421SOL     OW14161   1.688   1.825   3.238
 4421SOL    HW114162   1.770   1.850   3.186
 4421SOL    HW214163   1.619   1.897   3.228
 4422SOL     OW14164   1.955   4.055   5.893
 4422SOL    HW114165   1.953   3.959   5.865
 4422SOL    HW214166   2.017   4.106   5.834
 4423SOL     OW14167   6.658   1.283   6.727
 4423SOL    HW114168   6.743   1.231   6.738
 4423SOL    HW214169   6.639   1.333   6.812
 4424SOL     OW14170   0.045   6.477   3.634
 4424SOL    HW114171   0.079   6.382   3.635
 4424SOL    HW214172   0.001   6.497   3.721
 4425SOL     OW14173   4.367   4.404   0.310
 4425SOL    HW114174   4.322   4.458   0.239
 4425SOL    HW214175   4.324   4.314   0.317
 4426SOL     OW14176   1.005   0.319   5.031
 4426SOL    HW114177   1.102   0.322   5.011
 4426SOL    HW214178   0.957   0.385   4.972
 4427SOL     OW14179   1.461   6.410   3.322
 4427SOL    HW114180   1.453   6.342   3.395
 4427SOL    HW214181   1.379   6.468   3.322
 4428SOL     OW14182   2.839   5.842   3.269
 4428SOL    HW114183   2.890   5.869   3.351
 4428SOL    HW214184   2.884   5.764   3.226
 4429SOL     OW14185   3.511   0.691   3.049
 4429SOL    HW114186   3.489   0.788   3.051
 4429SOL    HW214187   3.515   0.659   2.954
 4430SOL     OW14188   1.560   0.471   1.469
 4430SOL    HW114189   1.466   0.444   1.489
 4430SOL    HW214190   1.603   0.508   1.551
 4431SOL     OW14191   1.843   2.046   3.368
 4431SOL    HW114192   1.870   2.008   3.280
 4431SOL    HW214193   1.769   2.113   3.354
 4432SOL     OW14194   2.923   3.592   4.058
 4432SOL    HW114195   2.882   3.509   4.095
 4432SOL    HW214196   2.946   3.577   3.961
 4433SOL     OW14197   6.971   0.665   3.592
 4433SOL    HW114198   6.883   0.711   3.602
 4433SOL    HW214199   0.012   0.722   3.539
 4434SOL     OW14200   5.204   2.180   4.353
 4434SOL    HW114201   5.150   2.097   4.337
 4434SOL    HW214202   5.191   2.243   4.276
 4435SOL     OW14203   3.523   3.099   2.308
 4435SOL    HW114204   3.511   3.027   2.240
 4435SOL    HW214205   3.434   3.129   2.342
 4436SOL     OW14206   4.861   0.659   0.319
 4436SOL    HW114207   4.865   0.589   0.390
 4436SOL    HW214208   4.788   0.724   0.340
 4437SOL     OW14209   3.373   0.550   4.609
 4437SOL    HW114210   3.363   0.559   4.511
 4437SOL    HW214211   3.433   0.622   4.644
 4438SOL     OW14212   3.708   3.993   6.325
 4438SOL    HW114213   3.699   3.908   6.377
 4438SOL    HW214214   3.776   3.980   6.253
 4439SOL     OW14215   2.535   4.956   2.413
 4439SOL    HW114216   2.554   4.959   2.315
 4439SOL    HW214217   2.437   4.940   2.428
 4440SOL     OW14218   6.851   0.380   6.506
 4440SOL    HW114219   6.889   0.288   6.515
 4440SOL    HW214220   6.814   0.393   6.414
 4441SOL     OW14221   5.497   2.376   3.489
 4441SOL    HW114222   5.565   2.448   3.506
 4441SOL    HW214223   5.424   2.382   3.557
 4442SOL     OW14224   1.948   6.498   2.052
 4442SOL    HW114225   1.901   6.410   2.057
 4442SOL    HW214226   2.010   6.506   2.130
 4443SOL     OW14227   2.472   1.508   5.959
 4443SOL    HW114228   2.399   1.442   5.975
 4443SOL    HW214229   2.543   1.466   5.902
 4444SOL     OW14230   5.233   0.804   2.738
 4444SOL    HW114231   5.249   0.890   2.785
 4444SOL    HW214232   5.299   0.793   2.664
 4445SOL     OW14233   1.742   1.539   6.132
 4445SOL    HW114234   1.728   1.606   6.059
 4445SOL    HW214235   1.774   1.453   6.093
 4446SOL     OW14236   5.854   5.909   3.891
 4446SOL    HW114237   5.834   6.001   3.858
 4446SOL    HW214238   5.851   5.909   3.991
 4447SOL     OW14239   4.950   3.421   4.888
 4447SOL    HW114240   4.902   3.348   4.937
 4447SOL    HW214241   4.936   3.507   4.936
 4448SOL     OW14242   2.784   2.806   6.410
 4448SOL    HW114243   2.727   2.879   6.373
 4448SOL    HW214244   2.725   2.733   6.445
 4449SOL     OW14245   0.987   1.259   5.265
 4449SOL    HW114246   0.968   1.357   5.252
 4449SOL    HW214247   0.931   1.206   5.202
 4450SOL     OW14248   4.026   3.772   3.354
 4450SOL    HW114249   3.935   3.811   3.338
 4450SOL    HW214250   4.038   3.753   3.451
 4451SOL     OW14251   6.867   4.319   1.662
 4451SOL    HW114252   6.894   4.391   1.726
 4451SOL    HW214253   6.840   4.237   1.713
 4452SOL     OW14254   6.279   4.659   6.225
 4452SOL    HW114255   6.219   4.714   6.166
 4452SOL    HW214256   6.329   4.593   6.169
 4453SOL     OW14257   5.035   1.764   1.477
 4453SOL    HW114258   5.082   1.846   1.509
 4453SOL    HW214259   4.936   1.775   1.489
 4454SOL     OW14260   5.678   3.034   1.411
 4454SOL    HW114261   5.648   2.942   1.436
 4454SOL    HW214262   5.604   3.099   1.426
 4455SOL     OW14263   4.393   1.742   1.400
 4455SOL    HW114264   4.367   1.754   1.305
 4455SOL    HW214265   4.311   1.743   1.458
 4456SOL     OW14266   1.302   5.630   2.869
 4456SOL    HW114267   1.394   5.643   2.905
 4456SOL    HW214268   1.306   5.587   2.779
 4457SOL     OW14269   4.899   1.965   6.665
 4457SOL    HW114270   4.835   1.924   6.599
 4457SOL    HW214271   4.924   2.057   6.634
 4458SOL     OW14272   3.827   1.761   6.746
 4458SOL    HW114273   3.902   1.810   6.790
 4458SOL    HW214274   3.776   1.709   6.814
 4459SOL     OW14275   5.182   6.167   5.567
 4459SOL    HW114276   5.272   6.211   5.566
 4459SOL    HW214277   5.188   6.079   5.614
 4460SOL     OW14278   1.249   1.616   5.898
 4460SOL    HW114279   1.337   1.651   5.929
 4460SOL    HW214280   1.183   1.619   5.973
 4461SOL     OW14281   2.483   0.636   2.399
 4461SOL    HW114282   2.429   0.720   2.392
 4461SOL    HW214283   2.526   0.632   2.489
 4462SOL     OW14284   6.850   5.492   1.311
 4462SOL    HW114285   6.856   5.396   1.283
 4462SOL    HW214286   6.848   5.498   1.411
 4463SOL     OW14287   1.264   3.543   5.833
 4463SOL    HW114288   1.267   3.559   5.734
 4463SOL    HW214289   1.346   3.581   5.875
 4464SOL     OW14290   6.168   3.149   6.812
 4464SOL    HW114291   6.081   3.163   6.764
 4464SOL    HW214292   6.238   3.120   6.746
 4465SOL     OW14293   1.383   5.702   1.599
 4465SOL    HW114294   1.364   5.786   1.550
 4465SOL    HW214295   1.464   5.715   1.657
 4466SOL     OW14296   0.537   2.388   3.434
 4466SOL    HW114297   0.603   2.463   3.434
 4466SOL    HW214298   0.575   2.310   3.386
 4467SOL     OW14299   1.137   0.095   2.990
 4467SOL    HW114300   1.125   0.096   3.090
 4467SOL    HW214301   1.235   0.093   2.969
 4468SOL     OW14302   1.256   2.399   0.249
 4468SOL    HW114303   1.219   2.308   0.270
 4468SOL    HW214304   1.322   2.425   0.319
 4469SOL     OW14305   4.360   0.021   0.301
 4469SOL    HW114306   4.409   6.997   0.226
 4469SOL    HW214307   4.270   0.051   0.268
 4470SOL     OW14308   4.619   5.353   1.090
 4470SOL    HW114309   4.682   5.426   1.061
 4470SOL    HW214310   4.656   5.308   1.171
 4471SOL     OW14311   6.298   3.558   0.441
 4471SOL    HW114312   6.203   3.582   0.422
 4471SOL    HW214313   6.358   3.620   0.391
 4472SOL     OW14314   1.909   4.874   1.668
 4472SOL    HW114315   1.974   4.798   1.665
 4472SOL    HW214316   1.878   4.888   1.762
 4473SOL     OW14317   0.909   0.212   5.705
 4473SOL    HW114318   0.839   0.239   5.639
 4473SOL    HW214319   0.985   0.168   5.658
 4474SOL     OW14320   5.950   0.918   3.594
 4474SOL    HW114321   5.859   0.877   3.598
 4474SOL    HW214322   6.000   0.880   3.517
 4475SOL     OW14323   1.352   4.027   6.845
 4475SOL    HW114324   1.286   4.003   6.774
 4475SOL    HW214325   1.306   4.037   6.933
 4476SOL     OW14326   4.984   6.320   2.458
 4476SOL    HW114327   5.063   6.316   2.519
 4476SOL    HW214328   5.009   6.280   2.370
 4477SOL     OW14329   1.703   1.206   6.839
 4477SOL    HW114330   1.635   1.150   6.792
 4477SOL    HW214331   1.673   1.223   6.933
 4478SOL     OW14332   1.653   5.437   1.831
 4478SOL    HW114333   1.698   5.429   1.742
 4478SOL    HW214334   1.631   5.533   1.848
 4479SOL     OW14335   0.324   0.006   5.499
 4479SOL    HW114336   0.374   6.966   5.439
 4479SOL    HW214337   0.369   0.010   5.588
 4480SOL     OW14338   1.060   4.727   3.893
 4480SOL    HW114339   1.111   4.785   3.829
 4480SOL    HW214340   0.969   4.707   3.857
 4481SOL     OW14341   1.009   7.007   3.671
 4481SOL    HW114342   1.105   0.011   3.675
 4481SOL    HW214343   0.953   0.062   3.703
 4482SOL     OW14344   0.700   4.336   3.950
 4482SOL    HW114345   0.654   4.410   3.901
 4482SOL    HW214346   0.636   4.294   4.013
 4483SOL     OW14347   5.133   2.608   2.123
 4483SOL    HW114348   5.092   2.684   2.072
 4483SOL    HW214349   5.061   2.551   2.162
 4484SOL     OW14350   4.231   2.858   6.229
 4484SOL    HW114351   4.225   2.954   6.256
 4484SOL    HW214352   4.150   2.832   6.176
 4485SOL     OW14353   4.832   0.851   6.661
 4485SOL    HW114354   4.917   0.852   6.714
 4485SOL    HW214355   4.762   0.800   6.712
 4486SOL     OW14356   6.697   2.549   3.948
 4486SOL    HW114357   6.719   2.626   4.008
 4486SOL    HW214358   6.778   2.491   3.938
 4487SOL     OW14359   3.096   2.973   5.856
 4487SOL    HW114360   3.038   2.906   5.902
 4487SOL    HW214361   3.075   3.064   5.892
 4488SOL     OW14362   6.923   1.533   5.669
 4488SOL    HW114363   6.833   1.567   5.644
 4488SOL    HW214364   6.989   1.608   5.668
 4489SOL     OW14365   6.790   0.693   3.017
 4489SOL    HW114366   6.760   0.757   2.946
 4489SOL    HW214367   6.747   0.717   3.104
 4490SOL     OW14368   6.923   2.204   3.296
 4490SOL    HW114369   6.999   2.191   3.360
 4490SOL    HW214370   6.946   2.278   3.232
 4491SOL     OW14371   1.878   2.979   2.746
 4491SOL    HW114372   1.960   2.930   2.718
 4491SOL    HW214373   1.903   3.063   2.795
 4492SOL     OW14374   4.165   3.620   6.703
 4492SOL    HW114375   4.167   3.632   6.604
 4492SOL    HW214376   4.101   3.547   6.727
 4493SOL     OW14377   5.894   5.118   3.347
 4493SOL    HW114378   5.873   5.069   3.431
 4493SOL    HW214379   5.841   5.080   3.271
 4494SOL     OW14380   6.288   3.380   3.930
 4494SOL    HW114381   6.204   3.337   3.897
 4494SOL    HW214382   6.367   3.334   3.890
 4495SOL     OW14383   4.560   6.230   1.667
 4495SOL    HW114384   4.527   6.289   1.741
 4495SOL    HW214385   4.656   6.248   1.650
 4496SOL     OW14386   5.011   4.446   5.638
 4496SOL    HW114387   4.955   4.473   5.716
 4496SOL    HW214388   4.953   4.409   5.566
 4497SOL     OW14389   6.494   5.370   0.522
 4497SOL    HW114390   6.534   5.320   0.445
 4497SOL    HW214391   6.537   5.460   0.530
 4498SOL     OW14392   0.276   4.207   6.841
 4498SOL    HW114393   0.258   4.118   6.882
 4498SOL    HW214394   0.302   4.195   6.745
 4499SOL     OW14395   6.691   3.004   6.461
 4499SOL    HW114396   6.788   3.028   6.463
 4499SOL    HW214397   6.672   2.936   6.533
 4500SOL     OW14398   3.376   3.790   4.791
 4500SOL    HW114399   3.315   3.801   4.713
 4500SOL    HW214400   3.471   3.783   4.758
 4501SOL     OW14401   0.988   4.557   4.834
 4501SOL    HW114402   0.983   4.459   4.855
 4501SOL    HW214403   1.078   4.578   4.794
 4502SOL     OW14404   6.581   3.036   6.923
 4502SOL    HW114405   6.617   3.090   6.999
 4502SOL    HW214406   6.569   3.095   6.843
 4503SOL     OW14407   1.443   1.744   2.877
 4503SOL    HW114408   1.455   1.691   2.960
 4503SOL    HW214409   1.501   1.707   2.804
 4504SOL     OW14410   4.624   2.562   4.784
 4504SOL    HW114411   4.631   2.662   4.788
 4504SOL    HW214412   4.601   2.527   4.874
 4505SOL     OW14413   1.883   5.148   5.933
 4505SOL    HW114414   1.810   5.194   5.883
 4505SOL    HW214415   1.922   5.076   5.876
 4506SOL     OW14416   4.122   0.074   5.370
 4506SOL    HW114417   4.183   0.148   5.345
 4506SOL    HW214418   4.146   7.013   5.318
 4507SOL     OW14419   6.220   4.443   1.446
 4507SOL    HW114420   6.223   4.437   1.546
 4507SOL    HW214421   6.296   4.499   1.414
 4508SOL     OW14422   1.138   4.548   0.368
 4508SOL    HW114423   1.100   4.494   0.443
 4508SOL    HW214424   1.164   4.487   0.293
 4509SOL     OW14425   1.265   2.126   4.009
 4509SOL    HW114426   1.365   2.131   4.004
 4509SOL    HW214427   1.237   2.030   4.011
 4510SOL     OW14428   3.819   6.822   5.030
 4510SOL    HW114429   3.798   6.883   5.106
 4510SOL    HW214430   3.879   6.748   5.062
 4511SOL     OW14431   6.326   3.153   6.542
 4511SOL    HW114432   6.425   3.146   6.556
 4511SOL    HW214433   6.285   3.063   6.550
 4512SOL     OW14434   3.039   4.622   0.420
 4512SOL    HW114435   3.000   4.714   0.426
 4512SOL    HW214436   2.968   4.557   0.393
 4513SOL     OW14437   5.224   0.756   2.116
 4513SOL    HW114438   5.195   0.831   2.057
 4513SOL    HW214439   5.273   0.688   2.062
 4514SOL     OW14440   3.678   1.596   5.496
 4514SOL    HW114441   3.635   1.539   5.426
 4514SOL    HW214442   3.689   1.544   5.580
 4515SOL     OW14443   0.260   5.181   1.202
 4515SOL    HW114444   0.306   5.111   1.257
 4515SOL    HW214445   0.321   5.259   1.189
 4516SOL     OW14446   1.105   6.878   4.896
 4516SOL    HW114447   1.047   6.857   4.817
 4516SOL    HW214448   1.090   6.973   4.923
 4517SOL     OW14449   3.852   7.009   5.227
 4517SOL    HW114450   3.830   0.066   5.286
 4517SOL    HW214451   3.948   6.983   5.240
 4518SOL     OW14452   1.009   1.292   4.172
 4518SOL    HW114453   1.107   1.302   4.155
 4518SOL    HW214454   0.993   1.287   4.271
 4519SOL     OW14455   5.979   2.541   4.534
 4519SOL    HW114456   6.015   2.599   4.607
 4519SOL    HW214457   5.880   2.556   4.525
 4520SOL     OW14458   0.607   4.694   3.404
 4520SOL    HW114459   0.545   4.690   3.326
 4520SOL    HW214460   0.700   4.673   3.373
 4521SOL     OW14461   5.966   2.287   5.827
 4521SOL    HW114462   6.043   2.333   5.871
 4521SOL    HW214463   6.001   2.222   5.759
 4522SOL     OW14464   5.759   0.398   3.552
 4522SOL    HW114465   5.719   0.307   3.557
 4522SOL    HW214466   5.745   0.446   3.639
 4523SOL     OW14467   3.702   3.348   6.786
 4523SOL    HW114468   3.676   3.317   6.694
 4523SOL    HW214469   3.713   3.269   6.846
 4524SOL     OW14470   6.125   0.386   5.031
 4524SOL    HW114471   6.140   0.322   5.107
 4524SOL    HW214472   6.029   0.414   5.031
 4525SOL     OW14473   6.443   1.534   5.375
 4525SOL    HW114474   6.455   1.488   5.286
 4525SOL    HW214475   6.379   1.610   5.364
 4526SOL     OW14476   4.017   0.946   0.516
 4526SOL    HW114477   4.054   0.952   0.423
 4526SOL    HW214478   3.917   0.940   0.512
 4527SOL     OW14479   3.585   1.414   3.320
 4527SOL    HW114480   3.619   1.383   3.408
 4527SOL    HW214481   3.515   1.484   3.334
 4528SOL     OW14482   5.720   0.362   6.195
 4528SOL    HW114483   5.791   0.416   6.149
 4528SOL    HW214484   5.642   0.352   6.133
 4529SOL     OW14485   3.578   6.793   3.414
 4529SOL    HW114486   3.636   6.746   3.480
 4529SOL    HW214487   3.531   6.726   3.356
 4530SOL     OW14488   0.286   2.860   4.954
 4530SOL    HW114489   0.232   2.810   5.022
 4530SOL    HW214490   0.295   2.805   4.871
 4531SOL     OW14491   0.239   3.264   3.595
 4531SOL    HW114492   0.229   3.364   3.594
 4531SOL    HW214493   0.217   3.230   3.686
 4532SOL     OW14494   6.547   1.854   0.429
 4532SOL    HW114495   6.460   1.882   0.388
 4532SOL    HW214496   6.529   1.789   0.504
 4533SOL     OW14497   2.827   6.036   2.818
 4533SOL    HW114498   2.829   5.940   2.847
 4533SOL    HW214499   2.812   6.095   2.898
 4534SOL     OW14500   6.537   3.975   5.694
 4534SOL    HW114501   6.446   3.940   5.717
 4534SOL    HW214502   6.593   3.981   5.776
 4535SOL     OW14503   4.796   2.790   2.671
 4535SOL    HW114504   4.868   2.720   2.677
 4535SOL    HW214505   4.762   2.794   2.577
 4536SOL     OW14506   6.859   1.267   4.316
 4536SOL    HW114507   6.829   1.244   4.409
 4536SOL    HW214508   6.838   1.191   4.255
 4537SOL     OW14509   3.922   3.198   5.883
 4537SOL    HW114510   3.982   3.118   5.891
 4537SOL    HW214511   3.850   3.192   5.952
 4538SOL     OW14512   3.262   1.316   2.349
 4538SOL    HW114513   3.239   1.345   2.257
 4538SOL    HW214514   3.256   1.216   2.355
 4539SOL     OW14515   1.047   1.747   2.447
 4539SOL    HW114516   1.134   1.777   2.409
 4539SOL    HW214517   0.987   1.718   2.373
 4540SOL     OW14518   3.110   3.202   4.418
 4540SOL    HW114519   3.122   3.116   4.368
 4540SOL    HW214520   3.069   3.183   4.507
 4541SOL     OW14521   6.072   1.386   1.240
 4541SOL    HW114522   5.991   1.402   1.297
 4541SOL    HW214523   6.079   1.288   1.220
 4542SOL     OW14524   4.552   0.458   3.867
 4542SOL    HW114525   4.501   0.499   3.791
 4542SOL    HW214526   4.493   0.454   3.948
 4543SOL     OW14527   5.673   1.754   1.818
 4543SOL    HW114528   5.763   1.798   1.817
 4543SOL    HW214529   5.605   1.817   1.856
 4544SOL     OW14530   3.556   4.695   6.613
 4544SOL    HW114531   3.605   4.778   6.588
 4544SOL    HW214532   3.578   4.670   6.707
 4545SOL     OW14533   3.978   2.646   5.750
 4545SOL    HW114534   4.070   2.663   5.714
 4545SOL    HW214535   3.984   2.593   5.834
 4546SOL     OW14536   0.920   6.648   6.060
 4546SOL    HW114537   0.952   6.687   6.146
 4546SOL    HW214538   0.896   6.552   6.073
 4547SOL     OW14539   4.514   2.052   1.338
 4547SOL    HW114540   4.530   2.127   1.274
 4547SOL    HW214541   4.541   1.966   1.297
 4548SOL     OW14542   1.566   2.940   3.977
 4548SOL    HW114543   1.473   2.929   4.013
 4548SOL    HW214544   1.630   2.890   4.035
 4549SOL     OW14545   5.089   2.226   2.748
 4549SOL    HW114546   5.159   2.282   2.791
 4549SOL    HW214547   5.018   2.204   2.816
 4550SOL     OW14548   1.250   6.291   4.700
 4550SOL    HW114549   1.319   6.225   4.731
 4550SOL    HW214550   1.245   6.289   4.600
 4551SOL     OW14551   0.602   2.447   5.936
 4551SOL    HW114552   0.539   2.406   6.002
 4551SOL    HW214553   0.626   2.539   5.965
 4552SOL     OW14554   0.141   3.079   4.196
 4552SOL    HW114555   0.103   3.148   4.134
 4552SOL    HW214556   0.108   2.989   4.168
 4553SOL     OW14557   4.962   4.800   0.596
 4553SOL    HW114558   5.045   4.825   0.647
 4553SOL    HW214559   4.909   4.735   0.649
 4554SOL     OW14560   5.605   0.035   2.989
 4554SOL    HW114561   5.583   0.082   3.074
 4554SOL    HW214562   5.655   0.097   2.929
 4555SOL     OW14563   5.511   1.779   0.219
 4555SOL    HW114564   5.572   1.738   0.151
 4555SOL    HW214565   5.528   1.736   0.308
 4556SOL     OW14566   4.815   1.613   4.381
 4556SOL    HW114567   4.830   1.527   4.333
 4556SOL    HW214568   4.765   1.595   4.466
 4557SOL     OW14569   5.209   0.374   5.665
 4557SOL    HW114570   5.148   0.372   5.744
 4557SOL    HW214571   5.191   0.456   5.611
 4558SOL     OW14572   6.850   3.159   5.965
 4558SOL    HW114573   6.790   3.216   6.021
 4558SOL    HW214574   6.885   3.212   5.888
 4559SOL     OW14575   0.856   6.636   1.346
 4559SOL    HW114576   0.816   6.694   1.274
 4559SOL    HW214577   0.905   6.560   1.303
 4560SOL     OW14578   5.061   2.772   3.261
 4560SOL    HW114579   5.127   2.796   3.333
 4560SOL    HW214580   4.979   2.828   3.271
 4561SOL     OW14581   3.067   0.108   6.258
 4561SOL    HW114582   3.134   0.050   6.211
 4561SOL    HW214583   2.976   0.089   6.221
 4562SOL     OW14584   3.414   5.232   5.626
 4562SOL    HW114585   3.327   5.188   5.645
 4562SOL    HW214586   3.471   5.230   5.708
 4563SOL     OW14587   5.573   2.163   6.545
 4563SOL    HW114588   5.476   2.175   6.524
 4563SOL    HW214589   5.594   2.202   6.635
 4564SOL     OW14590   1.768   5.813   6.715
 4564SOL    HW114591   1.690   5.816   6.777
 4564SOL    HW214592   1.750   5.746   6.643
 4565SOL     OW14593   1.949   0.687   4.130
 4565SOL    HW114594   2.023   0.626   4.103
 4565SOL    HW214595   1.986   0.773   4.164
 4566SOL     OW14596   0.742   1.729   0.399
 4566SOL    HW114597   0.675   1.659   0.420
 4566SOL    HW214598   0.716   1.815   0.444
 4567SOL     OW14599   6.727   0.622   0.476
 4567SOL    HW114600   6.745   0.525   0.456
 4567SOL    HW214601   6.720   0.635   0.575
 4568SOL     OW14602   3.367   4.910   4.948
 4568SOL    HW114603   3.371   4.885   4.852
 4568SOL    HW214604   3.273   4.905   4.981
 4569SOL     OW14605   0.333   1.906   4.478
 4569SOL    HW114606   0.304   1.927   4.385
 4569SOL    HW214607   0.400   1.974   4.508
 4570SOL     OW14608   0.011   5.168   4.251
 4570SOL    HW114609   7.003   5.129   4.338
 4570SOL    HW214610   6.963   5.150   4.181
 4571SOL     OW14611   3.389   3.282   4.357
 4571SOL    HW114612   3.308   3.256   4.303
 4571SOL    HW214613   3.379   3.247   4.450
 4572SOL     OW14614   2.201   6.256   1.669
 4572SOL    HW114615   2.292   6.243   1.709
 4572SOL    HW214616   2.162   6.341   1.705
 4573SOL     OW14617   5.706   6.999   0.737
 4573SOL    HW114618   5.775   6.941   0.780
 4573SOL    HW214619   5.618   6.984   0.782
 4574SOL     OW14620   1.060   4.708   2.418
 4574SOL    HW114621   0.994   4.634   2.402
 4574SOL    HW214622   1.152   4.677   2.394
 4575SOL     OW14623   6.639   0.043   2.030
 4575SOL    HW114624   6.736   0.056   2.013
 4575SOL    HW214625   6.627   6.997   2.104
 4576SOL     OW14626   3.303   5.866   4.884
 4576SOL    HW114627   3.377   5.799   4.891
 4576SOL    HW214628   3.224   5.824   4.840
 4577SOL     OW14629   0.722   2.616   4.091
 4577SOL    HW114630   0.698   2.628   4.187
 4577SOL    HW214631   0.806   2.563   4.084
 4578SOL     OW14632   0.380   4.029   3.649
 4578SOL    HW114633   0.280   4.031   3.650
 4578SOL    HW214634   0.416   4.083   3.725
 4579SOL     OW14635   5.470   2.064   4.289
 4579SOL    HW114636   5.384   2.114   4.289
 4579SOL    HW214637   5.469   1.996   4.361
 4580SOL     OW14638   6.960   5.410   0.568
 4580SOL    HW114639   6.970   5.422   0.666
 4580SOL    HW214640   0.028   5.387   0.528
 4581SOL     OW14641   3.719   5.617   3.233
 4581SOL    HW114642   3.715   5.710   3.270
 4581SOL    HW214643   3.678   5.616   3.142
 4582SOL     OW14644   4.426   6.796   3.017
 4582SOL    HW114645   4.519   6.829   3.035
 4582SOL    HW214646   4.406   6.806   2.919
 4583SOL     OW14647   4.676   1.790   5.572
 4583SOL    HW114648   4.687   1.843   5.488
 4583SOL    HW214649   4.584   1.804   5.609
 4584SOL     OW14650   0.537   4.595   5.470
 4584SOL    HW114651   0.562   4.618   5.376
 4584SOL    HW214652   0.485   4.509   5.470
 4585SOL     OW14653   4.031   6.420   2.674
 4585SOL    HW114654   4.131   6.418   2.680
 4585SOL    HW214655   3.996   6.327   2.683
 4586SOL     OW14656   3.331   5.963   2.072
 4586SOL    HW114657   3.349   5.924   2.163
 4586SOL    HW214658   3.405   5.937   2.010
 4587SOL     OW14659   2.276   4.271   1.008
 4587SOL    HW114660   2.202   4.228   1.061
 4587SOL    HW214661   2.239   4.348   0.957
 4588SOL     OW14662   4.465   3.934   5.451
 4588SOL    HW114663   4.522   3.851   5.456
 4588SOL    HW214664   4.381   3.913   5.401
 4589SOL     OW14665   0.224   1.574   3.700
 4589SOL    HW114666   0.313   1.532   3.717
 4589SOL    HW214667   0.152   1.509   3.724
 4590SOL     OW14668   4.575   5.675   2.598
 4590SOL    HW114669   4.553   5.752   2.659
 4590SOL    HW214670   4.649   5.703   2.536
 4591SOL     OW14671   6.098   5.818   4.884
 4591SOL    HW114672   6.178   5.761   4.903
 4591SOL    HW214673   6.124   5.914   4.889
 4592SOL     OW14674   2.959   2.318   5.729
 4592SOL    HW114675   2.891   2.312   5.803
 4592SOL    HW214676   2.918   2.289   5.643
 4593SOL     OW14677   3.938   6.703   1.825
 4593SOL    HW114678   3.999   6.656   1.761
 4593SOL    HW214679   3.859   6.738   1.775
 4594SOL     OW14680   2.951   1.336   2.392
 4594SOL    HW114681   2.955   1.420   2.446
 4594SOL    HW214682   3.043   1.302   2.376
 4595SOL     OW14683   4.324   2.215   5.973
 4595SOL    HW114684   4.289   2.176   6.058
 4595SOL    HW214685   4.380   2.146   5.925
 4596SOL     OW14686   6.212   0.032   2.111
 4596SOL    HW114687   6.116   0.015   2.090
 4596SOL    HW214688   6.219   0.104   2.181
 4597SOL     OW14689   6.599   4.691   7.016
 4597SOL    HW114690   6.536   4.620   0.027
 4597SOL    HW214691   6.683   4.648   6.982
 4598SOL     OW14692   3.448   4.816   0.470
 4598SOL    HW114693   3.393   4.785   0.547
 4598SOL    HW214694   3.390   4.827   0.389
 4599SOL     OW14695   1.562   5.355   0.228
 4599SOL    HW114696   1.492   5.289   0.200
 4599SOL    HW214697   1.518   5.440   0.256
 4600SOL     OW14698   3.592   4.996   1.415
 4600SOL    HW114699   3.585   4.910   1.364
 4600SOL    HW214700   3.634   5.066   1.356
 4601SOL     OW14701   2.019   6.054   4.915
 4601SOL    HW114702   2.061   6.038   4.825
 4601SOL    HW214703   2.051   5.984   4.979
 4602SOL     OW14704   1.726   0.928   0.738
 4602SOL    HW114705   1.787   0.946   0.815
 4602SOL    HW214706   1.781   0.910   0.656
 4603SOL     OW14707   3.105   0.707   2.054
 4603SOL    HW114708   3.047   0.715   2.135
 4603SOL    HW214709   3.177   0.777   2.058
 4604SOL     OW14710   2.744   0.350   2.472
 4604SOL    HW114711   2.676   0.415   2.505
 4604SOL    HW214712   2.798   0.316   2.549
 4605SOL     OW14713   5.273   0.110   5.555
 4605SOL    HW114714   5.244   0.073   5.467
 4605SOL    HW214715   5.220   0.193   5.575
 4606SOL     OW14716   6.956   6.441   5.467
 4606SOL    HW114717   0.019   6.397   5.496
 4606SOL    HW214718   6.904   6.471   5.547
 4607SOL     OW14719   2.209   2.093   1.502
 4607SOL    HW114720   2.290   2.060   1.454
 4607SOL    HW214721   2.234   2.121   1.594
 4608SOL     OW14722   1.361   3.541   5.534
 4608SOL    HW114723   1.393   3.634   5.513
 4608SOL    HW214724   1.430   3.475   5.505
 4609SOL     OW14725   3.947   6.775   6.313
 4609SOL    HW114726   3.853   6.809   6.305
 4609SOL    HW214727   3.950   6.701   6.380
 4610SOL     OW14728   0.715   3.198   6.536
 4610SOL    HW114729   0.702   3.208   6.634
 4610SOL    HW214730   0.799   3.146   6.519
 4611SOL     OW14731   0.782   3.521   6.920
 4611SOL    HW114732   0.771   3.602   6.862
 4611SOL    HW214733   0.857   3.536   6.984
 4612SOL     OW14734   2.248   0.345   6.229
 4612SOL    HW114735   2.338   0.388   6.230
 4612SOL    HW214736   2.182   0.407   6.186
 4613SOL     OW14737   2.807   5.727   2.155
 4613SOL    HW114738   2.723   5.767   2.120
 4613SOL    HW214739   2.882   5.792   2.145
 4614SOL     OW14740   1.976   5.549   0.378
 4614SOL    HW114741   2.057   5.518   0.328
 4614SOL    HW214742   1.896   5.498   0.347
 4615SOL     OW14743   6.967   2.602   0.224
 4615SOL    HW114744   6.879   2.646   0.205
 4615SOL    HW214745   7.001   2.632   0.313
 4616SOL     OW14746   5.697   1.021   7.000
 4616SOL    HW114747   5.706   1.121   6.996
 4616SOL    HW214748   5.636   0.990   6.927
 4617SOL     OW14749   0.341   3.182   2.209
 4617SOL    HW114750   0.383   3.102   2.166
 4617SOL    HW214751   0.255   3.156   2.252
 4618SOL     OW14752   0.973   2.106   6.091
 4618SOL    HW114753   0.949   2.141   6.182
 4618SOL    HW214754   1.046   2.039   6.099
 4619SOL     OW14755   3.255   0.824   3.758
 4619SOL    HW114756   3.319   0.768   3.707
 4619SOL    HW214757   3.278   0.822   3.856
 4620SOL     OW14758   2.215   4.120   6.473
 4620SOL    HW114759   2.238   4.025   6.455
 4620SOL    HW214760   2.117   4.134   6.458
 4621SOL     OW14761   0.313   6.522   6.258
 4621SOL    HW114762   0.397   6.469   6.240
 4621SOL    HW214763   0.303   6.592   6.188
 4622SOL     OW14764   2.674   3.296   1.038
 4622SOL    HW114765   2.711   3.305   1.131
 4622SOL    HW214766   2.602   3.227   1.038
 4623SOL     OW14767   5.981   4.310   2.038
 4623SOL    HW114768   6.021   4.346   2.122
 4623SOL    HW214769   6.051   4.261   1.986
 4624SOL     OW14770   4.827   6.950   5.475
 4624SOL    HW114771   4.764   0.006   5.470
 4624SOL    HW214772   4.829   6.901   5.388
 4625SOL     OW14773   0.995   3.040   6.793
 4625SOL    HW114774   1.024   2.953   6.753
 4625SOL    HW214775   1.011   3.114   6.728
 4626SOL     OW14776   6.103   5.077   1.996
 4626SOL    HW114777   6.065   5.072   1.904
 4626SOL    HW214778   6.199   5.049   1.994
 4627SOL     OW14779   2.147   0.996   6.159
 4627SOL    HW114780   2.202   0.913   6.151
 4627SOL    HW214781   2.052   0.971   6.180
 4628SOL     OW14782   6.953   3.940   1.851
 4628SOL    HW114783   6.980   4.025   1.807
 4628SOL    HW214784   0.001   3.914   1.919
 4629SOL     OW14785   3.294   5.212   5.167
 4629SOL    HW114786   3.196   5.217   5.185
 4629SOL    HW214787   3.338   5.297   5.194
 4630SOL     OW14788   2.153   0.313   2.840
 4630SOL    HW114789   2.162   0.356   2.931
 4630SOL    HW214790   2.095   0.232   2.847
 4631SOL     OW14791   2.573   0.607   2.660
 4631SOL    HW114792   2.611   0.560   2.740
 4631SOL    HW214793   2.539   0.697   2.688
 4632SOL     OW14794   5.129   5.062   4.109
 4632SOL    HW114795   5.140   4.984   4.047
 4632SOL    HW214796   5.218   5.099   4.133
 4633SOL     OW14797   5.912   2.575   5.622
 4633SOL    HW114798   5.931   2.587   5.720
 4633SOL    HW214799   5.986   2.521   5.580
 4634SOL     OW14800   3.494   4.457   0.839
 4634SOL    HW114801   3.564   4.460   0.767
 4634SOL    HW214802   3.480   4.549   0.875
 4635SOL     OW14803   5.283   4.408   1.224
 4635SOL    HW114804   5.348   4.408   1.148
 4635SOL    HW214805   5.284   4.318   1.268
 4636SOL     OW14806   1.846   5.087   0.715
 4636SOL    HW114807   1.816   5.023   0.786
 4636SOL    HW214808   1.881   5.170   0.758
 4637SOL     OW14809   1.542   0.736   5.417
 4637SOL    HW114810   1.634   0.774   5.420
 4637SOL    HW214811   1.478   0.799   5.460
 4638SOL     OW14812   5.505   3.476   6.351
 4638SOL    HW114813   5.493   3.519   6.262
 4638SOL    HW214814   5.437   3.510   6.415
 4639SOL     OW14815   6.779   3.363   5.370
 4639SOL    HW114816   6.772   3.381   5.468
 4639SOL    HW214817   6.702   3.405   5.323
 4640SOL     OW14818   5.753   3.979   2.542
 4640SOL    HW114819   5.709   4.025   2.619
 4640SOL    HW214820   5.711   4.008   2.456
 4641SOL     OW14821   2.672   4.602   5.542
 4641SOL    HW114822   2.736   4.573   5.614
 4641SOL    HW214823   2.578   4.583   5.571
 4642SOL     OW14824   5.392   5.593   4.521
 4642SOL    HW114825   5.385   5.529   4.444
 4642SOL    HW214826   5.429   5.546   4.601
 4643SOL     OW14827   3.672   2.872   1.313
 4643SOL    HW114828   3.755   2.871   1.259
 4643SOL    HW214829   3.594   2.898   1.255
 4644SOL     OW14830   2.476   5.013   5.024
 4644SOL    HW114831   2.505   5.108   5.013
 4644SOL    HW214832   2.552   4.958   5.059
 4645SOL     OW14833   1.741   6.163   4.974
 4645SOL    HW114834   1.813   6.096   4.963
 4645SOL    HW214835   1.696   6.149   5.062
 4646SOL     OW14836   3.523   0.332   1.730
 4646SOL    HW114837   3.596   0.371   1.673
 4646SOL    HW214838   3.535   0.364   1.824
 4647SOL     OW14839   6.840   0.476   4.764
 4647SOL    HW114840   6.900   0.403   4.730
 4647SOL    HW214841   6.874   0.507   4.853
 4648SOL     OW14842   1.941   5.000   2.995
 4648SOL    HW114843   1.860   4.950   3.028
 4648SOL    HW214844   1.978   5.056   3.069
 4649SOL     OW14845   5.518   6.714   6.184
 4649SOL    HW114846   5.560   6.787   6.239
 4649SOL    HW214847   5.543   6.726   6.088
 4650SOL     OW14848   6.820   4.771   2.064
 4650SOL    HW114849   6.728   4.733   2.066
 4650SOL    HW214850   6.840   4.808   1.974
 4651SOL     OW14851   0.127   1.974   1.357
 4651SOL    HW114852   0.185   1.953   1.435
 4651SOL    HW214853   0.122   2.073   1.345
 4652SOL     OW14854   0.047   6.249   5.863
 4652SOL    HW114855   0.042   6.256   5.962
 4652SOL    HW214856   6.977   6.262   5.823
 4653SOL     OW14857   0.905   5.856   6.612
 4653SOL    HW114858   0.818   5.822   6.575
 4653SOL    HW214859   0.980   5.804   6.573
 4654SOL     OW14860   1.086   1.521   6.555
 4654SOL    HW114861   1.044   1.612   6.551
 4654SOL    HW214862   1.021   1.453   6.520
 4655SOL     OW14863   0.636   5.530   3.373
 4655SOL    HW114864   0.665   5.599   3.306
 4655SOL    HW214865   0.572   5.572   3.437
 4656SOL     OW14866   1.897   0.045   3.206
 4656SOL    HW114867   1.972   0.051   3.141
 4656SOL    HW214868   1.817   0.005   3.161
 4657SOL     OW14869   6.076   0.046   6.661
 4657SOL    HW114870   6.012   0.103   6.609
 4657SOL    HW214871   6.110   0.098   6.740
 4658SOL     OW14872   5.233   0.775   3.379
 4658SOL    HW114873   5.143   0.786   3.338
 4658SOL    HW214874   5.223   0.733   3.469
 4659SOL     OW14875   2.195   2.375   4.415
 4659SOL    HW114876   2.166   2.361   4.509
 4659SOL    HW214877   2.188   2.471   4.391
 4660SOL     OW14878   6.599   1.019   5.851
 4660SOL    HW114879   6.604   1.089   5.779
 4660SOL    HW214880   6.599   0.928   5.809
 4661SOL     OW14881   4.162   3.418   3.501
 4661SOL    HW114882   4.148   3.321   3.482
 4661SOL    HW214883   4.143   3.471   3.419
 4662SOL     OW14884   5.151   0.568   4.381
 4662SOL    HW114885   5.094   0.551   4.300
 4662SOL    HW214886   5.235   0.515   4.373
 4663SOL     OW14887   7.013   1.745   2.234
 4663SOL    HW114888   0.041   1.764   2.319
 4663SOL    HW214889   6.939   1.811   2.223
 4664SOL     OW14890   3.383   2.499   6.995
 4664SOL    HW114891   3.291   2.534   6.976
 4664SOL    HW214892   3.428   2.475   6.909
 4665SOL     OW14893   5.488   0.693   6.977
 4665SOL    HW114894   5.552   0.699   0.032
 4665SOL    HW214895   5.424   0.770   6.980
 4666SOL     OW14896   2.303   1.440   0.414
 4666SOL    HW114897   2.214   1.457   0.373
 4666SOL    HW214898   2.334   1.348   0.391
 4667SOL     OW14899   0.534   5.531   5.680
 4667SOL    HW114900   0.473   5.575   5.614
 4667SOL    HW214901   0.519   5.570   5.771
 4668SOL     OW14902   5.781   1.816   4.728
 4668SOL    HW114903   5.805   1.788   4.821
 4668SOL    HW214904   5.811   1.911   4.714
 4669SOL     OW14905   2.878   0.452   0.739
 4669SOL    HW114906   2.917   0.360   0.741
 4669SOL    HW214907   2.848   0.474   0.646
 4670SOL     OW14908   1.877   1.121   4.299
 4670SOL    HW114909   1.940   1.083   4.368
 4670SOL    HW214910   1.837   1.046   4.246
 4671SOL     OW14911   5.671   3.587   0.680
 4671SOL    HW114912   5.601   3.652   0.649
 4671SOL    HW214913   5.677   3.511   0.615
 4672SOL     OW14914   2.289   3.646   5.745
 4672SOL    HW114915   2.330   3.560   5.714
 4672SOL    HW214916   2.191   3.632   5.763
 4673SOL     OW14917   3.535   0.644   2.378
 4673SOL    HW114918   3.552   0.550   2.409
 4673SOL    HW214919   3.452   0.679   2.421
 4674SOL     OW14920   4.467   6.045   6.367
 4674SOL    HW114921   4.541   6.090   6.418
 4674SOL    HW214922   4.380   6.065   6.411
 4675SOL     OW14923   1.317   4.318   6.310
 4675SOL    HW114924   1.415   4.335   6.297
 4675SOL    HW214925   1.277   4.288   6.223
 4676SOL     OW14926   1.168   5.813   4.090
 4676SOL    HW114927   1.076   5.850   4.078
 4676SOL    HW214928   1.168   5.715   4.072
 4677SOL     OW14929   0.856   3.067   0.616
 4677SOL    HW114930   0.837   3.157   0.656
 4677SOL    HW214931   0.954   3.048   0.620
 4678SOL     OW14932   2.382   4.331   2.334
 4678SOL    HW114933   2.393   4.416   2.283
 4678SOL    HW214934   2.423   4.341   2.424
 4679SOL     OW14935   4.328   0.104   1.626
 4679SOL    HW114936   4.401   0.153   1.674
 4679SOL    HW214937   4.242   0.115   1.675
 4680SOL     OW14938   1.970   0.959   1.162
 4680SOL    HW114939   1.931   1.050   1.153
 4680SOL    HW214940   2.068   0.962   1.143
 4681SOL     OW14941   4.878   5.384   1.904
 4681SOL    HW114942   4.812   5.412   1.835
 4681SOL    HW214943   4.969   5.420   1.882
 4682SOL     OW14944   3.532   4.397   6.960
 4682SOL    HW114945   3.625   4.363   6.967
 4682SOL    HW214946   3.510   4.452   0.019
 4683SOL     OW14947   6.365   4.607   4.160
 4683SOL    HW114948   6.405   4.518   4.140
 4683SOL    HW214949   6.269   4.596   4.183
 4684SOL     OW14950   5.775   6.817   0.505
 4684SOL    HW114951   5.793   6.733   0.556
 4684SOL    HW214952   5.710   6.874   0.555
 4685SOL     OW14953   3.334   3.955   5.251
 4685SOL    HW114954   3.270   3.967   5.175
 4685SOL    HW214955   3.283   3.947   5.337
 4686SOL     OW14956   3.477   5.913   0.537
 4686SOL    HW114957   3.465   5.873   0.628
 4686SOL    HW214958   3.563   5.881   0.498
 4687SOL     OW14959   3.017   0.875   3.142
 4687SOL    HW114960   3.015   0.876   3.042
 4687SOL    HW214961   3.112   0.876   3.174
 4688SOL     OW14962   5.816   3.352   5.461
 4688SOL    HW114963   5.771   3.422   5.515
 4688SOL    HW214964   5.747   3.292   5.420
 4689SOL     OW14965   6.131   1.108   2.546
 4689SOL    HW114966   6.053   1.063   2.590
 4689SOL    HW214967   6.212   1.051   2.555
 4690SOL     OW14968   2.244   2.136   1.005
 4690SOL    HW114969   2.264   2.085   0.922
 4690SOL    HW214970   2.239   2.072   1.082
 4691SOL     OW14971   6.589   3.943   1.490
 4691SOL    HW114972   6.495   3.933   1.521
 4691SOL    HW214973   6.605   3.884   1.411
 4692SOL     OW14974   5.226   3.151   2.352
 4692SOL    HW114975   5.262   3.115   2.266
 4692SOL    HW214976   5.282   3.228   2.382
 4693SOL     OW14977   1.487   0.847   3.560
 4693SOL    HW114978   1.393   0.841   3.526
 4693SOL    HW214979   1.502   0.777   3.629
 4694SOL     OW14980   1.959   0.832   7.010
 4694SOL    HW114981   1.980   0.741   0.024
 4694SOL    HW214982   1.909   0.824   6.923
 4695SOL     OW14983   1.315   6.235   1.631
 4695SOL    HW114984   1.278   6.300   1.565
 4695SOL    HW214985   1.288   6.142   1.606
 4696SOL     OW14986   2.371   5.127   5.893
 4696SOL    HW114987   2.358   5.173   5.805
 4696SOL    HW214988   2.325   5.179   5.964
 4697SOL     OW14989   3.997   5.394   1.481
 4697SOL    HW114990   4.057   5.356   1.411
 4697SOL    HW214991   3.947   5.320   1.526
 4698SOL     OW14992   5.097   1.264   3.887
 4698SOL    HW114993   5.145   1.226   3.966
 4698SOL    HW214994   5.129   1.358   3.870
 4699SOL     OW14995   1.711   6.807   2.370
 4699SOL    HW114996   1.673   6.839   2.457
 4699SOL    HW214997   1.757   6.882   2.324
 4700SOL     OW14998   6.191   2.077   2.014
 4700SOL    HW114999   6.272   2.044   2.063
 4700SOL    HW215000   6.118   2.010   2.021
 4701SOL     OW15001   2.948   2.223   1.665
 4701SOL    HW115002   2.871   2.160   1.658
 4701SOL    HW215003   2.973   2.235   1.761
 4702SOL     OW15004   5.271   4.887   6.705
 4702SOL    HW115005   5.238   4.869   6.798
 4702SOL    HW215006   5.370   4.900   6.707
 4703SOL     OW15007   0.992   5.576   3.750
 4703SOL    HW115008   0.916   5.511   3.751
 4703SOL    HW215009   1.006   5.609   3.656
 4704SOL     OW15010   1.261   5.107   5.072
 4704SOL    HW115011   1.356   5.107   5.103
 4704SOL    HW215012   1.231   5.013   5.057
 4705SOL     OW15013   3.534   2.021   1.537
 4705SOL    HW115014   3.473   2.005   1.459
 4705SOL    HW215015   3.506   2.105   1.584
 4706SOL     OW15016   2.875   1.369   0.382
 4706SOL    HW115017   2.858   1.465   0.402
 4706SOL    HW215018   2.902   1.359   0.286
 4707SOL     OW15019   1.559   6.290   1.771
 4707SOL    HW115020   1.479   6.244   1.733
 4707SOL    HW215021   1.551   6.389   1.756
 4708SOL     OW15022   1.128   2.521   4.403
 4708SOL    HW115023   1.043   2.572   4.394
 4708SOL    HW215024   1.156   2.487   4.313
 4709SOL     OW15025   4.905   3.805   5.193
 4709SOL    HW115026   4.880   3.747   5.115
 4709SOL    HW215027   4.961   3.753   5.257
 4710SOL     OW15028   6.628   5.951   4.962
 4710SOL    HW115029   6.636   5.865   4.911
 4710SOL    HW215030   6.704   5.959   5.026
 4711SOL     OW15031   5.087   3.901   2.902
 4711SOL    HW115032   5.154   3.854   2.959
 4711SOL    HW215033   5.015   3.837   2.875
 4712SOL     OW15034   4.734   4.334   5.643
 4712SOL    HW115035   4.663   4.394   5.605
 4712SOL    HW215036   4.734   4.247   5.594
 4713SOL     OW15037   6.350   4.290   1.062
 4713SOL    HW115038   6.316   4.216   1.120
 4713SOL    HW215039   6.380   4.252   0.974
 4714SOL     OW15040   4.655   1.552   6.668
 4714SOL    HW115041   4.749   1.520   6.674
 4714SOL    HW215042   4.606   1.529   6.752
 4715SOL     OW15043   6.049   1.429   2.100
 4715SOL    HW115044   6.106   1.370   2.157
 4715SOL    HW215045   6.030   1.514   2.149
 4716SOL     OW15046   3.912   4.854   6.037
 4716SOL    HW115047   3.968   4.785   5.993
 4716SOL    HW215048   3.817   4.843   6.008
 4717SOL     OW15049   2.974   4.960   5.299
 4717SOL    HW115050   3.052   4.982   5.358
 4717SOL    HW215051   2.922   4.885   5.339
 4718SOL     OW15052   4.730   4.717   1.147
 4718SOL    HW115053   4.827   4.740   1.147
 4718SOL    HW215054   4.676   4.798   1.122
 4719SOL     OW15055   0.479   4.193   3.838
 4719SOL    HW115056   0.487   4.138   3.921
 4719SOL    HW215057   0.564   4.244   3.824
 4720SOL     OW15058   2.236   3.203   6.692
 4720SOL    HW115059   2.268   3.276   6.632
 4720SOL    HW215060   2.275   3.216   6.784
 4721SOL     OW15061   6.889   2.627   2.929
 4721SOL    HW115062   6.883   2.667   2.838
 4721SOL    HW215063   6.799   2.629   2.973
 4722SOL     OW15064   1.170   5.634   7.014
 4722SOL    HW115065   1.125   5.653   0.081
 4722SOL    HW215066   1.224   5.550   0.001
 4723SOL     OW15067   3.774   4.135   0.407
 4723SOL    HW115068   3.729   4.163   0.492
 4723SOL    HW215069   3.713   4.153   0.330
 4724SOL     OW15070   0.627   6.569   4.915
 4724SOL    HW115071   0.588   6.618   4.837
 4724SOL    HW215072   0.727   6.573   4.909
 4725SOL     OW15073   5.179   5.713   1.068
 4725SOL    HW115074   5.115   5.706   0.992
 4725SOL    HW215075   5.235   5.631   1.073
 4726SOL     OW15076   1.120   3.152   5.610
 4726SOL    HW115077   1.053   3.078   5.613
 4726SOL    HW215078   1.074   3.240   5.618
 4727SOL     OW15079   0.276   4.939   1.465
 4727SOL    HW115080   0.213   4.887   1.407
 4727SOL    HW215081   0.369   4.930   1.430
 4728SOL     OW15082   6.716   1.731   4.704
 4728SOL    HW115083   6.757   1.718   4.614
 4728SOL    HW215084   6.756   1.667   4.769
 4729SOL     OW15085   5.860   1.499   1.907
 4729SOL    HW115086   5.781   1.545   1.947
 4729SOL    HW215087   5.916   1.460   1.980
 4730SOL     OW15088   3.128   6.887   4.689
 4730SOL    HW115089   3.203   6.951   4.706
 4730SOL    HW215090   3.051   6.936   4.647
 4731SOL     OW15091   3.259   6.628   0.327
 4731SOL    HW115092   3.224   6.584   0.409
 4731SOL    HW215093   3.358   6.619   0.324
 4732SOL     OW15094   0.386   5.057   4.395
 4732SOL    HW115095   0.411   5.091   4.304
 4732SOL    HW215096   0.464   5.065   4.456
 4733SOL     OW15097   1.857   3.682   3.187
 4733SOL    HW115098   1.940   3.661   3.239
 4733SOL    HW215099   1.831   3.601   3.133
 4734SOL     OW15100   4.870   3.569   6.786
 4734SOL    HW115101   4.789   3.553   6.842
 4734SOL    HW215102   4.854   3.648   6.726
 4735SOL     OW15103   0.076   0.385   4.921
 4735SOL    HW115104   0.029   0.332   4.991
 4735SOL    HW215105   0.095   0.477   4.957
 4736SOL     OW15106   6.237   2.127   3.664
 4736SOL    HW115107   6.333   2.104   3.680
 4736SOL    HW215108   6.230   2.222   3.634
 4737SOL     OW15109   2.254   5.077   0.084
 4737SOL    HW115110   2.227   5.036   7.017
 4737SOL    HW215111   2.185   5.055   0.153
 4738SOL     OW15112   1.180   6.772   3.165
 4738SOL    HW115113   1.084   6.760   3.190
 4738SOL    HW215114   1.213   6.859   3.202
 4739SOL     OW15115   6.335   3.002   3.185
 4739SOL    HW115116   6.314   2.973   3.092
 4739SOL    HW215117   6.312   2.928   3.249
 4740SOL     OW15118   0.944   0.727   1.534
 4740SOL    HW115119   0.931   0.817   1.575
 4740SOL    HW215120   0.914   0.656   1.598
 4741SOL     OW15121   4.679   4.367   1.768
 4741SOL    HW115122   4.589   4.333   1.792
 4741SOL    HW215123   4.718   4.418   1.845
 4742SOL     OW15124   2.389   5.957   2.200
 4742SOL    HW115125   2.305   5.933   2.151
 4742SOL    HW215126   2.455   5.996   2.136
 4743SOL     OW15127   2.284   2.647   0.434
 4743SOL    HW115128   2.335   2.688   0.358
 4743SOL    HW215129   2.299   2.701   0.517
 4744SOL     OW15130   1.750   2.929   4.791
 4744SOL    HW115131   1.661   2.948   4.833
 4744SOL    HW215132   1.813   2.896   4.862
 4745SOL     OW15133   3.065   5.991   5.028
 4745SOL    HW115134   3.132   5.954   4.964
 4745SOL    HW215135   3.000   6.049   4.979
 4746SOL     OW15136   6.160   0.494   0.355
 4746SOL    HW115137   6.069   0.533   0.365
 4746SOL    HW215138   6.189   0.455   0.442
 4747SOL     OW15139   6.375   2.490   1.471
 4747SOL    HW115140   6.340   2.569   1.520
 4747SOL    HW215141   6.417   2.426   1.535
 4748SOL     OW15142   1.668   0.708   1.593
 4748SOL    HW115143   1.742   0.740   1.534
 4748SOL    HW215144   1.609   0.784   1.618
 4749SOL     OW15145   1.921   0.030   6.370
 4749SOL    HW115146   1.925   6.953   6.390
 4749SOL    HW215147   1.899   0.080   6.454
 4750SOL     OW15148   0.448   1.315   4.769
 4750SOL    HW115149   0.397   1.384   4.821
 4750SOL    HW215150   0.542   1.345   4.757
 4751SOL     OW15151   1.033   3.663   6.159
 4751SOL    HW115152   0.942   3.661   6.116
 4751SOL    HW215153   1.030   3.719   6.241
 4752SOL     OW15154   2.872   6.137   1.713
 4752SOL    HW115155   2.775   6.113   1.712
 4752SOL    HW215156   2.890   6.209   1.647
 4753SOL     OW15157   6.981   6.970   4.602
 4753SOL    HW115158   0.007   6.927   4.524
 4753SOL    HW215159   7.019   0.040   4.617
 4754SOL     OW15160   0.700   0.099   5.266
 4754SOL    HW115161   0.786   0.150   5.268
 4754SOL    HW215162   0.705   0.024   5.333
 4755SOL     OW15163   2.593   1.783   0.884
 4755SOL    HW115164   2.535   1.727   0.824
 4755SOL    HW215165   2.600   1.876   0.846
 4756SOL     OW15166   5.353   2.813   1.243
 4756SOL    HW115167   5.288   2.789   1.316
 4756SOL    HW215168   5.372   2.731   1.188
 4757SOL     OW15169   1.917   1.961   1.718
 4757SOL    HW115170   1.821   1.946   1.741
 4757SOL    HW215171   1.929   2.055   1.684
 4758SOL     OW15172   5.156   4.398   5.104
 4758SOL    HW115173   5.178   4.378   5.199
 4758SOL    HW215174   5.056   4.399   5.092
 4759SOL     OW15175   6.097   4.893   5.296
 4759SOL    HW115176   6.065   4.799   5.294
 4759SOL    HW215177   6.123   4.921   5.204
 4760SOL     OW15178   1.447   2.138   0.792
 4760SOL    HW115179   1.528   2.121   0.847
 4760SOL    HW215180   1.386   2.059   0.796
 4761SOL     OW15181   1.460   5.848   5.457
 4761SOL    HW115182   1.536   5.795   5.418
 4761SOL    HW215183   1.473   5.857   5.556
 4762SOL     OW15184   3.212   6.928   2.295
 4762SOL    HW115185   3.217   6.970   2.386
 4762SOL    HW215186   3.274   6.976   2.233
 4763SOL     OW15187   5.754   5.386   4.570
 4763SOL    HW115188   5.728   5.418   4.479
 4763SOL    HW215189   5.698   5.307   4.595
 4764SOL     OW15190   4.065   3.373   4.911
 4764SOL    HW115191   3.989   3.439   4.913
 4764SOL    HW215192   4.106   3.372   4.821
 4765SOL     OW15193   6.484   5.027   4.960
 4765SOL    HW115194   6.430   5.001   5.040
 4765SOL    HW215195   6.453   4.974   4.881
 4766SOL     OW15196   3.009   0.315   3.699
 4766SOL    HW115197   3.044   0.251   3.630
 4766SOL    HW215198   2.991   0.404   3.655
 4767SOL     OW15199   4.317   5.579   6.295
 4767SOL    HW115200   4.315   5.492   6.246
 4767SOL    HW215201   4.408   5.620   6.286
 4768SOL     OW15202   0.463   1.097   5.017
 4768SOL    HW115203   0.491   1.001   5.024
 4768SOL    HW215204   0.447   1.120   4.921
 4769SOL     OW15205   3.261   6.855   1.594
 4769SOL    HW115206   3.347   6.855   1.542
 4769SOL    HW215207   3.187   6.886   1.535
 4770SOL     OW15208   2.602   0.200   3.940
 4770SOL    HW115209   2.691   0.181   3.981
 4770SOL    HW215210   2.614   0.248   3.854
 4771SOL     OW15211   3.928   4.172   5.435
 4771SOL    HW115212   3.867   4.208   5.364
 4771SOL    HW215213   3.904   4.212   5.523
 4772SOL     OW15214   2.098   2.401   1.496
 4772SOL    HW115215   2.197   2.383   1.489
 4772SOL    HW215216   2.061   2.420   1.405
 4773SOL     OW15217   6.250   5.925   3.640
 4773SOL    HW115218   6.212   5.976   3.563
 4773SOL    HW215219   6.237   5.977   3.724
 4774SOL     OW15220   1.029   4.412   0.591
 4774SOL    HW115221   1.012   4.433   0.687
 4774SOL    HW215222   0.942   4.401   0.543
 4775SOL     OW15223   2.722   1.182   2.330
 4775SOL    HW115224   2.802   1.229   2.367
 4775SOL    HW215225   2.750   1.122   2.254
 4776SOL     OW15226   3.333   5.177   1.532
 4776SOL    HW115227   3.384   5.127   1.462
 4776SOL    HW215228   3.392   5.247   1.573
 4777SOL     OW15229   2.711   4.470   1.460
 4777SOL    HW115230   2.801   4.433   1.482
 4777SOL    HW215231   2.669   4.508   1.543
 4778SOL     OW15232   5.066   4.016   1.813
 4778SOL    HW115233   5.062   3.971   1.902
 4778SOL    HW215234   5.022   4.106   1.819
 4779SOL     OW15235   4.987   0.699   2.908
 4779SOL    HW115236   5.001   0.762   2.832
 4779SOL    HW215237   5.069   0.645   2.922
 4780SOL     OW15238   1.796   6.529   5.914
 4780SOL    HW115239   1.839   6.459   5.857
 4780SOL    HW215240   1.861   6.560   5.983
 4781SOL     OW15241   2.242   5.286   2.283
 4781SOL    HW115242   2.253   5.345   2.203
 4781SOL    HW215243   2.167   5.320   2.340
 4782SOL     OW15244   5.543   6.059   6.514
 4782SOL    HW115245   5.525   6.136   6.453
 4782SOL    HW215246   5.554   6.092   6.608
 4783SOL     OW15247   6.533   4.215   1.697
 4783SOL    HW115248   6.614   4.159   1.715
 4783SOL    HW215249   6.557   4.312   1.701
 4784SOL     OW15250   6.157   4.281   5.238
 4784SOL    HW115251   6.122   4.230   5.317
 4784SOL    HW215252   6.082   4.332   5.197
 4785SOL     OW15253   6.194   0.385   0.600
 4785SOL    HW115254   6.229   0.475   0.627
 4785SOL    HW215255   6.118   0.360   0.660
 4786SOL     OW15256   1.452   3.252   2.627
 4786SOL    HW115257   1.488   3.321   2.565
 4786SOL    HW215258   1.352   3.253   2.625
 4787SOL     OW15259   3.597   2.072   2.193
 4787SOL    HW115260   3.624   1.977   2.182
 4787SOL    HW215261   3.624   2.124   2.112
 4788SOL     OW15262   1.010   5.480   5.116
 4788SOL    HW115263   1.027   5.457   5.211
 4788SOL    HW215264   1.075   5.431   5.058
 4789SOL     OW15265   6.312   0.146   0.427
 4789SOL    HW115266   6.371   0.128   0.506
 4789SOL    HW215267   6.258   0.229   0.445
 4790SOL     OW15268   5.092   1.047   0.313
 4790SOL    HW115269   5.110   0.956   0.278
 4790SOL    HW215270   5.047   1.102   0.242
 4791SOL     OW15271   4.785   0.187   2.771
 4791SOL    HW115272   4.727   0.149   2.699
 4791SOL    HW215273   4.787   0.286   2.764
 4792SOL     OW15274   2.551   2.376   1.517
 4792SOL    HW115275   2.476   2.383   1.450
 4792SOL    HW215276   2.607   2.296   1.496
 4793SOL     OW15277   1.061   6.845   6.217
 4793SOL    HW115278   1.156   6.848   6.187
 4793SOL    HW215279   1.023   6.938   6.216
 4794SOL     OW15280   3.708   0.711   2.163
 4794SOL    HW115281   3.796   0.694   2.206
 4794SOL    HW215282   3.640   0.732   2.234
 4795SOL     OW15283   6.372   2.841   4.386
 4795SOL    HW115284   6.410   2.931   4.365
 4795SOL    HW215285   6.273   2.848   4.396
 4796SOL     OW15286   6.012   3.893   0.777
 4796SOL    HW115287   6.111   3.885   0.794
 4796SOL    HW215288   5.962   3.844   0.849
 4797SOL     OW15289   0.319   5.071   5.313
 4797SOL    HW115290   0.273   5.155   5.342
 4797SOL    HW215291   0.273   4.992   5.355
 4798SOL     OW15292   6.935   4.066   4.757
 4798SOL    HW115293   6.853   4.092   4.707
 4798SOL    HW215294   6.920   4.078   4.855
 4799SOL     OW15295   4.114   1.356   4.902
 4799SOL    HW115296   4.073   1.422   4.966
 4799SOL    HW215297   4.044   1.324   4.839
 4800SOL     OW15298   1.713   1.786   4.494
 4800SOL    HW115299   1.666   1.737   4.421
 4800SOL    HW215300   1.810   1.792   4.473
 4801SOL     OW15301   0.578   2.547   1.118
 4801SOL    HW115302   0.667   2.591   1.106
 4801SOL    HW215303   0.567   2.475   1.049
 4802SOL     OW15304   2.246   0.808   2.373
 4802SOL    HW115305   2.172   0.750   2.336
 4802SOL    HW215306   2.228   0.903   2.347
 4803SOL     OW15307   0.986   6.976   0.834
 4803SOL    HW115308   1.066   7.000   0.779
 4803SOL    HW215309   1.009   6.899   0.893
 4804SOL     OW15310   4.186   5.607   0.198
 4804SOL    HW115311   4.187   5.648   0.289
 4804SOL    HW215312   4.252   5.653   0.140
 4805SOL     OW15313   0.774   1.966   0.631
 4805SOL    HW115314   0.859   1.922   0.601
 4805SOL    HW215315   0.781   1.991   0.727
 4806SOL     OW15316   0.953   2.913   3.368
 4806SOL    HW115317   0.857   2.889   3.378
 4806SOL    HW215318   0.994   2.856   3.297
 4807SOL     OW15319   0.225   6.610   0.794
 4807SOL    HW115320   0.283   6.690   0.806
 4807SOL    HW215321   0.139   6.637   0.751
 4808SOL     OW15322   5.121   3.352   1.500
 4808SOL    HW115323   5.029   3.333   1.533
 4808SOL    HW215324   5.124   3.343   1.401
 4809SOL     OW15325   4.414   6.001   0.149
 4809SOL    HW115326   4.346   6.047   0.207
 4809SOL    HW215327   4.478   6.069   0.114
 4810SOL     OW15328   0.961   0.549   0.915
 4810SOL    HW115329   0.907   0.566   0.997
 4810SOL    HW215330   0.903   0.557   0.834
 4811SOL     OW15331   4.905   5.941   2.464
 4811SOL    HW115332   4.942   5.897   2.546
 4811SOL    HW215333   4.978   5.989   2.415
 4812SOL     OW15334   6.536   5.269   4.241
 4812SOL    HW115335   6.463   5.284   4.175
 4812SOL    HW215336   6.524   5.330   4.319
 4813SOL     OW15337   5.833   2.843   2.366
 4813SOL    HW115338   5.774   2.769   2.331
 4813SOL    HW215339   5.834   2.918   2.300
 4814SOL     OW15340   0.042   3.249   1.626
 4814SOL    HW115341   0.049   3.262   1.725
 4814SOL    HW215342   0.011   3.333   1.583
 4815SOL     OW15343   4.030   6.216   2.364
 4815SOL    HW115344   4.040   6.313   2.387
 4815SOL    HW215345   4.100   6.190   2.298
 4816SOL     OW15346   5.455   5.666   3.088
 4816SOL    HW115347   5.518   5.651   3.012
 4816SOL    HW215348   5.364   5.631   3.063
 4817SOL     OW15349   6.727   1.580   6.756
 4817SOL    HW115350   6.664   1.586   6.678
 4817SOL    HW215351   6.725   1.665   6.807
 4818SOL     OW15352   0.492   6.647   4.352
 4818SOL    HW115353   0.583   6.663   4.392
 4818SOL    HW215354   0.449   6.569   4.397
 4819SOL     OW15355   1.402   2.899   0.650
 4819SOL    HW115356   1.325   2.896   0.713
 4819SOL    HW215357   1.488   2.904   0.702
 4820SOL     OW15358   0.500   2.888   2.663
 4820SOL    HW115359   0.502   2.936   2.751
 4820SOL    HW215360   0.518   2.791   2.677
 4821SOL     OW15361   6.690   5.739   3.471
 4821SOL    HW115362   6.649   5.709   3.557
 4821SOL    HW215363   6.690   5.839   3.467
 4822SOL     OW15364   1.763   3.647   4.910
 4822SOL    HW115365   1.831   3.681   4.844
 4822SOL    HW215366   1.809   3.615   4.992
 4823SOL     OW15367   1.638   2.816   1.681
 4823SOL    HW115368   1.614   2.756   1.605
 4823SOL    HW215369   1.737   2.818   1.692
 4824SOL     OW15370   6.010   1.266   6.127
 4824SOL    HW115371   6.105   1.264   6.158
 4824SOL    HW215372   5.988   1.358   6.094
 4825SOL     OW15373   1.456   6.675   3.654
 4825SOL    HW115374   1.423   6.685   3.748
 4825SOL    HW215375   1.380   6.681   3.590
 4826SOL     OW15376   4.299   0.675   1.523
 4826SOL    HW115377   4.254   0.586   1.528
 4826SOL    HW215378   4.375   0.677   1.588
 4827SOL     OW15379   6.981   2.036   0.411
 4827SOL    HW115380   0.011   2.060   0.329
 4827SOL    HW215381   6.883   2.028   0.389
 4828SOL     OW15382   4.982   1.083   4.378
 4828SOL    HW115383   5.046   1.152   4.413
 4828SOL    HW215384   4.951   1.025   4.453
 4829SOL     OW15385   4.199   0.089   5.078
 4829SOL    HW115386   4.198   0.008   5.018
 4829SOL    HW215387   4.172   0.169   5.025
 4830SOL     OW15388   2.730   6.158   3.042
 4830SOL    HW115389   2.708   6.254   3.028
 4830SOL    HW215390   2.651   6.110   3.081
 4831SOL     OW15391   3.058   4.373   5.381
 4831SOL    HW115392   2.999   4.435   5.330
 4831SOL    HW215393   3.065   4.286   5.332
 4832SOL     OW15394   3.498   3.930   4.473
 4832SOL    HW115395   3.522   3.887   4.387
 4832SOL    HW215396   3.534   3.876   4.549
 4833SOL     OW15397   6.231   3.393   4.459
 4833SOL    HW115398   6.211   3.373   4.363
 4833SOL    HW215399   6.277   3.481   4.467
 4834SOL     OW15400   1.326   4.860   1.300
 4834SOL    HW115401   1.234   4.841   1.265
 4834SOL    HW215402   1.324   4.858   1.400
 4835SOL     OW15403   6.880   2.562   5.630
 4835SOL    HW115404   6.870   2.475   5.679
 4835SOL    HW215405   6.923   2.630   5.691
 4836SOL     OW15406   4.807   1.621   5.763
 4836SOL    HW115407   4.855   1.671   5.836
 4836SOL    HW215408   4.768   1.686   5.698
 4837SOL     OW15409   0.259   3.719   3.865
 4837SOL    HW115410   0.225   3.641   3.917
 4837SOL    HW215411   0.284   3.793   3.928
 4838SOL     OW15412   2.322   3.773   5.991
 4838SOL    HW115413   2.248   3.837   6.011
 4838SOL    HW215414   2.304   3.728   5.903
 4839SOL     OW15415   2.614   1.520   0.636
 4839SOL    HW115416   2.589   1.425   0.620
 4839SOL    HW215417   2.531   1.574   0.655
 4840SOL     OW15418   6.068   3.928   4.328
 4840SOL    HW115419   6.144   3.916   4.264
 4840SOL    HW215420   6.090   4.002   4.393
 4841SOL     OW15421   3.216   6.364   3.086
 4841SOL    HW115422   3.293   6.348   3.148
 4841SOL    HW215423   3.249   6.365   2.992
 4842SOL     OW15424   3.690   5.271   3.012
 4842SOL    HW115425   3.713   5.175   3.031
 4842SOL    HW215426   3.775   5.325   3.011
 4843SOL     OW15427   6.975   1.236   0.096
 4843SOL    HW115428   6.911   1.212   0.169
 4843SOL    HW215429   6.945   1.322   0.054
 4844SOL     OW15430   2.089   5.839   5.314
 4844SOL    HW115431   2.114   5.852   5.218
 4844SOL    HW215432   2.156   5.779   5.358
 4845SOL     OW15433   4.931   3.691   4.777
 4845SOL    HW115434   4.904   3.609   4.725
 4845SOL    HW215435   4.893   3.686   4.869
 4846SOL     OW15436   6.381   3.652   4.489
 4846SOL    HW115437   6.348   3.728   4.545
 4846SOL    HW215438   6.428   3.585   4.548
 4847SOL     OW15439   2.795   6.438   6.164
 4847SOL    HW115440   2.840   6.524   6.140
 4847SOL    HW215441   2.792   6.430   6.264
 4848SOL     OW15442   4.349   1.097   4.169
 4848SOL    HW115443   4.431   1.053   4.205
 4848SOL    HW215444   4.355   1.102   4.069
 4849SOL     OW15445   2.488   6.203   1.357
 4849SOL    HW115446   2.466   6.265   1.282
 4849SOL    HW215447   2.540   6.252   1.427
 4850SOL     OW15448   4.114   0.128   0.949
 4850SOL    HW115449   4.028   0.091   0.914
 4850SOL    HW215450   4.127   0.221   0.916
 4851SOL     OW15451   3.240   4.727   6.734
 4851SOL    HW115452   3.271   4.633   6.720
 4851SOL    HW215453   3.228   4.744   6.832
 4852SOL     OW15454   5.752   5.033   5.534
 4852SOL    HW115455   5.719   5.082   5.615
 4852SOL    HW215456   5.690   5.050   5.457
 4853SOL     OW15457   4.122   6.997   2.617
 4853SOL    HW115458   4.196   6.959   2.672
 4853SOL    HW215459   4.156   0.055   2.565
 4854SOL     OW15460   5.181   6.079   2.020
 4854SOL    HW115461   5.176   6.157   1.957
 4854SOL    HW215462   5.152   5.996   1.971
 4855SOL     OW15463   4.579   4.952   5.986
 4855SOL    HW115464   4.501   5.004   6.019
 4855SOL    HW215465   4.569   4.856   6.011
 4856SOL     OW15466   0.539   4.106   3.028
 4856SOL    HW115467   0.553   4.198   2.992
 4856SOL    HW215468   0.503   4.047   2.956
 4857SOL     OW15469   2.236   2.562   5.353
 4857SOL    HW115470   2.240   2.609   5.265
 4857SOL    HW215471   2.328   2.532   5.379
 4858SOL     OW15472   1.626   6.211   4.553
 4858SOL    HW115473   1.571   6.172   4.478
 4858SOL    HW215474   1.589   6.179   4.640
 4859SOL     OW15475   7.013   6.233   2.595
 4859SOL    HW115476   6.963   6.167   2.652
 4859SOL    HW215477   6.951   6.308   2.570
 4860SOL     OW15478   4.402   5.508   1.694
 4860SOL    HW115479   4.339   5.543   1.624
 4860SOL    HW215480   4.385   5.555   1.780
 4861SOL     OW15481   0.279   3.980   6.039
 4861SOL    HW115482   0.352   4.016   5.981
 4861SOL    HW215483   0.313   3.970   6.133
 4862SOL     OW15484   2.066   5.962   4.335
 4862SOL    HW115485   1.992   5.999   4.391
 4862SOL    HW215486   2.054   5.863   4.325
 4863SOL     OW15487   5.245   2.445   2.830
 4863SOL    HW115488   5.327   2.480   2.785
 4863SOL    HW215489   5.258   2.448   2.929
 4864SOL     OW15490   1.836   1.395   0.963
 4864SOL    HW115491   1.859   1.462   1.033
 4864SOL    HW215492   1.791   1.441   0.887
 4865SOL     OW15493   3.682   5.633   5.093
 4865SOL    HW115494   3.757   5.653   5.031
 4865SOL    HW215495   3.701   5.549   5.143
 4866SOL     OW15496   0.398   4.563   1.799
 4866SOL    HW115497   0.395   4.655   1.839
 4866SOL    HW215498   0.493   4.538   1.781
 4867SOL     OW15499   5.292   5.226   3.754
 4867SOL    HW115500   5.331   5.270   3.835
 4867SOL    HW215501   5.242   5.293   3.700
 4868SOL     OW15502   1.618   6.662   1.553
 4868SOL    HW115503   1.570   6.639   1.638
 4868SOL    HW215504   1.596   6.755   1.526
 4869SOL     OW15505   6.136   1.506   0.984
 4869SOL    HW115506   6.101   1.460   1.065
 4869SOL    HW215507   6.109   1.602   0.985
 4870SOL     OW15508   6.792   0.008   0.579
 4870SOL    HW115509   6.869   7.020   0.642
 4870SOL    HW215510   6.778   0.105   0.557
 4871SOL     OW15511   1.340   2.991   4.684
 4871SOL    HW115512   1.403   2.981   4.762
 4871SOL    HW215513   1.338   3.087   4.656
 4872SOL     OW15514   0.768   0.423   4.233
 4872SOL    HW115515   0.724   0.410   4.144
 4872SOL    HW215516   0.861   0.387   4.229
 4873SOL     OW15517   1.104   6.379   4.927
 4873SOL    HW115518   1.058   6.292   4.944
 4873SOL    HW215519   1.161   6.371   4.845
 4874SOL     OW15520   5.616   2.929   3.757
 4874SOL    HW115521   5.570   2.910   3.670
 4874SOL    HW215522   5.548   2.956   3.825
 4875SOL     OW15523   6.510   2.974   6.191
 4875SOL    HW115524   6.575   2.969   6.267
 4875SOL    HW215525   6.457   3.059   6.198
 4876SOL     OW15526   0.158   1.446   0.241
 4876SOL    HW115527   0.145   1.351   0.211
 4876SOL    HW215528   0.197   1.499   0.166
 4877SOL     OW15529   6.164   1.125   1.181
 4877SOL    HW115530   6.169   1.093   1.276
 4877SOL    HW215531   6.256   1.141   1.146
 4878SOL     OW15532   0.100   2.792   1.827
 4878SOL    HW115533   0.111   2.846   1.910
 4878SOL    HW215534   0.035   2.838   1.766
 4879SOL     OW15535   4.488   6.077   3.263
 4879SOL    HW115536   4.574   6.066   3.214
 4879SOL    HW215537   4.444   6.162   3.234
 4880SOL     OW15538   6.103   2.434   6.055
 4880SOL    HW115539   6.179   2.486   6.095
 4880SOL    HW215540   6.019   2.453   6.106
 4881SOL     OW15541   3.027   5.290   6.911
 4881SOL    HW115542   3.093   5.306   6.836
 4881SOL    HW215543   3.060   5.334   6.994
 4882SOL     OW15544   4.770   6.912   6.440
 4882SOL    HW115545   4.707   6.990   6.441
 4882SOL    HW215546   4.818   6.909   6.352
 4883SOL     OW15547   6.195   5.410   0.531
 4883SOL    HW115548   6.138   5.422   0.613
 4883SOL    HW215549   6.289   5.394   0.559
 4884SOL     OW15550   3.887   6.456   2.059
 4884SOL    HW115551   3.932   6.484   2.144
 4884SOL    HW215552   3.854   6.537   2.010
 4885SOL     OW15553   1.971   6.839   2.808
 4885SOL    HW115554   2.012   6.927   2.835
 4885SOL    HW215555   2.039   6.766   2.819
 4886SOL     OW15556   6.255   0.852   6.085
 4886SOL    HW115557   6.238   0.785   6.158
 4886SOL    HW215558   6.174   0.909   6.073
 4887SOL     OW15559   0.478   1.661   5.690
 4887SOL    HW115560   0.436   1.734   5.636
 4887SOL    HW215561   0.475   1.685   5.787
 4888SOL     OW15562   3.145   5.560   2.161
 4888SOL    HW115563   3.148   5.520   2.253
 4888SOL    HW215564   3.162   5.488   2.093
 4889SOL     OW15565   1.431   2.951   6.461
 4889SOL    HW115566   1.469   2.915   6.546
 4889SOL    HW215567   1.382   2.878   6.413
 4890SOL     OW15568   1.205   0.187   4.645
 4890SOL    HW115569   1.199   0.091   4.617
 4890SOL    HW215570   1.126   0.237   4.609
 4891SOL     OW15571   1.775   3.456   1.029
 4891SOL    HW115572   1.833   3.442   1.109
 4891SOL    HW215573   1.802   3.541   0.983
 4892SOL     OW15574   1.788   5.429   1.567
 4892SOL    HW115575   1.776   5.501   1.499
 4892SOL    HW215576   1.766   5.340   1.525
 4893SOL     OW15577   1.128   3.416   6.040
 4893SOL    HW115578   1.185   3.449   5.965
 4893SOL    HW215579   1.127   3.483   6.113
 4894SOL     OW15580   1.758   1.335   3.268
 4894SOL    HW115581   1.820   1.274   3.318
 4894SOL    HW215582   1.672   1.343   3.318
 4895SOL     OW15583   5.608   4.106   0.096
 4895SOL    HW115584   5.587   4.060   0.182
 4895SOL    HW215585   5.525   4.115   0.042
 4896SOL     OW15586   4.394   5.802   3.289
 4896SOL    HW115587   4.306   5.810   3.335
 4896SOL    HW215588   4.440   5.891   3.289
 4897SOL     OW15589   3.071   5.836   6.106
 4897SOL    HW115590   3.028   5.844   6.016
 4897SOL    HW215591   3.170   5.824   6.095
 4898SOL     OW15592   6.050   2.263   4.903
 4898SOL    HW115593   6.062   2.328   4.979
 4898SOL    HW215594   6.089   2.302   4.820
 4899SOL     OW15595   5.262   4.358   4.370
 4899SOL    HW115596   5.186   4.328   4.427
 4899SOL    HW215597   5.316   4.426   4.420
 4900SOL     OW15598   0.579   6.629   5.421
 4900SOL    HW115599   0.655   6.668   5.368
 4900SOL    HW215600   0.559   6.537   5.387
 4901SOL     OW15601   0.541   6.542   3.210
 4901SOL    HW115602   0.450   6.500   3.212
 4901SOL    HW215603   0.535   6.635   3.248
 4902SOL     OW15604   3.008   4.937   1.983
 4902SOL    HW115605   3.054   4.893   1.906
 4902SOL    HW215606   3.014   4.877   2.063
 4903SOL     OW15607   5.420   5.850   5.751
 4903SOL    HW115608   5.509   5.892   5.767
 4903SOL    HW215609   5.417   5.759   5.793
 4904SOL     OW15610   3.700   6.304   3.259
 4904SOL    HW115611   3.740   6.238   3.323
 4904SOL    HW215612   3.713   6.272   3.165
 4905SOL     OW15613   6.770   3.452   3.411
 4905SOL    HW115614   6.674   3.470   3.389
 4905SOL    HW215615   6.811   3.397   3.338
 4906SOL     OW15616   5.004   0.513   1.255
 4906SOL    HW115617   4.923   0.455   1.256
 4906SOL    HW215618   5.062   0.487   1.178
 4907SOL     OW15619   2.336   1.847   2.258
 4907SOL    HW115620   2.310   1.916   2.190
 4907SOL    HW215621   2.340   1.889   2.348
 4908SOL     OW15622   3.755   5.419   0.169
 4908SOL    HW115623   3.812   5.449   0.093
 4908SOL    HW215624   3.810   5.413   0.253
 4909SOL     OW15625   5.910   0.129   5.622
 4909SOL    HW115626   5.879   0.198   5.556
 4909SOL    HW215627   6.010   0.123   5.618
 4910SOL     OW15628   5.999   0.083   6.277
 4910SOL    HW115629   5.925   0.054   6.337
 4910SOL    HW215630   5.991   0.181   6.259
 4911SOL     OW15631   0.892   2.812   6.267
 4911SOL    HW115632   0.793   2.816   6.254
 4911SOL    HW215633   0.914   2.733   6.325
 4912SOL     OW15634   2.522   2.392   2.217
 4912SOL    HW115635   2.538   2.371   2.313
 4912SOL    HW215636   2.598   2.359   2.162
 4913SOL     OW15637   2.836   3.552   2.444
 4913SOL    HW115638   2.854   3.561   2.542
 4913SOL    HW215639   2.834   3.455   2.419
 4914SOL     OW15640   1.582   6.505   2.514
 4914SOL    HW115641   1.599   6.599   2.544
 4914SOL    HW215642   1.485   6.494   2.490
 4915SOL     OW15643   3.076   5.844   2.994
 4915SOL    HW115644   3.086   5.937   3.029
 4915SOL    HW215645   3.167   5.806   2.976
 4916SOL     OW15646   1.862   1.562   2.382
 4916SOL    HW115647   1.871   1.661   2.384
 4916SOL    HW215648   1.769   1.536   2.405
 4917SOL     OW15649   2.279   5.477   6.417
 4917SOL    HW115650   2.292   5.380   6.434
 4917SOL    HW215651   2.349   5.530   6.466
 4918SOL     OW15652   2.216   0.648   3.725
 4918SOL    HW115653   2.155   0.684   3.654
 4918SOL    HW215654   2.178   0.563   3.762
 4919SOL     OW15655   2.577   3.100   1.560
 4919SOL    HW115656   2.540   3.019   1.605
 4919SOL    HW215657   2.527   3.181   1.591
 4920SOL     OW15658   4.244   0.770   0.584
 4920SOL    HW115659   4.249   0.868   0.602
 4920SOL    HW215660   4.153   0.736   0.608
 4921SOL     OW15661   1.611   4.088   2.012
 4921SOL    HW115662   1.547   4.101   2.087
 4921SOL    HW215663   1.650   4.177   1.986
 4922SOL     OW15664   0.631   2.559   5.525
 4922SOL    HW115665   0.688   2.521   5.452
 4922SOL    HW215666   0.541   2.515   5.523
 4923SOL     OW15667   3.192   2.079   0.440
 4923SOL    HW115668   3.176   2.136   0.520
 4923SOL    HW215669   3.177   1.983   0.464
 4924SOL     OW15670   0.422   3.965   4.338
 4924SOL    HW115671   0.403   3.880   4.387
 4924SOL    HW215672   0.508   4.004   4.371
 4925SOL     OW15673   4.602   5.627   6.237
 4925SOL    HW115674   4.675   5.671   6.290
 4925SOL    HW215675   4.612   5.528   6.244
 4926SOL     OW15676   3.976   2.538   1.470
 4926SOL    HW115677   3.969   2.553   1.372
 4926SOL    HW215678   3.917   2.461   1.496
 4927SOL     OW15679   4.039   3.805   2.975
 4927SOL    HW115680   4.099   3.804   3.055
 4927SOL    HW215681   3.950   3.840   3.001
 4928SOL     OW15682   0.776   6.314   0.478
 4928SOL    HW115683   0.737   6.400   0.510
 4928SOL    HW215684   0.845   6.283   0.544
 4929SOL     OW15685   0.834   5.249   4.281
 4929SOL    HW115686   0.884   5.239   4.366
 4929SOL    HW215687   0.777   5.332   4.285
 4930SOL     OW15688   0.181   2.405   0.483
 4930SOL    HW115689   0.260   2.414   0.543
 4930SOL    HW215690   0.117   2.480   0.502
 4931SOL     OW15691   6.725   0.163   0.928
 4931SOL    HW115692   6.767   0.072   0.925
 4931SOL    HW215693   6.791   0.231   0.896
 4932SOL     OW15694   4.198   2.329   1.077
 4932SOL    HW115695   4.239   2.354   1.165
 4932SOL    HW215696   4.102   2.304   1.091
 4933SOL     OW15697   2.878   1.116   5.222
 4933SOL    HW115698   2.911   1.033   5.178
 4933SOL    HW215699   2.840   1.095   5.312
 4934SOL     OW15700   1.360   5.635   5.143
 4934SOL    HW115701   1.336   5.631   5.046
 4934SOL    HW215702   1.446   5.685   5.154
 4935SOL     OW15703   1.530   1.214   0.352
 4935SOL    HW115704   1.601   1.191   0.419
 4935SOL    HW215705   1.465   1.138   0.346
 4936SOL     OW15706   4.756   5.797   1.342
 4936SOL    HW115707   4.820   5.801   1.266
 4936SOL    HW215708   4.705   5.883   1.347
 4937SOL     OW15709   0.915   3.049   5.333
 4937SOL    HW115710   0.818   3.041   5.312
 4937SOL    HW215711   0.928   3.040   5.432
 4938SOL     OW15712   3.386   4.856   1.733
 4938SOL    HW115713   3.378   4.950   1.764
 4938SOL    HW215714   3.453   4.808   1.791
 4939SOL     OW15715   0.793   1.511   1.662
 4939SOL    HW115716   0.775   1.464   1.576
 4939SOL    HW215717   0.841   1.450   1.725
 4940SOL     OW15718   0.285   1.529   5.221
 4940SOL    HW115719   0.381   1.500   5.222
 4940SOL    HW215720   0.258   1.558   5.313
 4941SOL     OW15721   4.250   2.343   5.568
 4941SOL    HW115722   4.273   2.422   5.625
 4941SOL    HW215723   4.151   2.338   5.557
 4942SOL     OW15724   0.698   1.466   3.324
 4942SOL    HW115725   0.601   1.465   3.297
 4942SOL    HW215726   0.750   1.518   3.257
 4943SOL     OW15727   5.441   2.531   6.898
 4943SOL    HW115728   5.396   2.586   6.828
 4943SOL    HW215729   5.373   2.500   6.964
 4944SOL     OW15730   0.888   5.406   6.856
 4944SOL    HW115731   0.947   5.466   6.801
 4944SOL    HW215732   0.793   5.416   6.826
 4945SOL     OW15733   1.943   0.577   5.591
 4945SOL    HW115734   1.891   0.641   5.535
 4945SOL    HW215735   2.028   0.554   5.544
 4946SOL     OW15736   2.817   5.145   0.318
 4946SOL    HW115737   2.910   5.170   0.290
 4946SOL    HW215738   2.797   5.187   0.407
 4947SOL     OW15739   1.477   0.611   1.052
 4947SOL    HW115740   1.383   0.579   1.051
 4947SOL    HW215741   1.530   0.560   0.984
 4948SOL     OW15742   1.907   2.285   1.967
 4948SOL    HW115743   1.988   2.310   2.021
 4948SOL    HW215744   1.937   2.242   1.882
 4949SOL     OW15745   0.013   4.460   6.446
 4949SOL    HW115746   0.036   4.502   6.534
 4949SOL    HW215747   0.037   4.524   6.372
 4950SOL     OW15748   3.410   4.420   5.900
 4950SOL    HW115749   3.407   4.338   5.957
 4950SOL    HW215750   3.493   4.420   5.845
 4951SOL     OW15751   4.777   5.718   2.809
 4951SOL    HW115752   4.818   5.780   2.742
 4951SOL    HW215753   4.838   5.639   2.823
 4952SOL     OW15754   0.433   0.284   6.383
 4952SOL    HW115755   0.459   0.188   6.370
 4952SOL    HW215756   0.499   0.327   6.445
 4953SOL     OW15757   0.856   2.372   4.779
 4953SOL    HW115758   0.953   2.392   4.766
 4953SOL    HW215759   0.819   2.430   4.852
 4954SOL     OW15760   3.017   3.986   4.808
 4954SOL    HW115761   2.961   3.923   4.753
 4954SOL    HW215762   3.085   4.030   4.750
 4955SOL     OW15763   4.095   5.593   5.982
 4955SOL    HW115764   4.112   5.500   6.017
 4955SOL    HW215765   4.065   5.587   5.887
 4956SOL     OW15766   2.916   0.116   5.332
 4956SOL    HW115767   2.930   0.215   5.344
 4956SOL    HW215768   3.003   0.073   5.309
 4957SOL     OW15769   5.707   4.698   6.491
 4957SOL    HW115770   5.710   4.707   6.590
 4957SOL    HW215771   5.623   4.649   6.464
 4958SOL     OW15772   4.534   5.948   0.795
 4958SOL    HW115773   4.547   6.044   0.768
 4958SOL    HW215774   4.436   5.927   0.798
 4959SOL     OW15775   0.465   2.197   2.898
 4959SOL    HW115776   0.376   2.153   2.906
 4959SOL    HW215777   0.489   2.238   2.986
 4960SOL     OW15778   5.083   5.119   3.564
 4960SOL    HW115779   5.094   5.189   3.494
 4960SOL    HW215780   5.161   5.120   3.626
 4961SOL     OW15781   3.243   1.971   1.421
 4961SOL    HW115782   3.213   2.065   1.403
 4961SOL    HW215783   3.177   1.908   1.381
 4962SOL     OW15784   1.079   4.181   0.802
 4962SOL    HW115785   1.105   4.090   0.770
 4962SOL    HW215786   1.160   4.230   0.833
 4963SOL     OW15787   0.650   4.000   6.298
 4963SOL    HW115788   0.692   3.949   6.373
 4963SOL    HW215789   0.635   4.095   6.327
 4964SOL     OW15790   2.534   6.599   4.502
 4964SOL    HW115791   2.541   6.509   4.544
 4964SOL    HW215792   2.517   6.668   4.573
 4965SOL     OW15793   1.472   5.920   2.912
 4965SOL    HW115794   1.442   6.010   2.881
 4965SOL    HW215795   1.552   5.892   2.859
 4966SOL     OW15796   3.196   6.615   4.307
 4966SOL    HW115797   3.105   6.632   4.270
 4966SOL    HW215798   3.264   6.629   4.234
 4967SOL     OW15799   4.424   4.644   4.768
 4967SOL    HW115800   4.489   4.717   4.791
 4967SOL    HW215801   4.419   4.579   4.844
 4968SOL     OW15802   0.051   2.812   3.530
 4968SOL    HW115803   0.093   2.814   3.621
 4968SOL    HW215804   6.997   2.877   3.526
 4969SOL     OW15805   0.174   6.034   3.849
 4969SOL    HW115806   0.141   6.006   3.939
 4969SOL    HW215807   0.149   5.965   3.781
 4970SOL     OW15808   1.368   1.727   1.275
 4970SOL    HW115809   1.400   1.644   1.230
 4970SOL    HW215810   1.402   1.807   1.227
 4971SOL     OW15811   0.049   6.067   2.399
 4971SOL    HW115812   0.021   6.131   2.471
 4971SOL    HW215813   0.022   5.974   2.426
 4972SOL     OW15814   0.281   4.571   0.616
 4972SOL    HW115815   0.222   4.593   0.694
 4972SOL    HW215816   0.365   4.624   0.622
 4973SOL     OW15817   6.350   1.140   0.890
 4973SOL    HW115818   6.406   1.218   0.862
 4973SOL    HW215819   6.380   1.108   0.980
 4974SOL     OW15820   3.949   6.604   5.090
 4974SOL    HW115821   4.033   6.569   5.048
 4974SOL    HW215822   3.873   6.543   5.067
 4975SOL     OW15823   5.191   4.991   1.146
 4975SOL    HW115824   5.273   5.049   1.147
 4975SOL    HW215825   5.218   4.895   1.157
 4976SOL     OW15826   1.927   6.937   3.445
 4976SOL    HW115827   1.946   6.987   3.360
 4976SOL    HW215828   1.862   6.863   3.427
 4977SOL     OW15829   1.284   4.321   5.747
 4977SOL    HW115830   1.293   4.376   5.664
 4977SOL    HW215831   1.357   4.253   5.751
 4978SOL     OW15832   5.765   4.534   4.518
 4978SOL    HW115833   5.763   4.472   4.440
 4978SOL    HW215834   5.717   4.618   4.495
 4979SOL     OW15835   2.377   6.679   6.019
 4979SOL    HW115836   2.282   6.660   6.043
 4979SOL    HW215837   2.438   6.618   6.070
 4980SOL     OW15838   5.389   3.103   3.928
 4980SOL    HW115839   5.374   3.195   3.892
 4980SOL    HW215840   5.481   3.097   3.967
 4981SOL     OW15841   3.042   4.849   2.682
 4981SOL    HW115842   3.046   4.818   2.778
 4981SOL    HW215843   3.132   4.883   2.655
 4982SOL     OW15844   3.996   1.921   5.716
 4982SOL    HW115845   4.018   2.017   5.700
 4982SOL    HW215846   3.907   1.915   5.762
 4983SOL     OW15847   5.693   5.498   3.008
 4983SOL    HW115848   5.713   5.543   3.095
 4983SOL    HW215849   5.739   5.409   3.005
 4984SOL     OW15850   4.951   3.749   3.502
 4984SOL    HW115851   4.980   3.758   3.406
 4984SOL    HW215852   5.002   3.814   3.558
 4985SOL     OW15853   5.643   0.619   2.549
 4985SOL    HW115854   5.713   0.563   2.594
 4985SOL    HW215855   5.647   0.605   2.450
 4986SOL     OW15856   1.020   4.932   1.586
 4986SOL    HW115857   1.105   4.981   1.571
 4986SOL    HW215858   0.958   4.987   1.642
 4987SOL     OW15859   0.526   1.219   2.377
 4987SOL    HW115860   0.537   1.121   2.387
 4987SOL    HW215861   0.455   1.252   2.439
 4988SOL     OW15862   6.505   5.856   3.717
 4988SOL    HW115863   6.513   5.756   3.720
 4988SOL    HW215864   6.412   5.881   3.688
 4989SOL     OW15865   4.570   0.394   3.377
 4989SOL    HW115866   4.522   0.332   3.316
 4989SOL    HW215867   4.631   0.453   3.324
 4990SOL     OW15868   4.597   2.322   5.318
 4990SOL    HW115869   4.577   2.283   5.228
 4990SOL    HW215870   4.524   2.386   5.344
 4991SOL     OW15871   1.260   4.583   5.868
 4991SOL    HW115872   1.287   4.492   5.836
 4991SOL    HW215873   1.170   4.577   5.911
 4992SOL     OW15874   1.073   3.517   3.841
 4992SOL    HW115875   0.979   3.485   3.854
 4992SOL    HW215876   1.118   3.526   3.930
 4993SOL     OW15877   3.097   6.260   3.849
 4993SOL    HW115878   3.113   6.275   3.752
 4993SOL    HW215879   3.064   6.166   3.863
 4994SOL     OW15880   3.391   4.704   5.303
 4994SOL    HW115881   3.461   4.774   5.288
 4994SOL    HW215882   3.315   4.718   5.239
 4995SOL     OW15883   0.189   0.824   5.962
 4995SOL    HW115884   0.180   0.730   5.993
 4995SOL    HW215885   0.275   0.863   5.996
 4996SOL     OW15886   0.121   1.457   4.006
 4996SOL    HW115887   0.153   1.527   4.068
 4996SOL    HW215888   0.161   1.369   4.031
 4997SOL     OW15889   4.176   1.823   1.573
 4997SOL    HW115890   4.121   1.814   1.655
 4997SOL    HW215891   4.255   1.882   1.592
 4998SOL     OW15892   1.008   3.659   3.314
 4998SOL    HW115893   1.083   3.649   3.380
 4998SOL    HW215894   0.967   3.749   3.323
 4999SOL     OW15895   0.504   3.075   4.512
 4999SOL    HW115896   0.472   2.982   4.529
 4999SOL    HW215897   0.500   3.094   4.414
 5000SOL     OW15898   3.406   5.797   2.972
 5000SOL    HW115899   3.467   5.719   2.985
 5000SOL    HW215900   3.406   5.822   2.875
 5001SOL     OW15901   0.324   6.253   3.470
 5001SOL    HW115902   0.333   6.283   3.564
 5001SOL    HW215903   0.399   6.191   3.447
 5002SOL     OW15904   1.169   4.015   3.795
 5002SOL    HW115905   1.211   4.033   3.884
 5002SOL    HW215906   1.093   3.951   3.807
 5003SOL     OW15907   4.211   0.733   3.559
 5003SOL    HW115908   4.249   0.738   3.467
 5003SOL    HW215909   4.236   0.815   3.610
 5004SOL     OW15910   3.414   5.447   0.349
 5004SOL    HW115911   3.363   5.510   0.407
 5004SOL    HW215912   3.426   5.487   0.258
 5005SOL     OW15913   3.086   2.678   0.170
 5005SOL    HW115914   3.057   2.590   0.208
 5005SOL    HW215915   3.102   2.668   0.072
 5006SOL     OW15916   4.865   1.741   1.893
 5006SOL    HW115917   4.784   1.770   1.841
 5006SOL    HW215918   4.898   1.818   1.948
 5007SOL     OW15919   6.014   6.545   2.066
 5007SOL    HW115920   5.958   6.584   1.993
 5007SOL    HW215921   6.012   6.445   2.059
 5008SOL     OW15922   5.272   6.481   2.525
 5008SOL    HW115923   5.276   6.534   2.610
 5008SOL    HW215924   5.302   6.539   2.448
 5009SOL     OW15925   6.408   2.302   0.853
 5009SOL    HW115926   6.411   2.203   0.861
 5009SOL    HW215927   6.482   2.342   0.907
 5010SOL     OW15928   3.454   3.593   1.251
 5010SOL    HW115929   3.399   3.545   1.182
 5010SOL    HW215930   3.535   3.632   1.208
 5011SOL     OW15931   2.313   2.910   6.975
 5011SOL    HW115932   2.279   2.857   0.032
 5011SOL    HW215933   2.412   2.906   6.972
 5012SOL     OW15934   6.057   1.665   5.815
 5012SOL    HW115935   6.002   1.748   5.801
 5012SOL    HW215936   6.069   1.618   5.728
 5013SOL     OW15937   5.775   6.907   5.673
 5013SOL    HW115938   5.806   7.002   5.667
 5013SOL    HW215939   5.848   6.846   5.643
 5014SOL     OW15940   6.368   3.370   1.686
 5014SOL    HW115941   6.273   3.398   1.672
 5014SOL    HW215942   6.421   3.448   1.719
 5015SOL     OW15943   5.684   6.922   3.874
 5015SOL    HW115944   5.760   6.976   3.911
 5015SOL    HW215945   5.636   6.876   3.949
 5016SOL     OW15946   1.998   3.610   5.887
 5016SOL    HW115947   1.995   3.511   5.878
 5016SOL    HW215948   1.939   3.639   5.963
 5017SOL     OW15949   0.606   3.299   2.258
 5017SOL    HW115950   0.684   3.239   2.236
 5017SOL    HW215951   0.523   3.261   2.219
 5018SOL     OW15952   1.257   0.231   0.432
 5018SOL    HW115953   1.169   0.183   0.433
 5018SOL    HW215954   1.241   0.329   0.415
 5019SOL     OW15955   1.795   5.307   4.915
 5019SOL    HW115956   1.888   5.324   4.946
 5019SOL    HW215957   1.735   5.381   4.946
 5020SOL     OW15958   2.651   7.006   4.259
 5020SOL    HW115959   2.601   6.974   4.178
 5020SOL    HW215960   2.700   6.929   4.300
 5021SOL     OW15961   2.260   0.831   0.407
 5021SOL    HW115962   2.359   0.835   0.400
 5021SOL    HW215963   2.233   0.828   0.503
 5022SOL     OW15964   6.735   3.055   1.285
 5022SOL    HW115965   6.769   2.972   1.240
 5022SOL    HW215966   6.734   3.041   1.384
 5023SOL     OW15967   0.078   4.175   2.433
 5023SOL    HW115968   0.021   4.249   2.468
 5023SOL    HW215969   0.082   4.101   2.500
 5024SOL     OW15970   4.207   3.471   1.435
 5024SOL    HW115971   4.186   3.404   1.364
 5024SOL    HW215972   4.218   3.424   1.523
 5025SOL     OW15973   4.154   1.373   4.156
 5025SOL    HW115974   4.104   1.296   4.196
 5025SOL    HW215975   4.145   1.370   4.056
 5026SOL     OW15976   4.147   6.943   4.852
 5026SOL    HW115977   4.058   6.979   4.824
 5026SOL    HW215978   4.151   6.845   4.835
 5027SOL     OW15979   5.273   6.850   0.193
 5027SOL    HW115980   5.211   6.902   0.135
 5027SOL    HW215981   5.248   6.753   0.191
 5028SOL     OW15982   6.163   2.034   2.412
 5028SOL    HW115983   6.177   1.971   2.488
 5028SOL    HW215984   6.134   2.123   2.448
 5029SOL     OW15985   6.032   1.981   2.858
 5029SOL    HW115986   5.945   2.029   2.873
 5029SOL    HW215987   6.101   2.046   2.825
 5030SOL     OW15988   0.299   4.510   6.593
 5030SOL    HW115989   0.258   4.494   6.682
 5030SOL    HW215990   0.328   4.423   6.552
 5031SOL     OW15991   6.794   6.698   6.198
 5031SOL    HW115992   6.886   6.658   6.200
 5031SOL    HW215993   6.790   6.776   6.260
 5032SOL     OW15994   2.501   3.357   5.368
 5032SOL    HW115995   2.577   3.400   5.319
 5032SOL    HW215996   2.520   3.259   5.378
 5033SOL     OW15997   2.220   0.564   6.909
 5033SOL    HW115998   2.283   0.631   6.949
 5033SOL    HW215999   2.144   0.549   6.972
 5034SOL     OW16000   4.464   6.577   4.852
 5034SOL    HW116001   4.517   6.609   4.774
 5034SOL    HW216002   4.456   6.477   4.848
 5035SOL     OW16003   1.793   3.421   3.870
 5035SOL    HW116004   1.746   3.338   3.842
 5035SOL    HW216005   1.768   3.496   3.809
 5036SOL     OW16006   6.799   2.267   5.204
 5036SOL    HW116007   6.838   2.213   5.279
 5036SOL    HW216008   6.745   2.342   5.242
 5037SOL     OW16009   4.777   3.936   1.117
 5037SOL    HW116010   4.729   4.022   1.136
 5037SOL    HW216011   4.710   3.863   1.104
 5038SOL     OW16012   3.819   3.394   4.089
 5038SOL    HW116013   3.817   3.360   3.995
 5038SOL    HW216014   3.779   3.486   4.091
 5039SOL     OW16015   1.115   3.350   7.009
 5039SOL    HW116016   1.061   3.270   0.015
 5039SOL    HW216017   1.062   3.433   0.007
 5040SOL     OW16018   0.343   0.730   5.696
 5040SOL    HW116019   0.280   0.653   5.687
 5040SOL    HW216020   0.336   0.768   5.788
 5041SOL     OW16021   6.936   3.437   1.829
 5041SOL    HW116022   6.906   3.506   1.895
 5041SOL    HW216023   6.864   3.368   1.818
 5042SOL     OW16024   0.447   2.702   6.122
 5042SOL    HW116025   0.529   2.720   6.176
 5042SOL    HW216026   0.395   2.787   6.109
 5043SOL     OW16027   4.057   6.571   1.058
 5043SOL    HW116028   4.122   6.595   1.130
 5043SOL    HW216029   4.044   6.650   0.998
 5044SOL     OW16030   5.842   4.794   0.721
 5044SOL    HW116031   5.913   4.865   0.724
 5044SOL    HW216032   5.752   4.837   0.725
 5045SOL     OW16033   6.462   3.494   6.512
 5045SOL    HW116034   6.363   3.487   6.524
 5045SOL    HW216035   6.481   3.527   6.419
 5046SOL     OW16036   3.858   3.324   3.047
 5046SOL    HW116037   3.922   3.388   3.005
 5046SOL    HW216038   3.765   3.343   3.015
 5047SOL     OW16039   0.894   3.925   3.295
 5047SOL    HW116040   0.878   3.994   3.226
 5047SOL    HW216041   0.808   3.876   3.314
 5048SOL     OW16042   1.733   1.375   5.805
 5048SOL    HW116043   1.683   1.418   5.729
 5048SOL    HW216044   1.668   1.332   5.868
 5049SOL     OW16045   4.954   1.235   6.459
 5049SOL    HW116046   5.024   1.296   6.496
 5049SOL    HW216047   4.864   1.274   6.475
 5050SOL     OW16048   1.619   0.408   0.897
 5050SOL    HW116049   1.714   0.403   0.864
 5050SOL    HW216050   1.557   0.397   0.819
 5051SOL     OW16051   4.213   5.247   1.382
 5051SOL    HW116052   4.287   5.312   1.401
 5051SOL    HW216053   4.225   5.208   1.290
 5052SOL     OW16054   2.623   1.130   5.621
 5052SOL    HW116055   2.712   1.175   5.609
 5052SOL    HW216056   2.586   1.105   5.532
 5053SOL     OW16057   0.085   6.923   1.870
 5053SOL    HW116058   0.007   6.934   1.809
 5053SOL    HW216059   0.060   6.952   1.962
 5054SOL     OW16060   3.773   5.049   3.770
 5054SOL    HW116061   3.742   5.080   3.860
 5054SOL    HW216062   3.799   5.128   3.715
 5055SOL     OW16063   6.615   3.171   6.671
 5055SOL    HW116064   6.657   3.252   6.711
 5055SOL    HW216065   6.661   3.149   6.585
 5056SOL     OW16066   5.183   4.366   4.813
 5056SOL    HW116067   5.116   4.383   4.885
 5056SOL    HW216068   5.218   4.454   4.779
 5057SOL     OW16069   1.035   5.853   2.345
 5057SOL    HW116070   0.968   5.782   2.324
 5057SOL    HW216071   1.106   5.815   2.404
 5058SOL     OW16072   3.237   5.014   5.363
 5058SOL    HW116073   3.203   5.052   5.449
 5058SOL    HW216074   3.257   5.089   5.300
 5059SOL     OW16075   0.612   0.115   1.974
 5059SOL    HW116076   0.662   0.057   2.038
 5059SOL    HW216077   0.617   0.210   2.004
 5060SOL     OW16078   6.368   1.863   5.493
 5060SOL    HW116079   6.466   1.882   5.495
 5060SOL    HW216080   6.339   1.847   5.398
 5061SOL     OW16081   5.340   4.127   0.065
 5061SOL    HW116082   5.320   4.036   0.099
 5061SOL    HW216083   5.314   4.195   0.133
 5062SOL     OW16084   0.521   0.534   0.788
 5062SOL    HW116085   0.502   0.466   0.859
 5062SOL    HW216086   0.506   0.626   0.826
 5063SOL     OW16087   1.227   6.423   1.435
 5063SOL    HW116088   1.234   6.523   1.429
 5063SOL    HW216089   1.141   6.394   1.393
 5064SOL     OW16090   4.900   3.084   6.976
 5064SOL    HW116091   4.968   3.018   6.944
 5064SOL    HW216092   4.946   3.169   7.000
 5065SOL     OW16093   2.345   6.018   5.542
 5065SOL    HW116094   2.346   6.064   5.454
 5065SOL    HW216095   2.426   6.045   5.595
 5066SOL     OW16096   5.098   5.120   1.364
 5066SOL    HW116097   5.124   5.053   1.294
 5066SOL    HW216098   5.023   5.082   1.420
 5067SOL     OW16099   4.884   0.895   0.103
 5067SOL    HW116100   4.918   0.926   0.014
 5067SOL    HW216101   4.816   0.959   0.137
 5068SOL     OW16102   2.896   4.860   1.126
 5068SOL    HW116103   2.862   4.801   1.199
 5068SOL    HW216104   2.971   4.916   1.160
 5069SOL     OW16105   1.006   5.165   3.455
 5069SOL    HW116106   0.996   5.075   3.412
 5069SOL    HW216107   1.100   5.175   3.489
 5070SOL     OW16108   5.104   3.047   4.312
 5070SOL    HW116109   5.122   3.099   4.229
 5070SOL    HW216110   5.007   3.023   4.316
 5071SOL     OW16111   4.394   0.923   6.901
 5071SOL    HW116112   4.358   0.934   6.808
 5071SOL    HW216113   4.460   0.996   6.920
 5072SOL     OW16114   1.514   4.277   1.216
 5072SOL    HW116115   1.435   4.337   1.200
 5072SOL    HW216116   1.482   4.191   1.255
 5073SOL     OW16117   4.102   1.740   3.722
 5073SOL    HW116118   4.067   1.689   3.801
 5073SOL    HW216119   4.131   1.831   3.751
 5074SOL     OW16120   3.126   4.218   6.319
 5074SOL    HW116121   3.082   4.300   6.355
 5074SOL    HW216122   3.056   4.147   6.303
 5075SOL     OW16123   0.153   5.705   4.573
 5075SOL    HW116124   0.237   5.665   4.609
 5075SOL    HW216125   0.088   5.632   4.550
 5076SOL     OW16126   3.448   6.974   1.388
 5076SOL    HW116127   3.364   6.971   1.334
 5076SOL    HW216128   3.482   0.047   1.392
 5077SOL     OW16129   0.448   2.152   2.222
 5077SOL    HW116130   0.503   2.192   2.295
 5077SOL    HW216131   0.496   2.162   2.135
 5078SOL     OW16132   1.267   1.104   3.677
 5078SOL    HW116133   1.221   1.161   3.745
 5078SOL    HW216134   1.205   1.032   3.647
 5079SOL     OW16135   3.929   5.188   5.165
 5079SOL    HW116136   3.879   5.274   5.175
 5079SOL    HW216137   3.870   5.112   5.193
 5080SOL     OW16138   5.906   6.575   5.316
 5080SOL    HW116139   5.939   6.668   5.331
 5080SOL    HW216140   5.919   6.521   5.399
 5081SOL     OW16141   3.171   3.571   3.536
 5081SOL    HW116142   3.157   3.662   3.576
 5081SOL    HW216143   3.099   3.509   3.568
 5082SOL     OW16144   6.262   5.757   4.614
 5082SOL    HW116145   6.242   5.704   4.696
 5082SOL    HW216146   6.352   5.731   4.578
 5083SOL     OW16147   1.619   5.765   1.745
 5083SOL    HW116148   1.651   5.762   1.650
 5083SOL    HW216149   1.695   5.790   1.804
 5084SOL     OW16150   1.924   5.989   3.741
 5084SOL    HW116151   1.828   5.968   3.724
 5084SOL    HW216152   1.937   6.004   3.839
 5085SOL     OW16153   6.519   2.731   6.030
 5085SOL    HW116154   6.492   2.763   5.940
 5085SOL    HW216155   6.513   2.806   6.096
 5086SOL     OW16156   6.820   5.215   3.658
 5086SOL    HW116157   6.784   5.308   3.665
 5086SOL    HW216158   6.744   5.149   3.655
 5087SOL     OW16159   0.280   5.595   5.560
 5087SOL    HW116160   0.255   5.583   5.464
 5087SOL    HW216161   0.236   5.677   5.596
 5088SOL     OW16162   5.558   0.265   6.838
 5088SOL    HW116163   5.533   0.201   6.765
 5088SOL    HW216164   5.620   0.221   6.902
 5089SOL     OW16165   5.226   3.261   3.607
 5089SOL    HW116166   5.325   3.258   3.618
 5089SOL    HW216167   5.202   3.338   3.548
 5090SOL     OW16168   1.547   4.880   1.134
 5090SOL    HW116169   1.556   4.822   1.215
 5090SOL    HW216170   1.451   4.884   1.106
 5091SOL     OW16171   1.605   5.738   2.653
 5091SOL    HW116172   1.531   5.714   2.590
 5091SOL    HW216173   1.596   5.687   2.738
 5092SOL     OW16174   3.558   2.616   1.709
 5092SOL    HW116175   3.645   2.651   1.674
 5092SOL    HW216176   3.576   2.543   1.775
 5093SOL     OW16177   0.377   2.081   1.073
 5093SOL    HW116178   0.324   2.077   0.989
 5093SOL    HW216179   0.448   2.151   1.066
 5094SOL     OW16180   6.903   0.108   6.446
 5094SOL    HW116181   6.903   0.042   6.522
 5094SOL    HW216182   6.856   0.068   6.367
 5095SOL     OW16183   2.726   6.960   5.458
 5095SOL    HW116184   2.667   6.974   5.537
 5095SOL    HW216185   2.770   0.026   5.434
 5096SOL     OW16186   4.077   4.987   1.837
 5096SOL    HW116187   4.093   4.992   1.739
 5096SOL    HW216188   4.013   4.913   1.858
 5097SOL     OW16189   0.904   0.448   6.306
 5097SOL    HW116190   0.828   0.513   6.316
 5097SOL    HW216191   0.973   0.487   6.247
 5098SOL     OW16192   0.161   2.320   2.444
 5098SOL    HW116193   0.168   2.294   2.348
 5098SOL    HW216194   0.175   2.419   2.453
 5099SOL     OW16195   0.664   6.903   4.324
 5099SOL    HW116196   0.711   6.864   4.244
 5099SOL    HW216197   0.565   6.889   4.314
 5100SOL     OW16198   5.274   6.479   6.009
 5100SOL    HW116199   5.248   6.568   5.973
 5100SOL    HW216200   5.304   6.488   6.103
 5101SOL     OW16201   4.686   5.848   0.525
 5101SOL    HW116202   4.616   5.860   0.595
 5101SOL    HW216203   4.644   5.816   0.441
 5102SOL     OW16204   3.693   6.455   5.070
 5102SOL    HW116205   3.629   6.506   5.128
 5102SOL    HW216206   3.725   6.374   5.119
 5103SOL     OW16207   1.154   0.432   4.746
 5103SOL    HW116208   1.181   0.337   4.729
 5103SOL    HW216209   1.087   0.461   4.678
 5104SOL     OW16210   1.491   6.861   1.332
 5104SOL    HW116211   1.540   6.940   1.368
 5104SOL    HW216212   1.532   6.831   1.246
 5105SOL     OW16213   2.542   3.416   6.537
 5105SOL    HW116214   2.586   3.352   6.474
 5105SOL    HW216215   2.446   3.391   6.547
 5106SOL     OW16216   3.084   0.334   2.212
 5106SOL    HW116217   3.133   0.249   2.190
 5106SOL    HW216218   3.013   0.351   2.143
 5107SOL     OW16219   1.516   7.020   5.759
 5107SOL    HW116220   1.550   6.926   5.769
 5107SOL    HW216221   1.563   0.042   5.683
 5108SOL     OW16222   3.018   3.558   3.791
 5108SOL    HW116223   3.034   3.460   3.793
 5108SOL    HW216224   2.955   3.580   3.717
 5109SOL     OW16225   0.101   0.964   1.331
 5109SOL    HW116226   0.171   1.035   1.340
 5109SOL    HW216227   0.012   1.002   1.355
 5110SOL     OW16228   2.457   5.753   5.415
 5110SOL    HW116229   2.415   5.822   5.474
 5110SOL    HW216230   2.385   5.693   5.378
 5111SOL     OW16231   2.018   1.098   0.062
 5111SOL    HW116232   2.030   1.005   0.026
 5111SOL    HW216233   1.926   1.130   0.041
 5112SOL     OW16234   0.209   6.690   3.577
 5112SOL    HW116235   0.144   6.615   3.563
 5112SOL    HW216236   0.159   6.775   3.593
 5113SOL     OW16237   1.101   6.699   6.668
 5113SOL    HW116238   1.200   6.694   6.674
 5113SOL    HW216239   1.064   6.611   6.639
 5114SOL     OW16240   3.987   5.194   0.066
 5114SOL    HW116241   3.895   5.165   0.093
 5114SOL    HW216242   4.046   5.196   0.146
 5115SOL     OW16243   2.052   3.708   5.406
 5115SOL    HW116244   2.054   3.611   5.428
 5115SOL    HW216245   2.095   3.723   5.316
 5116SOL     OW16246   0.619   3.738   1.421
 5116SOL    HW116247   0.562   3.778   1.493
 5116SOL    HW216248   0.567   3.666   1.374
 5117SOL     OW16249   2.370   4.377   4.179
 5117SOL    HW116250   2.308   4.368   4.101
 5117SOL    HW216251   2.460   4.406   4.146
 5118SOL     OW16252   4.567   6.464   1.338
 5118SOL    HW116253   4.607   6.546   1.297
 5118SOL    HW216254   4.486   6.488   1.391
 5119SOL     OW16255   6.312   0.306   2.501
 5119SOL    HW116256   6.384   0.375   2.504
 5119SOL    HW216257   6.276   0.300   2.408
 5120SOL     OW16258   4.660   1.185   2.701
 5120SOL    HW116259   4.756   1.157   2.708
 5120SOL    HW216260   4.650   1.277   2.739
 5121SOL     OW16261   0.637   3.611   5.316
 5121SOL    HW116262   0.710   3.567   5.368
 5121SOL    HW216263   0.562   3.546   5.302
 5122SOL     OW16264   1.820   6.253   3.515
 5122SOL    HW116265   1.897   6.301   3.473
 5122SOL    HW216266   1.819   6.270   3.613
 5123SOL     OW16267   5.690   4.390   2.367
 5123SOL    HW116268   5.732   4.408   2.457
 5123SOL    HW216269   5.635   4.469   2.339
 5124SOL     OW16270   2.995   5.989   6.848
 5124SOL    HW116271   2.926   5.963   6.780
 5124SOL    HW216272   3.019   5.910   6.904
 5125SOL     OW16273   0.050   2.456   6.076
 5125SOL    HW116274   0.119   2.479   6.007
 5125SOL    HW216275   6.983   2.496   6.049
 5126SOL     OW16276   4.473   3.396   6.817
 5126SOL    HW116277   4.444   3.464   6.884
 5126SOL    HW216278   4.519   3.320   6.864
 5127SOL     OW16279   5.541   3.037   6.723
 5127SOL    HW116280   5.465   3.067   6.781
 5127SOL    HW216281   5.558   3.106   6.652
 5128SOL     OW16282   0.639   0.019   6.812
 5128SOL    HW116283   0.724   0.059   6.779
 5128SOL    HW216284   0.654   7.000   6.903
 5129SOL     OW16285   4.143   2.162   2.284
 5129SOL    HW116286   4.114   2.106   2.207
 5129SOL    HW216287   4.211   2.228   2.254
 5130SOL     OW16288   0.922   6.576   4.831
 5130SOL    HW116289   0.985   6.505   4.863
 5130SOL    HW216290   0.973   6.647   4.783
 5131SOL     OW16291   3.507   4.988   3.343
 5131SOL    HW116292   3.562   5.046   3.403
 5131SOL    HW216293   3.514   4.893   3.373
 5132SOL     OW16294   3.396   1.145   6.699
 5132SOL    HW116295   3.414   1.050   6.726
 5132SOL    HW216296   3.321   1.146   6.633
 5133SOL     OW16297   4.550   4.576   6.770
 5133SOL    HW116298   4.495   4.629   6.706
 5133SOL    HW216299   4.647   4.601   6.761
 5134SOL     OW16300   6.025   5.767   0.471
 5134SOL    HW116301   6.026   5.725   0.562
 5134SOL    HW216302   6.113   5.750   0.427
 5135SOL     OW16303   0.066   2.927   2.791
 5135SOL    HW116304   0.103   2.863   2.859
 5135SOL    HW216305   0.000   2.878   2.733
 5136SOL     OW16306   1.189   1.385   5.771
 5136SOL    HW116307   1.234   1.394   5.682
 5136SOL    HW216308   1.231   1.448   5.836
 5137SOL     OW16309   5.262   0.724   3.977
 5137SOL    HW116310   5.206   0.648   4.007
 5137SOL    HW216311   5.205   0.794   3.934
 5138SOL     OW16312   3.119   3.080   3.510
 5138SOL    HW116313   3.165   3.167   3.531
 5138SOL    HW216314   3.188   3.010   3.492
 5139SOL     OW16315   2.690   0.718   5.608
 5139SOL    HW116316   2.694   0.710   5.508
 5139SOL    HW216317   2.711   0.812   5.634
 5140SOL     OW16318   3.405   3.604   6.291
 5140SOL    HW116319   3.362   3.535   6.349
 5140SOL    HW216320   3.345   3.683   6.282
 5141SOL     OW16321   6.786   2.788   1.197
 5141SOL    HW116322   6.808   2.764   1.103
 5141SOL    HW216323   6.732   2.715   1.239
 5142SOL     OW16324   0.352   6.963   2.212
 5142SOL    HW116325   0.393   0.011   2.272
 5142SOL    HW216326   0.278   7.004   2.159
 5143SOL     OW16327   0.072   6.661   2.413
 5143SOL    HW116328   0.011   6.647   2.491
 5143SOL    HW216329   0.071   6.578   2.356
 5144SOL     OW16330   2.022   3.061   5.300
 5144SOL    HW116331   2.049   3.090   5.209
 5144SOL    HW216332   2.103   3.057   5.359
 5145SOL     OW16333   2.429   5.457   5.926
 5145SOL    HW116334   2.522   5.490   5.937
 5145SOL    HW216335   2.413   5.381   5.990
 5146SOL     OW16336   5.763   5.934   6.969
 5146SOL    HW116337   5.830   5.950   6.896
 5146SOL    HW216338   5.808   5.887   0.024
 5147SOL     OW16339   4.469   2.308   3.151
 5147SOL    HW116340   4.523   2.392   3.146
 5147SOL    HW216341   4.437   2.283   3.060
 5148SOL     OW16342   0.482   0.499   6.233
 5148SOL    HW116343   0.534   0.484   6.149
 5148SOL    HW216344   0.446   0.411   6.266
 5149SOL     OW16345   4.522   5.107   4.379
 5149SOL    HW116346   4.456   5.178   4.402
 5149SOL    HW216347   4.583   5.140   4.307
 5150SOL     OW16348   6.287   6.968   3.460
 5150SOL    HW116349   6.297   0.042   3.431
 5150SOL    HW216350   6.190   6.946   3.470
 5151SOL     OW16351   6.209   5.997   2.176
 5151SOL    HW116352   6.134   5.993   2.243
 5151SOL    HW216353   6.258   6.084   2.186
 5152SOL     OW16354   2.068   1.456   6.887
 5152SOL    HW116355   2.096   1.409   6.971
 5152SOL    HW216356   2.022   1.391   6.826
 5153SOL     OW16357   0.802   2.089   0.871
 5153SOL    HW116358   0.777   2.063   0.964
 5153SOL    HW216359   0.795   2.188   0.861
 5154SOL     OW16360   6.915   2.921   0.874
 5154SOL    HW116361   6.903   2.971   0.788
 5154SOL    HW216362   6.952   2.984   0.943
 5155SOL     OW16363   1.739   1.517   6.796
 5155SOL    HW116364   1.824   1.555   6.758
 5155SOL    HW216365   1.754   1.422   6.823
 5156SOL     OW16366   5.760   5.821   5.087
 5156SOL    HW116367   5.757   5.883   5.008
 5156SOL    HW216368   5.794   5.732   5.058
 5157SOL     OW16369   3.580   0.056   1.684
 5157SOL    HW116370   3.563   0.151   1.710
 5157SOL    HW216371   3.661   0.052   1.626
 5158SOL     OW16372   1.411   2.138   1.991
 5158SOL    HW116373   1.492   2.184   1.956
 5158SOL    HW216374   1.425   2.039   1.987
 5159SOL     OW16375   5.940   3.203   5.893
 5159SOL    HW116376   5.980   3.206   5.801
 5159SOL    HW216377   5.972   3.121   5.941
 5160SOL     OW16378   6.115   6.585   3.017
 5160SOL    HW116379   6.077   6.570   3.108
 5160SOL    HW216380   6.204   6.630   3.024
 5161SOL     OW16381   1.616   3.230   0.606
 5161SOL    HW116382   1.680   3.224   0.529
 5161SOL    HW216383   1.667   3.230   0.692
 5162SOL     OW16384   6.387   0.198   4.142
 5162SOL    HW116385   6.317   0.135   4.178
 5162SOL    HW216386   6.471   0.146   4.124
 5163SOL     OW16387   3.312   0.464   2.143
 5163SOL    HW116388   3.224   0.422   2.162
 5163SOL    HW216389   3.299   0.561   2.122
 5164SOL     OW16390   3.072   3.402   0.055
 5164SOL    HW116391   3.018   3.319   0.037
 5164SOL    HW216392   3.039   3.446   0.138
 5165SOL     OW16393   1.856   4.279   6.306
 5165SOL    HW116394   1.803   4.260   6.223
 5165SOL    HW216395   1.868   4.195   6.358
 5166SOL     OW16396   0.555   4.637   0.609
 5166SOL    HW116397   0.575   4.548   0.652
 5166SOL    HW216398   0.562   4.709   0.678
 5167SOL     OW16399   5.555   3.539   5.454
 5167SOL    HW116400   5.475   3.593   5.427
 5167SOL    HW216401   5.524   3.449   5.487
 5168SOL     OW16402   4.121   2.135   2.701
 5168SOL    HW116403   4.196   2.085   2.743
 5168SOL    HW216404   4.053   2.159   2.771
 5169SOL     OW16405   4.453   5.596   4.755
 5169SOL    HW116406   4.409   5.678   4.793
 5169SOL    HW216407   4.463   5.528   4.827
 5170SOL     OW16408   1.845   3.454   6.593
 5170SOL    HW116409   1.898   3.373   6.615
 5170SOL    HW216410   1.869   3.528   6.657
 5171SOL     OW16411   2.361   5.729   5.979
 5171SOL    HW116412   2.339   5.631   5.982
 5171SOL    HW216413   2.448   5.742   5.931
 5172SOL     OW16414   5.836   5.249   5.064
 5172SOL    HW116415   5.935   5.254   5.050
 5172SOL    HW216416   5.795   5.338   5.044
 5173SOL     OW16417   4.405   5.217   5.624
 5173SOL    HW116418   4.353   5.295   5.589
 5173SOL    HW216419   4.342   5.154   5.670
 5174SOL     OW16420   2.244   6.508   3.378
 5174SOL    HW116421   2.272   6.604   3.373
 5174SOL    HW216422   2.264   6.464   3.291
 5175SOL     OW16423   2.764   2.733   0.030
 5175SOL    HW116424   2.789   2.796   0.104
 5175SOL    HW216425   2.826   2.654   0.031
 5176SOL     OW16426   6.224   6.015   6.469
 5176SOL    HW116427   6.318   5.982   6.465
 5176SOL    HW216428   6.224   6.111   6.498
 5177SOL     OW16429   6.188   6.852   0.816
 5177SOL    HW116430   6.261   6.790   0.844
 5177SOL    HW216431   6.203   6.881   0.721
 5178SOL     OW16432   1.195   4.248   1.590
 5178SOL    HW116433   1.146   4.299   1.661
 5178SOL    HW216434   1.130   4.206   1.527
 5179SOL     OW16435   4.717   5.962   3.003
 5179SOL    HW116436   4.803   5.918   2.978
 5179SOL    HW216437   4.692   6.028   2.932
 5180SOL     OW16438   1.793   5.448   2.813
 5180SOL    HW116439   1.705   5.445   2.767
 5180SOL    HW216440   1.784   5.408   2.905
 5181SOL     OW16441   6.560   0.386   5.977
 5181SOL    HW116442   6.538   0.288   5.976
 5181SOL    HW216443   6.641   0.402   5.922
 5182SOL     OW16444   2.488   6.290   2.983
 5182SOL    HW116445   2.484   6.223   3.057
 5182SOL    HW216446   2.481   6.242   2.895
 5183SOL     OW16447   4.431   2.003   3.917
 5183SOL    HW116448   4.467   2.047   3.835
 5183SOL    HW216449   4.492   2.022   3.994
 5184SOL     OW16450   2.540   1.324   3.009
 5184SOL    HW116451   2.460   1.293   3.061
 5184SOL    HW216452   2.615   1.258   3.021
 5185SOL     OW16453   6.672   0.587   2.065
 5185SOL    HW116454   6.728   0.621   2.140
 5185SOL    HW216455   6.597   0.652   2.047
 5186SOL     OW16456   6.853   3.904   6.783
 5186SOL    HW116457   6.760   3.889   6.819
 5186SOL    HW216458   6.879   4.000   6.798
 5187SOL     OW16459   1.360   4.778   5.206
 5187SOL    HW116460   1.329   4.706   5.144
 5187SOL    HW216461   1.458   4.766   5.225
 5188SOL     OW16462   5.601   0.064   2.541
 5188SOL    HW116463   5.595   6.997   2.493
 5188SOL    HW216464   5.689   0.070   2.588
 5189SOL     OW16465   4.992   6.759   6.355
 5189SOL    HW116466   4.983   6.695   6.432
 5189SOL    HW216467   4.943   6.723   6.276
 5190SOL     OW16468   1.846   4.691   0.077
 5190SOL    HW116469   1.932   4.653   0.109
 5190SOL    HW216470   1.855   4.790   0.064
 5191SOL     OW16471   2.750   4.902   1.936
 5191SOL    HW116472   2.790   4.816   1.968
 5191SOL    HW216473   2.821   4.959   1.895
 5192SOL     OW16474   1.575   4.694   2.362
 5192SOL    HW116475   1.643   4.622   2.351
 5192SOL    HW216476   1.610   4.779   2.323
 5193SOL     OW16477   5.806   1.013   5.339
 5193SOL    HW116478   5.872   1.063   5.284
 5193SOL    HW216479   5.827   1.026   5.436
 5194SOL     OW16480   4.886   1.114   5.837
 5194SOL    HW116481   4.981   1.132   5.860
 5194SOL    HW216482   4.842   1.199   5.808
 5195SOL     OW16483   0.595   0.543   5.264
 5195SOL    HW116484   0.556   0.575   5.178
 5195SOL    HW216485   0.690   0.574   5.271
 5196SOL     OW16486   6.189   6.625   3.463
 5196SOL    HW116487   6.277   6.584   3.441
 5196SOL    HW216488   6.191   6.658   3.558
 5197SOL     OW16489   0.910   2.872   4.580
 5197SOL    HW116490   0.904   2.798   4.514
 5197SOL    HW216491   0.858   2.951   4.547
 5198SOL     OW16492   6.109   4.863   3.573
 5198SOL    HW116493   6.156   4.802   3.509
 5198SOL    HW216494   6.165   4.944   3.588
 5199SOL     OW16495   0.596   4.715   1.356
 5199SOL    HW116496   0.693   4.725   1.380
 5199SOL    HW216497   0.540   4.744   1.434
 5200SOL     OW16498   6.652   3.811   5.036
 5200SOL    HW116499   6.705   3.735   5.073
 5200SOL    HW216500   6.675   3.823   4.939
 5201SOL     OW16501   0.724   5.505   4.330
 5201SOL    HW116502   0.789   5.575   4.300
 5201SOL    HW216503   0.731   5.494   4.429
 5202SOL     OW16504   1.058   4.497   2.138
 5202SOL    HW116505   1.005   4.415   2.117
 5202SOL    HW216506   1.125   4.476   2.209
 5203SOL     OW16507   0.723   2.900   0.008
 5203SOL    HW116508   0.707   2.911   6.931
 5203SOL    HW216509   0.689   2.980   0.056
 5204SOL     OW16510   4.430   4.349   6.881
 5204SOL    HW116511   4.478   4.420   6.830
 5204SOL    HW216512   4.334   4.374   6.892
 5205SOL     OW16513   1.618   0.003   0.950
 5205SOL    HW116514   1.654   6.930   0.945
 5205SOL    HW216515   1.546   0.014   0.881
 5206SOL     OW16516   0.322   4.364   4.852
 5206SOL    HW116517   0.374   4.444   4.882
 5206SOL    HW216518   0.249   4.393   4.791
 5207SOL     OW16519   1.795   4.476   3.819
 5207SOL    HW116520   1.810   4.569   3.850
 5207SOL    HW216521   1.704   4.467   3.780
 5208SOL     OW16522   4.582   0.825   0.346
 5208SOL    HW116523   4.616   0.901   0.291
 5208SOL    HW216524   4.502   0.786   0.301
 5209SOL     OW16525   5.515   5.902   2.572
 5209SOL    HW116526   5.534   5.999   2.560
 5209SOL    HW216527   5.459   5.889   2.654
 5210SOL     OW16528   4.516   4.843   3.362
 5210SOL    HW116529   4.503   4.773   3.432
 5210SOL    HW216530   4.441   4.909   3.366
 5211SOL     OW16531   3.591   3.696   2.296
 5211SOL    HW116532   3.663   3.637   2.333
 5211SOL    HW216533   3.533   3.728   2.370
 5212SOL     OW16534   1.196   1.206   0.277
 5212SOL    HW116535   1.150   1.283   0.233
 5212SOL    HW216536   1.232   1.144   0.207
 5213SOL     OW16537   4.690   2.697   6.516
 5213SOL    HW116538   4.751   2.644   6.575
 5213SOL    HW216539   4.597   2.690   6.551
 5214SOL     OW16540   5.714   1.670   6.589
 5214SOL    HW116541   5.755   1.738   6.651
 5214SOL    HW216542   5.743   1.689   6.495
 5215SOL     OW16543   5.728   5.228   2.486
 5215SOL    HW116544   5.643   5.216   2.537
 5215SOL    HW216545   5.806   5.225   2.549
 5216SOL     OW16546   4.668   5.550   1.411
 5216SOL    HW116547   4.739   5.484   1.388
 5216SOL    HW216548   4.702   5.643   1.393
 5217SOL     OW16549   2.957   5.035   3.685
 5217SOL    HW116550   2.948   4.955   3.745
 5217SOL    HW216551   3.030   5.094   3.720
 5218SOL     OW16552   1.362   6.815   4.783
 5218SOL    HW116553   1.287   6.816   4.849
 5218SOL    HW216554   1.412   6.728   4.791
 5219SOL     OW16555   2.211   5.809   0.458
 5219SOL    HW116556   2.264   5.863   0.523
 5219SOL    HW216557   2.202   5.716   0.493
 5220SOL     OW16558   0.700   6.987   2.377
 5220SOL    HW116559   0.622   0.019   2.411
 5220SOL    HW216560   0.679   6.953   2.285
 5221SOL     OW16561   5.260   1.933   5.157
 5221SOL    HW116562   5.192   1.861   5.144
 5221SOL    HW216563   5.222   2.020   5.126
 5222SOL     OW16564   1.103   6.720   2.458
 5222SOL    HW116565   1.079   6.817   2.455
 5222SOL    HW216566   1.024   6.667   2.489
 5223SOL     OW16567   5.475   6.947   0.885
 5223SOL    HW116568   5.415   6.868   0.869
 5223SOL    HW216569   5.456   6.986   0.975
 5224SOL     OW16570   5.349   1.812   3.056
 5224SOL    HW116571   5.359   1.744   3.129
 5224SOL    HW216572   5.401   1.894   3.081
 5225SOL     OW16573   5.542   5.948   5.257
 5225SOL    HW116574   5.534   5.972   5.353
 5225SOL    HW216575   5.598   5.866   5.247
 5226SOL     OW16576   1.771   6.118   4.011
 5226SOL    HW116577   1.755   6.101   3.914
 5226SOL    HW216578   1.691   6.163   4.051
 5227SOL     OW16579   5.736   3.910   3.132
 5227SOL    HW116580   5.748   3.811   3.131
 5227SOL    HW216581   5.811   3.952   3.184
 5228SOL     OW16582   5.514   0.376   1.128
 5228SOL    HW116583   5.418   0.348   1.138
 5228SOL    HW216584   5.565   0.304   1.081
 5229SOL     OW16585   1.238   4.623   4.730
 5229SOL    HW116586   1.307   4.690   4.757
 5229SOL    HW216587   1.282   4.543   4.690
 5230SOL     OW16588   1.367   6.089   6.664
 5230SOL    HW116589   1.437   6.109   6.732
 5230SOL    HW216590   1.350   6.171   6.608
 5231SOL     OW16591   3.721   3.083   3.972
 5231SOL    HW116592   3.812   3.054   4.000
 5231SOL    HW216593   3.721   3.181   3.951
 5232SOL     OW16594   5.213   3.062   5.800
 5232SOL    HW116595   5.191   3.159   5.793
 5232SOL    HW216596   5.195   3.030   5.893
 5233SOL     OW16597   0.515   0.944   2.396
 5233SOL    HW116598   0.453   0.926   2.320
 5233SOL    HW216599   0.483   0.896   2.477
 5234SOL     OW16600   4.275   6.341   1.221
 5234SOL    HW116601   4.239   6.247   1.222
 5234SOL    HW216602   4.327   6.357   1.304
 5235SOL     OW16603   1.163   3.457   1.363
 5235SOL    HW116604   1.150   3.554   1.382
 5235SOL    HW216605   1.250   3.444   1.316
 5236SOL     OW16606   5.222   3.027   1.130
 5236SOL    HW116607   5.293   2.970   1.172
 5236SOL    HW216608   5.136   2.977   1.130
 5237SOL     OW16609   2.212   1.880   4.668
 5237SOL    HW116610   2.263   1.794   4.663
 5237SOL    HW216611   2.148   1.877   4.744
 5238SOL     OW16612   1.773   4.278   1.198
 5238SOL    HW116613   1.679   4.309   1.180
 5238SOL    HW216614   1.777   4.233   1.287
 5239SOL     OW16615   2.990   3.568   4.822
 5239SOL    HW116616   3.089   3.570   4.809
 5239SOL    HW216617   2.969   3.551   4.918
 5240SOL     OW16618   3.191   1.840   5.192
 5240SOL    HW116619   3.286   1.868   5.201
 5240SOL    HW216620   3.137   1.915   5.152
 5241SOL     OW16621   2.784   5.435   5.771
 5241SOL    HW116622   2.710   5.368   5.770
 5241SOL    HW216623   2.746   5.527   5.763
 5242SOL     OW16624   5.135   1.061   5.987
 5242SOL    HW116625   5.078   0.997   6.040
 5242SOL    HW216626   5.187   1.010   5.919
 5243SOL     OW16627   0.641   4.366   0.758
 5243SOL    HW116628   0.713   4.406   0.814
 5243SOL    HW216629   0.625   4.271   0.785
 5244SOL     OW16630   5.420   3.857   6.816
 5244SOL    HW116631   5.506   3.901   6.792
 5244SOL    HW216632   5.347   3.892   6.756
 5245SOL     OW16633   5.273   4.082   6.206
 5245SOL    HW116634   5.188   4.035   6.186
 5245SOL    HW216635   5.267   4.178   6.176
 5246SOL     OW16636   0.816   3.384   2.973
 5246SOL    HW116637   0.854   3.389   3.065
 5246SOL    HW216638   0.889   3.371   2.907
 5247SOL     OW16639   0.727   5.180   1.099
 5247SOL    HW116640   0.784   5.170   1.180
 5247SOL    HW216641   0.646   5.234   1.122
 5248SOL     OW16642   4.525   0.969   6.422
 5248SOL    HW116643   4.495   0.893   6.480
 5248SOL    HW216644   4.621   0.989   6.442
 5249SOL     OW16645   1.415   5.249   5.488
 5249SOL    HW116646   1.452   5.306   5.562
 5249SOL    HW216647   1.448   5.155   5.498
 5250SOL     OW16648   0.369   1.492   6.477
 5250SOL    HW116649   0.449   1.441   6.445
 5250SOL    HW216650   0.316   1.524   6.398
 5251SOL     OW16651   6.979   2.634   1.022
 5251SOL    HW116652   0.053   2.659   1.001
 5251SOL    HW216653   6.936   2.596   0.941
 5252SOL     OW16654   3.961   6.304   0.514
 5252SOL    HW116655   3.935   6.216   0.475
 5252SOL    HW216656   4.051   6.297   0.557
 5253SOL     OW16657   5.858   3.047   3.438
 5253SOL    HW116658   5.775   3.042   3.382
 5253SOL    HW216659   5.844   3.110   3.514
 5254SOL     OW16660   4.310   1.091   3.889
 5254SOL    HW116661   4.328   1.025   3.817
 5254SOL    HW216662   4.335   1.183   3.857
 5255SOL     OW16663   3.278   6.766   4.896
 5255SOL    HW116664   3.373   6.775   4.868
 5255SOL    HW216665   3.218   6.802   4.824
 5256SOL     OW16666   5.984   6.472   3.227
 5256SOL    HW116667   5.885   6.468   3.218
 5256SOL    HW216668   6.008   6.530   3.305
 5257SOL     OW16669   3.418   1.494   1.584
 5257SOL    HW116670   3.416   1.543   1.671
 5257SOL    HW216671   3.372   1.406   1.594
 5258SOL     OW16672   6.186   2.497   1.885
 5258SOL    HW116673   6.189   2.452   1.975
 5258SOL    HW216674   6.242   2.445   1.821
 5259SOL     OW16675   5.031   4.508   2.595
 5259SOL    HW116676   4.973   4.454   2.655
 5259SOL    HW216677   4.989   4.598   2.579
 5260SOL     OW16678   5.489   3.325   1.320
 5260SOL    HW116679   5.404   3.375   1.304
 5260SOL    HW216680   5.469   3.238   1.365
 5261SOL     OW16681   1.849   2.126   4.892
 5261SOL    HW116682   1.785   2.049   4.896
 5261SOL    HW216683   1.798   2.212   4.898
 5262SOL     OW16684   2.457   0.285   1.906
 5262SOL    HW116685   2.417   0.202   1.867
 5262SOL    HW216686   2.483   0.348   1.833
 5263SOL     OW16687   1.180   6.562   0.526
 5263SOL    HW116688   1.109   6.615   0.572
 5263SOL    HW216689   1.144   6.526   0.440
 5264SOL     OW16690   0.413   2.447   0.633
 5264SOL    HW116691   0.494   2.389   0.622
 5264SOL    HW216692   0.406   2.476   0.729
 5265SOL     OW16693   5.093   4.666   2.251
 5265SOL    HW116694   5.036   4.594   2.212
 5265SOL    HW216695   5.036   4.727   2.307
 5266SOL     OW16696   2.203   6.921   1.123
 5266SOL    HW116697   2.185   7.019   1.135
 5266SOL    HW216698   2.119   6.875   1.095
 5267SOL     OW16699   5.072   4.608   4.556
 5267SOL    HW116700   5.006   4.545   4.516
 5267SOL    HW216701   5.043   4.702   4.540
 5268SOL     OW16702   5.794   4.636   4.927
 5268SOL    HW116703   5.696   4.652   4.941
 5268SOL    HW216704   5.839   4.723   4.905
 5269SOL     OW16705   1.329   5.436   4.433
 5269SOL    HW116706   1.323   5.360   4.368
 5269SOL    HW216707   1.283   5.516   4.395
 5270SOL     OW16708   6.636   3.052   2.975
 5270SOL    HW116709   6.630   3.099   3.063
 5270SOL    HW216710   6.545   3.021   2.947
 5271SOL     OW16711   5.261   4.644   5.070
 5271SOL    HW116712   5.222   4.552   5.081
 5271SOL    HW216713   5.280   4.661   4.974
 5272SOL     OW16714   1.576   1.255   4.225
 5272SOL    HW116715   1.671   1.274   4.200
 5272SOL    HW216716   1.574   1.183   4.295
 5273SOL     OW16717   0.714   0.826   4.550
 5273SOL    HW116718   0.716   0.736   4.508
 5273SOL    HW216719   0.640   0.880   4.510
 5274SOL     OW16720   6.483   5.571   3.712
 5274SOL    HW116721   6.404   5.512   3.699
 5274SOL    HW216722   6.567   5.520   3.691
 5275SOL     OW16723   2.407   6.739   6.884
 5275SOL    HW116724   2.361   6.667   6.832
 5275SOL    HW216725   2.454   6.800   6.820
 5276SOL     OW16726   0.119   0.068   1.153
 5276SOL    HW116727   0.085   0.154   1.190
 5276SOL    HW216728   0.156   0.083   1.061
 5277SOL     OW16729   0.967   1.710   2.710
 5277SOL    HW116730   0.989   1.744   2.618
 5277SOL    HW216731   0.868   1.707   2.721
 5278SOL     OW16732   0.925   4.834   6.145
 5278SOL    HW116733   0.963   4.785   6.224
 5278SOL    HW216734   0.995   4.843   6.075
 5279SOL     OW16735   2.586   6.104   6.455
 5279SOL    HW116736   2.640   6.067   6.379
 5279SOL    HW216737   2.584   6.038   6.530
 5280SOL     OW16738   4.453   6.675   5.132
 5280SOL    HW116739   4.455   6.633   5.041
 5280SOL    HW216740   4.373   6.642   5.182
 5281SOL     OW16741   2.710   0.319   5.148
 5281SOL    HW116742   2.630   0.305   5.206
 5281SOL    HW216743   2.791   0.329   5.205
 5282SOL     OW16744   1.602   7.014   1.566
 5282SOL    HW116745   1.600   0.030   1.659
 5282SOL    HW216746   1.592   0.068   1.501
 5283SOL     OW16747   0.983   0.612   4.591
 5283SOL    HW116748   1.063   0.652   4.545
 5283SOL    HW216749   0.962   0.665   4.673
 5284SOL     OW16750   4.190   2.735   1.290
 5284SOL    HW116751   4.169   2.648   1.245
 5284SOL    HW216752   4.280   2.729   1.333
 5285SOL     OW16753   1.461   1.901   4.188
 5285SOL    HW116754   1.449   1.891   4.089
 5285SOL    HW216755   1.549   1.947   4.205
 5286SOL     OW16756   6.088   3.565   0.976
 5286SOL    HW116757   6.141   3.547   0.893
 5286SOL    HW216758   6.002   3.609   0.952
 5287SOL     OW16759   2.492   5.059   1.327
 5287SOL    HW116760   2.500   5.059   1.427
 5287SOL    HW216761   2.549   5.132   1.289
 5288SOL     OW16762   4.180   0.406   1.794
 5288SOL    HW116763   4.177   0.424   1.696
 5288SOL    HW216764   4.089   0.380   1.826
 5289SOL     OW16765   2.312   4.710   6.457
 5289SOL    HW116766   2.282   4.652   6.381
 5289SOL    HW216767   2.301   4.806   6.432
 5290SOL     OW16768   1.277   2.756   5.026
 5290SOL    HW116769   1.335   2.822   5.075
 5290SOL    HW216770   1.321   2.666   5.028
 5291SOL     OW16771   2.715   4.748   4.545
 5291SOL    HW116772   2.682   4.799   4.624
 5291SOL    HW216773   2.698   4.650   4.558
 5292SOL     OW16774   6.966   3.648   6.233
 5292SOL    HW116775   6.995   3.741   6.211
 5292SOL    HW216776   6.878   3.650   6.280
 5293SOL     OW16777   2.319   6.249   4.235
 5293SOL    HW116778   2.332   6.188   4.156
 5293SOL    HW216779   2.224   6.245   4.264
 5294SOL     OW16780   3.818   0.485   5.400
 5294SOL    HW116781   3.905   0.526   5.426
 5294SOL    HW216782   3.831   0.387   5.384
 5295SOL     OW16783   2.561   1.698   2.497
 5295SOL    HW116784   2.559   1.638   2.416
 5295SOL    HW216785   2.646   1.751   2.496
 5296SOL     OW16786   4.913   5.122   1.714
 5296SOL    HW116787   4.869   5.193   1.769
 5296SOL    HW216788   4.998   5.093   1.758
 5297SOL     OW16789   3.118   5.251   0.540
 5297SOL    HW116790   3.136   5.169   0.595
 5297SOL    HW216791   3.144   5.234   0.445
 5298SOL     OW16792   2.001   0.553   0.080
 5298SOL    HW116793   1.963   0.467   0.045
 5298SOL    HW216794   2.034   0.539   0.173
 5299SOL     OW16795   2.980   1.672   1.081
 5299SOL    HW116796   2.883   1.650   1.082
 5299SOL    HW216797   3.004   1.723   1.164
 5300SOL     OW16798   2.246   4.639   0.012
 5300SOL    HW116799   2.210   4.614   0.102
 5300SOL    HW216800   2.178   4.617   6.963
 5301SOL     OW16801   5.475   0.398   5.732
 5301SOL    HW116802   5.375   0.398   5.725
 5301SOL    HW216803   5.505   0.312   5.774
 5302SOL     OW16804   5.587   5.998   2.961
 5302SOL    HW116805   5.622   6.070   2.902
 5302SOL    HW216806   5.534   6.039   3.035
 5303SOL     OW16807   0.663   5.206   5.895
 5303SOL    HW116808   0.623   5.115   5.904
 5303SOL    HW216809   0.590   5.274   5.889
 5304SOL     OW16810   6.932   0.714   1.952
 5304SOL    HW116811   6.932   0.660   2.036
 5304SOL    HW216812   6.857   0.682   1.893
 5305SOL     OW16813   1.490   5.131   3.271
 5305SOL    HW116814   1.435   5.180   3.204
 5305SOL    HW216815   1.498   5.187   3.354
 5306SOL     OW16816   0.096   3.442   5.871
 5306SOL    HW116817   0.189   3.406   5.871
 5306SOL    HW216818   0.061   3.447   5.777
 5307SOL     OW16819   6.329   1.468   1.485
 5307SOL    HW116820   6.232   1.474   1.508
 5307SOL    HW216821   6.384   1.475   1.568
 5308SOL     OW16822   1.506   4.194   3.188
 5308SOL    HW116823   1.426   4.254   3.177
 5308SOL    HW216824   1.507   4.127   3.115
 5309SOL     OW16825   6.214   6.163   2.512
 5309SOL    HW116826   6.292   6.111   2.478
 5309SOL    HW216827   6.202   6.246   2.457
 5310SOL     OW16828   5.652   2.941   2.540
 5310SOL    HW116829   5.727   2.927   2.475
 5310SOL    HW216830   5.565   2.934   2.491
 5311SOL     OW16831   5.941   0.015   0.436
 5311SOL    HW116832   6.002   0.038   0.511
 5311SOL    HW216833   5.905   6.943   0.450
 5312SOL     OW16834   6.959   6.433   0.629
 5312SOL    HW116835   6.993   6.437   0.535
 5312SOL    HW216836   6.868   6.472   0.633
 5313SOL     OW16837   0.810   5.203   5.465
 5313SOL    HW116838   0.883   5.186   5.399
 5313SOL    HW216839   0.822   5.293   5.506
 5314SOL     OW16840   6.380   0.990   1.879
 5314SOL    HW116841   6.404   0.952   1.789
 5314SOL    HW216842   6.282   1.012   1.881
 5315SOL     OW16843   4.282   1.343   4.455
 5315SOL    HW116844   4.274   1.355   4.356
 5315SOL    HW216845   4.247   1.424   4.501
 5316SOL     OW16846   0.444   2.391   4.685
 5316SOL    HW116847   0.368   2.389   4.620
 5316SOL    HW216848   0.529   2.372   4.636
 5317SOL     OW16849   6.807   1.903   6.384
 5317SOL    HW116850   6.906   1.895   6.386
 5317SOL    HW216851   6.770   1.885   6.475
 5318SOL     OW16852   6.707   3.410   6.751
 5318SOL    HW116853   6.629   3.470   6.770
 5318SOL    HW216854   6.726   3.409   6.653
 5319SOL     OW16855   4.454   6.654   1.062
 5319SOL    HW116856   4.422   6.574   1.011
 5319SOL    HW216857   4.551   6.642   1.085
 5320SOL     OW16858   3.117   5.926   0.886
 5320SOL    HW116859   3.141   5.957   0.978
 5320SOL    HW216860   3.059   5.994   0.842
 5321SOL     OW16861   1.506   3.708   5.037
 5321SOL    HW116862   1.426   3.660   5.000
 5321SOL    HW216863   1.589   3.670   4.996
 5322SOL     OW16864   5.369   6.446   2.035
 5322SOL    HW116865   5.365   6.401   2.124
 5322SOL    HW216866   5.320   6.391   1.967
 5323SOL     OW16867   3.920   1.317   5.616
 5323SOL    HW116868   3.983   1.391   5.641
 5323SOL    HW216869   3.961   1.229   5.640
 5324SOL     OW16870   1.967   1.741   0.640
 5324SOL    HW116871   2.039   1.673   0.630
 5324SOL    HW216872   1.879   1.701   0.615
 5325SOL     OW16873   2.051   1.883   4.893
 5325SOL    HW116874   2.105   1.887   4.976
 5325SOL    HW216875   2.001   1.969   4.882
 5326SOL     OW16876   6.079   6.998   2.388
 5326SOL    HW116877   6.060   6.953   2.475
 5326SOL    HW216878   6.017   6.960   2.318
 5327SOL     OW16879   5.873   2.431   5.168
 5327SOL    HW116880   5.961   2.387   5.183
 5327SOL    HW216881   5.862   2.506   5.234
 5328SOL     OW16882   4.081   4.850   6.957
 5328SOL    HW116883   4.031   4.897   6.884
 5328SOL    HW216884   4.019   4.787   7.004
 5329SOL     OW16885   1.781   6.567   6.456
 5329SOL    HW116886   1.805   6.470   6.463
 5329SOL    HW216887   1.725   6.593   6.534
 5330SOL     OW16888   2.450   3.525   0.481
 5330SOL    HW116889   2.475   3.612   0.523
 5330SOL    HW216890   2.465   3.530   0.383
 5331SOL     OW16891   6.312   0.672   6.477
 5331SOL    HW116892   6.233   0.651   6.420
 5331SOL    HW216893   6.317   0.770   6.493
 5332SOL     OW16894   1.255   4.973   2.314
 5332SOL    HW116895   1.158   4.998   2.305
 5332SOL    HW216896   1.283   4.918   2.235
 5333SOL     OW16897   0.869   6.181   4.136
 5333SOL    HW116898   0.861   6.202   4.233
 5333SOL    HW216899   0.902   6.087   4.125
 5334SOL     OW16900   2.866   0.129   4.237
 5334SOL    HW116901   2.779   0.080   4.245
 5334SOL    HW216902   2.874   0.168   4.145
 5335SOL     OW16903   0.007   5.751   0.826
 5335SOL    HW116904   0.032   5.707   0.912
 5335SOL    HW216905   6.933   5.730   0.804
 5336SOL     OW16906   1.608   3.914   2.291
 5336SOL    HW116907   1.607   3.859   2.207
 5336SOL    HW216908   1.696   3.901   2.338
 5337SOL     OW16909   4.721   4.498   1.365
 5337SOL    HW116910   4.732   4.559   1.443
 5337SOL    HW216911   4.714   4.551   1.281
 5338SOL     OW16912   6.346   2.154   6.408
 5338SOL    HW116913   6.327   2.061   6.377
 5338SOL    HW216914   6.403   2.201   6.340
 5339SOL     OW16915   6.579   2.124   3.553
 5339SOL    HW116916   6.661   2.179   3.568
 5339SOL    HW216917   6.556   2.073   3.636
 5340SOL     OW16918   5.290   2.233   6.810
 5340SOL    HW116919   5.264   2.277   6.896
 5340SOL    HW216920   5.278   2.298   6.734
 5341SOL     OW16921   4.341   0.344   0.176
 5341SOL    HW116922   4.392   0.288   0.110
 5341SOL    HW216923   4.381   0.332   0.267
 5342SOL     OW16924   3.660   1.065   5.727
 5342SOL    HW116925   3.613   1.089   5.642
 5342SOL    HW216926   3.614   0.988   5.770
 5343SOL     OW16927   4.063   3.891   2.163
 5343SOL    HW116928   4.130   3.961   2.137
 5343SOL    HW216929   4.086   3.855   2.254
 5344SOL     OW16930   2.191   2.452   3.023
 5344SOL    HW116931   2.113   2.467   2.962
 5344SOL    HW216932   2.276   2.461   2.971
 5345SOL     OW16933   4.492   6.734   1.658
 5345SOL    HW116934   4.525   6.820   1.618
 5345SOL    HW216935   4.425   6.693   1.595
 5346SOL     OW16936   2.942   6.445   2.819
 5346SOL    HW116937   2.848   6.423   2.848
 5346SOL    HW216938   2.988   6.361   2.791
 5347SOL     OW16939   0.525   1.889   1.240
 5347SOL    HW116940   0.615   1.913   1.203
 5347SOL    HW216941   0.454   1.913   1.174
 5348SOL     OW16942   0.761   0.852   6.704
 5348SOL    HW116943   0.793   0.758   6.713
 5348SOL    HW216944   0.827   0.904   6.651
 5349SOL     OW16945   6.459   0.584   1.384
 5349SOL    HW116946   6.517   0.506   1.408
 5349SOL    HW216947   6.367   0.552   1.361
 5350SOL     OW16948   2.375   1.783   6.291
 5350SOL    HW116949   2.329   1.872   6.294
 5350SOL    HW216950   2.406   1.759   6.383
 5351SOL     OW16951   4.312   6.833   1.828
 5351SOL    HW116952   4.281   6.923   1.797
 5351SOL    HW216953   4.385   6.801   1.769
 5352SOL     OW16954   3.501   5.669   3.728
 5352SOL    HW116955   3.539   5.607   3.659
 5352SOL    HW216956   3.523   5.763   3.703
 5353SOL     OW16957   5.509   5.627   5.241
 5353SOL    HW116958   5.435   5.661   5.182
 5353SOL    HW216959   5.587   5.600   5.184
 5354SOL     OW16960   1.068   3.944   1.272
 5354SOL    HW116961   1.118   3.952   1.186
 5354SOL    HW216962   1.094   4.018   1.333
 5355SOL     OW16963   4.519   2.402   4.543
 5355SOL    HW116964   4.534   2.460   4.623
 5355SOL    HW216965   4.601   2.401   4.487
 5356SOL     OW16966   6.364   3.596   1.250
 5356SOL    HW116967   6.369   3.516   1.310
 5356SOL    HW216968   6.394   3.570   1.158
 5357SOL     OW16969   3.839   0.003   0.157
 5357SOL    HW116970   3.802   6.932   0.142
 5357SOL    HW216971   3.803   0.065   0.087
 5358SOL     OW16972   4.817   2.898   0.680
 5358SOL    HW116973   4.831   2.912   0.778
 5358SOL    HW216974   4.891   2.843   0.642
 5359SOL     OW16975   2.190   1.107   6.812
 5359SOL    HW116976   2.219   1.148   6.726
 5359SOL    HW216977   2.098   1.141   6.836
 5360SOL     OW16978   3.497   6.760   6.652
 5360SOL    HW116979   3.484   6.859   6.659
 5360SOL    HW216980   3.576   6.742   6.592
 5361SOL     OW16981   2.206   0.997   5.885
 5361SOL    HW116982   2.173   1.034   5.972
 5361SOL    HW216983   2.131   0.996   5.819
 5362SOL     OW16984   5.004   5.229   2.966
 5362SOL    HW116985   4.938   5.227   3.041
 5362SOL    HW216986   5.089   5.185   2.994
 5363SOL     OW16987   0.675   5.357   6.184
 5363SOL    HW116988   0.749   5.309   6.136
 5363SOL    HW216989   0.647   5.304   6.263
 5364SOL     OW16990   0.485   6.267   0.736
 5364SOL    HW116991   0.562   6.204   0.740
 5364SOL    HW216992   0.409   6.230   0.788
 5365SOL     OW16993   4.514   2.044   5.834
 5365SOL    HW116994   4.524   2.097   5.750
 5365SOL    HW216995   4.558   1.955   5.823
 5366SOL     OW16996   3.905   3.178   0.147
 5366SOL    HW116997   3.836   3.155   0.215
 5366SOL    HW216998   3.862   3.226   0.070
 5367SOL     OW16999   0.510   5.040   1.252
 5367SOL    HW117000   0.535   5.089   1.335
 5367SOL    HW217001   0.588   4.986   1.220
 5368SOL     OW17002   6.178   1.818   3.456
 5368SOL    HW117003   6.123   1.901   3.443
 5368SOL    HW217004   6.129   1.754   3.515
 5369SOL     OW17005   1.983   3.995   3.067
 5369SOL    HW117006   1.905   3.971   3.125
 5369SOL    HW217007   1.953   4.060   2.997
 5370SOL     OW17008   3.435   2.949   1.181
 5370SOL    HW117009   3.415   2.911   1.091
 5370SOL    HW217010   3.366   2.918   1.247
 5371SOL     OW17011   0.935   4.263   4.885
 5371SOL    HW117012   0.913   4.263   4.788
 5371SOL    HW217013   1.009   4.197   4.902
 5372SOL     OW17014   2.666   5.355   2.790
 5372SOL    HW117015   2.592   5.359   2.722
 5372SOL    HW217016   2.748   5.318   2.747
 5373SOL     OW17017   3.327   5.061   3.844
 5373SOL    HW117018   3.282   5.003   3.913
 5373SOL    HW217019   3.380   5.132   3.889
 5374SOL     OW17020   2.758   2.095   0.022
 5374SOL    HW117021   2.693   2.171   0.025
 5374SOL    HW217022   2.780   2.073   6.948
 5375SOL     OW17023   1.433   4.324   4.395
 5375SOL    HW117024   1.512   4.357   4.446
 5375SOL    HW217025   1.380   4.401   4.360
 5376SOL     OW17026   1.491   3.463   1.138
 5376SOL    HW117027   1.422   3.529   1.107
 5376SOL    HW217028   1.554   3.444   1.063
 5377SOL     OW17029   0.458   0.889   0.970
 5377SOL    HW117030   0.549   0.879   1.009
 5377SOL    HW217031   0.410   0.802   0.974
 5378SOL     OW17032   5.543   0.601   0.311
 5378SOL    HW117033   5.512   0.674   0.371
 5378SOL    HW217034   5.588   0.641   0.231
 5379SOL     OW17035   0.282   5.996   2.104
 5379SOL    HW117036   0.371   5.978   2.145
 5379SOL    HW217037   0.264   6.094   2.105
 5380SOL     OW17038   3.275   0.457   3.744
 5380SOL    HW117039   3.345   0.528   3.744
 5380SOL    HW217040   3.194   0.489   3.695
 5381SOL     OW17041   5.947   4.182   1.206
 5381SOL    HW117042   5.908   4.091   1.197
 5381SOL    HW217043   6.001   4.203   1.125
 5382SOL     OW17044   2.047   0.704   1.358
 5382SOL    HW117045   2.119   0.770   1.378
 5382SOL    HW217046   1.958   0.744   1.379
 5383SOL     OW17047   2.456   2.267   4.976
 5383SOL    HW117048   2.506   2.354   4.982
 5383SOL    HW217049   2.377   2.270   5.037
 5384SOL     OW17050   6.005   6.594   3.811
 5384SOL    HW117051   5.943   6.587   3.889
 5384SOL    HW217052   6.044   6.504   3.792
 5385SOL     OW17053   3.418   3.821   2.510
 5385SOL    HW117054   3.401   3.915   2.478
 5385SOL    HW217055   3.433   3.821   2.609
 5386SOL     OW17056   5.711   6.174   4.607
 5386SOL    HW117057   5.722   6.217   4.518
 5386SOL    HW217058   5.768   6.221   4.674
 5387SOL     OW17059   3.024   5.183   1.881
 5387SOL    HW117060   2.936   5.226   1.905
 5387SOL    HW217061   3.031   5.094   1.927
 5388SOL     OW17062   5.533   6.731   2.667
 5388SOL    HW117063   5.518   6.775   2.579
 5388SOL    HW217064   5.630   6.708   2.678
 5389SOL     OW17065   4.732   2.231   0.930
 5389SOL    HW117066   4.796   2.154   0.934
 5389SOL    HW217067   4.644   2.200   0.895
 5390SOL     OW17068   5.980   4.885   5.543
 5390SOL    HW117069   6.039   4.895   5.462
 5390SOL    HW217070   5.915   4.961   5.547
 5391SOL     OW17071   2.407   2.768   0.229
 5391SOL    HW117072   2.402   2.699   0.156
 5391SOL    HW217073   2.500   2.802   0.237
 5392SOL     OW17074   6.372   3.164   2.239
 5392SOL    HW117075   6.402   3.156   2.334
 5392SOL    HW217076   6.299   3.233   2.234
 5393SOL     OW17077   6.938   6.920   6.612
 5393SOL    HW117078   6.927   6.830   6.569
 5393SOL    HW217079   0.008   6.926   6.655
 5394SOL     OW17080   0.857   4.021   5.940
 5394SOL    HW117081   0.947   4.052   5.910
 5394SOL    HW217082   0.805   3.989   5.860
 5395SOL     OW17083   3.720   1.126   6.955
 5395SOL    HW117084   3.770   1.051   6.998
 5395SOL    HW217085   3.656   1.166   0.000
 5396SOL     OW17086   4.927   3.513   2.104
 5396SOL    HW117087   4.901   3.573   2.029
 5396SOL    HW217088   4.914   3.418   2.076
 5397SOL     OW17089   0.170   3.730   1.700
 5397SOL    HW117090   0.086   3.779   1.678
 5397SOL    HW217091   0.146   3.640   1.739
 5398SOL     OW17092   2.994   2.666   1.692
 5398SOL    HW117093   3.050   2.628   1.618
 5398SOL    HW217094   2.966   2.592   1.753
 5399SOL     OW17095   1.739   6.038   1.598
 5399SOL    HW117096   1.781   6.102   1.662
 5399SOL    HW217097   1.809   5.978   1.559
 5400SOL     OW17098   3.296   4.565   0.552
 5400SOL    HW117099   3.271   4.483   0.603
 5400SOL    HW217100   3.213   4.606   0.512
 5401SOL     OW17101   6.238   3.134   1.757
 5401SOL    HW117102   6.225   3.127   1.856
 5401SOL    HW217103   6.299   3.211   1.736
 5402SOL     OW17104   0.944   6.257   1.810
 5402SOL    HW117105   0.979   6.165   1.831
 5402SOL    HW217106   1.021   6.317   1.790
 5403SOL     OW17107   0.178   2.915   6.584
 5403SOL    HW117108   0.195   2.925   6.682
 5403SOL    HW217109   0.238   2.977   6.533
 5404SOL     OW17110   1.774   2.755   3.489
 5404SOL    HW117111   1.713   2.803   3.552
 5404SOL    HW217112   1.783   2.660   3.516
 5405SOL     OW17113   6.346   5.113   5.761
 5405SOL    HW117114   6.415   5.062   5.709
 5405SOL    HW217115   6.347   5.082   5.856
 5406SOL     OW17116   1.833   0.740   6.132
 5406SOL    HW117117   1.792   0.678   6.199
 5406SOL    HW217118   1.825   0.700   6.041
 5407SOL     OW17119   4.134   3.272   0.024
 5407SOL    HW117120   4.215   3.215   0.009
 5407SOL    HW217121   4.066   3.219   0.075
 5408SOL     OW17122   2.416   0.384   6.490
 5408SOL    HW117123   2.389   0.363   6.584
 5408SOL    HW217124   2.431   0.299   6.439
 5409SOL     OW17125   3.724   0.716   2.574
 5409SOL    HW117126   3.664   0.669   2.509
 5409SOL    HW217127   3.765   0.796   2.530
 5410SOL     OW17128   2.624   2.021   2.112
 5410SOL    HW117129   2.601   2.045   2.206
 5410SOL    HW217130   2.628   2.104   2.055
 5411SOL     OW17131   0.678   5.628   5.404
 5411SOL    HW117132   0.608   5.692   5.370
 5411SOL    HW217133   0.642   5.535   5.399
 5412SOL     OW17134   6.375   2.846   0.712
 5412SOL    HW117135   6.384   2.937   0.753
 5412SOL    HW217136   6.464   2.815   0.680
 5413SOL     OW17137   2.098   1.021   1.453
 5413SOL    HW117138   2.146   1.006   1.366
 5413SOL    HW217139   2.158   1.072   1.515
 5414SOL     OW17140   3.835   1.468   5.007
 5414SOL    HW117141   3.842   1.523   5.090
 5414SOL    HW217142   3.752   1.413   5.010
 5415SOL     OW17143   6.352   4.996   1.938
 5415SOL    HW117144   6.386   4.902   1.937
 5415SOL    HW217145   6.373   5.040   1.850
 5416SOL     OW17146   4.259   5.325   4.965
 5416SOL    HW117147   4.341   5.381   4.974
 5416SOL    HW217148   4.244   5.304   4.868
 5417SOL     OW17149   3.362   7.018   4.713
 5417SOL    HW117150   3.369   0.040   4.803
 5417SOL    HW217151   3.408   0.054   4.645
 5418SOL     OW17152   3.376   0.274   3.270
 5418SOL    HW117153   3.444   0.296   3.199
 5418SOL    HW217154   3.396   0.184   3.309
 5419SOL     OW17155   3.593   4.971   6.752
 5419SOL    HW117156   3.508   4.976   6.700
 5419SOL    HW217157   3.667   4.944   6.691
 5420SOL     OW17158   1.176   1.510   2.608
 5420SOL    HW117159   1.135   1.601   2.594
 5420SOL    HW217160   1.242   1.514   2.683
 5421SOL     OW17161   1.635   3.803   2.004
 5421SOL    HW117162   1.643   3.769   1.911
 5421SOL    HW217163   1.658   3.900   2.006
 5422SOL     OW17164   2.295   3.409   1.165
 5422SOL    HW117165   2.324   3.395   1.070
 5422SOL    HW217166   2.256   3.501   1.175
 5423SOL     OW17167   5.526   3.221   6.981
 5423SOL    HW117168   5.465   3.143   6.988
 5423SOL    HW217169   5.620   3.189   6.972
 5424SOL     OW17170   5.384   3.863   4.177
 5424SOL    HW117171   5.356   3.841   4.271
 5424SOL    HW217172   5.303   3.865   4.118
 5425SOL     OW17173   5.105   1.093   5.204
 5425SOL    HW117174   5.196   1.105   5.163
 5425SOL    HW217175   5.035   1.103   5.134
 5426SOL     OW17176   6.122   0.152   4.727
 5426SOL    HW117177   6.111   0.251   4.730
 5426SOL    HW217178   6.066   0.110   4.798
 5427SOL     OW17179   3.935   5.932   6.453
 5427SOL    HW117180   4.009   5.867   6.431
 5427SOL    HW217181   3.904   5.976   6.369
 5428SOL     OW17182   1.470   0.322   0.235
 5428SOL    HW117183   1.470   0.320   0.135
 5428SOL    HW217184   1.409   0.250   0.269
 5429SOL     OW17185   1.098   2.812   6.625
 5429SOL    HW117186   1.162   2.766   6.687
 5429SOL    HW217187   1.016   2.755   6.613
 5430SOL     OW17188   1.983   2.718   5.762
 5430SOL    HW117189   1.994   2.649   5.833
 5430SOL    HW217190   2.004   2.678   5.673
 5431SOL     OW17191   3.681   6.072   5.122
 5431SOL    HW117192   3.749   6.141   5.147
 5431SOL    HW217193   3.708   5.984   5.161
 5432SOL     OW17194   5.120   6.846   1.203
 5432SOL    HW117195   5.038   6.882   1.159
 5432SOL    HW217196   5.131   6.887   1.293
 5433SOL     OW17197   0.608   1.591   4.840
 5433SOL    HW117198   0.678   1.554   4.780
 5433SOL    HW217199   0.551   1.656   4.788
 5434SOL     OW17200   2.513   0.519   5.705
 5434SOL    HW117201   2.580   0.592   5.691
 5434SOL    HW217202   2.472   0.495   5.617
 5435SOL     OW17203   4.493   0.290   1.744
 5435SOL    HW117204   4.480   0.234   1.826
 5435SOL    HW217205   4.448   0.378   1.756
 5436SOL     OW17206   4.785   4.154   3.000
 5436SOL    HW117207   4.841   4.126   2.922
 5436SOL    HW217208   4.723   4.227   2.972
 5437SOL     OW17209   3.180   3.612   6.927
 5437SOL    HW117210   3.206   3.582   6.835
 5437SOL    HW217211   3.141   3.535   6.977
 5438SOL     OW17212   6.385   1.903   1.135
 5438SOL    HW117213   6.385   1.813   1.179
 5438SOL    HW217214   6.293   1.924   1.102
 5439SOL     OW17215   0.926   2.438   1.460
 5439SOL    HW117216   0.842   2.395   1.490
 5439SOL    HW217217   0.969   2.382   1.389
 5440SOL     OW17218   0.709   1.630   1.060
 5440SOL    HW117219   0.756   1.584   1.135
 5440SOL    HW217220   0.747   1.600   0.973
 5441SOL     OW17221   3.685   1.993   3.047
 5441SOL    HW117222   3.638   1.907   3.067
 5441SOL    HW217223   3.619   2.063   3.021
 5442SOL     OW17224   3.870   0.459   2.593
 5442SOL    HW117225   3.854   0.553   2.624
 5442SOL    HW217226   3.967   0.436   2.605
 5443SOL     OW17227   3.022   6.921   5.534
 5443SOL    HW117228   3.040   6.825   5.555
 5443SOL    HW217229   2.968   6.927   5.450
 5444SOL     OW17230   0.059   0.085   3.312
 5444SOL    HW117231   0.069   0.149   3.388
 5444SOL    HW217232   0.102   7.018   3.337
 5445SOL     OW17233   5.620   3.595   2.178
 5445SOL    HW117234   5.697   3.538   2.148
 5445SOL    HW217235   5.593   3.655   2.103
 5446SOL     OW17236   6.023   5.613   5.859
 5446SOL    HW117237   5.969   5.559   5.923
 5446SOL    HW217238   6.050   5.699   5.903
 5447SOL     OW17239   3.883   2.369   6.969
 5447SOL    HW117240   3.962   2.354   6.910
 5447SOL    HW217241   3.822   2.437   6.927
 5448SOL     OW17242   5.781   2.199   5.384
 5448SOL    HW117243   5.763   2.295   5.409
 5448SOL    HW217244   5.752   2.184   5.289
 5449SOL     OW17245   0.815   3.397   6.363
 5449SOL    HW117246   0.758   3.340   6.421
 5449SOL    HW217247   0.909   3.395   6.396
 5450SOL     OW17248   2.184   0.191   1.125
 5450SOL    HW117249   2.172   0.285   1.157
 5450SOL    HW217250   2.111   0.168   1.059
 5451SOL     OW17251   0.890   6.212   2.920
 5451SOL    HW117252   0.828   6.159   2.861
 5451SOL    HW217253   0.980   6.169   2.920
 5452SOL     OW17254   2.396   4.050   6.748
 5452SOL    HW117255   2.460   3.987   6.792
 5452SOL    HW217256   2.443   4.099   6.675
 5453SOL     OW17257   6.096   5.018   6.723
 5453SOL    HW117258   6.121   4.932   6.678
 5453SOL    HW217259   6.164   5.039   6.794
 5454SOL     OW17260   6.844   4.492   6.939
 5454SOL    HW117261   6.896   4.577   6.941
 5454SOL    HW217262   6.890   4.423   6.994
 5455SOL     OW17263   6.843   3.106   0.673
 5455SOL    HW117264   6.751   3.119   0.709
 5455SOL    HW217265   6.878   3.193   0.638
 5456SOL     OW17266   3.265   6.884   0.252
 5456SOL    HW117267   3.182   6.938   0.268
 5456SOL    HW217268   3.243   6.787   0.260
 5457SOL     OW17269   5.940   2.849   0.736
 5457SOL    HW117270   5.849   2.884   0.757
 5457SOL    HW217271   5.988   2.914   0.677
 5458SOL     OW17272   2.081   4.223   6.785
 5458SOL    HW117273   2.149   4.234   6.858
 5458SOL    HW217274   2.101   4.139   6.734
 5459SOL     OW17275   1.447   4.614   6.397
 5459SOL    HW117276   1.497   4.532   6.423
 5459SOL    HW217277   1.473   4.690   6.457
 5460SOL     OW17278   3.073   0.313   1.037
 5460SOL    HW117279   3.078   0.402   0.993
 5460SOL    HW217280   2.990   0.307   1.092
 5461SOL     OW17281   4.737   0.310   5.105
 5461SOL    HW117282   4.729   0.392   5.049
 5461SOL    HW217283   4.647   0.268   5.116
 5462SOL     OW17284   1.350   0.344   0.781
 5462SOL    HW117285   1.257   0.321   0.754
 5462SOL    HW217286   1.391   0.405   0.713
 5463SOL     OW17287   6.546   2.551   0.951
 5463SOL    HW117288   6.504   2.640   0.965
 5463SOL    HW217289   6.646   2.561   0.945
 5464SOL     OW17290   1.804   6.932   4.589
 5464SOL    HW117291   1.717   6.913   4.544
 5464SOL    HW217292   1.832   6.852   4.642
 5465SOL     OW17293   2.514   0.235   5.328
 5465SOL    HW117294   2.426   0.234   5.281
 5465SOL    HW217295   2.510   0.176   5.408
 5466SOL     OW17296   4.578   4.425   4.321
 5466SOL    HW117297   4.608   4.345   4.269
 5466SOL    HW217298   4.530   4.488   4.260
 5467SOL     OW17299   5.306   1.407   2.499
 5467SOL    HW117300   5.366   1.342   2.452
 5467SOL    HW217301   5.211   1.388   2.475
 5468SOL     OW17302   4.470   1.927   4.926
 5468SOL    HW117303   4.448   1.974   4.840
 5468SOL    HW217304   4.402   1.857   4.944
 5469SOL     OW17305   4.065   4.205   6.844
 5469SOL    HW117306   3.972   4.180   6.816
 5469SOL    HW217307   4.107   4.127   6.889
 5470SOL     OW17308   1.823   5.057   4.078
 5470SOL    HW117309   1.894   5.116   4.039
 5470SOL    HW217310   1.847   5.034   4.173
 5471SOL     OW17311   0.068   5.481   1.797
 5471SOL    HW117312   6.990   5.468   1.787
 5471SOL    HW217313   0.094   5.469   1.893
 5472SOL     OW17314   3.619   4.672   5.929
 5472SOL    HW117315   3.540   4.653   5.987
 5472SOL    HW217316   3.602   4.753   5.874
 5473SOL     OW17317   1.294   3.748   3.448
 5473SOL    HW117318   1.284   3.662   3.498
 5473SOL    HW217319   1.390   3.779   3.453
 5474SOL     OW17320   1.490   5.540   3.681
 5474SOL    HW117321   1.441   5.468   3.730
 5474SOL    HW217322   1.572   5.564   3.733
 5475SOL     OW17323   2.733   2.187   1.417
 5475SOL    HW117324   2.819   2.235   1.429
 5475SOL    HW217325   2.749   2.100   1.371
 5476SOL     OW17326   1.300   3.185   6.071
 5476SOL    HW117327   1.228   3.254   6.067
 5476SOL    HW217328   1.265   3.102   6.115
 5477SOL     OW17329   2.186   2.829   3.070
 5477SOL    HW117330   2.110   2.765   3.077
 5477SOL    HW217331   2.181   2.896   3.145
 5478SOL     OW17332   5.856   5.798   5.333
 5478SOL    HW117333   5.945   5.843   5.337
 5478SOL    HW217334   5.819   5.806   5.241
 5479SOL     OW17335   4.819   0.890   4.821
 5479SOL    HW117336   4.721   0.908   4.819
 5479SOL    HW217337   4.844   0.848   4.908
 5480SOL     OW17338   0.855   3.574   4.127
 5480SOL    HW117339   0.769   3.620   4.146
 5480SOL    HW217340   0.853   3.482   4.167
 5481SOL     OW17341   4.190   6.805   3.860
 5481SOL    HW117342   4.148   6.796   3.769
 5481SOL    HW217343   4.202   6.715   3.901
 5482SOL     OW17344   1.882   4.604   1.444
 5482SOL    HW117345   1.968   4.627   1.489
 5482SOL    HW217346   1.900   4.576   1.350
 5483SOL     OW17347   0.306   2.500   5.964
 5483SOL    HW117348   0.342   2.460   5.879
 5483SOL    HW217349   0.379   2.551   6.010
 5484SOL     OW17350   4.530   0.895   4.819
 5484SOL    HW117351   4.445   0.844   4.828
 5484SOL    HW217352   4.515   0.990   4.845
 5485SOL     OW17353   2.421   0.501   5.418
 5485SOL    HW117354   2.472   0.431   5.369
 5485SOL    HW217355   2.323   0.485   5.406
 5486SOL     OW17356   2.925   6.381   5.253
 5486SOL    HW117357   2.880   6.442   5.318
 5486SOL    HW217358   3.019   6.362   5.283
 5487SOL     OW17359   3.644   5.227   5.855
 5487SOL    HW117360   3.585   5.253   5.932
 5487SOL    HW217361   3.703   5.303   5.831
 5488SOL     OW17362   6.054   1.376   0.768
 5488SOL    HW117363   5.971   1.322   0.783
 5488SOL    HW217364   6.077   1.426   0.852
 5489SOL     OW17365   6.727   4.178   3.016
 5489SOL    HW117366   6.660   4.251   3.000
 5489SOL    HW217367   6.703   4.129   3.100
 5490SOL     OW17368   1.583   6.636   3.000
 5490SOL    HW117369   1.636   6.625   2.916
 5490SOL    HW217370   1.632   6.593   3.076
 5491SOL     OW17371   6.454   4.137   0.412
 5491SOL    HW117372   6.493   4.053   0.452
 5491SOL    HW217373   6.399   4.183   0.481
 5492SOL     OW17374   6.981   2.307   6.317
 5492SOL    HW117375   6.991   2.215   6.280
 5492SOL    HW217376   7.011   2.374   6.249
 5493SOL     OW17377   3.647   3.710   1.025
 5493SOL    HW117378   3.646   3.639   0.955
 5493SOL    HW217379   3.588   3.786   0.996
 5494SOL     OW17380   5.918   4.080   5.213
 5494SOL    HW117381   5.914   3.997   5.268
 5494SOL    HW217382   5.951   4.058   5.121
 5495SOL     OW17383   5.916   6.872   0.864
 5495SOL    HW117384   5.895   6.806   0.936
 5495SOL    HW217385   6.010   6.858   0.832
 5496SOL     OW17386   3.720   0.501   4.252
 5496SOL    HW117387   3.639   0.507   4.194
 5496SOL    HW217388   3.692   0.477   4.345
 5497SOL     OW17389   1.402   0.575   5.878
 5497SOL    HW117390   1.403   0.586   5.977
 5497SOL    HW217391   1.348   0.649   5.837
 5498SOL     OW17392   0.879   5.140   1.727
 5498SOL    HW117393   0.940   5.089   1.788
 5498SOL    HW217394   0.864   5.232   1.765
 5499SOL     OW17395   1.959   0.166   4.979
 5499SOL    HW117396   1.972   0.181   5.077
 5499SOL    HW217397   1.972   0.252   4.930
 5500SOL     OW17398   3.010   0.935   0.667
 5500SOL    HW117399   3.096   0.887   0.681
 5500SOL    HW217400   3.024   1.033   0.684
 5501SOL     OW17401   3.625   3.766   6.477
 5501SOL    HW117402   3.707   3.749   6.532
 5501SOL    HW217403   3.609   3.689   6.416
 5502SOL     OW17404   4.583   2.538   0.179
 5502SOL    HW117405   4.648   2.610   0.204
 5502SOL    HW217406   4.492   2.578   0.170
 5503SOL     OW17407   6.343   4.062   0.895
 5503SOL    HW117408   6.424   4.070   0.953
 5503SOL    HW217409   6.293   3.979   0.920
 5504SOL     OW17410   3.649   1.557   6.848
 5504SOL    HW117411   3.606   1.497   6.781
 5504SOL    HW217412   3.642   1.515   6.939
 5505SOL     OW17413   2.816   5.003   3.408
 5505SOL    HW117414   2.731   5.042   3.373
 5505SOL    HW217415   2.838   5.046   3.496
 5506SOL     OW17416   0.550   3.264   6.021
 5506SOL    HW117417   0.547   3.349   6.072
 5506SOL    HW217418   0.467   3.254   5.967
 5507SOL     OW17419   2.568   6.871   0.208
 5507SOL    HW117420   2.476   6.876   0.169
 5507SOL    HW217421   2.620   6.952   0.180
 5508SOL     OW17422   6.956   0.898   6.356
 5508SOL    HW117423   6.884   0.863   6.417
 5508SOL    HW217424   7.006   0.821   6.317
 5509SOL     OW17425   6.874   4.982   1.067
 5509SOL    HW117426   6.807   5.008   0.997
 5509SOL    HW217427   6.841   4.902   1.117
 5510SOL     OW17428   4.249   4.850   0.256
 5510SOL    HW117429   4.207   4.890   0.173
 5510SOL    HW217430   4.237   4.751   0.254
 5511SOL     OW17431   0.243   1.948   5.590
 5511SOL    HW117432   0.211   2.011   5.520
 5511SOL    HW217433   0.321   1.896   5.555
 5512SOL     OW17434   2.789   1.009   2.114
 5512SOL    HW117435   2.831   1.010   2.023
 5512SOL    HW217436   2.714   0.943   2.115
 5513SOL     OW17437   3.963   4.210   0.632
 5513SOL    HW117438   4.010   4.129   0.598
 5513SOL    HW217439   3.931   4.194   0.726
 5514SOL     OW17440   3.168   1.181   0.211
 5514SOL    HW117441   3.169   1.147   0.117
 5514SOL    HW217442   3.155   1.105   0.274
 5515SOL     OW17443   2.461   6.077   2.459
 5515SOL    HW117444   2.435   5.986   2.425
 5515SOL    HW217445   2.507   6.128   2.386
 5516SOL     OW17446   1.707   2.195   5.650
 5516SOL    HW117447   1.633   2.242   5.602
 5516SOL    HW217448   1.794   2.239   5.627
 5517SOL     OW17449   0.952   2.535   3.180
 5517SOL    HW117450   0.887   2.544   3.105
 5517SOL    HW217451   1.003   2.620   3.190
 5518SOL     OW17452   4.481   4.841   6.693
 5518SOL    HW117453   4.443   4.880   6.777
 5518SOL    HW217454   4.559   4.896   6.663
 5519SOL     OW17455   4.755   2.546   3.986
 5519SOL    HW117456   4.670   2.538   3.934
 5519SOL    HW217457   4.762   2.469   4.050
 5520SOL     OW17458   5.082   6.920   1.457
 5520SOL    HW117459   5.087   6.833   1.505
 5520SOL    HW217460   5.144   6.986   1.501
 5521SOL     OW17461   5.076   5.806   1.877
 5521SOL    HW117462   5.150   5.791   1.943
 5521SOL    HW217463   5.107   5.871   1.807
 5522SOL     OW17464   6.162   5.826   1.120
 5522SOL    HW117465   6.256   5.793   1.119
 5522SOL    HW217466   6.130   5.841   1.026
 5523SOL     OW17467   5.247   0.875   1.120
 5523SOL    HW117468   5.248   0.974   1.132
 5523SOL    HW217469   5.167   0.848   1.067
 5524SOL     OW17470   2.449   1.917   3.825
 5524SOL    HW117471   2.349   1.913   3.830
 5524SOL    HW217472   2.486   1.944   3.914
 5525SOL     OW17473   5.807   0.850   1.750
 5525SOL    HW117474   5.840   0.764   1.788
 5525SOL    HW217475   5.758   0.901   1.821
 5526SOL     OW17476   5.522   4.739   3.820
 5526SOL    HW117477   5.484   4.830   3.802
 5526SOL    HW217478   5.463   4.669   3.779
 5527SOL     OW17479   5.787   1.495   3.893
 5527SOL    HW117480   5.725   1.471   3.968
 5527SOL    HW217481   5.738   1.552   3.826
 5528SOL     OW17482   0.899   0.915   7.020
 5528SOL    HW117483   0.830   0.876   0.060
 5528SOL    HW217484   0.854   0.978   6.956
 5529SOL     OW17485   3.547   0.480   1.964
 5529SOL    HW117486   3.461   0.452   2.008
 5529SOL    HW217487   3.610   0.515   2.033
 5530SOL     OW17488   6.499   2.058   0.955
 5530SOL    HW117489   6.574   2.023   0.899
 5530SOL    HW217490   6.466   1.986   1.015
 5531SOL     OW17491   2.073   3.934   1.012
 5531SOL    HW117492   2.073   4.020   1.062
 5531SOL    HW217493   2.141   3.872   1.051
 5532SOL     OW17494   1.312   2.892   0.388
 5532SOL    HW117495   1.330   2.980   0.344
 5532SOL    HW217496   1.352   2.892   0.480
 5533SOL     OW17497   3.125   1.766   2.372
 5533SOL    HW117498   3.211   1.735   2.332
 5533SOL    HW217499   3.086   1.838   2.316
 5534SOL     OW17500   1.636   0.290   4.981
 5534SOL    HW117501   1.719   0.344   4.975
 5534SOL    HW217502   1.602   0.292   5.075
 5535SOL     OW17503   0.335   1.718   2.933
 5535SOL    HW117504   0.319   1.803   2.983
 5535SOL    HW217505   0.248   1.680   2.903
 5536SOL     OW17506   4.052   6.319   4.220
 5536SOL    HW117507   4.143   6.316   4.179
 5536SOL    HW217508   4.056   6.369   4.306
 5537SOL     OW17509   2.717   1.512   3.504
 5537SOL    HW117510   2.629   1.483   3.464
 5537SOL    HW217511   2.757   1.583   3.447
 5538SOL     OW17512   4.125   5.090   5.001
 5538SOL    HW117513   4.174   5.176   4.994
 5538SOL    HW217514   4.040   5.104   5.053
 5539SOL     OW17515   2.752   4.429   0.525
 5539SOL    HW117516   2.685   4.355   0.529
 5539SOL    HW217517   2.778   4.444   0.429
 5540SOL     OW17518   5.376   5.469   1.665
 5540SOL    HW117519   5.468   5.455   1.630
 5540SOL    HW217520   5.318   5.392   1.639
 5541SOL     OW17521   4.742   1.349   5.773
 5541SOL    HW117522   4.777   1.443   5.770
 5541SOL    HW217523   4.740   1.311   5.681
 5542SOL     OW17524   5.184   4.471   6.924
 5542SOL    HW117525   5.184   4.384   6.875
 5542SOL    HW217526   5.273   4.486   6.967
 5543SOL     OW17527   0.058   2.039   6.181
 5543SOL    HW117528   0.107   1.981   6.115
 5543SOL    HW217529   6.981   2.034   6.164
 5544SOL     OW17530   5.994   0.996   6.918
 5544SOL    HW117531   6.056   1.009   6.996
 5544SOL    HW217532   5.900   0.991   6.951
 5545SOL     OW17533   2.652   2.464   1.800
 5545SOL    HW117534   2.748   2.439   1.813
 5545SOL    HW217535   2.623   2.440   1.708
 5546SOL     OW17536   3.036   4.880   5.634
 5546SOL    HW117537   2.941   4.873   5.604
 5546SOL    HW217538   3.090   4.809   5.591
 5547SOL     OW17539   3.877   6.114   4.461
 5547SOL    HW117540   3.868   6.169   4.544
 5547SOL    HW217541   3.838   6.163   4.384
 5548SOL     OW17542   0.206   2.989   5.286
 5548SOL    HW117543   0.197   2.941   5.373
 5548SOL    HW217544   0.127   2.970   5.229
 5549SOL     OW17545   3.142   4.629   0.177
 5549SOL    HW117546   3.111   4.631   0.271
 5549SOL    HW217547   3.119   4.540   0.135
 5550SOL     OW17548   3.643   6.995   2.569
 5550SOL    HW117549   3.616   6.912   2.519
 5550SOL    HW217550   3.729   0.009   2.532
 5551SOL     OW17551   0.112   1.604   2.832
 5551SOL    HW117552   0.131   1.516   2.790
 5551SOL    HW217553   0.056   1.591   2.914
 5552SOL     OW17554   0.804   2.930   1.270
 5552SOL    HW117555   0.830   3.027   1.258
 5552SOL    HW217556   0.709   2.917   1.243
 5553SOL     OW17557   5.031   6.546   7.016
 5553SOL    HW117558   5.065   6.562   0.088
 5553SOL    HW217559   5.047   6.627   6.960
 5554SOL     OW17560   3.070   1.480   4.452
 5554SOL    HW117561   3.020   1.432   4.524
 5554SOL    HW217562   3.010   1.545   4.407
 5555SOL     OW17563   0.843   5.945   1.976
 5555SOL    HW117564   0.778   6.020   1.960
 5555SOL    HW217565   0.936   5.979   1.971
 5556SOL     OW17566   0.561   1.056   4.496
 5556SOL    HW117567   0.592   1.107   4.416
 5556SOL    HW217568   0.604   1.092   4.578
 5557SOL     OW17569   2.870   0.795   3.608
 5557SOL    HW117570   2.843   0.780   3.513
 5557SOL    HW217571   2.922   0.880   3.615
 5558SOL     OW17572   4.898   2.541   4.672
 5558SOL    HW117573   4.808   2.561   4.711
 5558SOL    HW217574   4.967   2.596   4.718
 5559SOL     OW17575   3.106   0.563   0.890
 5559SOL    HW117576   3.096   0.661   0.910
 5559SOL    HW217577   3.020   0.527   0.855
 5560SOL     OW17578   7.004   1.092   4.531
 5560SOL    HW117579   6.914   1.136   4.528
 5560SOL    HW217580   0.024   1.104   4.621
 5561SOL     OW17581   1.750   3.867   2.907
 5561SOL    HW117582   1.774   3.773   2.885
 5561SOL    HW217583   1.750   3.879   3.006
 5562SOL     OW17584   2.679   2.561   6.477
 5562SOL    HW117585   2.616   2.484   6.486
 5562SOL    HW217586   2.773   2.529   6.493
 5563SOL     OW17587   4.253   4.150   1.681
 5563SOL    HW117588   4.173   4.207   1.662
 5563SOL    HW217589   4.297   4.181   1.766
 5564SOL     OW17590   6.069   3.851   2.045
 5564SOL    HW117591   6.043   3.771   1.992
 5564SOL    HW217592   5.989   3.886   2.094
 5565SOL     OW17593   3.054   2.941   5.593
 5565SOL    HW117594   3.053   2.949   5.692
 5565SOL    HW217595   3.148   2.945   5.560
 5566SOL     OW17596   1.985   4.770   0.425
 5566SOL    HW117597   1.892   4.776   0.461
 5566SOL    HW217598   1.997   4.836   0.351
 5567SOL     OW17599   2.027   5.507   3.392
 5567SOL    HW117600   1.970   5.482   3.313
 5567SOL    HW217601   2.118   5.468   3.381
 5568SOL     OW17602   3.710   2.607   1.066
 5568SOL    HW117603   3.773   2.531   1.074
 5568SOL    HW217604   3.706   2.658   1.152
 5569SOL     OW17605   5.590   2.307   6.778
 5569SOL    HW117606   5.655   2.368   6.733
 5569SOL    HW217607   5.532   2.360   6.840
 5570SOL     OW17608   0.517   3.373   5.670
 5570SOL    HW117609   0.471   3.290   5.703
 5570SOL    HW217610   0.451   3.448   5.666
 5571SOL     OW17611   6.481   4.512   6.773
 5571SOL    HW117612   6.467   4.435   6.710
 5571SOL    HW217613   6.563   4.562   6.747
 5572SOL     OW17614   5.762   2.721   5.289
 5572SOL    HW117615   5.695   2.684   5.225
 5572SOL    HW217616   5.779   2.817   5.268
 5573SOL     OW17617   0.569   4.039   0.292
 5573SOL    HW117618   0.521   3.961   0.252
 5573SOL    HW217619   0.620   4.009   0.372
 5574SOL     OW17620   0.315   6.067   4.466
 5574SOL    HW117621   0.259   6.146   4.441
 5574SOL    HW217622   0.380   6.093   4.537
 5575SOL     OW17623   0.827   1.053   1.431
 5575SOL    HW117624   0.780   1.042   1.519
 5575SOL    HW217625   0.760   1.060   1.358
 5576SOL     OW17626   5.896   5.834   0.191
 5576SOL    HW117627   5.981   5.839   0.139
 5576SOL    HW217628   5.911   5.782   0.275
 5577SOL     OW17629   2.083   3.899   4.899
 5577SOL    HW117630   2.165   3.936   4.942
 5577SOL    HW217631   2.024   3.859   4.969
 5578SOL     OW17632   3.162   1.720   5.990
 5578SOL    HW117633   3.100   1.763   5.925
 5578SOL    HW217634   3.127   1.731   6.082
 5579SOL     OW17635   4.882   4.951   1.493
 5579SOL    HW117636   4.870   5.022   1.563
 5579SOL    HW217637   4.933   4.874   1.532
 5580SOL     OW17638   5.074   0.928   1.642
 5580SOL    HW117639   5.129   0.901   1.563
 5580SOL    HW217640   4.977   0.927   1.618
 5581SOL     OW17641   2.410   2.862   0.594
 5581SOL    HW117642   2.448   2.950   0.623
 5581SOL    HW217643   2.483   2.794   0.588
 5582SOL     OW17644   3.563   2.856   3.447
 5582SOL    HW117645   3.601   2.788   3.510
 5582SOL    HW217646   3.569   2.946   3.488
 5583SOL     OW17647   4.320   0.536   7.000
 5583SOL    HW117648   4.329   0.451   0.029
 5583SOL    HW217649   4.292   0.609   0.041
 5584SOL     OW17650   5.110   3.045   3.132
 5584SOL    HW117651   5.024   3.095   3.143
 5584SOL    HW217652   5.184   3.096   3.177
 5585SOL     OW17653   0.077   6.887   4.364
 5585SOL    HW117654   0.115   6.959   4.305
 5585SOL    HW217655   7.011   6.856   4.326
 5586SOL     OW17656   2.318   1.447   6.522
 5586SOL    HW117657   2.257   1.522   6.545
 5586SOL    HW217658   2.355   1.461   6.431
 5587SOL     OW17659   3.721   6.466   4.334
 5587SOL    HW117660   3.622   6.473   4.328
 5587SOL    HW217661   3.750   6.473   4.429
 5588SOL     OW17662   4.436   0.644   5.725
 5588SOL    HW117663   4.427   0.705   5.804
 5588SOL    HW217664   4.366   0.573   5.729
 5589SOL     OW17665   3.135   4.139   6.792
 5589SOL    HW117666   3.119   4.237   6.798
 5589SOL    HW217667   3.225   4.117   6.831
 5590SOL     OW17668   6.681   6.961   3.467
 5590SOL    HW117669   6.599   6.920   3.425
 5590SOL    HW217670   6.758   6.897   3.458
 5591SOL     OW17671   5.364   0.114   6.970
 5591SOL    HW117672   5.405   0.204   6.956
 5591SOL    HW217673   5.410   0.047   6.911
 5592SOL     OW17674   1.624   1.939   2.640
 5592SOL    HW117675   1.702   1.932   2.703
 5592SOL    HW217676   1.569   2.019   2.665
 5593SOL     OW17677   1.843   3.949   4.708
 5593SOL    HW117678   1.907   3.988   4.775
 5593SOL    HW217679   1.838   4.009   4.629
 5594SOL     OW17680   2.619   1.591   6.176
 5594SOL    HW117681   2.621   1.557   6.270
 5594SOL    HW217682   2.563   1.530   6.120
 5595SOL     OW17683   0.466   1.735   5.955
 5595SOL    HW117684   0.545   1.700   6.006
 5595SOL    HW217685   0.442   1.826   5.990
 5596SOL     OW17686   4.902   2.120   3.646
 5596SOL    HW117687   4.943   2.181   3.714
 5596SOL    HW217688   4.831   2.065   3.691
 5597SOL     OW17689   0.228   1.562   6.269
 5597SOL    HW117690   0.199   1.543   6.175
 5597SOL    HW217691   0.165   1.627   6.311
 5598SOL     OW17692   6.946   1.762   4.227
 5598SOL    HW117693   6.970   1.665   4.218
 5598SOL    HW217694   6.992   1.815   4.156
 5599SOL     OW17695   5.327   2.471   3.240
 5599SOL    HW117696   5.251   2.435   3.185
 5599SOL    HW217697   5.384   2.395   3.271
 5600SOL     OW17698   1.817   2.298   2.484
 5600SOL    HW117699   1.758   2.230   2.441
 5600SOL    HW217700   1.774   2.388   2.479
 5601SOL     OW17701   5.709   3.388   5.827
 5601SOL    HW117702   5.705   3.429   5.918
 5601SOL    HW217703   5.703   3.289   5.835
 5602SOL     OW17704   6.399   2.258   2.311
 5602SOL    HW117705   6.376   2.223   2.402
 5602SOL    HW217706   6.408   2.357   2.315
 5603SOL     OW17707   3.502   2.084   5.843
 5603SOL    HW117708   3.580   2.076   5.905
 5603SOL    HW217709   3.458   1.994   5.833
 5604SOL     OW17710   1.054   6.463   3.545
 5604SOL    HW117711   0.963   6.425   3.528
 5604SOL    HW217712   1.121   6.389   3.552
 5605SOL     OW17713   4.534   6.717   4.112
 5605SOL    HW117714   4.574   6.646   4.055
 5605SOL    HW217715   4.535   6.804   4.063
 5606SOL     OW17716   4.775   2.733   0.174
 5606SOL    HW117717   4.809   2.695   0.260
 5606SOL    HW217718   4.803   2.828   0.167
 5607SOL     OW17719   0.214   2.486   3.148
 5607SOL    HW117720   0.222   2.408   3.211
 5607SOL    HW217721   0.203   2.570   3.201
 5608SOL     OW17722   4.965   0.697   3.557
 5608SOL    HW117723   5.025   0.725   3.632
 5608SOL    HW217724   4.981   0.755   3.477
 5609SOL     OW17725   0.004   0.520   0.113
 5609SOL    HW117726   0.089   0.516   0.167
 5609SOL    HW217727   0.020   0.571   0.029
 5610SOL     OW17728   5.963   6.163   0.056
 5610SOL    HW117729   5.897   6.172   7.002
 5610SOL    HW217730   5.977   6.067   0.078
 5611SOL     OW17731   6.216   4.139   1.968
 5611SOL    HW117732   6.295   4.119   2.025
 5611SOL    HW217733   6.149   4.065   1.976
 5612SOL     OW17734   4.080   1.767   0.671
 5612SOL    HW117735   4.026   1.711   0.734
 5612SOL    HW217736   4.019   1.831   0.623
 5613SOL     OW17737   5.873   5.253   5.732
 5613SOL    HW117738   5.797   5.273   5.670
 5613SOL    HW217739   5.950   5.216   5.679
 5614SOL     OW17740   5.119   2.784   4.426
 5614SOL    HW117741   5.134   2.877   4.390
 5614SOL    HW217742   5.181   2.721   4.380
 5615SOL     OW17743   0.940   3.379   3.524
 5615SOL    HW117744   0.859   3.406   3.575
 5615SOL    HW217745   1.016   3.439   3.549
 5616SOL     OW17746   2.029   3.442   2.707
 5616SOL    HW117747   2.075   3.367   2.659
 5616SOL    HW217748   2.004   3.412   2.799
 5617SOL     OW17749   1.330   4.692   6.174
 5617SOL    HW117750   1.385   4.766   6.137
 5617SOL    HW217751   1.373   4.657   6.258
 5618SOL     OW17752   4.969   6.750   2.395
 5618SOL    HW117753   5.027   6.696   2.334
 5618SOL    HW217754   5.015   6.763   2.483
 5619SOL     OW17755   3.324   3.244   3.284
 5619SOL    HW117756   3.371   3.162   3.251
 5619SOL    HW217757   3.367   3.274   3.369
 5620SOL     OW17758   5.152   4.820   3.955
 5620SOL    HW117759   5.055   4.821   3.928
 5620SOL    HW217760   5.158   4.796   4.052
 5621SOL     OW17761   1.497   2.828   6.703
 5621SOL    HW117762   1.530   2.885   6.778
 5621SOL    HW217763   1.410   2.787   6.727
 5622SOL     OW17764   4.667   5.258   4.129
 5622SOL    HW117765   4.666   5.330   4.198
 5622SOL    HW217766   4.760   5.244   4.097
 5623SOL     OW17767   4.467   5.001   3.746
 5623SOL    HW117768   4.370   4.987   3.762
 5623SOL    HW217769   4.520   4.941   3.806
 5624SOL     OW17770   5.197   4.677   3.400
 5624SOL    HW117771   5.137   4.632   3.333
 5624SOL    HW217772   5.291   4.647   3.387
 5625SOL     OW17773   2.959   6.665   6.088
 5625SOL    HW117774   3.008   6.700   6.168
 5625SOL    HW217775   3.025   6.641   6.017
 5626SOL     OW17776   0.681   4.992   6.667
 5626SOL    HW117777   0.678   5.004   6.766
 5626SOL    HW217778   0.755   4.930   6.643
 5627SOL     OW17779   1.270   5.844   0.282
 5627SOL    HW117780   1.224   5.932   0.270
 5627SOL    HW217781   1.203   5.772   0.298
 5628SOL     OW17782   2.157   3.522   0.535
 5628SOL    HW117783   2.251   3.547   0.509
 5628SOL    HW217784   2.138   3.429   0.505
 5629SOL     OW17785   0.193   3.524   3.562
 5629SOL    HW117786   0.191   3.505   3.464
 5629SOL    HW217787   0.262   3.594   3.581
 5630SOL     OW17788   0.715   3.668   0.228
 5630SOL    HW117789   0.744   3.711   0.142
 5630SOL    HW217790   0.792   3.665   0.291
 5631SOL     OW17791   3.884   1.559   1.715
 5631SOL    HW117792   3.805   1.551   1.776
 5631SOL    HW217793   3.861   1.622   1.641
 5632SOL     OW17794   4.936   6.680   5.636
 5632SOL    HW117795   4.967   6.600   5.584
 5632SOL    HW217796   4.910   6.752   5.572
 5633SOL     OW17797   1.121   5.624   5.666
 5633SOL    HW117798   1.170   5.693   5.720
 5633SOL    HW217799   1.025   5.621   5.694
 5634SOL     OW17800   2.965   0.318   1.944
 5634SOL    HW117801   3.040   0.256   1.968
 5634SOL    HW217802   2.948   0.313   1.846
 5635SOL     OW17803   3.140   0.804   1.748
 5635SOL    HW117804   3.189   0.720   1.771
 5635SOL    HW217805   3.085   0.833   1.826
 5636SOL     OW17806   4.835   0.493   5.584
 5636SOL    HW117807   4.845   0.433   5.504
 5636SOL    HW217808   4.923   0.501   5.630
 5637SOL     OW17809   5.088   6.819   4.638
 5637SOL    HW117810   5.078   6.730   4.594
 5637SOL    HW217811   5.181   6.852   4.626
 5638SOL     OW17812   6.712   5.377   0.813
 5638SOL    HW117813   6.704   5.287   0.768
 5638SOL    HW217814   6.624   5.401   0.854
 5639SOL     OW17815   2.372   0.493   1.591
 5639SOL    HW117816   2.286   0.520   1.548
 5639SOL    HW217817   2.386   0.548   1.674
 5640SOL     OW17818   3.047   6.618   3.594
 5640SOL    HW117819   3.086   6.572   3.514
 5640SOL    HW217820   2.975   6.680   3.564
 5641SOL     OW17821   0.031   4.058   4.056
 5641SOL    HW117822   0.021   4.112   4.140
 5641SOL    HW217823   0.091   3.980   4.073
 5642SOL     OW17824   2.479   3.739   6.516
 5642SOL    HW117825   2.406   3.697   6.570
 5642SOL    HW217826   2.453   3.737   6.419
 5643SOL     OW17827   6.041   2.341   4.320
 5643SOL    HW117828   5.998   2.391   4.396
 5643SOL    HW217829   5.979   2.340   4.241
 5644SOL     OW17830   3.971   0.729   5.079
 5644SOL    HW117831   4.065   0.696   5.084
 5644SOL    HW217832   3.940   0.754   5.171
 5645SOL     OW17833   6.576   6.328   3.696
 5645SOL    HW117834   6.569   6.308   3.794
 5645SOL    HW217835   6.538   6.252   3.643
 5646SOL     OW17836   6.733   6.689   3.889
 5646SOL    HW117837   6.766   6.607   3.935
 5646SOL    HW217838   6.651   6.666   3.836
 5647SOL     OW17839   7.007   4.279   7.020
 5647SOL    HW117840   7.002   4.206   0.066
 5647SOL    HW217841   0.053   4.347   0.028
 5648SOL     OW17842   2.453   1.010   4.847
 5648SOL    HW117843   2.544   1.017   4.806
 5648SOL    HW217844   2.391   0.964   4.784
 5649SOL     OW17845   0.962   0.049   5.050
 5649SOL    HW117846   0.962   0.012   5.143
 5649SOL    HW217847   1.006   0.139   5.050
 5650SOL     OW17848   6.347   5.167   6.193
 5650SOL    HW117849   6.248   5.173   6.201
 5650SOL    HW217850   6.372   5.118   6.110
 5651SOL     OW17851   6.084   1.361   2.722
 5651SOL    HW117852   6.127   1.290   2.665
 5651SOL    HW217853   6.091   1.335   2.818
 5652SOL     OW17854   5.457   3.772   0.662
 5652SOL    HW117855   5.368   3.740   0.695
 5652SOL    HW217856   5.445   3.854   0.606
 5653SOL     OW17857   2.439   6.376   6.776
 5653SOL    HW117858   2.341   6.395   6.779
 5653SOL    HW217859   2.483   6.410   6.859
 5654SOL     OW17860   1.159   6.395   6.180
 5654SOL    HW117861   1.108   6.462   6.233
 5654SOL    HW217862   1.120   6.304   6.194
 5655SOL     OW17863   0.297   5.357   3.094
 5655SOL    HW117864   0.213   5.334   3.045
 5655SOL    HW217865   0.342   5.434   3.050
 5656SOL     OW17866   3.402   5.779   6.335
 5656SOL    HW117867   3.496   5.747   6.348
 5656SOL    HW217868   3.339   5.714   6.376
 5657SOL     OW17869   3.837   5.359   1.947
 5657SOL    HW117870   3.932   5.375   1.973
 5657SOL    HW217871   3.807   5.431   1.883
 5658SOL     OW17872   5.328   6.796   4.966
 5658SOL    HW117873   5.353   6.700   4.979
 5658SOL    HW217874   5.296   6.834   5.053
 5659SOL     OW17875   3.558   4.125   2.776
 5659SOL    HW117876   3.552   4.130   2.876
 5659SOL    HW217877   3.470   4.097   2.738
 5660SOL     OW17878   6.382   6.648   0.810
 5660SOL    HW117879   6.387   6.549   0.823
 5660SOL    HW217880   6.464   6.690   0.849
 5661SOL     OW17881   6.483   5.492   4.903
 5661SOL    HW117882   6.440   5.434   4.833
 5661SOL    HW217883   6.513   5.435   4.980
 5662SOL     OW17884   2.154   3.937   4.646
 5662SOL    HW117885   2.184   4.030   4.627
 5662SOL    HW217886   2.136   3.927   4.744
 5663SOL     OW17887   2.173   3.927   0.398
 5663SOL    HW117888   2.082   3.911   0.436
 5663SOL    HW217889   2.163   3.974   0.309
 5664SOL     OW17890   0.468   5.720   2.684
 5664SOL    HW117891   0.436   5.808   2.647
 5664SOL    HW217892   0.565   5.729   2.709
 5665SOL     OW17893   1.714   1.703   5.910
 5665SOL    HW117894   1.778   1.761   5.860
 5665SOL    HW217895   1.635   1.682   5.851
 5666SOL     OW17896   6.134   5.810   7.019
 5666SOL    HW117897   6.191   5.866   6.959
 5666SOL    HW217898   6.129   5.717   6.983
 5667SOL     OW17899   6.283   6.007   3.255
 5667SOL    HW117900   6.332   6.080   3.302
 5667SOL    HW217901   6.347   5.933   3.232
 5668SOL     OW17902   5.820   3.095   5.602
 5668SOL    HW117903   5.912   3.059   5.588
 5668SOL    HW217904   5.818   3.191   5.573
 5669SOL     OW17905   6.831   3.586   5.059
 5669SOL    HW117906   6.917   3.616   5.099
 5669SOL    HW217907   6.843   3.495   5.018
 5670SOL     OW17908   1.838   3.623   2.789
 5670SOL    HW117909   1.904   3.597   2.719
 5670SOL    HW217910   1.772   3.548   2.801
 5671SOL     OW17911   1.561   1.420   5.585
 5671SOL    HW117912   1.627   1.414   5.511
 5671SOL    HW217913   1.469   1.405   5.549
 5672SOL     OW17914   5.357   4.248   5.585
 5672SOL    HW117915   5.330   4.237   5.489
 5672SOL    HW217916   5.301   4.188   5.642
 5673SOL     OW17917   1.592   0.665   1.289
 5673SOL    HW117918   1.574   0.584   1.345
 5673SOL    HW217919   1.566   0.647   1.194
 5674SOL     OW17920   6.997   3.483   1.460
 5674SOL    HW117921   6.958   3.572   1.435
 5674SOL    HW217922   6.923   3.416   1.466
 5675SOL     OW17923   4.080   1.461   5.905
 5675SOL    HW117924   3.987   1.491   5.923
 5675SOL    HW217925   4.139   1.486   5.981
 5676SOL     OW17926   3.562   6.479   1.710
 5676SOL    HW117927   3.642   6.533   1.685
 5676SOL    HW217928   3.520   6.518   1.793
 5677SOL     OW17929   0.002   1.335   3.775
 5677SOL    HW117930   0.019   1.393   3.855
 5677SOL    HW217931   0.078   1.270   3.764
 5678SOL     OW17932   2.077   5.053   3.688
 5678SOL    HW117933   2.088   5.130   3.751
 5678SOL    HW217934   2.110   4.969   3.731
 5679SOL     OW17935   2.832   5.683   5.428
 5679SOL    HW117936   2.831   5.718   5.334
 5679SOL    HW217937   2.754   5.622   5.441
 5680SOL     OW17938   2.071   6.931   5.830
 5680SOL    HW117939   2.069   0.006   5.803
 5680SOL    HW217940   1.987   6.885   5.800
 5681SOL     OW17941   1.869   3.886   0.104
 5681SOL    HW117942   1.843   3.790   0.102
 5681SOL    HW217943   1.788   3.943   0.119
 5682SOL     OW17944   0.859   3.928   3.892
 5682SOL    HW117945   0.851   3.959   3.798
 5682SOL    HW217946   0.796   3.851   3.908
 5683SOL     OW17947   3.705   3.244   4.750
 5683SOL    HW117948   3.652   3.161   4.768
 5683SOL    HW217949   3.769   3.227   4.675
 5684SOL     OW17950   3.009   3.878   3.437
 5684SOL    HW117951   3.039   3.966   3.400
 5684SOL    HW217952   3.057   3.860   3.523
 5685SOL     OW17953   1.103   5.414   1.860
 5685SOL    HW117954   1.010   5.419   1.896
 5685SOL    HW217955   1.163   5.473   1.915
 5686SOL     OW17956   3.879   5.714   0.215
 5686SOL    HW117957   3.934   5.633   0.238
 5686SOL    HW217958   3.837   5.700   0.125
 5687SOL     OW17959   4.083   5.332   6.072
 5687SOL    HW117960   4.180   5.312   6.080
 5687SOL    HW217961   4.047   5.293   5.987
 5688SOL     OW17962   5.912   1.905   2.605
 5688SOL    HW117963   5.837   1.913   2.670
 5688SOL    HW217964   5.997   1.882   2.653
 5689SOL     OW17965   4.264   3.149   5.983
 5689SOL    HW117966   4.303   3.147   6.075
 5689SOL    HW217967   4.234   3.241   5.962
 5690SOL     OW17968   5.086   6.564   2.235
 5690SOL    HW117969   5.052   6.499   2.303
 5690SOL    HW217970   5.032   6.555   2.151
 5691SOL     OW17971   2.195   6.989   3.163
 5691SOL    HW117972   2.237   0.053   3.196
 5691SOL    HW217973   2.201   6.920   3.234
 5692SOL     OW17974   5.800   3.175   6.937
 5692SOL    HW117975   5.861   3.207   7.010
 5692SOL    HW217976   5.854   3.159   6.854
 5693SOL     OW17977   4.622   2.712   2.860
 5693SOL    HW117978   4.686   2.689   2.787
 5693SOL    HW217979   4.641   2.806   2.891
 5694SOL     OW17980   1.172   2.019   4.503
 5694SOL    HW117981   1.246   2.075   4.466
 5694SOL    HW217982   1.189   2.000   4.599
 5695SOL     OW17983   1.677   3.597   3.686
 5695SOL    HW117984   1.670   3.597   3.586
 5695SOL    HW217985   1.740   3.669   3.715
 5696SOL     OW17986   3.673   0.051   5.972
 5696SOL    HW117987   3.611   0.006   6.037
 5696SOL    HW217988   3.633   0.137   5.942
 5697SOL     OW17989   6.383   3.413   0.188
 5697SOL    HW117990   6.338   3.475   0.252
 5697SOL    HW217991   6.323   3.397   0.110
 5698SOL     OW17992   0.872   4.364   2.693
 5698SOL    HW117993   0.800   4.303   2.659
 5698SOL    HW217994   0.916   4.410   2.616
 5699SOL     OW17995   6.379   1.765   4.892
 5699SOL    HW117996   6.455   1.706   4.867
 5699SOL    HW217997   6.295   1.712   4.896
 5700SOL     OW17998   1.124   5.411   3.190
 5700SOL    HW117999   1.074   5.403   3.276
 5700SOL    HW218000   1.075   5.473   3.129
 5701SOL     OW18001   5.363   4.941   1.990
 5701SOL    HW118002   5.454   4.950   1.950
 5701SOL    HW218003   5.349   4.845   2.017
 5702SOL     OW18004   2.281   0.347   6.736
 5702SOL    HW118005   2.266   0.421   6.801
 5702SOL    HW218006   2.346   0.282   6.775
 5703SOL     OW18007   4.640   4.148   1.150
 5703SOL    HW118008   4.636   4.120   1.246
 5703SOL    HW218009   4.547   4.165   1.117
 5704SOL     OW18010   4.500   5.468   4.030
 5704SOL    HW118011   4.500   5.514   4.118
 5704SOL    HW218012   4.434   5.393   4.032
 5705SOL     OW18013   6.079   1.610   2.824
 5705SOL    HW118014   6.115   1.684   2.766
 5705SOL    HW218015   6.094   1.522   2.779
 5706SOL     OW18016   2.702   1.026   6.531
 5706SOL    HW118017   2.673   1.038   6.626
 5706SOL    HW218018   2.622   1.031   6.471
 5707SOL     OW18019   2.896   2.178   5.994
 5707SOL    HW118020   2.906   2.099   5.933
 5707SOL    HW218021   2.799   2.198   6.005
 5708SOL     OW18022   6.056   0.418   2.087
 5708SOL    HW118023   6.103   0.504   2.066
 5708SOL    HW218024   6.022   0.377   2.002
 5709SOL     OW18025   0.744   1.426   2.798
 5709SOL    HW118026   0.763   1.406   2.894
 5709SOL    HW218027   0.811   1.378   2.741
 5710SOL     OW18028   2.988   4.424   6.502
 5710SOL    HW118029   2.914   4.424   6.570
 5710SOL    HW218030   2.982   4.507   6.447
 5711SOL     OW18031   4.824   1.732   4.692
 5711SOL    HW118032   4.750   1.785   4.651
 5711SOL    HW218033   4.912   1.769   4.664
 5712SOL     OW18034   6.977   5.940   6.043
 5712SOL    HW118035   7.008   6.016   6.100
 5712SOL    HW218036   7.009   5.854   6.082
 5713SOL     OW18037   0.071   2.620   2.529
 5713SOL    HW118038   0.115   2.682   2.465
 5713SOL    HW218039   0.141   2.567   2.578
 5714SOL     OW18040   2.040   0.814   6.409
 5714SOL    HW118041   2.131   0.794   6.447
 5714SOL    HW218042   1.995   0.728   6.385
 5715SOL     OW18043   1.465   0.102   3.452
 5715SOL    HW118044   1.522   0.045   3.510
 5715SOL    HW218045   1.419   0.171   3.507
 5716SOL     OW18046   1.880   2.887   5.052
 5716SOL    HW118047   1.881   2.824   5.129
 5716SOL    HW218048   1.959   2.949   5.060
 5717SOL     OW18049   0.731   3.944   0.508
 5717SOL    HW118050   0.810   4.000   0.484
 5717SOL    HW218051   0.750   3.895   0.593
 5718SOL     OW18052   2.213   4.789   5.314
 5718SOL    HW118053   2.121   4.810   5.346
 5718SOL    HW218054   2.235   4.694   5.333
 5719SOL     OW18055   2.465   0.222   6.896
 5719SOL    HW118056   2.533   0.162   6.853
 5719SOL    HW218057   2.432   0.180   6.980
 5720SOL     OW18058   2.037   5.219   3.946
 5720SOL    HW118059   2.070   5.276   3.871
 5720SOL    HW218060   2.047   5.269   4.033
 5721SOL     OW18061   0.485   4.515   1.192
 5721SOL    HW118062   0.496   4.594   1.251
 5721SOL    HW218063   0.509   4.432   1.243
 5722SOL     OW18064   5.290   1.165   4.055
 5722SOL    HW118065   5.238   1.097   4.107
 5722SOL    HW218066   5.339   1.226   4.118
 5723SOL     OW18067   1.396   4.573   0.976
 5723SOL    HW118068   1.364   4.487   0.936
 5723SOL    HW218069   1.381   4.571   1.075
 5724SOL     OW18070   5.121   1.778   6.611
 5724SOL    HW118071   5.193   1.774   6.681
 5724SOL    HW218072   5.095   1.873   6.596
 5725SOL     OW18073   5.176   5.518   6.085
 5725SOL    HW118074   5.224   5.436   6.056
 5725SOL    HW218075   5.085   5.494   6.120
 5726SOL     OW18076   4.628   3.073   6.032
 5726SOL    HW118077   4.725   3.064   6.010
 5726SOL    HW218078   4.576   3.005   5.980
 5727SOL     OW18079   5.801   2.199   3.940
 5727SOL    HW118080   5.858   2.130   3.985
 5727SOL    HW218081   5.740   2.154   3.875
 5728SOL     OW18082   5.669   0.822   6.419
 5728SOL    HW118083   5.601   0.757   6.383
 5728SOL    HW218084   5.673   0.812   6.519
 5729SOL     OW18085   0.648   3.277   5.454
 5729SOL    HW118086   0.607   3.308   5.540
 5729SOL    HW218087   0.741   3.312   5.447
 5730SOL     OW18088   3.908   5.565   6.810
 5730SOL    HW118089   3.966   5.570   6.728
 5730SOL    HW218090   3.951   5.505   6.878
 5731SOL     OW18091   3.817   0.822   4.667
 5731SOL    HW118092   3.806   0.857   4.574
 5731SOL    HW218093   3.841   0.898   4.728
 5732SOL     OW18094   5.845   4.143   3.922
 5732SOL    HW118095   5.825   4.065   3.982
 5732SOL    HW218096   5.925   4.122   3.867
 5733SOL     OW18097   2.809   0.069   0.631
 5733SOL    HW118098   2.866   7.013   0.602
 5733SOL    HW218099   2.867   0.143   0.663
 5734SOL     OW18100   2.205   5.902   6.332
 5734SOL    HW118101   2.178   5.884   6.427
 5734SOL    HW218102   2.299   5.874   6.318
 5735SOL     OW18103   5.039   0.454   2.355
 5735SOL    HW118104   5.089   0.373   2.324
 5735SOL    HW218105   5.104   0.525   2.383
 5736SOL     OW18106   5.991   4.599   6.900
 5736SOL    HW118107   6.083   4.610   6.863
 5736SOL    HW218108   5.965   4.502   6.896
 5737SOL     OW18109   4.484   5.060   1.341
 5737SOL    HW118110   4.570   5.110   1.329
 5737SOL    HW218111   4.472   5.037   1.438
 5738SOL     OW18112   2.953   0.853   0.145
 5738SOL    HW118113   3.002   0.768   0.125
 5738SOL    HW218114   2.898   0.841   0.227
 5739SOL     OW18115   2.030   1.054   5.675
 5739SOL    HW118116   1.948   1.042   5.619
 5739SOL    HW218117   2.085   1.129   5.639
 5740SOL     OW18118   5.070   3.271   1.945
 5740SOL    HW118119   4.993   3.232   1.896
 5740SOL    HW218120   5.084   3.221   2.030
 5741SOL     OW18121   0.254   3.582   4.267
 5741SOL    HW118122   0.250   3.484   4.286
 5741SOL    HW218123   0.266   3.632   4.353
 5742SOL     OW18124   5.121   0.562   3.194
 5742SOL    HW118125   5.174   0.595   3.116
 5742SOL    HW218126   5.144   0.615   3.276
 5743SOL     OW18127   3.407   5.806   0.049
 5743SOL    HW118128   3.463   5.822   6.989
 5743SOL    HW218129   3.319   5.767   0.022
 5744SOL     OW18130   5.036   0.056   3.154
 5744SOL    HW118131   4.967   0.017   3.215
 5744SOL    HW218132   5.015   0.030   3.059
 5745SOL     OW18133   1.126   3.109   1.955
 5745SOL    HW118134   1.075   3.080   1.874
 5745SOL    HW218135   1.165   3.200   1.939
 5746SOL     OW18136   4.747   6.782   3.267
 5746SOL    HW118137   4.800   6.816   3.344
 5746SOL    HW218138   4.656   6.755   3.298
 5747SOL     OW18139   1.537   6.451   1.020
 5747SOL    HW118140   1.630   6.462   0.987
 5747SOL    HW218141   1.532   6.478   1.117
 5748SOL     OW18142   0.128   5.909   1.004
 5748SOL    HW118143   0.097   5.868   0.918
 5748SOL    HW218144   0.079   5.995   1.020
 5749SOL     OW18145   1.997   5.851   6.164
 5749SOL    HW118146   2.084   5.888   6.197
 5749SOL    HW218147   2.014   5.772   6.106
 5750SOL     OW18148   6.527   3.088   4.394
 5750SOL    HW118149   6.541   3.153   4.319
 5750SOL    HW218150   6.478   3.133   4.468
 5751SOL     OW18151   1.064   3.788   4.795
 5751SOL    HW118152   1.006   3.868   4.812
 5751SOL    HW218153   1.125   3.806   4.719
 5752SOL     OW18154   4.912   0.525   0.657
 5752SOL    HW118155   4.876   0.538   0.749
 5752SOL    HW218156   4.991   0.585   0.644
 5753SOL     OW18157   3.802   4.261   5.194
 5753SOL    HW118158   3.838   4.184   5.140
 5753SOL    HW218159   3.704   4.248   5.208
 5754SOL     OW18160   0.786   5.553   1.148
 5754SOL    HW118161   0.830   5.465   1.133
 5754SOL    HW218162   0.772   5.599   1.061
 5755SOL     OW18163   1.412   2.504   0.049
 5755SOL    HW118164   1.344   2.452   0.100
 5755SOL    HW218165   1.385   2.601   0.047
 5756SOL     OW18166   6.157   6.214   1.745
 5756SOL    HW118167   6.166   6.224   1.646
 5756SOL    HW218168   6.105   6.131   1.766
 5757SOL     OW18169   6.540   0.998   4.598
 5757SOL    HW118170   6.520   0.940   4.677
 5757SOL    HW218171   6.588   0.944   4.529
 5758SOL     OW18172   6.051   6.861   2.922
 5758SOL    HW118173   6.108   6.785   2.952
 5758SOL    HW218174   5.982   6.881   2.993
 5759SOL     OW18175   3.267   6.988   1.079
 5759SOL    HW118176   3.212   6.979   0.996
 5759SOL    HW218177   3.364   6.974   1.056
 5760SOL     OW18178   1.118   3.008   0.549
 5760SOL    HW118179   1.190   2.987   0.484
 5760SOL    HW218180   1.119   2.942   0.624
 5761SOL     OW18181   6.053   0.289   4.366
 5761SOL    HW118182   6.103   0.297   4.280
 5761SOL    HW218183   6.090   0.213   4.419
 5762SOL     OW18184   6.678   5.402   6.578
 5762SOL    HW118185   6.633   5.354   6.502
 5762SOL    HW218186   6.765   5.357   6.599
 5763SOL     OW18187   5.980   6.941   0.069
 5763SOL    HW118188   6.038   6.954   0.149
 5763SOL    HW218189   5.887   6.917   0.099
 5764SOL     OW18190   5.074   6.655   3.752
 5764SOL    HW118191   5.125   6.650   3.837
 5764SOL    HW218192   4.976   6.658   3.771
 5765SOL     OW18193   5.941   5.243   2.224
 5765SOL    HW118194   5.961   5.251   2.321
 5765SOL    HW218195   6.021   5.206   2.176
 5766SOL     OW18196   0.303   1.373   4.572
 5766SOL    HW118197   0.232   1.399   4.637
 5766SOL    HW218198   0.376   1.324   4.621
 5767SOL     OW18199   3.783   6.345   7.001
 5767SOL    HW118200   3.685   6.346   6.981
 5767SOL    HW218201   3.827   6.424   6.958
 5768SOL     OW18202   0.373   0.547   4.754
 5768SOL    HW118203   0.468   0.569   4.735
 5768SOL    HW218204   0.359   0.448   4.745
 5769SOL     OW18205   1.552   4.067   6.261
 5769SOL    HW118206   1.541   4.120   6.345
 5769SOL    HW218207   1.602   4.121   6.194
 5770SOL     OW18208   1.810   4.592   2.066
 5770SOL    HW118209   1.829   4.690   2.059
 5770SOL    HW218210   1.862   4.554   2.142
 5771SOL     OW18211   3.224   5.387   3.428
 5771SOL    HW118212   3.224   5.287   3.434
 5771SOL    HW218213   3.223   5.415   3.333
 5772SOL     OW18214   2.833   0.073   2.629
 5772SOL    HW118215   2.921   0.027   2.614
 5772SOL    HW218216   2.760   0.017   2.589
 5773SOL     OW18217   4.515   1.456   2.491
 5773SOL    HW118218   4.486   1.550   2.471
 5773SOL    HW218219   4.583   1.427   2.424
 5774SOL     OW18220   0.641   6.626   2.380
 5774SOL    HW118221   0.657   6.647   2.477
 5774SOL    HW218222   0.543   6.627   2.361
 5775SOL     OW18223   6.837   5.431   1.764
 5775SOL    HW118224   6.824   5.494   1.688
 5775SOL    HW218225   6.767   5.449   1.834
 5776SOL     OW18226   2.410   1.302   4.197
 5776SOL    HW118227   2.321   1.348   4.195
 5776SOL    HW218228   2.449   1.302   4.105
 5777SOL     OW18229   1.793   6.332   2.478
 5777SOL    HW118230   1.773   6.267   2.552
 5777SOL    HW218231   1.744   6.417   2.494
 5778SOL     OW18232   0.726   1.894   1.038
 5778SOL    HW118233   0.657   1.902   0.966
 5778SOL    HW218234   0.742   1.798   1.059
 5779SOL     OW18235   5.975   1.286   5.794
 5779SOL    HW118236   5.959   1.188   5.806
 5779SOL    HW218237   5.978   1.330   5.884
 5780SOL     OW18238   5.191   5.896   4.323
 5780SOL    HW118239   5.137   5.832   4.379
 5780SOL    HW218240   5.275   5.850   4.292
 5781SOL     OW18241   0.443   5.172   5.105
 5781SOL    HW118242   0.364   5.205   5.053
 5781SOL    HW218243   0.413   5.145   5.197
 5782SOL     OW18244   0.438   0.346   0.055
 5782SOL    HW118245   0.373   0.419   0.033
 5782SOL    HW218246   0.436   0.277   7.003
 5783SOL     OW18247   1.053   2.157   0.751
 5783SOL    HW118248   1.106   2.236   0.782
 5783SOL    HW218249   0.978   2.140   0.814
 5784SOL     OW18250   6.495   6.031   6.532
 5784SOL    HW118251   6.565   5.984   6.587
 5784SOL    HW218252   6.488   6.126   6.561
 5785SOL     OW18253   1.080   1.509   0.385
 5785SOL    HW118254   1.062   1.446   0.309
 5785SOL    HW218255   1.135   1.586   0.353
 5786SOL     OW18256   5.656   5.124   1.515
 5786SOL    HW118257   5.740   5.116   1.461
 5786SOL    HW218258   5.618   5.032   1.529
 5787SOL     OW18259   2.787   2.588   6.132
 5787SOL    HW118260   2.721   2.627   6.067
 5787SOL    HW218261   2.755   2.606   6.226
 5788SOL     OW18262   2.354   1.188   3.933
 5788SOL    HW118263   2.404   1.249   3.871
 5788SOL    HW218264   2.385   1.094   3.920
 5789SOL     OW18265   4.102   5.003   6.210
 5789SOL    HW118266   4.139   4.915   6.239
 5789SOL    HW218267   4.030   4.988   6.142
 5790SOL     OW18268   0.702   2.869   3.631
 5790SOL    HW118269   0.709   2.834   3.724
 5790SOL    HW218270   0.718   2.968   3.631
 5791SOL     OW18271   2.266   0.805   3.157
 5791SOL    HW118272   2.191   0.868   3.135
 5791SOL    HW218273   2.300   0.763   3.073
 5792SOL     OW18274   6.735   2.447   2.709
 5792SOL    HW118275   6.821   2.464   2.758
 5792SOL    HW218276   6.752   2.452   2.610
 5793SOL     OW18277   0.317   0.503   3.759
 5793SOL    HW118278   0.303   0.407   3.785
 5793SOL    HW218279   0.372   0.548   3.829
 5794SOL     OW18280   4.580   4.121   6.811
 5794SOL    HW118281   4.626   4.107   6.899
 5794SOL    HW218282   4.526   4.205   6.814
 5795SOL     OW18283   5.866   4.371   6.848
 5795SOL    HW118284   5.784   4.427   6.850
 5795SOL    HW218285   5.863   4.311   6.768
 5796SOL     OW18286   3.918   1.556   0.481
 5796SOL    HW118287   3.878   1.646   0.496
 5796SOL    HW218288   3.968   1.528   0.562
 5797SOL     OW18289   2.770   1.924   5.253
 5797SOL    HW118290   2.849   1.970   5.211
 5797SOL    HW218291   2.724   1.868   5.184
 5798SOL     OW18292   6.945   4.572   4.539
 5798SOL    HW118293   6.931   4.670   4.556
 5798SOL    HW218294   6.938   4.553   4.441
 5799SOL     OW18295   5.152   0.308   3.891
 5799SOL    HW118296   5.244   0.348   3.888
 5799SOL    HW218297   5.113   0.309   3.799
 5800SOL     OW18298   6.124   5.362   1.062
 5800SOL    HW118299   6.160   5.411   1.141
 5800SOL    HW218300   6.038   5.318   1.086
 5801SOL     OW18301   2.059   2.026   3.505
 5801SOL    HW118302   2.067   1.938   3.553
 5801SOL    HW218303   1.970   2.031   3.459
 5802SOL     OW18304   0.869   3.390   5.361
 5802SOL    HW118305   0.906   3.309   5.316
 5802SOL    HW218306   0.918   3.471   5.331
 5803SOL     OW18307   1.335   4.966   0.130
 5803SOL    HW118308   1.331   4.895   0.200
 5803SOL    HW218309   1.335   5.056   0.173
 5804SOL     OW18310   6.156   3.363   4.190
 5804SOL    HW118311   6.064   3.402   4.180
 5804SOL    HW218312   6.203   3.368   4.102
 5805SOL     OW18313   5.302   3.442   6.880
 5805SOL    HW118314   5.349   3.353   6.877
 5805SOL    HW218315   5.235   3.447   6.806
 5806SOL     OW18316   1.012   6.436   0.302
 5806SOL    HW118317   0.962   6.358   0.340
 5806SOL    HW218318   0.985   6.451   0.207
 5807SOL     OW18319   1.817   3.430   1.965
 5807SOL    HW118320   1.854   3.357   2.022
 5807SOL    HW218321   1.741   3.475   2.013
 5808SOL     OW18322   6.594   3.661   2.821
 5808SOL    HW118323   6.596   3.737   2.887
 5808SOL    HW218324   6.587   3.698   2.728
 5809SOL     OW18325   6.715   3.469   4.159
 5809SOL    HW118326   6.769   3.510   4.086
 5809SOL    HW218327   6.667   3.540   4.210
 5810SOL     OW18328   2.561   2.095   2.366
 5810SOL    HW118329   2.642   2.064   2.417
 5810SOL    HW218330   2.479   2.051   2.403
 5811SOL     OW18331   2.296   1.537   3.709
 5811SOL    HW118332   2.333   1.449   3.740
 5811SOL    HW218333   2.364   1.609   3.724
 5812SOL     OW18334   4.526   0.937   4.525
 5812SOL    HW118335   4.570   0.899   4.606
 5812SOL    HW218336   4.476   1.020   4.549
 5813SOL     OW18337   1.642   0.473   5.508
 5813SOL    HW118338   1.694   0.494   5.590
 5813SOL    HW218339   1.613   0.557   5.463
 5814SOL     OW18340   0.070   5.126   0.904
 5814SOL    HW118341   0.004   5.115   0.978
 5814SOL    HW218342   0.163   5.120   0.941
 5815SOL     OW18343   2.951   1.584   2.506
 5815SOL    HW118344   2.995   1.591   2.595
 5815SOL    HW218345   3.011   1.625   2.436
 5816SOL     OW18346   4.877   0.289   0.522
 5816SOL    HW118347   4.935   0.213   0.553
 5816SOL    HW218348   4.906   0.374   0.566
 5817SOL     OW18349   4.856   3.210   5.033
 5817SOL    HW118350   4.804   3.205   5.118
 5817SOL    HW218351   4.885   3.118   5.005
 5818SOL     OW18352   5.951   6.641   6.532
 5818SOL    HW118353   5.899   6.635   6.617
 5818SOL    HW218354   5.889   6.626   6.455
 5819SOL     OW18355   6.158   0.357   1.483
 5819SOL    HW118356   6.176   0.401   1.395
 5819SOL    HW218357   6.108   0.271   1.467
 5820SOL     OW18358   5.605   6.391   3.317
 5820SOL    HW118359   5.518   6.343   3.318
 5820SOL    HW218360   5.653   6.372   3.232
 5821SOL     OW18361   2.452   0.775   1.658
 5821SOL    HW118362   2.380   0.828   1.704
 5821SOL    HW218363   2.518   0.743   1.725
 5822SOL     OW18364   0.045   1.342   2.055
 5822SOL    HW118365   0.013   1.431   2.023
 5822SOL    HW218366   6.996   1.273   2.037
 5823SOL     OW18367   2.260   1.578   4.226
 5823SOL    HW118368   2.217   1.661   4.190
 5823SOL    HW218369   2.193   1.527   4.281
 5824SOL     OW18370   4.598   7.014   3.690
 5824SOL    HW118371   4.629   0.068   3.748
 5824SOL    HW218372   4.561   6.940   3.746
 5825SOL     OW18373   2.887   0.578   0.464
 5825SOL    HW118374   2.822   0.530   0.405
 5825SOL    HW218375   2.859   0.674   0.473
 5826SOL     OW18376   6.355   0.520   4.667
 5826SOL    HW118377   6.365   0.450   4.596
 5826SOL    HW218378   6.430   0.511   4.733
 5827SOL     OW18379   1.106   5.786   5.170
 5827SOL    HW118380   1.137   5.760   5.261
 5827SOL    HW218381   1.126   5.712   5.105
 5828SOL     OW18382   0.159   3.534   1.946
 5828SOL    HW118383   0.079   3.493   1.902
 5828SOL    HW218384   0.174   3.490   2.035
 5829SOL     OW18385   1.904   1.505   1.928
 5829SOL    HW118386   1.826   1.558   1.898
 5829SOL    HW218387   1.876   1.442   2.000
 5830SOL     OW18388   2.446   1.778   5.993
 5830SOL    HW118389   2.420   1.792   6.089
 5830SOL    HW218390   2.452   1.680   5.974
 5831SOL     OW18391   5.381   6.873   3.265
 5831SOL    HW118392   5.317   6.796   3.261
 5831SOL    HW218393   5.332   6.958   3.249
 5832SOL     OW18394   4.221   3.642   5.540
 5832SOL    HW118395   4.200   3.700   5.461
 5832SOL    HW218396   4.191   3.549   5.521
 5833SOL     OW18397   3.305   2.961   4.769
 5833SOL    HW118398   3.284   2.872   4.810
 5833SOL    HW218399   3.403   2.969   4.755
 5834SOL     OW18400   5.819   1.209   0.778
 5834SOL    HW118401   5.818   1.118   0.736
 5834SOL    HW218402   5.727   1.248   0.777
 5835SOL     OW18403   5.303   2.365   3.687
 5835SOL    HW118404   5.296   2.442   3.751
 5835SOL    HW218405   5.226   2.367   3.623
 5836SOL     OW18406   3.405   6.205   2.400
 5836SOL    HW118407   3.367   6.297   2.394
 5836SOL    HW218408   3.480   6.194   2.334
 5837SOL     OW18409   4.866   4.425   6.340
 5837SOL    HW118410   4.949   4.400   6.391
 5837SOL    HW218411   4.829   4.343   6.295
 5838SOL     OW18412   0.993   0.897   5.363
 5838SOL    HW118413   0.899   0.887   5.395
 5838SOL    HW218414   1.044   0.813   5.382
 5839SOL     OW18415   0.007   3.192   2.856
 5839SOL    HW118416   0.040   3.107   2.815
 5839SOL    HW218417   6.967   3.170   2.933
 5840SOL     OW18418   1.929   5.265   0.003
 5840SOL    HW118419   1.909   5.341   0.064
 5840SOL    HW218420   2.022   5.274   6.988
 5841SOL     OW18421   0.228   2.164   3.731
 5841SOL    HW118422   0.226   2.217   3.815
 5841SOL    HW218423   0.162   2.088   3.737
 5842SOL     OW18424   3.441   2.968   0.570
 5842SOL    HW118425   3.528   3.004   0.602
 5842SOL    HW218426   3.423   3.002   0.477
 5843SOL     OW18427   1.376   3.755   2.064
 5843SOL    HW118428   1.470   3.774   2.039
 5843SOL    HW218429   1.323   3.733   1.982
 5844SOL     OW18430   1.115   6.367   6.827
 5844SOL    HW118431   1.208   6.400   6.845
 5844SOL    HW218432   1.112   6.268   6.840
 5845SOL     OW18433   0.911   2.434   4.085
 5845SOL    HW118434   0.902   2.394   4.176
 5845SOL    HW218435   0.947   2.366   4.022
 5846SOL     OW18436   0.260   3.219   6.127
 5846SOL    HW118437   0.290   3.309   6.159
 5846SOL    HW218438   0.162   3.220   6.111
 5847SOL     OW18439   2.383   2.609   2.515
 5847SOL    HW118440   2.438   2.666   2.453
 5847SOL    HW218441   2.288   2.609   2.485
 5848SOL     OW18442   1.394   4.630   3.290
 5848SOL    HW118443   1.482   4.589   3.267
 5848SOL    HW218444   1.398   4.668   3.382
 5849SOL     OW18445   2.239   6.903   5.495
 5849SOL    HW118446   2.192   6.861   5.572
 5849SOL    HW218447   2.176   6.964   5.446
 5850SOL     OW18448   0.886   5.210   2.501
 5850SOL    HW118449   0.940   5.179   2.579
 5850SOL    HW218450   0.941   5.272   2.445
 5851SOL     OW18451   5.855   3.702   2.362
 5851SOL    HW118452   5.818   3.654   2.441
 5851SOL    HW218453   5.885   3.635   2.294
 5852SOL     OW18454   4.446   5.816   3.005
 5852SOL    HW118455   4.425   5.802   3.101
 5852SOL    HW218456   4.536   5.859   2.996
 5853SOL     OW18457   3.639   4.532   5.557
 5853SOL    HW118458   3.578   4.452   5.547
 5853SOL    HW218459   3.697   4.540   5.477
 5854SOL     OW18460   6.838   1.272   6.134
 5854SOL    HW118461   6.858   1.285   6.037
 5854SOL    HW218462   6.825   1.361   6.178
 5855SOL     OW18463   0.764   0.816   4.823
 5855SOL    HW118464   0.753   0.804   4.724
 5855SOL    HW218465   0.803   0.906   4.842
 5856SOL     OW18466   2.066   4.505   4.032
 5856SOL    HW118467   1.968   4.484   4.034
 5856SOL    HW218468   2.117   4.421   4.014
 5857SOL     OW18469   6.449   3.209   5.412
 5857SOL    HW118470   6.485   3.186   5.502
 5857SOL    HW218471   6.397   3.131   5.376
 5858SOL     OW18472   3.783   0.958   2.422
 5858SOL    HW118473   3.786   0.966   2.323
 5858SOL    HW218474   3.863   1.004   2.462
 5859SOL     OW18475   6.122   6.586   0.603
 5859SOL    HW118476   6.211   6.601   0.645
 5859SOL    HW218477   6.135   6.554   0.509
 5860SOL     OW18478   1.782   3.787   1.400
 5860SOL    HW118479   1.743   3.819   1.486
 5860SOL    HW218480   1.752   3.694   1.381
 5861SOL     OW18481   6.326   2.446   4.286
 5861SOL    HW118482   6.233   2.437   4.322
 5861SOL    HW218483   6.336   2.536   4.243
 5862SOL     OW18484   4.527   4.506   2.990
 5862SOL    HW118485   4.601   4.543   3.047
 5862SOL    HW218486   4.442   4.554   3.011
 5863SOL     OW18487   2.374   1.049   0.053
 5863SOL    HW118488   2.363   1.080   0.147
 5863SOL    HW218489   2.362   1.126   7.011
 5864SOL     OW18490   4.672   4.689   1.566
 5864SOL    HW118491   4.748   4.661   1.625
 5864SOL    HW218492   4.696   4.773   1.518
 5865SOL     OW18493   4.374   1.020   3.339
 5865SOL    HW118494   4.411   1.106   3.375
 5865SOL    HW218495   4.416   0.943   3.387
 5866SOL     OW18496   4.131   0.077   6.149
 5866SOL    HW118497   4.186   0.007   6.193
 5866SOL    HW218498   4.124   0.157   6.210
 5867SOL     OW18499   0.222   2.938   1.321
 5867SOL    HW118500   0.237   2.934   1.419
 5867SOL    HW218501   0.292   2.885   1.274
 5868SOL     OW18502   1.652   6.747   5.350
 5868SOL    HW118503   1.602   6.684   5.408
 5868SOL    HW218504   1.700   6.815   5.407
 5869SOL     OW18505   2.572   4.779   3.908
 5869SOL    HW118506   2.592   4.827   3.822
 5869SOL    HW218507   2.570   4.680   3.892
 5870SOL     OW18508   5.045   5.045   4.885
 5870SOL    HW118509   5.070   4.948   4.891
 5870SOL    HW218510   5.094   5.087   4.810
 5871SOL     OW18511   3.083   3.356   6.620
 5871SOL    HW118512   3.000   3.309   6.648
 5871SOL    HW218513   3.066   3.454   6.616
 5872SOL     OW18514   3.313   6.193   5.768
 5872SOL    HW118515   3.275   6.190   5.860
 5872SOL    HW218516   3.395   6.251   5.768
 5873SOL     OW18517   2.926   3.733   6.997
 5873SOL    HW118518   2.900   3.815   6.946
 5873SOL    HW218519   3.010   3.694   6.959
 5874SOL     OW18520   1.774   4.165   0.908
 5874SOL    HW118521   1.790   4.178   1.006
 5874SOL    HW218522   1.677   4.176   0.889
 5875SOL     OW18523   4.071   1.916   0.256
 5875SOL    HW118524   4.134   1.839   0.248
 5875SOL    HW218525   4.094   1.969   0.338
 5876SOL     OW18526   3.140   4.530   6.007
 5876SOL    HW118527   3.146   4.619   6.051
 5876SOL    HW218528   3.224   4.513   5.955
 5877SOL     OW18529   0.395   0.064   2.807
 5877SOL    HW118530   0.340   7.005   2.784
 5877SOL    HW218531   0.492   0.039   2.804
 5878SOL     OW18532   5.129   4.886   2.875
 5878SOL    HW118533   5.161   4.798   2.910
 5878SOL    HW218534   5.031   4.897   2.896
 5879SOL     OW18535   3.788   3.479   6.060
 5879SOL    HW118536   3.773   3.415   6.135
 5879SOL    HW218537   3.714   3.470   5.993
 5880SOL     OW18538   5.144   2.350   5.665
 5880SOL    HW118539   5.190   2.282   5.608
 5880SOL    HW218540   5.049   2.360   5.634
 5881SOL     OW18541   1.274   5.885   2.153
 5881SOL    HW118542   1.253   5.852   2.061
 5881SOL    HW218543   1.190   5.910   2.201
 5882SOL     OW18544   2.135   5.395   5.576
 5882SOL    HW118545   2.202   5.321   5.583
 5882SOL    HW218546   2.045   5.356   5.555
 5883SOL     OW18547   0.276   4.718   0.856
 5883SOL    HW118548   0.205   4.754   0.916
 5883SOL    HW218549   0.306   4.628   0.889
 5884SOL     OW18550   6.224   2.267   3.416
 5884SOL    HW118551   6.275   2.182   3.416
 5884SOL    HW218552   6.126   2.248   3.405
 5885SOL     OW18553   6.783   5.272   0.200
 5885SOL    HW118554   6.786   5.303   0.105
 5885SOL    HW218555   6.875   5.243   0.228
 5886SOL     OW18556   1.593   3.980   3.627
 5886SOL    HW118557   1.587   3.964   3.725
 5886SOL    HW218558   1.585   4.077   3.608
 5887SOL     OW18559   2.216   2.639   1.078
 5887SOL    HW118560   2.268   2.675   1.155
 5887SOL    HW218561   2.133   2.693   1.066
 5888SOL     OW18562   3.613   6.541   0.938
 5888SOL    HW118563   3.633   6.454   0.984
 5888SOL    HW218564   3.610   6.526   0.839
 5889SOL     OW18565   5.818   0.810   2.048
 5889SOL    HW118566   5.825   0.745   1.971
 5889SOL    HW218567   5.909   0.845   2.068
 5890SOL     OW18568   2.282   5.865   2.917
 5890SOL    HW118569   2.215   5.802   2.956
 5890SOL    HW218570   2.326   5.822   2.838
 5891SOL     OW18571   2.180   3.257   0.433
 5891SOL    HW118572   2.114   3.291   0.366
 5891SOL    HW218573   2.212   3.167   0.405
 5892SOL     OW18574   1.094   3.696   1.024
 5892SOL    HW118575   1.028   3.666   0.955
 5892SOL    HW218576   1.159   3.759   0.982
 5893SOL     OW18577   0.703   6.291   1.378
 5893SOL    HW118578   0.670   6.199   1.357
 5893SOL    HW218579   0.704   6.304   1.477
 5894SOL     OW18580   2.814   5.703   6.592
 5894SOL    HW118581   2.771   5.779   6.640
 5894SOL    HW218582   2.834   5.729   6.498
 5895SOL     OW18583   5.073   4.189   3.929
 5895SOL    HW118584   5.112   4.184   4.020
 5895SOL    HW218585   5.023   4.104   3.909
 5896SOL     OW18586   5.734   2.318   2.096
 5896SOL    HW118587   5.746   2.297   2.193
 5896SOL    HW218588   5.805   2.383   2.066
 5897SOL     OW18589   4.251   2.903   0.557
 5897SOL    HW118590   4.350   2.904   0.574
 5897SOL    HW218591   4.225   2.986   0.506
 5898SOL     OW18592   1.997   1.653   5.448
 5898SOL    HW118593   2.095   1.635   5.437
 5898SOL    HW218594   1.984   1.727   5.514
 5899SOL     OW18595   7.003   5.917   6.407
 5899SOL    HW118596   6.919   5.889   6.359
 5899SOL    HW218597   0.046   5.957   6.342
 5900SOL     OW18598   5.736   6.282   3.069
 5900SOL    HW118599   5.826   6.249   3.098
 5900SOL    HW218600   5.747   6.363   3.011
 5901SOL     OW18601   1.906   1.155   5.182
 5901SOL    HW118602   1.937   1.203   5.100
 5901SOL    HW218603   1.969   1.175   5.258
 5902SOL     OW18604   5.037   3.897   6.132
 5902SOL    HW118605   4.942   3.867   6.126
 5902SOL    HW218606   5.093   3.848   6.065
 5903SOL     OW18607   6.319   1.994   5.971
 5903SOL    HW118608   6.286   1.912   6.019
 5903SOL    HW218609   6.302   2.074   6.027
 5904SOL     OW18610   1.751   4.325   1.927
 5904SOL    HW118611   1.701   4.324   1.840
 5904SOL    HW218612   1.760   4.420   1.959
 5905SOL     OW18613   5.638   0.977   3.982
 5905SOL    HW118614   5.600   0.966   4.074
 5905SOL    HW218615   5.607   1.063   3.943
 5906SOL     OW18616   4.946   1.381   5.521
 5906SOL    HW118617   4.901   1.465   5.491
 5906SOL    HW218618   4.879   1.306   5.524
 5907SOL     OW18619   1.706   3.801   5.814
 5907SOL    HW118620   1.663   3.819   5.902
 5907SOL    HW218621   1.706   3.702   5.797
 5908SOL     OW18622   5.236   3.329   6.195
 5908SOL    HW118623   5.246   3.423   6.227
 5908SOL    HW218624   5.302   3.311   6.122
 5909SOL     OW18625   6.677   4.555   3.884
 5909SOL    HW118626   6.617   4.627   3.847
 5909SOL    HW218627   6.672   4.475   3.825
 5910SOL     OW18628   2.591   3.976   0.758
 5910SOL    HW118629   2.567   4.053   0.816
 5910SOL    HW218630   2.546   3.985   0.669
 5911SOL     OW18631   5.500   6.650   6.644
 5911SOL    HW118632   5.572   6.666   6.711
 5911SOL    HW218633   5.441   6.575   6.674
 5912SOL     OW18634   6.816   3.433   6.466
 5912SOL    HW118635   6.779   3.518   6.429
 5912SOL    HW218636   6.836   3.369   6.392
 5913SOL     OW18637   1.312   2.222   5.646
 5913SOL    HW118638   1.343   2.127   5.647
 5913SOL    HW218639   1.239   2.235   5.713
 5914SOL     OW18640   2.096   6.123   1.159
 5914SOL    HW118641   2.004   6.163   1.166
 5914SOL    HW218642   2.124   6.088   1.249
 5915SOL     OW18643   4.884   3.422   2.685
 5915SOL    HW118644   4.912   3.421   2.589
 5915SOL    HW218645   4.869   3.328   2.716
 5916SOL     OW18646   3.295   0.017   5.830
 5916SOL    HW118647   3.338   0.106   5.847
 5916SOL    HW218648   3.282   0.006   5.731
 5917SOL     OW18649   3.610   2.858   2.800
 5917SOL    HW118650   3.648   2.911   2.725
 5917SOL    HW218651   3.513   2.883   2.812
 5918SOL     OW18652   2.344   2.799   4.164
 5918SOL    HW118653   2.327   2.874   4.228
 5918SOL    HW218654   2.290   2.813   4.081
 5919SOL     OW18655   1.008   3.147   0.257
 5919SOL    HW118656   1.050   3.186   0.339
 5919SOL    HW218657   0.919   3.107   0.281
 5920SOL     OW18658   3.565   6.308   6.832
 5920SOL    HW118659   3.600   6.261   6.751
 5920SOL    HW218660   3.544   6.403   6.809
 5921SOL     OW18661   3.877   5.668   4.920
 5921SOL    HW118662   3.922   5.741   4.869
 5921SOL    HW218663   3.906   5.580   4.885
 5922SOL     OW18664   5.550   3.963   2.100
 5922SOL    HW118665   5.548   3.873   2.056
 5922SOL    HW218666   5.608   4.025   2.047
 5923SOL     OW18667   0.350   6.990   3.550
 5923SOL    HW118668   0.296   6.912   3.517
 5923SOL    HW218669   0.348   6.991   3.650
 5924SOL     OW18670   5.412   2.608   4.725
 5924SOL    HW118671   5.406   2.538   4.653
 5924SOL    HW218672   5.507   2.616   4.755
 5925SOL     OW18673   6.631   6.113   0.931
 5925SOL    HW118674   6.543   6.103   0.885
 5925SOL    HW218675   6.654   6.028   0.978
 5926SOL     OW18676   3.509   4.979   2.094
 5926SOL    HW118677   3.569   5.055   2.068
 5926SOL    HW218678   3.546   4.893   2.058
 5927SOL     OW18679   2.552   5.511   2.038
 5927SOL    HW118680   2.578   5.485   1.945
 5927SOL    HW218681   2.546   5.611   2.043
 5928SOL     OW18682   1.313   6.748   1.648
 5928SOL    HW118683   1.376   6.815   1.689
 5928SOL    HW218684   1.335   6.657   1.682
 5929SOL     OW18685   1.304   0.150   5.820
 5929SOL    HW118686   1.372   0.078   5.803
 5929SOL    HW218687   1.285   0.154   5.919
 5930SOL     OW18688   6.707   1.997   4.826
 5930SOL    HW118689   6.750   1.988   4.916
 5930SOL    HW218690   6.693   1.906   4.787
 5931SOL     OW18691   5.905   5.248   1.181
 5931SOL    HW118692   5.885   5.163   1.230
 5931SOL    HW218693   5.881   5.326   1.237
 5932SOL     OW18694   2.199   6.146   0.570
 5932SOL    HW118695   2.292   6.160   0.606
 5932SOL    HW218696   2.156   6.070   0.619
 5933SOL     OW18697   6.159   3.345   2.968
 5933SOL    HW118698   6.183   3.297   3.052
 5933SOL    HW218699   6.233   3.407   2.941
 5934SOL     OW18700   3.821   3.970   3.035
 5934SOL    HW118701   3.733   4.005   3.005
 5934SOL    HW218702   3.892   4.039   3.020
 5935SOL     OW18703   3.613   3.148   3.461
 5935SOL    HW118704   3.692   3.208   3.454
 5935SOL    HW218705   3.538   3.196   3.507
 5936SOL     OW18706   5.582   5.800   6.430
 5936SOL    HW118707   5.550   5.890   6.458
 5936SOL    HW218708   5.613   5.802   6.335
 5937SOL     OW18709   1.553   3.898   0.968
 5937SOL    HW118710   1.542   3.813   1.020
 5937SOL    HW218711   1.648   3.929   0.976
 5938SOL     OW18712   1.951   4.236   1.650
 5938SOL    HW118713   2.024   4.299   1.677
 5938SOL    HW218714   1.964   4.149   1.698
 5939SOL     OW18715   2.874   0.754   3.332
 5939SOL    HW118716   2.943   0.797   3.275
 5939SOL    HW218717   2.844   0.669   3.289
 5940SOL     OW18718   4.256   5.895   3.666
 5940SOL    HW118719   4.258   5.861   3.572
 5940SOL    HW218720   4.198   5.976   3.671
 5941SOL     OW18721   6.412   4.439   1.934
 5941SOL    HW118722   6.323   4.483   1.942
 5941SOL    HW218723   6.426   4.378   2.012
 5942SOL     OW18724   5.478   1.673   5.764
 5942SOL    HW118725   5.562   1.623   5.784
 5942SOL    HW218726   5.474   1.756   5.819
 5943SOL     OW18727   1.120   6.095   6.817
 5943SOL    HW118728   1.188   6.050   6.759
 5943SOL    HW218729   1.076   6.027   6.876
 5944SOL     OW18730   4.402   2.006   2.730
 5944SOL    HW118731   4.430   1.912   2.712
 5944SOL    HW218732   4.420   2.028   2.826
 5945SOL     OW18733   6.992   5.145   5.619
 5945SOL    HW118734   6.903   5.164   5.577
 5945SOL    HW218735   7.004   5.205   5.699
 5946SOL     OW18736   3.955   3.018   5.268
 5946SOL    HW118737   4.042   3.020   5.318
 5946SOL    HW218738   3.963   3.071   5.184
 5947SOL     OW18739   4.385   3.419   1.692
 5947SOL    HW118740   4.328   3.490   1.733
 5947SOL    HW218741   4.481   3.447   1.698
 5948SOL     OW18742   3.805   4.848   2.493
 5948SOL    HW118743   3.819   4.819   2.398
 5948SOL    HW218744   3.860   4.929   2.512
 5949SOL     OW18745   4.571   4.745   2.066
 5949SOL    HW118746   4.476   4.715   2.057
 5949SOL    HW218747   4.632   4.666   2.069
 5950SOL     OW18748   6.172   2.631   3.598
 5950SOL    HW118749   6.152   2.550   3.653
 5950SOL    HW218750   6.086   2.670   3.564
 5951SOL     OW18751   1.746   5.669   3.812
 5951SOL    HW118752   1.702   5.736   3.872
 5951SOL    HW218753   1.799   5.605   3.868
 5952SOL     OW18754   6.655   6.751   4.842
 5952SOL    HW118755   6.722   6.698   4.893
 5952SOL    HW218756   6.645   6.712   4.750
 5953SOL     OW18757   0.512   3.485   6.192
 5953SOL    HW118758   0.529   3.508   6.288
 5953SOL    HW218759   0.475   3.565   6.145
 5954SOL     OW18760   0.643   5.300   6.734
 5954SOL    HW118761   0.631   5.289   6.636
 5954SOL    HW218762   0.628   5.212   6.780
 5955SOL     OW18763   5.426   5.738   2.338
 5955SOL    HW118764   5.479   5.792   2.273
 5955SOL    HW218765   5.457   5.758   2.431
 5956SOL     OW18766   6.318   2.092   0.346
 5956SOL    HW118767   6.253   2.064   0.417
 5956SOL    HW218768   6.362   2.177   0.373
 5957SOL     OW18769   5.138   0.118   5.930
 5957SOL    HW118770   5.227   0.092   5.893
 5957SOL    HW218771   5.067   0.102   5.862
 5958SOL     OW18772   0.885   5.628   2.321
 5958SOL    HW118773   0.842   5.661   2.237
 5958SOL    HW218774   0.818   5.627   2.394
 5959SOL     OW18775   2.119   1.619   6.250
 5959SOL    HW118776   2.091   1.523   6.247
 5959SOL    HW218777   2.218   1.625   6.247
 5960SOL     OW18778   3.322   0.761   4.049
 5960SOL    HW118779   3.287   0.814   4.126
 5960SOL    HW218780   3.422   0.769   4.044
 5961SOL     OW18781   2.859   0.966   5.759
 5961SOL    HW118782   2.772   0.950   5.806
 5961SOL    HW218783   2.929   0.988   5.827
 5962SOL     OW18784   5.546   5.257   2.294
 5962SOL    HW118785   5.483   5.335   2.299
 5962SOL    HW218786   5.616   5.266   2.366
 5963SOL     OW18787   4.056   3.648   2.038
 5963SOL    HW118788   3.993   3.598   2.096
 5963SOL    HW218789   4.079   3.736   2.080
 5964SOL     OW18790   1.255   4.457   5.480
 5964SOL    HW118791   1.166   4.492   5.450
 5964SOL    HW218792   1.304   4.418   5.402
 5965SOL     OW18793   2.420   1.810   4.906
 5965SOL    HW118794   2.390   1.749   4.832
 5965SOL    HW218795   2.356   1.804   4.982
 5966SOL     OW18796   1.768   6.617   3.749
 5966SOL    HW118797   1.850   6.626   3.693
 5966SOL    HW218798   1.727   6.707   3.763
 5967SOL     OW18799   4.827   0.006   2.359
 5967SOL    HW118800   4.868   6.949   2.406
 5967SOL    HW218801   4.899   0.067   2.327
 5968SOL     OW18802   0.353   2.694   4.330
 5968SOL    HW118803   0.329   2.597   4.331
 5968SOL    HW218804   0.343   2.730   4.237
 5969SOL     OW18805   5.447   3.160   2.874
 5969SOL    HW118806   5.348   3.151   2.868
 5969SOL    HW218807   5.482   3.101   2.947
 5970SOL     OW18808   1.610   2.632   3.272
 5970SOL    HW118809   1.674   2.682   3.330
 5970SOL    HW218810   1.518   2.634   3.313
 5971SOL     OW18811   2.356   6.934   2.191
 5971SOL    HW118812   2.391   0.007   2.199
 5971SOL    HW218813   2.324   6.903   2.280
 5972SOL     OW18814   4.720   6.233   0.959
 5972SOL    HW118815   4.636   6.255   0.910
 5972SOL    HW218816   4.699   6.209   1.053
 5973SOL     OW18817   1.528   4.455   3.751
 5973SOL    HW118818   1.474   4.514   3.811
 5973SOL    HW218819   1.498   4.360   3.761
 5974SOL     OW18820   0.739   3.645   6.316
 5974SOL    HW118821   0.757   3.549   6.338
 5974SOL    HW218822   0.737   3.657   6.217
 5975SOL     OW18823   1.991   2.827   0.704
 5975SOL    HW118824   1.993   2.727   0.706
 5975SOL    HW218825   2.079   2.863   0.734
 5976SOL     OW18826   3.549   3.591   5.452
 5976SOL    HW118827   3.540   3.688   5.473
 5976SOL    HW218828   3.476   3.564   5.389
 5977SOL     OW18829   0.991   3.123   2.849
 5977SOL    HW118830   1.083   3.083   2.846
 5977SOL    HW218831   0.998   3.223   2.844
 5978SOL     OW18832   5.216   5.627   2.611
 5978SOL    HW118833   5.138   5.568   2.594
 5978SOL    HW218834   5.296   5.571   2.637
 5979SOL     OW18835   6.884   0.494   3.186
 5979SOL    HW118836   6.831   0.562   3.135
 5979SOL    HW218837   6.907   0.418   3.125
 5980SOL     OW18838   6.131   4.165   6.639
 5980SOL    HW118839   6.182   4.109   6.573
 5980SOL    HW218840   6.124   4.258   6.605
 5981SOL     OW18841   4.408   0.887   1.927
 5981SOL    HW118842   4.429   0.790   1.914
 5981SOL    HW218843   4.444   0.939   1.851
 5982SOL     OW18844   6.593   1.959   6.596
 5982SOL    HW118845   6.641   2.046   6.585
 5982SOL    HW218846   6.552   1.932   6.509
 5983SOL     OW18847   0.951   0.964   4.552
 5983SOL    HW118848   0.859   0.925   4.542
 5983SOL    HW218849   0.953   1.055   4.512
 5984SOL     OW18850   0.065   0.030   5.437
 5984SOL    HW118851   0.154   0.026   5.484
 5984SOL    HW218852   0.069   0.097   5.363
 5985SOL     OW18853   4.300   2.377   4.386
 5985SOL    HW118854   4.285   2.474   4.406
 5985SOL    HW218855   4.378   2.344   4.438
 5986SOL     OW18856   3.358   2.929   2.576
 5986SOL    HW118857   3.367   2.870   2.496
 5986SOL    HW218858   3.263   2.960   2.584
 5987SOL     OW18859   3.896   0.212   5.462
 5987SOL    HW118860   3.989   0.178   5.447
 5987SOL    HW218861   3.872   0.201   5.558
 5988SOL     OW18862   3.843   1.024   4.188
 5988SOL    HW118863   3.867   1.090   4.117
 5988SOL    HW218864   3.743   1.024   4.201
 5989SOL     OW18865   2.895   0.735   5.994
 5989SOL    HW118866   2.896   0.784   6.081
 5989SOL    HW218867   2.801   0.732   5.958
 5990SOL     OW18868   3.070   4.740   1.787
 5990SOL    HW118869   3.018   4.681   1.849
 5990SOL    HW218870   3.166   4.713   1.789
 5991SOL     OW18871   2.689   5.132   3.853
 5991SOL    HW118872   2.616   5.114   3.787
 5991SOL    HW218873   2.773   5.085   3.824
 5992SOL     OW18874   4.359   0.400   4.058
 5992SOL    HW118875   4.343   0.308   4.095
 5992SOL    HW218876   4.292   0.463   4.097
 5993SOL     OW18877   3.163   5.551   5.071
 5993SOL    HW118878   3.118   5.613   5.007
 5993SOL    HW218879   3.188   5.466   5.024
 5994SOL     OW18880   0.165   2.246   2.182
 5994SOL    HW118881   0.265   2.245   2.191
 5994SOL    HW218882   0.139   2.211   2.092
 5995SOL     OW18883   6.904   3.715   1.703
 5995SOL    HW118884   6.909   3.615   1.700
 5995SOL    HW218885   6.896   3.746   1.798
 5996SOL     OW18886   0.883   5.366   5.848
 5996SOL    HW118887   0.802   5.308   5.849
 5996SOL    HW218888   0.858   5.459   5.876
 5997SOL     OW18889   0.800   6.664   2.132
 5997SOL    HW118890   0.868   6.593   2.112
 5997SOL    HW218891   0.766   6.652   2.225
 5998SOL     OW18892   4.911   1.843   3.316
 5998SOL    HW118893   4.888   1.787   3.237
 5998SOL    HW218894   4.836   1.907   3.336
 5999SOL     OW18895   1.625   1.476   2.477
 5999SOL    HW118896   1.624   1.380   2.507
 5999SOL    HW218897   1.556   1.527   2.528
 6000SOL     OW18898   4.584   6.448   2.154
 6000SOL    HW118899   4.614   6.489   2.240
 6000SOL    HW218900   4.484   6.449   2.150
 6001SOL     OW18901   6.342   2.148   6.975
 6001SOL    HW118902   6.397   2.088   6.917
 6001SOL    HW218903   6.269   2.095   7.019
 6002SOL     OW18904   1.776   0.260   1.861
 6002SOL    HW118905   1.706   0.327   1.837
 6002SOL    HW218906   1.836   0.244   1.782
 6003SOL     OW18907   4.605   4.329   3.966
 6003SOL    HW118908   4.655   4.279   4.037
 6003SOL    HW218909   4.513   4.290   3.957
 6004SOL     OW18910   6.883   3.892   2.598
 6004SOL    HW118911   6.959   3.951   2.626
 6004SOL    HW218912   6.915   3.825   2.532
 6005SOL     OW18913   3.058   6.166   2.766
 6005SOL    HW118914   2.975   6.127   2.806
 6005SOL    HW218915   3.099   6.101   2.703
 6006SOL     OW18916   2.297   6.381   7.018
 6006SOL    HW118917   2.382   6.381   0.049
 6006SOL    HW218918   2.222   6.413   0.056
 6007SOL     OW18919   5.663   2.501   3.694
 6007SOL    HW118920   5.730   2.576   3.697
 6007SOL    HW218921   5.623   2.488   3.785
 6008SOL     OW18922   3.351   4.588   6.420
 6008SOL    HW118923   3.400   4.651   6.481
 6008SOL    HW218924   3.310   4.515   6.474
 6009SOL     OW18925   3.234   2.011   4.197
 6009SOL    HW118926   3.205   2.088   4.140
 6009SOL    HW218927   3.257   1.933   4.139
 6010SOL     OW18928   1.549   3.013   3.321
 6010SOL    HW118929   1.488   2.973   3.390
 6010SOL    HW218930   1.637   3.035   3.363
 6011SOL     OW18931   6.590   3.080   3.260
 6011SOL    HW118932   6.501   3.038   3.246
 6011SOL    HW218933   6.579   3.177   3.281
 6012SOL     OW18934   6.519   3.411   0.636
 6012SOL    HW118935   6.603   3.448   0.678
 6012SOL    HW218936   6.471   3.484   0.588
 6013SOL     OW18937   5.872   1.444   2.546
 6013SOL    HW118938   5.841   1.397   2.463
 6013SOL    HW218939   5.931   1.384   2.599
 6014SOL     OW18940   5.802   0.558   0.744
 6014SOL    HW118941   5.872   0.628   0.727
 6014SOL    HW218942   5.780   0.512   0.658
 6015SOL     OW18943   5.422   1.823   4.879
 6015SOL    HW118944   5.334   1.836   4.926
 6015SOL    HW218945   5.456   1.912   4.848
 6016SOL     OW18946   2.018   6.658   5.293
 6016SOL    HW118947   1.924   6.680   5.264
 6016SOL    HW218948   2.049   6.575   5.246
 6017SOL     OW18949   6.712   4.687   2.489
 6017SOL    HW118950   6.720   4.638   2.576
 6017SOL    HW218951   6.803   4.716   2.459
 6018SOL     OW18952   2.442   5.011   0.724
 6018SOL    HW118953   2.361   5.007   0.665
 6018SOL    HW218954   2.449   4.925   0.775
 6019SOL     OW18955   4.336   6.949   4.257
 6019SOL    HW118956   4.391   6.943   4.340
 6019SOL    HW218957   4.395   6.966   4.179
 6020SOL     OW18958   3.514   0.619   2.777
 6020SOL    HW118959   3.586   0.633   2.709
 6020SOL    HW218960   3.439   0.566   2.735
 6021SOL     OW18961   3.918   1.369   2.868
 6021SOL    HW118962   3.978   1.298   2.904
 6021SOL    HW218963   3.893   1.432   2.942
 6022SOL     OW18964   4.417   1.984   5.197
 6022SOL    HW118965   4.448   1.952   5.108
 6022SOL    HW218966   4.417   2.084   5.199
 6023SOL     OW18967   6.622   1.411   2.519
 6023SOL    HW118968   6.657   1.491   2.566
 6023SOL    HW218969   6.523   1.406   2.530
 6024SOL     OW18970   0.524   5.047   2.550
 6024SOL    HW118971   0.510   5.114   2.624
 6024SOL    HW218972   0.611   5.001   2.563
 6025SOL     OW18973   4.398   2.076   1.583
 6025SOL    HW118974   4.438   2.077   1.491
 6025SOL    HW218975   4.358   2.166   1.603
 6026SOL     OW18976   0.186   4.843   5.397
 6026SOL    HW118977   0.167   4.766   5.458
 6026SOL    HW218978   0.184   4.812   5.302
 6027SOL     OW18979   3.083   3.356   0.476
 6027SOL    HW118980   3.180   3.358   0.452
 6027SOL    HW218981   3.038   3.437   0.440
 6028SOL     OW18982   1.437   3.564   0.216
 6028SOL    HW118983   1.468   3.478   0.177
 6028SOL    HW218984   1.345   3.585   0.182
 6029SOL     OW18985   1.663   5.192   1.503
 6029SOL    HW118986   1.644   5.160   1.411
 6029SOL    HW218987   1.578   5.202   1.554
 6030SOL     OW18988   2.066   0.534   0.821
 6030SOL    HW118989   2.054   0.625   0.861
 6030SOL    HW218990   2.154   0.496   0.852
 6031SOL     OW18991   5.201   0.201   4.792
 6031SOL    HW118992   5.270   0.133   4.818
 6031SOL    HW218993   5.110   0.170   4.823
 6032SOL     OW18994   0.498   3.388   2.519
 6032SOL    HW118995   0.545   3.325   2.458
 6032SOL    HW218996   0.412   3.418   2.477
 6033SOL     OW18997   1.276   0.339   4.412
 6033SOL    HW118998   1.321   0.344   4.501
 6033SOL    HW218999   1.290   0.248   4.372
 6034SOL     OW19000   2.284   3.921   5.742
 6034SOL    HW119001   2.186   3.938   5.736
 6034SOL    HW219002   2.301   3.822   5.741
 6035SOL     OW19003   6.232   1.245   4.256
 6035SOL    HW119004   6.217   1.260   4.158
 6035SOL    HW219005   6.300   1.174   4.269
 6036SOL     OW19006   6.738   0.813   4.491
 6036SOL    HW119007   6.749   0.740   4.424
 6036SOL    HW219008   6.814   0.810   4.556
 6037SOL     OW19009   6.681   4.746   4.756
 6037SOL    HW119010   6.603   4.808   4.770
 6037SOL    HW219011   6.648   4.653   4.745
 6038SOL     OW19012   4.799   3.823   6.637
 6038SOL    HW119013   4.740   3.761   6.585
 6038SOL    HW219014   4.753   3.911   6.650
 6039SOL     OW19015   3.546   4.041   3.041
 6039SOL    HW119016   3.460   3.990   3.029
 6039SOL    HW219017   3.552   4.073   3.136
 6040SOL     OW19018   0.292   1.717   6.913
 6040SOL    HW119019   0.335   1.634   6.949
 6040SOL    HW219020   0.304   1.719   6.813
 6041SOL     OW19021   0.451   2.688   0.440
 6041SOL    HW119022   0.463   2.599   0.484
 6041SOL    HW219023   0.540   2.721   0.407
 6042SOL     OW19024   5.467   5.121   3.423
 6042SOL    HW119025   5.438   5.216   3.416
 6042SOL    HW219026   5.552   5.116   3.474
 6043SOL     OW19027   0.955   4.835   4.121
 6043SOL    HW119028   0.996   4.797   4.039
 6043SOL    HW219029   0.855   4.828   4.115
 6044SOL     OW19030   0.941   0.385   1.605
 6044SOL    HW119031   0.968   0.465   1.659
 6044SOL    HW219032   0.891   0.321   1.663
 6045SOL     OW19033   0.400   3.862   1.567
 6045SOL    HW119034   0.309   3.827   1.588
 6045SOL    HW219035   0.405   3.959   1.592
 6046SOL     OW19036   2.619   2.703   0.603
 6046SOL    HW119037   2.650   2.613   0.635
 6046SOL    HW219038   2.695   2.768   0.606
 6047SOL     OW19039   0.172   6.398   4.952
 6047SOL    HW119040   0.254   6.367   4.905
 6047SOL    HW219041   0.197   6.455   5.030
 6048SOL     OW19042   4.723   6.711   4.953
 6048SOL    HW119043   4.724   6.755   4.863
 6048SOL    HW219044   4.632   6.675   4.972
 6049SOL     OW19045   6.634   5.122   1.281
 6049SOL    HW119046   6.717   5.176   1.270
 6049SOL    HW219047   6.608   5.083   1.192
 6050SOL     OW19048   5.097   4.302   5.386
 6050SOL    HW119049   5.111   4.321   5.483
 6050SOL    HW219050   4.999   4.297   5.366
 6051SOL     OW19051   1.820   1.771   2.861
 6051SOL    HW119052   1.858   1.730   2.778
 6051SOL    HW219053   1.854   1.865   2.870
 6052SOL     OW19054   6.805   1.121   0.252
 6052SOL    HW119055   6.773   1.039   0.299
 6052SOL    HW219056   6.728   1.166   0.207
 6053SOL     OW19057   2.193   0.078   6.324
 6053SOL    HW119058   2.113   0.068   6.265
 6053SOL    HW219059   2.239   0.164   6.304
 6054SOL     OW19060   2.551   5.166   0.241
 6054SOL    HW119061   2.638   5.145   0.286
 6054SOL    HW219062   2.483   5.190   0.310
 6055SOL     OW19063   5.048   0.208   4.471
 6055SOL    HW119064   4.987   0.239   4.398
 6055SOL    HW219065   5.076   0.287   4.526
 6056SOL     OW19066   4.925   2.497   6.170
 6056SOL    HW119067   4.971   2.585   6.154
 6056SOL    HW219068   4.986   2.422   6.143
 6057SOL     OW19069   3.631   0.802   5.818
 6057SOL    HW119070   3.638   0.707   5.787
 6057SOL    HW219071   3.722   0.837   5.842
 6058SOL     OW19072   5.866   1.659   4.310
 6058SOL    HW119073   5.881   1.593   4.384
 6058SOL    HW219074   5.813   1.736   4.344
 6059SOL     OW19075   0.082   5.207   6.034
 6059SOL    HW119076   0.086   5.297   6.078
 6059SOL    HW219077   7.008   5.177   6.028
 6060SOL     OW19078   4.396   6.552   5.925
 6060SOL    HW119079   4.391   6.485   5.999
 6060SOL    HW219080   4.489   6.588   5.918
 6061SOL     OW19081   2.250   2.031   6.321
 6061SOL    HW119082   2.156   1.998   6.318
 6061SOL    HW219083   2.254   2.125   6.289
 6062SOL     OW19084   2.408   0.588   4.228
 6062SOL    HW119085   2.484   0.524   4.234
 6062SOL    HW219086   2.333   0.557   4.286
 6063SOL     OW19087   4.550   0.170   0.020
 6063SOL    HW119088   4.596   0.117   0.091
 6063SOL    HW219089   4.481   0.113   6.996
 6064SOL     OW19090   1.238   6.270   3.593
 6064SOL    HW119091   1.300   6.198   3.561
 6064SOL    HW219092   1.250   6.283   3.691
 6065SOL     OW19093   0.233   0.511   0.716
 6065SOL    HW119094   0.296   0.438   0.690
 6065SOL    HW219095   0.233   0.582   0.646
 6066SOL     OW19096   4.615   2.986   6.600
 6066SOL    HW119097   4.624   2.888   6.616
 6066SOL    HW219098   4.621   3.005   6.502
 6067SOL     OW19099   5.920   2.484   6.908
 6067SOL    HW119100   5.842   2.494   6.969
 6067SOL    HW219101   5.936   2.387   6.889
 6068SOL     OW19102   4.718   2.649   5.114
 6068SOL    HW119103   4.757   2.686   5.030
 6068SOL    HW219104   4.627   2.612   5.094
 6069SOL     OW19105   6.207   3.611   4.054
 6069SOL    HW119106   6.226   3.533   3.994
 6069SOL    HW219107   6.278   3.618   4.124
 6070SOL     OW19108   3.775   2.166   6.243
 6070SOL    HW119109   3.729   2.080   6.220
 6070SOL    HW219110   3.770   2.180   6.342
 6071SOL     OW19111   4.282   6.097   4.929
 6071SOL    HW119112   4.189   6.081   4.896
 6071SOL    HW219113   4.311   6.189   4.904
 6072SOL     OW19114   0.504   1.800   0.849
 6072SOL    HW119115   0.579   1.736   0.839
 6072SOL    HW219116   0.419   1.751   0.869
 6073SOL     OW19117   6.669   2.593   1.306
 6073SOL    HW119118   6.743   2.549   1.356
 6073SOL    HW219119   6.582   2.551   1.331
 6074SOL     OW19120   0.451   0.129   4.204
 6074SOL    HW119121   0.487   0.185   4.278
 6074SOL    HW219122   0.445   0.034   4.234
 6075SOL     OW19123   5.654   4.232   6.669
 6075SOL    HW119124   5.647   4.156   6.733
 6075SOL    HW219125   5.652   4.318   6.720
 6076SOL     OW19126   2.146   6.138   3.599
 6076SOL    HW119127   2.067   6.082   3.626
 6076SOL    HW219128   2.221   6.122   3.662
 6077SOL     OW19129   6.037   5.726   2.011
 6077SOL    HW119130   5.983   5.810   2.020
 6077SOL    HW219131   6.112   5.743   1.946
 6078SOL     OW19132   2.404   4.403   3.387
 6078SOL    HW119133   2.407   4.333   3.315
 6078SOL    HW219134   2.481   4.466   3.375
 6079SOL     OW19135   2.168   1.556   0.649
 6079SOL    HW119136   2.175   1.498   0.730
 6079SOL    HW219137   2.219   1.515   0.574
 6080SOL     OW19138   5.743   2.176   2.339
 6080SOL    HW119139   5.655   2.134   2.362
 6080SOL    HW219140   5.813   2.105   2.336
 6081SOL     OW19141   0.354   4.120   3.246
 6081SOL    HW119142   0.259   4.106   3.218
 6081SOL    HW219143   0.413   4.117   3.166
 6082SOL     OW19144   4.044   1.641   4.148
 6082SOL    HW119145   3.954   1.635   4.104
 6082SOL    HW219146   4.081   1.549   4.160
 6083SOL     OW19147   1.788   6.645   0.263
 6083SOL    HW119148   1.877   6.610   0.292
 6083SOL    HW219149   1.774   6.737   0.300
 6084SOL     OW19150   0.965   4.956   5.762
 6084SOL    HW119151   0.996   4.904   5.842
 6084SOL    HW219152   1.013   5.044   5.759
 6085SOL     OW19153   4.669   3.723   1.372
 6085SOL    HW119154   4.663   3.730   1.273
 6085SOL    HW219155   4.601   3.783   1.414
 6086SOL     OW19156   2.638   1.770   3.237
 6086SOL    HW119157   2.721   1.743   3.287
 6086SOL    HW219158   2.641   1.868   3.220
 6087SOL     OW19159   4.797   6.815   0.059
 6087SOL    HW119160   4.755   6.738   0.011
 6087SOL    HW219161   4.860   6.862   7.019
 6088SOL     OW19162   0.092   0.214   4.616
 6088SOL    HW119163   0.103   0.302   4.570
 6088SOL    HW219164   0.158   0.208   4.691
 6089SOL     OW19165   0.470   3.111   0.066
 6089SOL    HW119166   0.373   3.129   0.082
 6089SOL    HW219167   0.485   3.089   6.990
 6090SOL     OW19168   0.242   6.309   4.372
 6090SOL    HW119169   0.196   6.279   4.288
 6090SOL    HW219170   0.222   6.406   4.387
 6091SOL     OW19171   5.911   1.870   1.794
 6091SOL    HW119172   5.911   1.947   1.731
 6091SOL    HW219173   5.918   1.905   1.888
 6092SOL     OW19174   1.637   2.520   1.522
 6092SOL    HW119175   1.674   2.592   1.464
 6092SOL    HW219176   1.555   2.481   1.479
 6093SOL     OW19177   0.952   3.230   1.627
 6093SOL    HW119178   0.984   3.260   1.537
 6093SOL    HW219179   1.000   3.146   1.653
 6094SOL     OW19180   1.407   0.885   1.013
 6094SOL    HW119181   1.456   0.805   1.048
 6094SOL    HW219182   1.309   0.870   1.023
 6095SOL     OW19183   6.664   3.919   6.214
 6095SOL    HW119184   6.695   3.825   6.228
 6095SOL    HW219185   6.571   3.929   6.250
 6096SOL     OW19186   3.802   1.814   2.830
 6096SOL    HW119187   3.757   1.788   2.744
 6096SOL    HW219188   3.740   1.870   2.885
 6097SOL     OW19189   3.114   2.076   1.970
 6097SOL    HW119190   3.082   2.011   2.039
 6097SOL    HW219191   3.052   2.155   1.967
 6098SOL     OW19192   1.638   1.928   5.678
 6098SOL    HW119193   1.681   2.018   5.687
 6098SOL    HW219194   1.554   1.935   5.624
 6099SOL     OW19195   6.105   5.305   5.013
 6099SOL    HW119196   6.121   5.397   4.977
 6099SOL    HW219197   6.173   5.283   5.082
 6100SOL     OW19198   5.991   2.890   0.147
 6100SOL    HW119199   6.062   2.945   0.103
 6100SOL    HW219200   6.009   2.793   0.132
 6101SOL     OW19201   6.042   1.585   4.769
 6101SOL    HW119202   6.112   1.550   4.707
 6101SOL    HW219203   5.961   1.611   4.717
 6102SOL     OW19204   2.613   0.700   5.343
 6102SOL    HW119205   2.638   0.664   5.253
 6102SOL    HW219206   2.533   0.650   5.378
 6103SOL     OW19207   6.666   0.260   6.266
 6103SOL    HW119208   6.703   0.171   6.292
 6103SOL    HW219209   6.665   0.268   6.166
 6104SOL     OW19210   1.231   2.809   0.135
 6104SOL    HW119211   1.223   2.891   0.079
 6104SOL    HW219212   1.245   2.835   0.231
 6105SOL     OW19213   3.212   5.949   4.140
 6105SOL    HW119214   3.289   5.954   4.077
 6105SOL    HW219215   3.244   5.919   4.230
 6106SOL     OW19216   3.155   5.665   5.368
 6106SOL    HW119217   3.170   5.641   5.272
 6106SOL    HW219218   3.122   5.759   5.373
 6107SOL     OW19219   2.321   4.431   5.634
 6107SOL    HW119220   2.342   4.340   5.598
 6107SOL    HW219221   2.251   4.424   5.704
 6108SOL     OW19222   0.094   2.001   4.621
 6108SOL    HW119223   0.008   1.975   4.577
 6108SOL    HW219224   0.159   1.925   4.615
 6109SOL     OW19225   6.447   4.567   1.352
 6109SOL    HW119226   6.471   4.544   1.258
 6109SOL    HW219227   6.507   4.517   1.415
 6110SOL     OW19228   3.345   1.606   4.507
 6110SOL    HW119229   3.403   1.635   4.584
 6110SOL    HW219230   3.251   1.596   4.539
 6111SOL     OW19231   1.020   5.102   2.752
 6111SOL    HW119232   1.003   5.010   2.718
 6111SOL    HW219233   1.001   5.107   2.850
 6112SOL     OW19234   0.235   2.103   2.587
 6112SOL    HW119235   0.209   2.180   2.528
 6112SOL    HW219236   0.334   2.104   2.601
 6113SOL     OW19237   1.662   6.107   5.222
 6113SOL    HW119238   1.619   6.188   5.261
 6113SOL    HW219239   1.724   6.066   5.289
 6114SOL     OW19240   5.180   5.521   0.766
 6114SOL    HW119241   5.256   5.585   0.761
 6114SOL    HW219242   5.151   5.496   0.674
 6115SOL     OW19243   6.031   4.729   2.553
 6115SOL    HW119244   5.993   4.637   2.556
 6115SOL    HW219245   6.081   4.747   2.638
 6116SOL     OW19246   4.467   1.045   1.670
 6116SOL    HW119247   4.378   1.087   1.689
 6116SOL    HW219248   4.539   1.113   1.683
 6117SOL     OW19249   5.220   7.015   4.381
 6117SOL    HW119250   5.239   0.050   4.300
 6117SOL    HW219251   5.161   0.045   4.444
 6118SOL     OW19252   6.054   0.328   3.279
 6118SOL    HW119253   5.984   0.257   3.278
 6118SOL    HW219254   6.060   0.370   3.188
 6119SOL     OW19255   6.706   4.914   4.073
 6119SOL    HW119256   6.616   4.906   4.031
 6119SOL    HW219257   6.756   4.991   4.030
 6120SOL     OW19258   2.689   0.970   3.256
 6120SOL    HW119259   2.741   0.884   3.252
 6120SOL    HW219260   2.595   0.950   3.285
 6121SOL     OW19261   6.687   2.182   4.500
 6121SOL    HW119262   6.666   2.148   4.592
 6121SOL    HW219263   6.770   2.136   4.467
 6122SOL     OW19264   4.764   5.635   3.130
 6122SOL    HW119265   4.684   5.585   3.162
 6122SOL    HW219266   4.760   5.643   3.030
 6123SOL     OW19267   5.865   1.048   2.272
 6123SOL    HW119268   5.780   0.995   2.278
 6123SOL    HW219269   5.944   0.988   2.285
 6124SOL     OW19270   3.431   0.307   5.659
 6124SOL    HW119271   3.355   0.372   5.653
 6124SOL    HW219272   3.408   0.224   5.608
 6125SOL     OW19273   2.144   5.256   1.779
 6125SOL    HW119274   2.131   5.194   1.702
 6125SOL    HW219275   2.218   5.222   1.836
 6126SOL     OW19276   5.384   5.471   2.351
 6126SOL    HW119277   5.398   5.440   2.445
 6126SOL    HW219278   5.389   5.571   2.347
 6127SOL     OW19279   2.108   4.666   1.566
 6127SOL    HW119280   2.169   4.736   1.528
 6127SOL    HW219281   2.158   4.580   1.575
 6128SOL     OW19282   4.979   2.256   0.757
 6128SOL    HW119283   5.035   2.338   0.747
 6128SOL    HW219284   4.882   2.281   0.748
 6129SOL     OW19285   6.032   4.648   4.178
 6129SOL    HW119286   5.973   4.624   4.101
 6129SOL    HW219287   5.995   4.609   4.262
 6130SOL     OW19288   5.424   3.427   2.228
 6130SOL    HW119289   5.422   3.353   2.160
 6130SOL    HW219290   5.507   3.481   2.217
 6131SOL     OW19291   6.507   0.851   5.443
 6131SOL    HW119292   6.493   0.765   5.493
 6131SOL    HW219293   6.594   0.848   5.395
 6132SOL     OW19294   6.048   2.707   0.399
 6132SOL    HW119295   6.022   2.653   0.320
 6132SOL    HW219296   5.971   2.713   0.462
 6133SOL     OW19297   1.356   4.144   0.407
 6133SOL    HW119298   1.287   4.074   0.385
 6133SOL    HW219299   1.399   4.175   0.323
 6134SOL     OW19300   5.058   3.081   6.200
 6134SOL    HW119301   5.037   3.009   6.266
 6134SOL    HW219302   5.066   3.169   6.248
 6135SOL     OW19303   5.581   6.975   1.365
 6135SOL    HW119304   5.500   6.948   1.312
 6135SOL    HW219305   5.663   6.965   1.308
 6136SOL     OW19306   6.872   1.919   1.488
 6136SOL    HW119307   6.860   1.820   1.486
 6136SOL    HW219308   6.969   1.941   1.473
 6137SOL     OW19309   2.615   7.012   5.707
 6137SOL    HW119310   2.540   0.054   5.684
 6137SOL    HW219311   2.577   6.925   5.737
 6138SOL     OW19312   4.507   0.409   3.026
 6138SOL    HW119313   4.493   0.412   2.927
 6138SOL    HW219314   4.425   0.376   3.071
 6139SOL     OW19315   1.871   4.298   4.142
 6139SOL    HW119316   1.777   4.269   4.158
 6139SOL    HW219317   1.910   4.246   4.067
 6140SOL     OW19318   2.006   6.417   1.422
 6140SOL    HW119319   1.966   6.418   1.514
 6140SOL    HW219320   2.088   6.474   1.421
 6141SOL     OW19321   6.308   6.343   5.986
 6141SOL    HW119322   6.232   6.368   5.925
 6141SOL    HW219323   6.278   6.269   6.046
 6142SOL     OW19324   0.771   4.856   2.522
 6142SOL    HW119325   0.837   4.926   2.497
 6142SOL    HW219326   0.809   4.797   2.594
 6143SOL     OW19327   6.372   4.613   6.466
 6143SOL    HW119328   6.410   4.522   6.484
 6143SOL    HW219329   6.328   4.614   6.376
 6144SOL     OW19330   0.261   5.152   3.482
 6144SOL    HW119331   0.206   5.112   3.555
 6144SOL    HW219332   0.356   5.123   3.491
 6145SOL     OW19333   5.360   6.181   3.223
 6145SOL    HW119334   5.277   6.180   3.278
 6145SOL    HW219335   5.388   6.087   3.202
 6146SOL     OW19336   5.581   1.037   2.967
 6146SOL    HW119337   5.584   1.054   3.065
 6146SOL    HW219338   5.626   1.113   2.919
 6147SOL     OW19339   1.835   3.432   3.092
 6147SOL    HW119340   1.743   3.456   3.124
 6147SOL    HW219341   1.833   3.339   3.054
 6148SOL     OW19342   6.583   6.223   4.378
 6148SOL    HW119343   6.535   6.157   4.436
 6148SOL    HW219344   6.518   6.291   4.344
 6149SOL     OW19345   2.072   6.396   3.537
 6149SOL    HW119346   2.151   6.441   3.495
 6149SOL    HW219347   2.093   6.299   3.552
 6150SOL     OW19348   4.351   5.105   6.040
 6150SOL    HW119349   4.312   5.053   6.116
 6150SOL    HW219350   4.303   5.081   5.955
 6151SOL     OW19351   4.850   2.058   5.834
 6151SOL    HW119352   4.851   2.072   5.735
 6151SOL    HW219353   4.788   1.982   5.856
 6152SOL     OW19354   6.721   4.619   6.734
 6152SOL    HW119355   6.754   4.548   6.796
 6152SOL    HW219356   6.797   4.649   6.675
 6153SOL     OW19357   4.965   3.292   0.921
 6153SOL    HW119358   4.962   3.325   1.015
 6153SOL    HW219359   5.040   3.337   0.872
 6154SOL     OW19360   5.198   2.786   2.813
 6154SOL    HW119361   5.188   2.755   2.718
 6154SOL    HW219362   5.208   2.885   2.815
 6155SOL     OW19363   0.992   3.579   4.503
 6155SOL    HW119364   1.029   3.671   4.499
 6155SOL    HW219365   0.892   3.582   4.506
 6156SOL     OW19366   6.522   0.404   3.359
 6156SOL    HW119367   6.544   0.498   3.384
 6156SOL    HW219368   6.568   0.341   3.422
 6157SOL     OW19369   1.713   1.599   3.363
 6157SOL    HW119370   1.686   1.679   3.310
 6157SOL    HW219371   1.760   1.534   3.304
 6158SOL     OW19372   4.279   0.623   0.352
 6158SOL    HW119373   4.283   0.681   0.434
 6158SOL    HW219374   4.327   0.537   0.371
 6159SOL     OW19375   5.158   3.160   0.180
 6159SOL    HW119376   5.135   3.238   0.121
 6159SOL    HW219377   5.227   3.103   0.135
 6160SOL     OW19378   6.562   5.170   1.720
 6160SOL    HW119379   6.482   5.203   1.770
 6160SOL    HW219380   6.643   5.178   1.777
 6161SOL     OW19381   5.859   0.544   6.064
 6161SOL    HW119382   5.858   0.609   6.140
 6161SOL    HW219383   5.807   0.581   5.988
 6162SOL     OW19384   6.271   5.057   3.721
 6162SOL    HW119385   6.188   5.099   3.758
 6162SOL    HW219386   6.313   5.117   3.654
 6163SOL     OW19387   6.679   4.178   2.013
 6163SOL    HW119388   6.703   4.138   1.925
 6163SOL    HW219389   6.716   4.120   2.087
 6164SOL     OW19390   3.933   2.667   0.269
 6164SOL    HW119391   4.029   2.672   0.298
 6164SOL    HW219392   3.874   2.666   0.349
 6165SOL     OW19393   4.214   6.491   0.394
 6165SOL    HW119394   4.194   6.421   0.463
 6165SOL    HW219395   4.243   6.575   0.440
 6166SOL     OW19396   3.503   1.640   6.420
 6166SOL    HW119397   3.578   1.583   6.454
 6166SOL    HW219398   3.510   1.648   6.321
 6167SOL     OW19399   6.742   4.734   3.509
 6167SOL    HW119400   6.815   4.755   3.575
 6167SOL    HW219401   6.762   4.647   3.464
 6168SOL     OW19402   0.941   2.690   1.880
 6168SOL    HW119403   0.855   2.723   1.920
 6168SOL    HW219404   0.974   2.611   1.931
 6169SOL     OW19405   1.853   4.176   2.541
 6169SOL    HW119406   1.853   4.109   2.615
 6169SOL    HW219407   1.925   4.153   2.475
 6170SOL     OW19408   6.976   2.624   4.152
 6170SOL    HW119409   6.907   2.554   4.169
 6170SOL    HW219410   6.963   2.699   4.218
 6171SOL     OW19411   0.261   0.689   6.268
 6171SOL    HW119412   0.200   0.665   6.343
 6171SOL    HW219413   0.337   0.623   6.264
 6172SOL     OW19414   1.280   4.075   4.078
 6172SOL    HW119415   1.361   4.131   4.060
 6172SOL    HW219416   1.238   4.105   4.163
 6173SOL     OW19417   6.078   6.058   3.453
 6173SOL    HW119418   6.117   6.016   3.371
 6173SOL    HW219419   5.978   6.049   3.451
 6174SOL     OW19420   6.256   3.434   2.047
 6174SOL    HW119421   6.346   3.390   2.041
 6174SOL    HW219422   6.192   3.373   2.094
 6175SOL     OW19423   2.790   2.634   5.703
 6175SOL    HW119424   2.794   2.573   5.782
 6175SOL    HW219425   2.880   2.637   5.659
 6176SOL     OW19426   4.217   4.387   6.547
 6176SOL    HW119427   4.253   4.319   6.611
 6176SOL    HW219428   4.256   4.477   6.569
 6177SOL     OW19429   5.989   0.627   1.136
 6177SOL    HW119430   6.024   0.645   1.044
 6177SOL    HW219431   5.941   0.708   1.169
 6178SOL     OW19432   3.845   4.688   1.399
 6178SOL    HW119433   3.866   4.781   1.367
 6178SOL    HW219434   3.774   4.693   1.469
 6179SOL     OW19435   5.729   4.860   4.240
 6179SOL    HW119436   5.748   4.784   4.178
 6179SOL    HW219437   5.761   4.946   4.198
 6180SOL     OW19438   2.882   4.420   7.009
 6180SOL    HW119439   2.878   4.507   6.961
 6180SOL    HW219440   2.976   4.397   0.010
 6181SOL     OW19441   6.535   6.303   7.010
 6181SOL    HW119442   6.526   6.204   6.998
 6181SOL    HW219443   6.468   6.349   6.952
 6182SOL     OW19444   3.203   2.469   0.595
 6182SOL    HW119445   3.193   2.374   0.625
 6182SOL    HW219446   3.295   2.482   0.556
 6183SOL     OW19447   0.203   6.889   0.584
 6183SOL    HW119448   0.247   6.890   0.494
 6183SOL    HW219449   0.105   6.873   0.573
 6184SOL     OW19450   2.429   6.665   5.422
 6184SOL    HW119451   2.374   6.729   5.475
 6184SOL    HW219452   2.524   6.696   5.419
 6185SOL     OW19453   3.585   2.831   5.181
 6185SOL    HW119454   3.514   2.787   5.126
 6185SOL    HW219455   3.657   2.865   5.121
 6186SOL     OW19456   0.263   1.475   1.617
 6186SOL    HW119457   0.307   1.461   1.706
 6186SOL    HW219458   0.257   1.388   1.568
 6187SOL     OW19459   4.140   1.193   5.875
 6187SOL    HW119460   4.116   1.289   5.891
 6187SOL    HW219461   4.068   1.149   5.821
 6188SOL     OW19462   1.065   1.281   4.731
 6188SOL    HW119463   1.130   1.348   4.766
 6188SOL    HW219464   1.086   1.191   4.769
 6189SOL     OW19465   6.582   6.218   1.179
 6189SOL    HW119466   6.637   6.301   1.184
 6189SOL    HW219467   6.605   6.168   1.096
 6190SOL     OW19468   0.813   2.924   4.835
 6190SOL    HW119469   0.897   2.915   4.888
 6190SOL    HW219470   0.827   2.886   4.744
 6191SOL     OW19471   3.718   3.444   0.066
 6191SOL    HW119472   3.772   3.447   7.003
 6191SOL    HW219473   3.765   3.495   0.138
 6192SOL     OW19474   3.026   1.253   0.581
 6192SOL    HW119475   3.104   1.211   0.534
 6192SOL    HW219476   2.953   1.270   0.515
 6193SOL     OW19477   4.622   5.615   7.003
 6193SOL    HW119478   4.678   5.534   6.983
 6193SOL    HW219479   4.676   5.698   6.988
 6194SOL     OW19480   5.731   6.972   6.759
 6194SOL    HW119481   5.648   6.955   6.812
 6194SOL    HW219482   5.807   6.922   6.800
 6195SOL     OW19483   6.196   6.478   6.527
 6195SOL    HW119484   6.125   6.548   6.535
 6195SOL    HW219485   6.286   6.520   6.541
 6196SOL     OW19486   5.551   3.599   2.772
 6196SOL    HW119487   5.584   3.507   2.793
 6196SOL    HW219488   5.464   3.593   2.722
 6197SOL     OW19489   1.992   5.090   1.554
 6197SOL    HW119490   1.949   5.102   1.464
 6197SOL    HW219491   1.958   5.006   1.596
 6198SOL     OW19492   5.876   1.246   6.759
 6198SOL    HW119493   5.850   1.245   6.856
 6198SOL    HW219494   5.973   1.222   6.750
 6199SOL     OW19495   1.908   0.163   6.153
 6199SOL    HW119496   1.879   0.106   6.077
 6199SOL    HW219497   1.910   0.109   6.237
 6200SOL     OW19498   1.267   0.973   2.172
 6200SOL    HW119499   1.349   0.996   2.119
 6200SOL    HW219500   1.189   0.963   2.110
 6201SOL     OW19501   0.878   4.948   3.326
 6201SOL    HW119502   0.836   4.917   3.411
 6201SOL    HW219503   0.878   4.873   3.259
 6202SOL     OW19504   5.830   1.777   2.934
 6202SOL    HW119505   5.909   1.717   2.917
 6202SOL    HW219506   5.860   1.872   2.934
 6203SOL     OW19507   6.384   0.069   1.875
 6203SOL    HW119508   6.301   0.063   1.931
 6203SOL    HW219509   6.465   0.062   1.933
 6204SOL     OW19510   1.719   6.612   5.144
 6204SOL    HW119511   1.672   6.672   5.209
 6204SOL    HW219512   1.765   6.668   5.075
 6205SOL     OW19513   5.430   4.298   3.324
 6205SOL    HW119514   5.437   4.210   3.277
 6205SOL    HW219515   5.425   4.283   3.422
 6206SOL     OW19516   5.873   1.723   4.023
 6206SOL    HW119517   5.843   1.648   3.964
 6206SOL    HW219518   5.875   1.692   4.118
 6207SOL     OW19519   1.242   4.988   4.519
 6207SOL    HW119520   1.253   4.976   4.618
 6207SOL    HW219521   1.159   4.941   4.489
 6208SOL     OW19522   4.091   4.047   6.162
 6208SOL    HW119523   4.134   4.115   6.223
 6208SOL    HW219524   4.154   4.026   6.087
 6209SOL     OW19525   3.148   2.580   1.472
 6209SOL    HW119526   3.239   2.548   1.496
 6209SOL    HW219527   3.136   2.577   1.373
 6210SOL     OW19528   5.224   2.331   4.779
 6210SOL    HW119529   5.141   2.321   4.723
 6210SOL    HW219530   5.206   2.295   4.870
 6211SOL     OW19531   5.601   4.333   4.901
 6211SOL    HW119532   5.530   4.297   4.840
 6211SOL    HW219533   5.682   4.356   4.849
 6212SOL     OW19534   3.901   5.348   4.893
 6212SOL    HW119535   3.926   5.287   4.968
 6212SOL    HW219536   3.880   5.295   4.812
 6213SOL     OW19537   4.556   5.822   0.299
 6213SOL    HW119538   4.495   5.886   0.252
 6213SOL    HW219539   4.642   5.816   0.250
 6214SOL     OW19540   6.487   6.710   6.169
 6214SOL    HW119541   6.547   6.641   6.130
 6214SOL    HW219542   6.534   6.759   6.242
 6215SOL     OW19543   5.570   2.396   5.643
 6215SOL    HW119544   5.618   2.398   5.555
 6215SOL    HW219545   5.484   2.346   5.633
 6216SOL     OW19546   4.394   1.744   4.013
 6216SOL    HW119547   4.340   1.711   4.090
 6216SOL    HW219548   4.382   1.843   4.004
 6217SOL     OW19549   0.353   4.851   3.409
 6217SOL    HW119550   0.441   4.847   3.456
 6217SOL    HW219551   0.363   4.903   3.324
 6218SOL     OW19552   4.702   6.489   0.417
 6218SOL    HW119553   4.766   6.550   0.463
 6218SOL    HW219554   4.660   6.427   0.484
 6219SOL     OW19555   2.053   1.324   6.212
 6219SOL    HW119556   2.093   1.329   6.121
 6219SOL    HW219557   2.110   1.266   6.270
 6220SOL     OW19558   3.582   6.499   0.641
 6220SOL    HW119559   3.589   6.527   0.545
 6220SOL    HW219560   3.518   6.422   0.648
 6221SOL     OW19561   5.584   6.131   6.781
 6221SOL    HW119562   5.681   6.146   6.798
 6221SOL    HW219563   5.541   6.091   6.862
 6222SOL     OW19564   6.519   1.312   1.999
 6222SOL    HW119565   6.589   1.381   1.983
 6222SOL    HW219566   6.543   1.229   1.948
 6223SOL     OW19567   0.141   5.177   4.016
 6223SOL    HW119568   0.139   5.182   4.116
 6223SOL    HW219569   0.055   5.139   3.984
 6224SOL     OW19570   3.710   0.147   6.939
 6224SOL    HW119571   3.615   0.144   6.970
 6224SOL    HW219572   3.718   0.207   6.860
 6225SOL     OW19573   4.509   5.863   6.835
 6225SOL    HW119574   4.576   5.906   6.775
 6225SOL    HW219575   4.553   5.789   6.886
 6226SOL     OW19576   1.183   0.792   4.538
 6226SOL    HW119577   1.215   0.751   4.623
 6226SOL    HW219578   1.108   0.855   4.558
 6227SOL     OW19579   2.672   4.491   5.284
 6227SOL    HW119580   2.756   4.507   5.231
 6227SOL    HW219581   2.682   4.533   5.375
 6228SOL     OW19582   1.047   3.144   3.205
 6228SOL    HW119583   1.008   3.061   3.245
 6228SOL    HW219584   1.146   3.145   3.219
 6229SOL     OW19585   0.319   2.789   4.081
 6229SOL    HW119586   0.403   2.813   4.032
 6229SOL    HW219587   0.243   2.843   4.045
 6230SOL     OW19588   6.882   0.776   1.511
 6230SOL    HW119589   6.973   0.788   1.551
 6230SOL    HW219590   6.836   0.698   1.556
 6231SOL     OW19591   2.340   5.051   6.720
 6231SOL    HW119592   2.401   5.113   6.769
 6231SOL    HW219593   2.283   5.002   6.785
 6232SOL     OW19594   4.348   0.522   6.102
 6232SOL    HW119595   4.380   0.437   6.059
 6232SOL    HW219596   4.282   0.501   6.174
 6233SOL     OW19597   0.273   3.505   1.534
 6233SOL    HW119598   0.179   3.483   1.508
 6233SOL    HW219599   0.274   3.593   1.582
 6234SOL     OW19600   4.487   5.065   4.664
 6234SOL    HW119601   4.446   5.157   4.657
 6234SOL    HW219602   4.575   5.064   4.618
 6235SOL     OW19603   0.417   0.652   2.538
 6235SOL    HW119604   0.448   0.636   2.445
 6235SOL    HW219605   0.402   0.564   2.583
 6236SOL     OW19606   0.128   5.242   1.667
 6236SOL    HW119607   0.131   5.270   1.570
 6236SOL    HW219608   0.119   5.324   1.724
 6237SOL     OW19609   3.395   1.052   1.384
 6237SOL    HW119610   3.301   1.081   1.365
 6237SOL    HW219611   3.406   1.037   1.483
 6238SOL     OW19612   2.352   0.296   4.126
 6238SOL    HW119613   2.397   0.231   4.065
 6238SOL    HW219614   2.414   0.319   4.201
 6239SOL     OW19615   4.537   1.810   4.637
 6239SOL    HW119616   4.458   1.783   4.582
 6239SOL    HW219617   4.568   1.732   4.691
 6240SOL     OW19618   3.369   2.872   4.071
 6240SOL    HW119619   3.453   2.821   4.056
 6240SOL    HW219620   3.340   2.915   3.985
 6241SOL     OW19621   3.349   0.257   3.919
 6241SOL    HW119622   3.296   0.308   3.852
 6241SOL    HW219623   3.293   0.183   3.956
 6242SOL     OW19624   2.443   2.269   3.146
 6242SOL    HW119625   2.349   2.300   3.130
 6242SOL    HW219626   2.483   2.239   3.060
 6243SOL     OW19627   4.437   1.801   6.319
 6243SOL    HW119628   4.421   1.805   6.221
 6243SOL    HW219629   4.507   1.733   6.339
 6244SOL     OW19630   4.967   3.061   2.410
 6244SOL    HW119631   5.043   3.113   2.373
 6244SOL    HW219632   4.949   2.981   2.352
 6245SOL     OW19633   0.143   4.742   2.110
 6245SOL    HW119634   0.126   4.650   2.076
 6245SOL    HW219635   0.055   4.788   2.126
 6246SOL     OW19636   6.793   6.961   3.729
 6246SOL    HW119637   6.737   6.985   3.650
 6246SOL    HW219638   6.760   6.876   3.769
 6247SOL     OW19639   6.167   6.345   3.804
 6247SOL    HW119640   6.240   6.395   3.852
 6247SOL    HW219641   6.203   6.306   3.720
 6248SOL     OW19642   3.653   2.866   5.954
 6248SOL    HW119643   3.692   2.857   5.862
 6248SOL    HW219644   3.554   2.879   5.947
 6249SOL     OW19645   5.850   2.993   2.150
 6249SOL    HW119646   5.830   3.091   2.155
 6249SOL    HW219647   5.816   2.957   2.063
 6250SOL     OW19648   6.282   6.919   6.833
 6250SOL    HW119649   6.294   6.827   6.873
 6250SOL    HW219650   6.221   6.913   6.754
 6251SOL     OW19651   2.542   0.252   4.300
 6251SOL    HW119652   2.564   0.155   4.285
 6251SOL    HW219653   2.622   0.307   4.278
 6252SOL     OW19654   3.269   5.581   6.517
 6252SOL    HW119655   3.227   5.667   6.544
 6252SOL    HW219656   3.229   5.549   6.431
 6253SOL     OW19657   3.878   5.774   4.201
 6253SOL    HW119658   3.954   5.826   4.163
 6253SOL    HW219659   3.801   5.776   4.137
 6254SOL     OW19660   0.386   0.026   1.254
 6254SOL    HW119661   0.297   0.070   1.241
 6254SOL    HW219662   0.436   0.073   1.327
 6255SOL     OW19663   0.969   1.535   0.781
 6255SOL    HW119664   1.032   1.600   0.739
 6255SOL    HW219665   1.005   1.508   0.870
 6256SOL     OW19666   5.583   5.897   2.167
 6256SOL    HW119667   5.501   5.954   2.162
 6256SOL    HW219668   5.664   5.956   2.162
 6257SOL     OW19669   3.132   3.992   1.068
 6257SOL    HW119670   3.049   3.992   1.013
 6257SOL    HW219671   3.210   3.964   1.012
 6258SOL     OW19672   4.335   5.308   5.309
 6258SOL    HW119673   4.270   5.232   5.306
 6258SOL    HW219674   4.416   5.281   5.361
 6259SOL     OW19675   3.774   0.969   4.436
 6259SOL    HW119676   3.833   0.979   4.356
 6259SOL    HW219677   3.786   1.048   4.497
 6260SOL     OW19678   1.708   1.254   6.449
 6260SOL    HW119679   1.693   1.228   6.354
 6260SOL    HW219680   1.791   1.208   6.483
 6261SOL     OW19681   3.783   0.235   0.879
 6261SOL    HW119682   3.809   0.147   0.839
 6261SOL    HW219683   3.691   0.227   0.918
 6262SOL     OW19684   5.698   0.935   2.638
 6262SOL    HW119685   5.729   0.897   2.551
 6262SOL    HW219686   5.626   1.002   2.621
 6263SOL     OW19687   5.558   6.008   5.509
 6263SOL    HW119688   5.628   5.969   5.569
 6263SOL    HW219689   5.512   6.083   5.556
 6264SOL     OW19690   2.334   6.885   0.078
 6264SOL    HW119691   2.252   6.841   0.116
 6264SOL    HW219692   2.365   6.833   7.019
 6265SOL     OW19693   4.666   6.710   6.585
 6265SOL    HW119694   4.723   6.786   6.552
 6265SOL    HW219695   4.623   6.664   6.507
 6266SOL     OW19696   3.039   5.142   3.198
 6266SOL    HW119697   3.136   5.129   3.220
 6266SOL    HW219698   2.983   5.085   3.257
 6267SOL     OW19699   1.712   6.713   4.774
 6267SOL    HW119700   1.767   6.742   4.853
 6267SOL    HW219701   1.620   6.688   4.805
 6268SOL     OW19702   3.039   1.634   0.122
 6268SOL    HW119703   3.090   1.614   0.206
 6268SOL    HW219704   2.975   1.709   0.140
 6269SOL     OW19705   6.376   5.157   0.179
 6269SOL    HW119706   6.426   5.237   0.145
 6269SOL    HW219707   6.437   5.078   0.179
 6270SOL     OW19708   2.161   6.134   0.903
 6270SOL    HW119709   2.131   6.113   0.997
 6270SOL    HW219710   2.185   6.230   0.897
 6271SOL     OW19711   6.877   3.253   5.710
 6271SOL    HW119712   6.863   3.164   5.668
 6271SOL    HW219713   6.953   3.300   5.665
 6272SOL     OW19714   6.967   0.239   0.102
 6272SOL    HW119715   6.874   0.211   0.077
 6272SOL    HW219716   6.972   0.338   0.111
 6273SOL     OW19717   0.710   6.234   1.930
 6273SOL    HW119718   0.669   6.325   1.927
 6273SOL    HW219719   0.796   6.235   1.878
 6274SOL     OW19720   3.080   5.455   3.650
 6274SOL    HW119721   3.144   5.438   3.575
 6274SOL    HW219722   3.084   5.379   3.715
 6275SOL     OW19723   3.029   5.585   6.798
 6275SOL    HW119724   2.960   5.623   6.737
 6275SOL    HW219725   3.025   5.485   6.795
 6276SOL     OW19726   1.787   5.430   2.371
 6276SOL    HW119727   1.883   5.447   2.347
 6276SOL    HW219728   1.730   5.446   2.290
 6277SOL     OW19729   5.678   2.537   1.115
 6277SOL    HW119730   5.732   2.618   1.092
 6277SOL    HW219731   5.733   2.475   1.170
 6278SOL     OW19732   3.576   1.846   0.060
 6278SOL    HW119733   3.662   1.895   0.072
 6278SOL    HW219734   3.515   1.901   0.002
 6279SOL     OW19735   3.650   6.678   2.008
 6279SOL    HW119736   3.662   6.741   1.931
 6279SOL    HW219737   3.558   6.641   2.007
 6280SOL     OW19738   5.592   2.746   6.720
 6280SOL    HW119739   5.493   2.733   6.717
 6280SOL    HW219740   5.614   2.839   6.693
 6281SOL     OW19741   5.422   3.860   5.697
 6281SOL    HW119742   5.490   3.872   5.625
 6281SOL    HW219743   5.338   3.907   5.672
 6282SOL     OW19744   0.370   3.453   5.902
 6282SOL    HW119745   0.447   3.462   5.839
 6282SOL    HW219746   0.355   3.539   5.951
 6283SOL     OW19747   1.962   6.465   4.721
 6283SOL    HW119748   1.926   6.438   4.631
 6283SOL    HW219749   1.887   6.478   4.785
 6284SOL     OW19750   1.029   3.778   5.213
 6284SOL    HW119751   1.053   3.723   5.292
 6284SOL    HW219752   1.112   3.809   5.167
 6285SOL     OW19753   1.607   3.535   3.131
 6285SOL    HW119754   1.568   3.620   3.096
 6285SOL    HW219755   1.534   3.472   3.157
 6286SOL     OW19756   0.579   2.613   6.709
 6286SOL    HW119757   0.518   2.563   6.647
 6286SOL    HW219758   0.602   2.554   6.787
 6287SOL     OW19759   4.693   5.027   5.053
 6287SOL    HW119760   4.757   4.953   5.033
 6287SOL    HW219761   4.742   5.101   5.099
 6288SOL     OW19762   2.750   3.711   6.438
 6288SOL    HW119763   2.696   3.736   6.519
 6288SOL    HW219764   2.697   3.649   6.381
 6289SOL     OW19765   2.246   4.177   6.123
 6289SOL    HW119766   2.309   4.163   6.048
 6289SOL    HW219767   2.277   4.125   6.203
 6290SOL     OW19768   6.131   6.427   4.207
 6290SOL    HW119769   6.061   6.452   4.274
 6290SOL    HW219770   6.189   6.506   4.189
 6291SOL     OW19771   4.028   3.519   2.627
 6291SOL    HW119772   4.039   3.612   2.662
 6291SOL    HW219773   4.100   3.500   2.559
 6292SOL     OW19774   1.615   4.170   3.861
 6292SOL    HW119775   1.701   4.209   3.892
 6292SOL    HW219776   1.612   4.073   3.883
 6293SOL     OW19777   2.765   1.309   6.527
 6293SOL    HW119778   2.739   1.214   6.507
 6293SOL    HW219779   2.836   1.310   6.597
 6294SOL     OW19780   1.676   1.202   2.510
 6294SOL    HW119781   1.742   1.178   2.438
 6294SOL    HW219782   1.685   1.138   2.586
 6295SOL     OW19783   4.532   3.001   6.293
 6295SOL    HW119784   4.438   2.974   6.311
 6295SOL    HW219785   4.540   3.034   6.199
 6296SOL     OW19786   1.113   3.354   0.443
 6296SOL    HW119787   1.068   3.354   0.532
 6296SOL    HW219788   1.212   3.342   0.455
 6297SOL     OW19789   6.256   1.573   4.374
 6297SOL    HW119790   6.215   1.663   4.390
 6297SOL    HW219791   6.262   1.557   4.275
 6298SOL     OW19792   7.007   6.150   0.696
 6298SOL    HW119793   6.959   6.233   0.667
 6298SOL    HW219794   6.988   6.133   0.793
 6299SOL     OW19795   3.328   1.884   3.276
 6299SOL    HW119796   3.343   1.914   3.370
 6299SOL    HW219797   3.255   1.937   3.234
 6300SOL     OW19798   2.909   1.453   6.858
 6300SOL    HW119799   2.917   1.360   6.822
 6300SOL    HW219800   2.865   1.451   6.947
 6301SOL     OW19801   4.595   6.272   0.547
 6301SOL    HW119802   4.680   6.222   0.530
 6301SOL    HW219803   4.520   6.228   0.497
 6302SOL     OW19804   2.398   2.490   6.063
 6302SOL    HW119805   2.414   2.511   5.967
 6302SOL    HW219806   2.435   2.562   6.120
 6303SOL     OW19807   0.362   5.870   4.947
 6303SOL    HW119808   0.304   5.879   5.028
 6303SOL    HW219809   0.398   5.959   4.921
 6304SOL     OW19810   3.839   0.707   4.114
 6304SOL    HW119811   3.789   0.635   4.164
 6304SOL    HW219812   3.899   0.755   4.177
 6305SOL     OW19813   1.185   5.844   5.795
 6305SOL    HW119814   1.279   5.870   5.819
 6305SOL    HW219815   1.140   5.921   5.749
 6306SOL     OW19816   0.463   5.204   4.810
 6306SOL    HW119817   0.455   5.254   4.724
 6306SOL    HW219818   0.525   5.253   4.872
 6307SOL     OW19819   3.413   2.837   2.327
 6307SOL    HW119820   3.339   2.866   2.265
 6307SOL    HW219821   3.483   2.789   2.274
 6308SOL     OW19822   0.351   2.178   0.190
 6308SOL    HW119823   0.312   2.141   0.275
 6308SOL    HW219824   0.404   2.107   0.144
 6309SOL     OW19825   2.648   6.390   4.814
 6309SOL    HW119826   2.558   6.418   4.845
 6309SOL    HW219827   2.689   6.329   4.882
 6310SOL     OW19828   1.448   0.169   2.685
 6310SOL    HW119829   1.371   0.223   2.650
 6310SOL    HW219830   1.421   0.125   2.771
 6311SOL     OW19831   6.128   1.184   6.680
 6311SOL    HW119832   6.205   1.209   6.622
 6311SOL    HW219833   6.152   1.103   6.734
 6312SOL     OW19834   3.427   6.098   6.915
 6312SOL    HW119835   3.417   6.092   7.015
 6312SOL    HW219836   3.482   6.178   6.892
 6313SOL     OW19837   6.302   4.999   4.467
 6313SOL    HW119838   6.269   5.087   4.435
 6313SOL    HW219839   6.245   4.926   4.430
 6314SOL     OW19840   2.021   6.312   2.333
 6314SOL    HW119841   2.082   6.282   2.406
 6314SOL    HW219842   1.931   6.332   2.372
 6315SOL     OW19843   1.699   1.910   3.578
 6315SOL    HW119844   1.719   1.813   3.562
 6315SOL    HW219845   1.743   1.965   3.507
 6316SOL     OW19846   4.643   1.334   4.761
 6316SOL    HW119847   4.588   1.342   4.678
 6316SOL    HW219848   4.740   1.337   4.736
 6317SOL     OW19849   5.332   4.951   2.507
 6317SOL    HW119850   5.235   4.964   2.526
 6317SOL    HW219851   5.350   4.971   2.410
 6318SOL     OW19852   6.787   6.609   0.362
 6318SOL    HW119853   6.789   6.535   0.296
 6318SOL    HW219854   6.879   6.648   0.372
 6319SOL     OW19855   5.594   1.919   4.101
 6319SOL    HW119856   5.552   1.972   4.175
 6319SOL    HW219857   5.568   1.822   4.111
 6320SOL     OW19858   6.134   1.496   5.574
 6320SOL    HW119859   6.234   1.507   5.569
 6320SOL    HW219860   6.112   1.417   5.631
 6321SOL     OW19861   0.440   2.686   6.988
 6321SOL    HW119862   0.492   2.768   7.013
 6321SOL    HW219863   0.449   2.617   0.039
 6322SOL     OW19864   0.855   1.155   2.791
 6322SOL    HW119865   0.932   1.127   2.733
 6322SOL    HW219866   0.875   1.131   2.886
 6323SOL     OW19867   2.135   4.858   0.861
 6323SOL    HW119868   2.210   4.913   0.824
 6323SOL    HW219869   2.065   4.919   0.899
 6324SOL     OW19870   4.594   3.284   1.328
 6324SOL    HW119871   4.559   3.299   1.235
 6324SOL    HW219872   4.575   3.364   1.384
 6325SOL     OW19873   1.492   2.664   3.666
 6325SOL    HW119874   1.497   2.642   3.764
 6325SOL    HW219875   1.462   2.583   3.616
 6326SOL     OW19876   5.291   5.608   5.611
 6326SOL    HW119877   5.322   5.549   5.536
 6326SOL    HW219878   5.363   5.615   5.680
 6327SOL     OW19879   0.195   1.267   3.479
 6327SOL    HW119880   0.253   1.253   3.399
 6327SOL    HW219881   0.148   1.355   3.472
 6328SOL     OW19882   4.431   3.521   5.304
 6328SOL    HW119883   4.511   3.537   5.246
 6328SOL    HW219884   4.457   3.531   5.400
 6329SOL     OW19885   0.337   2.088   5.815
 6329SOL    HW119886   0.374   2.174   5.781
 6329SOL    HW219887   0.308   2.031   5.738
 6330SOL     OW19888   5.233   1.680   3.811
 6330SOL    HW119889   5.174   1.650   3.885
 6330SOL    HW219890   5.273   1.600   3.765
 6331SOL     OW19891   0.943   3.220   4.026
 6331SOL    HW119892   0.915   3.284   3.954
 6331SOL    HW219893   0.861   3.181   4.069
 6332SOL     OW19894   3.397   1.485   6.630
 6332SOL    HW119895   3.325   1.543   6.670
 6332SOL    HW219896   3.434   1.530   6.549
 6333SOL     OW19897   5.997   0.990   1.007
 6333SOL    HW119898   6.019   1.021   0.914
 6333SOL    HW219899   6.068   1.021   1.070
 6334SOL     OW19900   1.324   1.059   1.659
 6334SOL    HW119901   1.299   0.963   1.652
 6334SOL    HW219902   1.245   1.116   1.637
 6335SOL     OW19903   6.652   3.304   6.150
 6335SOL    HW119904   6.727   3.292   6.215
 6335SOL    HW219905   6.564   3.297   6.197
 6336SOL     OW19906   0.495   4.349   5.183
 6336SOL    HW119907   0.449   4.264   5.160
 6336SOL    HW219908   0.592   4.332   5.202
 6337SOL     OW19909   5.194   6.575   5.408
 6337SOL    HW119910   5.276   6.621   5.373
 6337SOL    HW219911   5.212   6.542   5.501
 6338SOL     OW19912   1.189   1.264   3.088
 6338SOL    HW119913   1.174   1.332   3.159
 6338SOL    HW219914   1.134   1.287   3.008
 6339SOL     OW19915   0.556   4.581   3.825
 6339SOL    HW119916   0.544   4.534   3.738
 6339SOL    HW219917   0.467   4.606   3.863
 6340SOL     OW19918   2.597   3.883   0.348
 6340SOL    HW119919   2.651   3.933   0.279
 6340SOL    HW219920   2.658   3.831   0.407
 6341SOL     OW19921   0.655   5.655   1.888
 6341SOL    HW119922   0.682   5.641   1.983
 6341SOL    HW219923   0.572   5.601   1.869
 6342SOL     OW19924   1.811   1.165   1.098
 6342SOL    HW119925   1.713   1.175   1.113
 6342SOL    HW219926   1.845   1.242   1.044
 6343SOL     OW19927   1.127   5.643   0.631
 6343SOL    HW119928   1.052   5.699   0.593
 6343SOL    HW219929   1.101   5.610   0.722
 6344SOL     OW19930   0.225   1.212   3.733
 6344SOL    HW119931   0.242   1.227   3.635
 6344SOL    HW219932   0.250   1.118   3.757
 6345SOL     OW19933   5.742   2.427   2.460
 6345SOL    HW119934   5.756   2.347   2.402
 6345SOL    HW219935   5.739   2.398   2.556
 6346SOL     OW19936   0.171   4.361   5.765
 6346SOL    HW119937   0.128   4.307   5.694
 6346SOL    HW219938   0.145   4.325   5.855
 6347SOL     OW19939   2.239   2.460   3.730
 6347SOL    HW119940   2.271   2.407   3.808
 6347SOL    HW219941   2.210   2.399   3.656
 6348SOL     OW19942   1.363   2.205   6.188
 6348SOL    HW119943   1.317   2.264   6.122
 6348SOL    HW219944   1.451   2.245   6.212
 6349SOL     OW19945   6.715   1.047   0.706
 6349SOL    HW119946   6.662   1.091   0.634
 6349SOL    HW219947   6.679   1.073   0.795
 6350SOL     OW19948   0.819   6.159   0.975
 6350SOL    HW119949   0.912   6.190   0.955
 6350SOL    HW219950   0.767   6.235   1.015
 6351SOL     OW19951   5.766   4.151   1.997
 6351SOL    HW119952   5.813   4.095   1.928
 6351SOL    HW219953   5.831   4.214   2.039
 6352SOL     OW19954   3.553   1.108   4.673
 6352SOL    HW119955   3.527   1.195   4.716
 6352SOL    HW219956   3.628   1.067   4.724
 6353SOL     OW19957   3.528   6.352   5.748
 6353SOL    HW119958   3.481   6.440   5.744
 6353SOL    HW219959   3.583   6.339   5.666
 6354SOL     OW19960   4.741   5.153   1.961
 6354SOL    HW119961   4.787   5.097   2.031
 6354SOL    HW219962   4.795   5.235   1.944
 6355SOL     OW19963   3.304   5.675   0.481
 6355SOL    HW119964   3.340   5.765   0.508
 6355SOL    HW219965   3.291   5.619   0.563
 6356SOL     OW19966   0.360   5.806   5.775
 6356SOL    HW119967   0.335   5.775   5.867
 6356SOL    HW219968   0.448   5.854   5.779
 6357SOL     OW19969   5.292   0.639   2.350
 6357SOL    HW119970   5.272   0.698   2.271
 6357SOL    HW219971   5.361   0.572   2.324
 6358SOL     OW19972   1.235   1.980   5.164
 6358SOL    HW119973   1.155   1.944   5.117
 6358SOL    HW219974   1.206   2.031   5.245
 6359SOL     OW19975   5.397   6.198   0.961
 6359SOL    HW119976   5.320   6.256   0.987
 6359SOL    HW219977   5.418   6.212   0.864
 6360SOL     OW19978   0.669   1.265   1.129
 6360SOL    HW119979   0.654   1.180   1.180
 6360SOL    HW219980   0.767   1.286   1.128
 6361SOL     OW19981   0.705   1.386   0.344
 6361SOL    HW119982   0.802   1.403   0.361
 6361SOL    HW219983   0.654   1.399   0.429
 6362SOL     OW19984   1.271   5.534   0.397
 6362SOL    HW119985   1.239   5.572   0.484
 6362SOL    HW219986   1.322   5.450   0.415
 6363SOL     OW19987   2.166   3.859   2.727
 6363SOL    HW119988   2.151   3.793   2.653
 6363SOL    HW219989   2.181   3.809   2.813
 6364SOL     OW19990   2.431   2.233   4.431
 6364SOL    HW119991   2.394   2.184   4.510
 6364SOL    HW219992   2.383   2.320   4.420
 6365SOL     OW19993   5.803   6.913   3.088
 6365SOL    HW119994   5.735   6.973   3.045
 6365SOL    HW219995   5.756   6.841   3.140
 6366SOL     OW19996   5.665   0.933   5.088
 6366SOL    HW119997   5.654   0.848   5.139
 6366SOL    HW219998   5.740   0.987   5.127
 6367SOL     OW19999   1.032   2.192   2.919
 6367SOL    HW120000   1.088   2.246   2.981
 6367SOL    HW220001   1.089   2.154   2.846
 6368SOL     OW20002   4.933   4.184   4.410
 6368SOL    HW120003   4.969   4.184   4.504
 6368SOL    HW220004   4.983   4.116   4.356
 6369SOL     OW20005   4.588   5.175   0.537
 6369SOL    HW120006   4.530   5.124   0.600
 6369SOL    HW220007   4.683   5.169   0.567
 6370SOL     OW20008   5.581   4.045   4.159
 6370SOL    HW120009   5.664   4.003   4.194
 6370SOL    HW220010   5.512   3.974   4.142
 6371SOL     OW20011   5.394   4.382   1.506
 6371SOL    HW120012   5.402   4.378   1.407
 6371SOL    HW220013   5.395   4.290   1.544
 6372SOL     OW20014   6.314   1.679   1.736
 6372SOL    HW120015   6.413   1.678   1.747
 6372SOL    HW220016   6.275   1.596   1.775
 6373SOL     OW20017   4.936   3.591   1.628
 6373SOL    HW120018   4.960   3.515   1.568
 6373SOL    HW220019   5.020   3.632   1.665
 6374SOL     OW20020   4.646   3.749   6.896
 6374SOL    HW120021   4.646   3.736   6.797
 6374SOL    HW220022   4.656   3.846   6.917
 6375SOL     OW20023   4.837   1.529   2.124
 6375SOL    HW120024   4.917   1.587   2.110
 6375SOL    HW220025   4.831   1.462   2.051
 6376SOL     OW20026   3.414   0.493   0.273
 6376SOL    HW120027   3.478   0.521   0.344
 6376SOL    HW220028   3.369   0.573   0.234
 6377SOL     OW20029   0.522   0.628   0.382
 6377SOL    HW120030   0.528   0.567   0.303
 6377SOL    HW220031   0.600   0.613   0.443
 6378SOL     OW20032   5.324   4.455   2.335
 6378SOL    HW120033   5.245   4.505   2.369
 6378SOL    HW220034   5.397   4.520   2.312
 6379SOL     OW20035   2.236   5.112   6.477
 6379SOL    HW120036   2.274   5.093   6.567
 6379SOL    HW220037   2.274   5.049   6.410
 6380SOL     OW20038   0.498   4.110   5.545
 6380SOL    HW120039   0.544   4.134   5.631
 6380SOL    HW220040   0.566   4.103   5.472
 6381SOL     OW20041   4.536   3.208   0.632
 6381SOL    HW120042   4.602   3.270   0.674
 6381SOL    HW220043   4.585   3.135   0.583
 6382SOL     OW20044   1.512   1.491   0.405
 6382SOL    HW120045   1.504   1.393   0.386
 6382SOL    HW220046   1.554   1.536   0.326
 6383SOL     OW20047   2.291   2.233   2.311
 6383SOL    HW120048   2.231   2.275   2.379
 6383SOL    HW220049   2.386   2.236   2.343
 6384SOL     OW20050   6.369   2.684   1.833
 6384SOL    HW120051   6.310   2.607   1.859
 6384SOL    HW220052   6.316   2.769   1.836
 6385SOL     OW20053   0.081   3.621   6.925
 6385SOL    HW120054   7.010   3.633   6.888
 6385SOL    HW220055   0.147   3.621   6.850
 6386SOL     OW20056   2.735   2.462   0.652
 6386SOL    HW120057   2.747   2.429   0.746
 6386SOL    HW220058   2.699   2.388   0.596
 6387SOL     OW20059   0.583   6.756   6.998
 6387SOL    HW120060   0.599   6.670   0.026
 6387SOL    HW220061   0.658   6.819   7.018
 6388SOL     OW20062   5.806   5.181   1.926
 6388SOL    HW120063   5.838   5.215   2.015
 6388SOL    HW220064   5.884   5.161   1.867
 6389SOL     OW20065   6.694   6.559   0.628
 6389SOL    HW120066   6.645   6.638   0.666
 6389SOL    HW220067   6.725   6.580   0.535
 6390SOL     OW20068   5.337   0.899   0.134
 6390SOL    HW120069   5.274   0.824   0.117
 6390SOL    HW220070   5.357   0.905   0.231
 6391SOL     OW20071   1.422   2.133   5.043
 6391SOL    HW120072   1.462   2.068   4.978
 6391SOL    HW220073   1.341   2.092   5.085
 6392SOL     OW20074   3.768   6.968   3.720
 6392SOL    HW120075   3.862   6.977   3.687
 6392SOL    HW220076   3.705   6.985   3.645
 6393SOL     OW20077   1.338   5.851   7.006
 6393SOL    HW120078   1.377   5.861   0.077
 6393SOL    HW220079   1.284   5.767   7.002
 6394SOL     OW20080   1.862   5.002   1.994
 6394SOL    HW120081   1.835   5.037   2.084
 6394SOL    HW220082   1.852   5.074   1.925
 6395SOL     OW20083   2.085   3.722   3.844
 6395SOL    HW120084   2.067   3.655   3.916
 6395SOL    HW220085   2.150   3.684   3.779
 6396SOL     OW20086   1.390   2.829   5.441
 6396SOL    HW120087   1.352   2.854   5.530
 6396SOL    HW220088   1.486   2.857   5.437
 6397SOL     OW20089   5.699   4.094   4.695
 6397SOL    HW120090   5.615   4.040   4.696
 6397SOL    HW220091   5.759   4.062   4.622
 6398SOL     OW20092   2.280   6.874   2.445
 6398SOL    HW120093   2.247   6.780   2.443
 6398SOL    HW220094   2.251   6.918   2.530
 6399SOL     OW20095   3.123   0.308   6.914
 6399SOL    HW120096   3.137   0.209   6.911
 6399SOL    HW220097   3.143   0.341   7.006
 6400SOL     OW20098   0.331   6.380   3.204
 6400SOL    HW120099   0.364   6.340   3.290
 6400SOL    HW220100   0.309   6.307   3.140
 6401SOL     OW20101   4.239   5.216   2.811
 6401SOL    HW120102   4.238   5.303   2.761
 6401SOL    HW220103   4.300   5.152   2.765
 6402SOL     OW20104   2.613   4.358   5.987
 6402SOL    HW120105   2.709   4.358   6.018
 6402SOL    HW220106   2.602   4.427   5.916
 6403SOL     OW20107   5.036   5.220   5.079
 6403SOL    HW120108   5.035   5.181   4.987
 6403SOL    HW220109   4.962   5.179   5.133
 6404SOL     OW20110   4.647   6.963   1.589
 6404SOL    HW120111   4.706   6.966   1.509
 6404SOL    HW220112   4.700   6.983   1.671
 6405SOL     OW20113   5.250   1.399   3.008
 6405SOL    HW120114   5.324   1.405   2.941
 6405SOL    HW220115   5.255   1.476   3.071
 6406SOL     OW20116   0.583   3.268   3.024
 6406SOL    HW120117   0.665   3.325   3.014
 6406SOL    HW220118   0.515   3.316   3.079
 6407SOL     OW20119   0.372   6.469   2.667
 6407SOL    HW120120   0.404   6.563   2.656
 6407SOL    HW220121   0.288   6.468   2.721
 6408SOL     OW20122   6.840   0.985   1.804
 6408SOL    HW120123   6.917   0.924   1.824
 6408SOL    HW220124   6.875   1.076   1.780
 6409SOL     OW20125   5.060   4.825   3.589
 6409SOL    HW120126   5.049   4.925   3.584
 6409SOL    HW220127   5.135   4.797   3.529
 6410SOL     OW20128   2.045   1.508   0.312
 6410SOL    HW120129   1.967   1.539   0.368
 6410SOL    HW220130   2.012   1.477   0.223
 6411SOL     OW20131   0.402   2.819   2.164
 6411SOL    HW120132   0.443   2.885   2.101
 6411SOL    HW220133   0.389   2.732   2.117
 6412SOL     OW20134   3.512   1.300   0.106
 6412SOL    HW120135   3.556   1.366   0.167
 6412SOL    HW220136   3.447   1.348   0.047
 6413SOL     OW20137   4.826   6.029   3.578
 6413SOL    HW120138   4.859   5.940   3.610
 6413SOL    HW220139   4.835   6.034   3.478
 6414SOL     OW20140   2.366   0.015   0.456
 6414SOL    HW120141   2.445   0.071   0.481
 6414SOL    HW220142   2.373   6.947   0.501
 6415SOL     OW20143   0.607   2.557   3.831
 6415SOL    HW120144   0.645   2.466   3.817
 6415SOL    HW220145   0.664   2.607   3.897
 6416SOL     OW20146   2.787   5.350   6.818
 6416SOL    HW120147   2.740   5.402   6.889
 6416SOL    HW220148   2.876   5.319   6.852
 6417SOL     OW20149   4.372   3.106   6.938
 6417SOL    HW120150   4.471   3.111   6.924
 6417SOL    HW220151   4.352   3.097   0.015
 6418SOL     OW20152   4.852   4.527   0.403
 6418SOL    HW120153   4.887   4.453   0.346
 6418SOL    HW220154   4.753   4.515   0.415
 6419SOL     OW20155   0.704   6.569   6.339
 6419SOL    HW120156   0.653   6.541   6.420
 6419SOL    HW220157   0.698   6.668   6.329
 6420SOL     OW20158   2.439   4.673   4.289
 6420SOL    HW120159   2.436   4.639   4.383
 6420SOL    HW220160   2.488   4.608   4.231
 6421SOL     OW20161   3.922   0.682   2.308
 6421SOL    HW120162   3.951   0.653   2.399
 6421SOL    HW220163   3.993   0.738   2.266
 6422SOL     OW20164   6.497   2.849   4.647
 6422SOL    HW120165   6.460   2.863   4.555
 6422SOL    HW220166   6.542   2.760   4.651
 6423SOL     OW20167   1.437   4.781   4.471
 6423SOL    HW120168   1.467   4.874   4.449
 6423SOL    HW220169   1.418   4.774   4.569
 6424SOL     OW20170   6.487   4.916   5.617
 6424SOL    HW120171   6.580   4.918   5.652
 6424SOL    HW220172   6.434   4.848   5.666
 6425SOL     OW20173   6.853   5.959   4.388
 6425SOL    HW120174   6.843   6.024   4.463
 6425SOL    HW220175   6.950   5.945   4.369
 6426SOL     OW20176   4.249   4.726   4.534
 6426SOL    HW120177   4.277   4.689   4.622
 6426SOL    HW220178   4.326   4.722   4.470
 6427SOL     OW20179   4.077   3.195   3.775
 6427SOL    HW120180   4.133   3.254   3.718
 6427SOL    HW220181   4.037   3.122   3.720
 6428SOL     OW20182   5.470   2.748   0.809
 6428SOL    HW120183   5.542   2.811   0.838
 6428SOL    HW220184   5.488   2.718   0.716
 6429SOL     OW20185   2.411   1.464   4.980
 6429SOL    HW120186   2.321   1.504   4.960
 6429SOL    HW220187   2.400   1.385   5.040
 6430SOL     OW20188   6.394   0.799   5.200
 6430SOL    HW120189   6.437   0.830   5.284
 6430SOL    HW220190   6.309   0.851   5.185
 6431SOL     OW20191   3.824   4.853   2.198
 6431SOL    HW120192   3.855   4.940   2.160
 6431SOL    HW220193   3.755   4.813   2.139
 6432SOL     OW20194   5.486   3.869   6.156
 6432SOL    HW120195   5.548   3.923   6.099
 6432SOL    HW220196   5.407   3.924   6.181
 6433SOL     OW20197   2.937   4.551   5.752
 6433SOL    HW120198   2.905   4.469   5.704
 6433SOL    HW220199   3.020   4.528   5.804
 6434SOL     OW20200   4.907   5.503   6.129
 6434SOL    HW120201   4.880   5.490   6.225
 6434SOL    HW220202   4.827   5.500   6.071
 6435SOL     OW20203   4.364   1.819   1.097
 6435SOL    HW120204   4.316   1.783   1.017
 6435SOL    HW220205   4.317   1.901   1.129
 6436SOL     OW20206   6.931   3.322   3.229
 6436SOL    HW120207   0.007   3.304   3.238
 6436SOL    HW220208   6.887   3.245   3.184
 6437SOL     OW20209   1.274   2.506   5.844
 6437SOL    HW120210   1.367   2.499   5.807
 6437SOL    HW220211   1.209   2.468   5.778
 6438SOL     OW20212   0.488   4.892   7.003
 6438SOL    HW120213   0.393   4.902   6.971
 6438SOL    HW220214   0.513   4.795   7.001
 6439SOL     OW20215   4.949   6.591   3.159
 6439SOL    HW120216   4.878   6.612   3.226
 6439SOL    HW220217   5.030   6.647   3.179
 6440SOL     OW20218   2.846   1.575   6.081
 6440SOL    HW120219   2.765   1.590   6.138
 6440SOL    HW220220   2.925   1.619   6.123
 6441SOL     OW20221   6.648   1.901   2.185
 6441SOL    HW120222   6.634   1.811   2.227
 6441SOL    HW220223   6.732   1.942   2.220
 6442SOL     OW20224   2.593   2.072   4.846
 6442SOL    HW120225   2.547   2.156   4.875
 6442SOL    HW220226   2.560   1.996   4.901
 6443SOL     OW20227   3.819   2.942   6.542
 6443SOL    HW120228   3.901   2.992   6.570
 6443SOL    HW220229   3.767   2.916   6.623
 6444SOL     OW20230   6.550   4.488   4.871
 6444SOL    HW120231   6.624   4.457   4.811
 6444SOL    HW220232   6.462   4.452   4.837
 6445SOL     OW20233   2.964   3.304   3.524
 6445SOL    HW120234   2.938   3.353   3.441
 6445SOL    HW220235   3.002   3.215   3.500
 6446SOL     OW20236   1.515   1.384   6.658
 6446SOL    HW120237   1.564   1.321   6.597
 6446SOL    HW220238   1.578   1.421   6.726
 6447SOL     OW20239   5.926   3.524   2.157
 6447SOL    HW120240   5.944   3.543   2.060
 6447SOL    HW220241   6.011   3.495   2.201
 6448SOL     OW20242   3.738   4.557   1.129
 6448SOL    HW120243   3.654   4.503   1.136
 6448SOL    HW220244   3.784   4.558   1.218
 6449SOL     OW20245   3.122   5.044   0.879
 6449SOL    HW120246   3.136   4.954   0.838
 6449SOL    HW220247   3.036   5.083   0.845
 6450SOL     OW20248   6.682   4.110   6.926
 6450SOL    HW120249   6.597   4.077   6.966
 6450SOL    HW220250   6.686   4.210   6.933
 6451SOL     OW20251   3.816   2.719   1.630
 6451SOL    HW120252   3.865   2.674   1.556
 6451SOL    HW220253   3.867   2.799   1.661
 6452SOL     OW20254   3.982   2.081   4.200
 6452SOL    HW120255   3.919   2.141   4.249
 6452SOL    HW220256   4.070   2.127   4.187
 6453SOL     OW20257   2.000   0.961   2.836
 6453SOL    HW120258   1.938   0.964   2.915
 6453SOL    HW220259   2.081   1.016   2.856
 6454SOL     OW20260   5.146   2.478   3.449
 6454SOL    HW120261   5.142   2.578   3.454
 6454SOL    HW220262   5.213   2.451   3.380
 6455SOL     OW20263   6.664   2.778   4.117
 6455SOL    HW120264   6.735   2.848   4.115
 6455SOL    HW220265   6.663   2.734   4.207
 6456SOL     OW20266   5.795   1.298   2.340
 6456SOL    HW120267   5.841   1.214   2.309
 6456SOL    HW220268   5.797   1.366   2.267
 6457SOL     OW20269   3.522   0.198   2.651
 6457SOL    HW120270   3.465   0.177   2.731
 6457SOL    HW220271   3.585   0.123   2.634
 6458SOL     OW20272   7.008   6.704   4.030
 6458SOL    HW120273   0.058   6.634   4.020
 6458SOL    HW220274   6.922   6.669   3.995
 6459SOL     OW20275   0.946   3.401   3.198
 6459SOL    HW120276   0.986   3.310   3.198
 6459SOL    HW220277   0.991   3.457   3.268
 6460SOL     OW20278   0.305   5.359   6.723
 6460SOL    HW120279   0.291   5.395   6.631
 6460SOL    HW220280   0.393   5.389   6.758
 6461SOL     OW20281   1.448   6.181   1.029
 6461SOL    HW120282   1.406   6.096   0.998
 6461SOL    HW220283   1.431   6.254   0.963
 6462SOL     OW20284   1.551   3.744   5.338
 6462SOL    HW120285   1.546   3.843   5.349
 6462SOL    HW220286   1.546   3.720   5.241
 6463SOL     OW20287   3.737   2.878   0.988
 6463SOL    HW120288   3.731   2.783   1.018
 6463SOL    HW220289   3.787   2.931   1.056
 6464SOL     OW20290   0.910   4.181   4.061
 6464SOL    HW120291   0.838   4.233   4.015
 6464SOL    HW220292   0.883   4.085   4.066
 6465SOL     OW20293   3.314   1.230   3.880
 6465SOL    HW120294   3.219   1.262   3.881
 6465SOL    HW220295   3.337   1.193   3.970
 6466SOL     OW20296   6.192   4.666   0.119
 6466SOL    HW120297   6.280   4.629   0.148
 6466SOL    HW220298   6.183   4.657   0.019
 6467SOL     OW20299   1.981   2.804   6.598
 6467SOL    HW120300   2.061   2.844   6.643
 6467SOL    HW220301   2.010   2.728   6.540
 6468SOL     OW20302   2.566   0.926   1.439
 6468SOL    HW120303   2.550   0.879   1.526
 6468SOL    HW220304   2.512   1.010   1.436
 6469SOL     OW20305   2.160   1.161   1.771
 6469SOL    HW120306   2.146   1.260   1.764
 6469SOL    HW220307   2.249   1.137   1.732
 6470SOL     OW20308   0.024   1.669   7.005
 6470SOL    HW120309   0.114   1.691   6.968
 6470SOL    HW220310   7.017   1.578   6.974
 6471SOL     OW20311   0.373   6.440   5.888
 6471SOL    HW120312   0.307   6.511   5.912
 6471SOL    HW220313   0.454   6.482   5.846
 6472SOL     OW20314   6.774   6.629   2.758
 6472SOL    HW120315   6.757   6.575   2.840
 6472SOL    HW220316   6.872   6.624   2.735
 6473SOL     OW20317   2.457   1.584   3.292
 6473SOL    HW120318   2.383   1.612   3.231
 6473SOL    HW220319   2.528   1.655   3.294
 6474SOL     OW20320   3.825   5.842   5.270
 6474SOL    HW120321   3.833   5.803   5.362
 6474SOL    HW220322   3.911   5.828   5.220
 6475SOL     OW20323   6.135   5.581   2.215
 6475SOL    HW120324   6.073   5.616   2.144
 6475SOL    HW220325   6.147   5.650   2.286
 6476SOL     OW20326   3.737   2.469   6.457
 6476SOL    HW120327   3.729   2.369   6.467
 6476SOL    HW220328   3.665   2.502   6.396
 6477SOL     OW20329   0.275   6.261   1.826
 6477SOL    HW120330   0.347   6.252   1.894
 6477SOL    HW220331   0.303   6.327   1.756
 6478SOL     OW20332   2.793   5.973   1.005
 6478SOL    HW120333   2.771   6.013   1.094
 6478SOL    HW220334   2.728   6.005   0.936
 6479SOL     OW20335   4.414   6.312   3.464
 6479SOL    HW120336   4.377   6.390   3.515
 6479SOL    HW220337   4.468   6.255   3.526
 6480SOL     OW20338   4.042   1.149   6.351
 6480SOL    HW120339   4.008   1.187   6.437
 6480SOL    HW220340   4.142   1.152   6.351
 6481SOL     OW20341   3.776   2.981   1.971
 6481SOL    HW120342   3.845   3.004   2.039
 6481SOL    HW220343   3.691   3.030   1.992
 6482SOL     OW20344   5.078   3.685   5.680
 6482SOL    HW120345   5.100   3.687   5.778
 6482SOL    HW220346   4.980   3.699   5.668
 6483SOL     OW20347   2.345   6.157   5.316
 6483SOL    HW120348   2.316   6.161   5.220
 6483SOL    HW220349   2.427   6.214   5.328
 6484SOL     OW20350   2.886   1.115   3.385
 6484SOL    HW120351   2.826   1.051   3.338
 6484SOL    HW220352   2.847   1.139   3.474
 6485SOL     OW20353   2.791   6.207   4.956
 6485SOL    HW120354   2.796   6.139   4.883
 6485SOL    HW220355   2.866   6.272   4.947
 6486SOL     OW20356   0.472   5.251   2.738
 6486SOL    HW120357   0.392   5.308   2.716
 6486SOL    HW220358   0.543   5.308   2.779
 6487SOL     OW20359   6.860   4.665   4.045
 6487SOL    HW120360   6.822   4.757   4.060
 6487SOL    HW220361   6.810   4.621   3.971
 6488SOL     OW20362   3.897   5.840   4.469
 6488SOL    HW120363   3.908   5.801   4.378
 6488SOL    HW220364   3.878   5.938   4.461
 6489SOL     OW20365   5.323   2.741   5.127
 6489SOL    HW120366   5.420   2.716   5.118
 6489SOL    HW220367   5.300   2.807   5.056
 6490SOL     OW20368   2.220   2.149   0.504
 6490SOL    HW120369   2.198   2.053   0.488
 6490SOL    HW220370   2.138   2.205   0.491
 6491SOL     OW20371   2.097   6.958   1.728
 6491SOL    HW120372   2.115   6.860   1.722
 6491SOL    HW220373   2.015   6.980   1.675
 6492SOL     OW20374   3.762   3.543   4.609
 6492SOL    HW120375   3.801   3.525   4.519
 6492SOL    HW220376   3.672   3.501   4.615
 6493SOL     OW20377   1.293   4.559   4.372
 6493SOL    HW120378   1.355   4.634   4.396
 6493SOL    HW220379   1.238   4.535   4.452
 6494SOL     OW20380   6.466   0.763   1.992
 6494SOL    HW120381   6.399   0.835   2.010
 6494SOL    HW220382   6.472   0.747   1.893
 6495SOL     OW20383   6.654   0.267   2.951
 6495SOL    HW120384   6.652   0.192   2.885
 6495SOL    HW220385   6.578   0.257   3.015
 6496SOL     OW20386   3.349   2.403   1.480
 6496SOL    HW120387   3.402   2.360   1.553
 6496SOL    HW220388   3.407   2.413   1.399
 6497SOL     OW20389   6.953   0.905   0.767
 6497SOL    HW120390   6.992   0.944   0.851
 6497SOL    HW220391   6.879   0.963   0.734
 6498SOL     OW20392   2.195   4.041   4.192
 6498SOL    HW120393   2.212   3.947   4.220
 6498SOL    HW220394   2.169   4.095   4.272
 6499SOL     OW20395   4.831   2.890   3.398
 6499SOL    HW120396   4.788   2.877   3.487
 6499SOL    HW220397   4.818   2.984   3.368
 6500SOL     OW20398   1.764   4.010   3.271
 6500SOL    HW120399   1.717   4.070   3.206
 6500SOL    HW220400   1.701   3.940   3.303
 6501SOL     OW20401   5.543   2.248   2.714
 6501SOL    HW120402   5.476   2.189   2.667
 6501SOL    HW220403   5.547   2.222   2.811
 6502SOL     OW20404   6.763   4.030   2.239
 6502SOL    HW120405   6.671   3.995   2.259
 6502SOL    HW220406   6.774   4.120   2.281
 6503SOL     OW20407   6.802   3.590   5.674
 6503SOL    HW120408   6.899   3.565   5.666
 6503SOL    HW220409   6.760   3.541   5.750
 6504SOL     OW20410   4.182   6.754   6.079
 6504SOL    HW120411   4.216   6.793   6.164
 6504SOL    HW220412   4.156   6.659   6.094
 6505SOL     OW20413   6.986   5.416   0.851
 6505SOL    HW120414   6.890   5.388   0.851
 6505SOL    HW220415   6.996   5.497   0.909
 6506SOL     OW20416   0.986   4.211   2.356
 6506SOL    HW120417   0.991   4.119   2.396
 6506SOL    HW220418   0.982   4.204   2.257
 6507SOL     OW20419   4.218   5.696   0.468
 6507SOL    HW120420   4.265   5.637   0.533
 6507SOL    HW220421   4.163   5.764   0.517
 6508SOL     OW20422   0.463   0.207   3.467
 6508SOL    HW120423   0.431   0.245   3.380
 6508SOL    HW220424   0.396   0.140   3.500
 6509SOL     OW20425   2.667   1.551   6.730
 6509SOL    HW120426   2.665   1.616   6.805
 6509SOL    HW220427   2.756   1.504   6.729
 6510SOL     OW20428   3.154   6.335   5.349
 6510SOL    HW120429   3.150   6.298   5.442
 6510SOL    HW220430   3.249   6.332   5.317
 6511SOL     OW20431   3.032   2.427   0.308
 6511SOL    HW120432   2.983   2.343   0.286
 6511SOL    HW220433   3.057   2.427   0.405
 6512SOL     OW20434   4.536   1.313   0.645
 6512SOL    HW120435   4.520   1.311   0.743
 6512SOL    HW220436   4.454   1.347   0.599
 6513SOL     OW20437   2.568   4.697   3.069
 6513SOL    HW120438   2.531   4.617   3.022
 6513SOL    HW220439   2.644   4.734   3.017
 6514SOL     OW20440   5.426   6.729   5.359
 6514SOL    HW120441   5.472   6.795   5.418
 6514SOL    HW220442   5.482   6.646   5.352
 6515SOL     OW20443   1.221   5.257   2.631
 6515SOL    HW120444   1.230   5.233   2.534
 6515SOL    HW220445   1.148   5.203   2.672
 6516SOL     OW20446   6.212   3.073   2.018
 6516SOL    HW120447   6.156   2.997   2.049
 6516SOL    HW220448   6.272   3.103   2.093
 6517SOL     OW20449   6.922   3.372   0.558
 6517SOL    HW120450   6.867   3.435   0.613
 6517SOL    HW220451   7.017   3.378   0.587
 6518SOL     OW20452   0.665   1.238   1.996
 6518SOL    HW120453   0.590   1.189   2.040
 6518SOL    HW220454   0.679   1.326   2.042
 6519SOL     OW20455   1.030   1.065   3.391
 6519SOL    HW120456   1.038   1.083   3.293
 6519SOL    HW220457   1.018   1.152   3.440
 6520SOL     OW20458   0.452   5.230   0.652
 6520SOL    HW120459   0.425   5.159   0.717
 6520SOL    HW220460   0.397   5.312   0.668
 6521SOL     OW20461   1.915   4.104   3.969
 6521SOL    HW120462   1.862   4.024   3.997
 6521SOL    HW220463   2.004   4.074   3.933
 6522SOL     OW20464   2.550   2.794   5.321
 6522SOL    HW120465   2.554   2.878   5.267
 6522SOL    HW220466   2.614   2.799   5.397
 6523SOL     OW20467   6.182   6.856   0.554
 6523SOL    HW120468   6.263   6.846   0.496
 6523SOL    HW220469   6.128   6.772   0.549
 6524SOL     OW20470   2.927   3.331   0.971
 6524SOL    HW120471   2.829   3.325   0.991
 6524SOL    HW220472   2.946   3.284   0.886
 6525SOL     OW20473   1.246   5.034   3.550
 6525SOL    HW120474   1.224   5.045   3.647
 6525SOL    HW220475   1.344   5.015   3.540
 6526SOL     OW20476   0.673   5.812   0.688
 6526SOL    HW120477   0.697   5.788   0.594
 6526SOL    HW220478   0.576   5.838   0.691
 6527SOL     OW20479   6.628   1.484   0.684
 6527SOL    HW120480   6.648   1.439   0.597
 6527SOL    HW220481   6.576   1.568   0.667
 6528SOL     OW20482   4.173   6.566   6.884
 6528SOL    HW120483   4.269   6.551   6.863
 6528SOL    HW220484   4.130   6.479   6.907
 6529SOL     OW20485   5.292   6.880   2.215
 6529SOL    HW120486   5.250   6.896   2.304
 6529SOL    HW220487   5.369   6.943   2.202
 6530SOL     OW20488   0.480   2.743   3.394
 6530SOL    HW120489   0.548   2.671   3.379
 6530SOL    HW220490   0.524   2.821   3.438
 6531SOL     OW20491   4.126   3.668   4.751
 6531SOL    HW120492   4.078   3.607   4.814
 6531SOL    HW220493   4.215   3.628   4.728
 6532SOL     OW20494   1.712   6.878   0.372
 6532SOL    HW120495   1.718   6.971   0.337
 6532SOL    HW220496   1.747   6.874   0.466
 6533SOL     OW20497   4.986   4.415   2.135
 6533SOL    HW120498   4.995   4.436   2.037
 6533SOL    HW220499   5.037   4.331   2.155
 6534SOL     OW20500   0.147   4.460   3.073
 6534SOL    HW120501   0.066   4.507   3.037
 6534SOL    HW220502   0.119   4.384   3.131
 6535SOL     OW20503   5.178   3.721   4.909
 6535SOL    HW120504   5.097   3.718   4.850
 6535SOL    HW220505   5.153   3.757   4.999
 6536SOL     OW20506   0.636   4.701   5.238
 6536SOL    HW120507   0.553   4.715   5.183
 6536SOL    HW220508   0.659   4.787   5.284
 6537SOL     OW20509   6.198   5.363   3.369
 6537SOL    HW120510   6.209   5.264   3.369
 6537SOL    HW220511   6.231   5.401   3.455
 6538SOL     OW20512   1.100   2.332   5.063
 6538SOL    HW120513   1.049   2.400   5.011
 6538SOL    HW220514   1.144   2.267   5.000
 6539SOL     OW20515   4.499   6.689   6.213
 6539SOL    HW120516   4.430   6.735   6.156
 6539SOL    HW220517   4.581   6.746   6.218
 6540SOL     OW20518   6.633   2.855   5.590
 6540SOL    HW120519   6.583   2.776   5.625
 6540SOL    HW220520   6.586   2.939   5.617
 6541SOL     OW20521   5.468   1.875   5.937
 6541SOL    HW120522   5.482   1.842   6.030
 6541SOL    HW220523   5.525   1.956   5.922
 6542SOL     OW20524   1.209   3.937   2.815
 6542SOL    HW120525   1.223   3.850   2.769
 6542SOL    HW220526   1.174   4.005   2.750
 6543SOL     OW20527   3.714   1.531   4.732
 6543SOL    HW120528   3.630   1.477   4.727
 6543SOL    HW220529   3.692   1.626   4.751
 6544SOL     OW20530   0.618   6.795   0.572
 6544SOL    HW120531   0.660   6.709   0.542
 6544SOL    HW220532   0.638   6.810   0.669
 6545SOL     OW20533   4.823   6.956   1.390
 6545SOL    HW120534   4.791   6.883   1.329
 6545SOL    HW220535   4.916   6.936   1.421
 6546SOL     OW20536   4.943   4.192   6.661
 6546SOL    HW120537   4.906   4.258   6.726
 6546SOL    HW220538   4.873   4.168   6.594
 6547SOL     OW20539   0.617   6.538   5.816
 6547SOL    HW120540   0.582   6.629   5.792
 6547SOL    HW220541   0.697   6.548   5.875
 6548SOL     OW20542   6.908   1.303   5.829
 6548SOL    HW120543   6.922   1.380   5.768
 6548SOL    HW220544   6.830   1.249   5.798
 6549SOL     OW20545   4.116   1.678   2.560
 6549SOL    HW120546   4.088   1.656   2.466
 6549SOL    HW220547   4.151   1.771   2.563
 6550SOL     OW20548   5.953   6.072   2.806
 6550SOL    HW120549   5.999   6.021   2.878
 6550SOL    HW220550   5.915   6.009   2.738
 6551SOL     OW20551   2.752   3.730   0.535
 6551SOL    HW120552   2.778   3.807   0.594
 6551SOL    HW220553   2.827   3.664   0.532
 6552SOL     OW20554   1.847   4.988   7.019
 6552SOL    HW120555   1.747   4.991   7.019
 6552SOL    HW220556   1.883   5.081   0.013
 6553SOL     OW20557   0.423   1.456   3.197
 6553SOL    HW120558   0.328   1.450   3.228
 6553SOL    HW220559   0.426   1.444   3.098
 6554SOL     OW20560   1.422   2.181   4.387
 6554SOL    HW120561   1.516   2.195   4.418
 6554SOL    HW220562   1.422   2.131   4.300
 6555SOL     OW20563   6.816   3.899   3.960
 6555SOL    HW120564   6.831   3.855   3.871
 6555SOL    HW220565   6.897   3.950   3.987
 6556SOL     OW20566   4.901   3.093   2.719
 6556SOL    HW120567   4.949   3.100   2.631
 6556SOL    HW220568   4.857   3.004   2.725
 6557SOL     OW20569   1.718   0.419   2.361
 6557SOL    HW120570   1.790   0.407   2.430
 6557SOL    HW220571   1.724   0.511   2.323
 6558SOL     OW20572   5.388   6.378   6.713
 6558SOL    HW120573   5.461   6.311   6.731
 6558SOL    HW220574   5.315   6.366   6.780
 6559SOL     OW20575   6.788   2.680   6.468
 6559SOL    HW120576   6.884   2.659   6.484
 6559SOL    HW220577   6.757   2.748   6.534
 6560SOL     OW20578   6.040   4.882   0.051
 6560SOL    HW120579   5.961   4.823   0.036
 6560SOL    HW220580   6.115   4.828   0.089
 6561SOL     OW20581   3.124   4.333   0.051
 6561SOL    HW120582   3.164   4.242   0.060
 6561SOL    HW220583   3.184   4.390   7.016
 6562SOL     OW20584   5.456   2.238   1.332
 6562SOL    HW120585   5.426   2.146   1.307
 6562SOL    HW220586   5.379   2.301   1.325
 6563SOL     OW20587   6.343   5.040   5.408
 6563SOL    HW120588   6.356   5.006   5.501
 6563SOL    HW220589   6.339   4.963   5.345
 6564SOL     OW20590   5.665   3.355   2.824
 6564SOL    HW120591   5.757   3.322   2.842
 6564SOL    HW220592   5.600   3.304   2.881
 6565SOL     OW20593   5.298   0.149   3.208
 6565SOL    HW120594   5.354   0.195   3.139
 6565SOL    HW220595   5.212   0.119   3.167
 6566SOL     OW20596   4.969   5.763   3.565
 6566SOL    HW120597   5.052   5.763   3.620
 6566SOL    HW220598   4.992   5.741   3.470
 6567SOL     OW20599   3.925   0.239   2.091
 6567SOL    HW120600   3.912   0.241   1.992
 6567SOL    HW220601   3.854   0.294   2.135
 6568SOL     OW20602   4.503   1.331   0.917
 6568SOL    HW120603   4.528   1.278   0.998
 6568SOL    HW220604   4.535   1.425   0.927
 6569SOL     OW20605   0.690   4.812   4.523
 6569SOL    HW120606   0.644   4.889   4.566
 6569SOL    HW220607   0.752   4.845   4.452
 6570SOL     OW20608   4.415   6.899   2.659
 6570SOL    HW120609   4.359   6.832   2.610
 6570SOL    HW220610   4.469   6.952   2.594
 6571SOL     OW20611   3.548   6.200   2.893
 6571SOL    HW120612   3.462   6.250   2.882
 6571SOL    HW220613   3.605   6.213   2.812
 6572SOL     OW20614   1.749   5.813   4.089
 6572SOL    HW120615   1.760   5.900   4.137
 6572SOL    HW220616   1.662   5.771   4.114
 6573SOL     OW20617   0.822   2.124   3.098
 6573SOL    HW120618   0.772   2.172   3.170
 6573SOL    HW220619   0.867   2.191   3.038
 6574SOL     OW20620   2.104   5.069   2.242
 6574SOL    HW120621   2.155   4.985   2.224
 6574SOL    HW220622   2.169   5.144   2.258
 6575SOL     OW20623   0.103   1.385   3.161
 6575SOL    HW120624   0.066   1.470   3.124
 6575SOL    HW220625   0.070   1.307   3.108
 6576SOL     OW20626   4.642   6.227   1.260
 6576SOL    HW120627   4.646   6.176   1.346
 6576SOL    HW220628   4.605   6.318   1.277
 6577SOL     OW20629   3.009   1.313   3.919
 6577SOL    HW120630   2.943   1.246   3.956
 6577SOL    HW220631   2.959   1.383   3.868
 6578SOL     OW20632   1.337   4.923   0.580
 6578SOL    HW120633   1.384   4.926   0.668
 6578SOL    HW220634   1.254   4.979   0.584
 6579SOL     OW20635   6.970   0.977   4.237
 6579SOL    HW120636   6.991   0.997   4.333
 6579SOL    HW220637   6.876   1.005   4.217
 6580SOL     OW20638   2.292   2.025   0.744
 6580SOL    HW120639   2.264   2.077   0.664
 6580SOL    HW220640   2.360   1.956   0.718
 6581SOL     OW20641   0.232   2.110   0.841
 6581SOL    HW120642   0.271   2.196   0.809
 6581SOL    HW220643   0.207   2.054   0.762
 6582SOL     OW20644   6.026   1.144   2.956
 6582SOL    HW120645   5.955   1.200   2.999
 6582SOL    HW220646   5.989   1.102   2.873
 6583SOL     OW20647   3.472   5.049   0.189
 6583SOL    HW120648   3.389   5.061   0.133
 6583SOL    HW220649   3.452   5.075   0.283
 6584SOL     OW20650   4.193   2.635   6.387
 6584SOL    HW120651   4.237   2.715   6.348
 6584SOL    HW220652   4.093   2.645   6.380
 6585SOL     OW20653   5.641   6.923   2.133
 6585SOL    HW120654   5.589   7.008   2.131
 6585SOL    HW220655   5.619   6.868   2.052
 6586SOL     OW20656   0.026   1.425   6.842
 6586SOL    HW120657   0.036   1.445   6.744
 6586SOL    HW220658   0.103   1.371   6.873
 6587SOL     OW20659   2.267   4.526   5.380
 6587SOL    HW120660   2.335   4.480   5.324
 6587SOL    HW220661   2.282   4.504   5.476
 6588SOL     OW20662   0.246   2.125   0.435
 6588SOL    HW120663   0.199   2.075   0.508
 6588SOL    HW220664   0.239   2.223   0.452
 6589SOL     OW20665   6.900   6.924   2.402
 6589SOL    HW120666   6.989   6.937   2.446
 6589SOL    HW220667   6.836   6.994   2.433
 6590SOL     OW20668   1.106   6.372   4.210
 6590SOL    HW120669   1.151   6.329   4.288
 6590SOL    HW220670   1.045   6.305   4.166
 6591SOL     OW20671   6.364   4.054   3.563
 6591SOL    HW120672   6.319   4.008   3.640
 6591SOL    HW220673   6.411   4.135   3.596
 6592SOL     OW20674   6.364   6.489   3.932
 6592SOL    HW120675   6.355   6.504   4.031
 6592SOL    HW220676   6.403   6.571   3.890
 6593SOL     OW20677   1.401   1.199   1.881
 6593SOL    HW120678   1.382   1.134   1.807
 6593SOL    HW220679   1.453   1.276   1.845
 6594SOL     OW20680   5.206   6.937   6.341
 6594SOL    HW120681   5.121   6.886   6.344
 6594SOL    HW220682   5.234   6.961   6.434
 6595SOL     OW20683   0.653   1.613   5.485
 6595SOL    HW120684   0.610   1.616   5.575
 6595SOL    HW220685   0.642   1.521   5.446
 6596SOL     OW20686   5.148   0.570   2.631
 6596SOL    HW120687   5.197   0.640   2.683
 6596SOL    HW220688   5.096   0.512   2.694
 6597SOL     OW20689   0.840   4.452   1.472
 6597SOL    HW120690   0.878   4.401   1.549
 6597SOL    HW220691   0.742   4.432   1.464
 6598SOL     OW20692   1.854   4.600   4.267
 6598SOL    HW120693   1.928   4.554   4.217
 6598SOL    HW220694   1.893   4.657   4.339
 6599SOL     OW20695   6.665   5.511   6.274
 6599SOL    HW120696   6.604   5.457   6.332
 6599SOL    HW220697   6.611   5.565   6.210
 6600SOL     OW20698   4.575   0.399   5.387
 6600SOL    HW120699   4.543   0.493   5.382
 6600SOL    HW220700   4.672   0.395   5.363
 6601SOL     OW20701   1.334   2.421   1.856
 6601SOL    HW120702   1.286   2.490   1.910
 6601SOL    HW220703   1.417   2.393   1.903
 6602SOL     OW20704   0.812   5.503   1.551
 6602SOL    HW120705   0.798   5.447   1.633
 6602SOL    HW220706   0.860   5.587   1.577
 6603SOL     OW20707   0.121   4.010   2.669
 6603SOL    HW120708   0.135   4.051   2.759
 6603SOL    HW220709   0.187   3.936   2.656
 6604SOL     OW20710   1.397   6.133   3.426
 6604SOL    HW120711   1.372   6.130   3.329
 6604SOL    HW220712   1.485   6.087   3.439
 6605SOL     OW20713   0.194   5.694   1.158
 6605SOL    HW120714   0.203   5.694   1.258
 6605SOL    HW220715   0.214   5.785   1.123
 6606SOL     OW20716   1.863   2.975   3.078
 6606SOL    HW120717   1.951   3.019   3.098
 6606SOL    HW220718   1.876   2.876   3.073
 6607SOL     OW20719   5.722   3.301   3.468
 6607SOL    HW120720   5.777   3.329   3.546
 6607SOL    HW220721   5.709   3.379   3.407
 6608SOL     OW20722   1.574   6.336   5.910
 6608SOL    HW120723   1.572   6.290   5.999
 6608SOL    HW220724   1.599   6.432   5.923
 6609SOL     OW20725   4.520   1.527   6.895
 6609SOL    HW120726   4.593   1.554   6.957
 6609SOL    HW220727   4.432   1.560   6.930
 6610SOL     OW20728   2.733   5.663   1.037
 6610SOL    HW120729   2.788   5.593   1.082
 6610SOL    HW220730   2.767   5.754   1.061
 6611SOL     OW20731   3.324   1.828   4.888
 6611SOL    HW120732   3.363   1.832   4.796
 6611SOL    HW220733   3.334   1.918   4.932
 6612SOL     OW20734   0.143   0.207   6.470
 6612SOL    HW120735   0.054   0.208   6.424
 6612SOL    HW220736   0.204   0.273   6.426
 6613SOL     OW20737   4.145   0.397   0.870
 6613SOL    HW120738   4.103   0.488   0.876
 6613SOL    HW220739   4.150   0.369   0.774
 6614SOL     OW20740   4.207   5.104   0.813
 6614SOL    HW120741   4.122   5.057   0.786
 6614SOL    HW220742   4.286   5.049   0.785
 6615SOL     OW20743   4.022   5.482   5.740
 6615SOL    HW120744   4.076   5.498   5.658
 6615SOL    HW220745   3.934   5.442   5.716
 6616SOL     OW20746   3.700   1.476   6.454
 6616SOL    HW120747   3.765   1.459   6.380
 6616SOL    HW220748   3.733   1.433   6.538
 6617SOL     OW20749   3.600   0.805   4.012
 6617SOL    HW120750   3.610   0.897   3.974
 6617SOL    HW220751   3.690   0.766   4.031
 6618SOL     OW20752   6.046   2.622   3.970
 6618SOL    HW120753   6.086   2.676   4.044
 6618SOL    HW220754   5.946   2.620   3.981
 6619SOL     OW20755   4.922   5.679   4.123
 6619SOL    HW120756   4.828   5.683   4.156
 6619SOL    HW220757   4.962   5.770   4.126
 6620SOL     OW20758   1.207   2.640   3.463
 6620SOL    HW120759   1.231   2.725   3.510
 6620SOL    HW220760   1.263   2.565   3.500
 6621SOL     OW20761   3.474   3.487   4.239
 6621SOL    HW120762   3.457   3.401   4.287
 6621SOL    HW220763   3.387   3.530   4.216
 6622SOL     OW20764   0.404   5.410   1.118
 6622SOL    HW120765   0.434   5.484   1.178
 6622SOL    HW220766   0.433   5.430   1.024
 6623SOL     OW20767   2.931   3.954   5.056
 6623SOL    HW120768   2.852   4.015   5.060
 6623SOL    HW220769   2.960   3.943   4.961
 6624SOL     OW20770   2.498   1.831   2.960
 6624SOL    HW120771   2.553   1.765   3.012
 6624SOL    HW220772   2.480   1.795   2.869
 6625SOL     OW20773   6.124   4.089   5.671
 6625SOL    HW120774   6.204   4.033   5.650
 6625SOL    HW220775   6.107   4.089   5.770
 6626SOL     OW20776   3.094   6.022   5.292
 6626SOL    HW120777   3.094   6.027   5.192
 6626SOL    HW220778   3.011   6.065   5.327
 6627SOL     OW20779   2.038   6.253   4.283
 6627SOL    HW120780   2.041   6.153   4.295
 6627SOL    HW220781   1.960   6.290   4.334
 6628SOL     OW20782   3.480   5.912   4.269
 6628SOL    HW120783   3.467   6.002   4.228
 6628SOL    HW220784   3.550   5.862   4.217
 6629SOL     OW20785   5.097   6.024   6.275
 6629SOL    HW120786   5.059   6.087   6.208
 6629SOL    HW220787   5.104   6.069   6.364
 6630SOL     OW20788   1.621   0.692   6.960
 6630SOL    HW120789   1.628   0.750   0.021
 6630SOL    HW220790   1.690   0.720   6.894
 6631SOL     OW20791   1.862   3.713   6.108
 6631SOL    HW120792   1.793   3.785   6.099
 6631SOL    HW220793   1.829   3.645   6.173
 6632SOL     OW20794   1.529   0.142   0.529
 6632SOL    HW120795   1.441   0.190   0.524
 6632SOL    HW220796   1.521   0.052   0.486
 6633SOL     OW20797   3.808   5.466   6.024
 6633SOL    HW120798   3.771   5.546   5.978
 6633SOL    HW220799   3.904   5.453   5.998
 6634SOL     OW20800   3.586   1.945   3.739
 6634SOL    HW120801   3.554   1.855   3.709
 6634SOL    HW220802   3.657   1.977   3.675
 6635SOL     OW20803   4.978   4.857   4.545
 6635SOL    HW120804   4.890   4.834   4.587
 6635SOL    HW220805   4.975   4.951   4.511
 6636SOL     OW20806   4.166   0.910   0.260
 6636SOL    HW120807   4.229   0.835   0.281
 6636SOL    HW220808   4.163   0.925   0.161
 6637SOL     OW20809   0.537   2.026   0.692
 6637SOL    HW120810   0.488   1.958   0.748
 6637SOL    HW220811   0.628   1.991   0.670
 6638SOL     OW20812   2.946   3.847   4.120
 6638SOL    HW120813   2.930   3.754   4.088
 6638SOL    HW220814   2.946   3.849   4.220
 6639SOL     OW20815   4.981   2.819   1.068
 6639SOL    HW120816   4.932   2.898   1.030
 6639SOL    HW220817   5.020   2.765   0.995
 6640SOL     OW20818   1.745   4.108   5.086
 6640SOL    HW120819   1.831   4.113   5.136
 6640SOL    HW220820   1.682   4.048   5.135
 6641SOL     OW20821   5.423   1.992   1.249
 6641SOL    HW120822   5.518   1.962   1.253
 6641SOL    HW220823   5.364   1.912   1.239
 6642SOL     OW20824   1.937   5.655   0.006
 6642SOL    HW120825   1.839   5.648   7.009
 6642SOL    HW220826   1.954   5.724   0.076
 6643SOL     OW20827   3.649   6.036   6.277
 6643SOL    HW120828   3.742   6.022   6.244
 6643SOL    HW220829   3.613   5.950   6.313
 6644SOL     OW20830   2.001   6.590   3.994
 6644SOL    HW120831   2.023   6.493   4.005
 6644SOL    HW220832   2.022   6.619   3.901
 6645SOL     OW20833   6.226   2.960   0.027
 6645SOL    HW120834   6.307   2.903   0.012
 6645SOL    HW220835   6.217   3.027   6.974
 6646SOL     OW20836   4.222   6.949   5.618
 6646SOL    HW120837   4.313   6.911   5.600
 6646SOL    HW220838   4.198   7.015   5.546
 6647SOL     OW20839   3.931   5.014   0.926
 6647SOL    HW120840   3.887   4.957   0.857
 6647SOL    HW220841   3.878   5.098   0.939
 6648SOL     OW20842   3.106   6.705   5.276
 6648SOL    HW120843   3.152   6.645   5.210
 6648SOL    HW220844   3.172   6.773   5.310
 6649SOL     OW20845   5.099   2.491   6.382
 6649SOL    HW120846   5.088   2.559   6.310
 6649SOL    HW220847   5.042   2.412   6.362
 6650SOL     OW20848   1.901   1.404   4.455
 6650SOL    HW120849   1.806   1.433   4.463
 6650SOL    HW220850   1.940   1.389   4.546
 6651SOL     OW20851   6.800   1.976   6.136
 6651SOL    HW120852   6.725   2.039   6.117
 6651SOL    HW220853   6.781   1.927   6.221
 6652SOL     OW20854   6.801   4.229   0.281
 6652SOL    HW120855   6.899   4.233   0.261
 6652SOL    HW220856   6.774   4.133   0.291
 6653SOL     OW20857   5.671   4.600   0.175
 6653SOL    HW120858   5.647   4.641   0.263
 6653SOL    HW220859   5.682   4.501   0.186
 6654SOL     OW20860   6.509   3.868   3.420
 6654SOL    HW120861   6.564   3.920   3.355
 6654SOL    HW220862   6.438   3.926   3.459
 6655SOL     OW20863   0.363   5.141   1.930
 6655SOL    HW120864   0.331   5.047   1.927
 6655SOL    HW220865   0.440   5.148   1.993
 6656SOL     OW20866   4.394   1.711   3.738
 6656SOL    HW120867   4.304   1.699   3.697
 6656SOL    HW220868   4.385   1.716   3.838
 6657SOL     OW20869   5.646   2.011   3.831
 6657SOL    HW120870   5.675   2.001   3.927
 6657SOL    HW220871   5.592   1.932   3.804
 6658SOL     OW20872   6.771   5.967   5.392
 6658SOL    HW120873   6.701   6.038   5.404
 6658SOL    HW220874   6.854   5.993   5.441
 6659SOL     OW20875   0.979   4.996   1.951
 6659SOL    HW120876   0.987   5.040   2.041
 6659SOL    HW220877   1.023   4.907   1.954
 6660SOL     OW20878   6.714   6.496   4.166
 6660SOL    HW120879   6.748   6.408   4.199
 6660SOL    HW220880   6.674   6.547   4.242
 6661SOL     OW20881   4.079   5.937   4.093
 6661SOL    HW120882   4.048   6.009   4.031
 6661SOL    HW220883   4.122   5.864   4.040
 6662SOL     OW20884   3.948   6.676   2.605
 6662SOL    HW120885   3.967   6.585   2.642
 6662SOL    HW220886   3.895   6.728   2.672
 6663SOL     OW20887   0.568   4.279   5.812
 6663SOL    HW120888   0.621   4.254   5.893
 6663SOL    HW220889   0.566   4.378   5.803
 6664SOL     OW20890   2.995   0.205   0.766
 6664SOL    HW120891   3.065   0.134   0.761
 6664SOL    HW220892   2.999   0.250   0.855
 6665SOL     OW20893   2.714   0.756   6.524
 6665SOL    HW120894   2.721   0.853   6.498
 6665SOL    HW220895   2.716   0.748   6.623
 6666SOL     OW20896   4.108   6.197   5.249
 6666SOL    HW120897   4.201   6.220   5.275
 6666SOL    HW220898   4.105   6.104   5.212
 6667SOL     OW20899   1.025   6.124   6.554
 6667SOL    HW120900   0.973   6.039   6.555
 6667SOL    HW220901   1.047   6.151   6.647
 6668SOL     OW20902   6.893   4.556   0.499
 6668SOL    HW120903   6.920   4.596   0.587
 6668SOL    HW220904   6.900   4.456   0.505
 6669SOL     OW20905   1.210   1.845   2.808
 6669SOL    HW120906   1.128   1.789   2.815
 6669SOL    HW220907   1.290   1.791   2.834
 6670SOL     OW20908   3.933   2.844   0.065
 6670SOL    HW120909   3.924   2.750   0.099
 6670SOL    HW220910   3.863   2.902   0.107
 6671SOL     OW20911   4.254   5.325   0.461
 6671SOL    HW120912   4.178   5.292   0.405
 6671SOL    HW220913   4.339   5.314   0.411
 6672SOL     OW20914   1.339   2.605   1.661
 6672SOL    HW120915   1.345   2.527   1.723
 6672SOL    HW220916   1.325   2.689   1.714
 6673SOL     OW20917   6.275   2.869   3.778
 6673SOL    HW120918   6.328   2.854   3.861
 6673SOL    HW220919   6.229   2.785   3.751
 6674SOL     OW20920   0.528   1.181   0.297
 6674SOL    HW120921   0.578   1.266   0.316
 6674SOL    HW220922   0.566   1.107   0.352
 6675SOL     OW20923   5.020   0.541   6.678
 6675SOL    HW120924   5.006   0.492   6.764
 6675SOL    HW220925   4.951   0.513   6.612
 6676SOL     OW20926   0.911   4.339   4.287
 6676SOL    HW120927   0.930   4.287   4.203
 6676SOL    HW220928   0.975   4.311   4.358
 6677SOL     OW20929   0.868   1.369   6.502
 6677SOL    HW120930   0.800   1.353   6.431
 6677SOL    HW220931   0.823   1.400   6.585
 6678SOL     OW20932   2.469   3.994   6.246
 6678SOL    HW120933   2.455   3.895   6.254
 6678SOL    HW220934   2.521   4.013   6.163
 6679SOL     OW20935   1.519   1.155   3.742
 6679SOL    HW120936   1.420   1.142   3.729
 6679SOL    HW220937   1.568   1.120   3.662
 6680SOL     OW20938   6.417   6.468   1.341
 6680SOL    HW120939   6.410   6.448   1.438
 6680SOL    HW220940   6.500   6.522   1.323
 6681SOL     OW20941   3.314   5.914   1.657
 6681SOL    HW120942   3.250   5.964   1.715
 6681SOL    HW220943   3.299   5.816   1.667
 6682SOL     OW20944   3.578   5.750   5.620
 6682SOL    HW120945   3.522   5.672   5.650
 6682SOL    HW220946   3.573   5.758   5.521
 6683SOL     OW20947   6.758   4.539   6.002
 6683SOL    HW120948   6.804   4.564   5.917
 6683SOL    HW220949   6.734   4.621   6.053
 6684SOL     OW20950   3.273   6.028   0.364
 6684SOL    HW120951   3.267   6.024   0.265
 6684SOL    HW220952   3.349   5.970   0.396
 6685SOL     OW20953   5.090   2.905   6.887
 6685SOL    HW120954   5.114   2.893   6.791
 6685SOL    HW220955   5.075   2.816   6.930
 6686SOL     OW20956   4.828   5.244   4.535
 6686SOL    HW120957   4.864   5.189   4.460
 6686SOL    HW220958   4.762   5.310   4.498
 6687SOL     OW20959   6.605   1.926   1.509
 6687SOL    HW120960   6.531   1.992   1.491
 6687SOL    HW220961   6.693   1.967   1.486
 6688SOL     OW20962   4.546   4.926   1.097
 6688SOL    HW120963   4.575   5.004   1.041
 6688SOL    HW220964   4.506   4.961   1.182
 6689SOL     OW20965   2.295   4.693   5.920
 6689SOL    HW120966   2.378   4.669   5.969
 6689SOL    HW220967   2.319   4.756   5.845
 6690SOL     OW20968   0.444   0.133   6.021
 6690SOL    HW120969   0.466   0.052   5.968
 6690SOL    HW220970   0.373   0.112   6.088
 6691SOL     OW20971   3.047   2.127   2.510
 6691SOL    HW120972   2.990   2.186   2.566
 6691SOL    HW220973   3.028   2.145   2.413
 6692SOL     OW20974   4.104   5.360   2.054
 6692SOL    HW120975   4.203   5.374   2.055
 6692SOL    HW220976   4.084   5.266   2.080
 6693SOL     OW20977   3.605   1.695   5.065
 6693SOL    HW120978   3.566   1.665   4.979
 6693SOL    HW220979   3.700   1.666   5.071
 6694SOL     OW20980   3.429   4.163   1.856
 6694SOL    HW120981   3.428   4.089   1.788
 6694SOL    HW220982   3.345   4.216   1.849
 6695SOL     OW20983   2.671   1.939   0.308
 6695SOL    HW120984   2.688   1.892   0.221
 6695SOL    HW220985   2.596   2.004   0.296
 6696SOL     OW20986   4.153   3.517   4.405
 6696SOL    HW120987   4.128   3.512   4.309
 6696SOL    HW220988   4.138   3.610   4.439
 6697SOL     OW20989   4.261   2.303   2.076
 6697SOL    HW120990   4.206   2.354   2.011
 6697SOL    HW220991   4.257   2.205   2.054
 6698SOL     OW20992   3.195   4.250   1.433
 6698SOL    HW120993   3.162   4.344   1.422
 6698SOL    HW220994   3.295   4.251   1.440
 6699SOL     OW20995   1.313   4.079   5.361
 6699SOL    HW120996   1.306   3.994   5.413
 6699SOL    HW220997   1.227   4.097   5.313
 6700SOL     OW20998   5.593   0.207   0.098
 6700SOL    HW120999   5.678   0.199   0.150
 6700SOL    HW221000   5.532   0.272   0.143
 6701SOL     OW21001   6.237   6.989   1.506
 6701SOL    HW121002   6.280   6.903   1.480
 6701SOL    HW221003   6.306   0.028   1.547
 6702SOL     OW21004   3.227   2.639   1.042
 6702SOL    HW121005   3.234   2.658   0.944
 6702SOL    HW221006   3.168   2.708   1.085
 6703SOL     OW21007   0.074   1.129   0.357
 6703SOL    HW121008   0.051   1.036   0.386
 6703SOL    HW221009   7.016   1.189   0.372
 6704SOL     OW21010   3.248   6.982   6.148
 6704SOL    HW121011   3.346   6.968   6.161
 6704SOL    HW221012   3.232   0.025   6.073
 6705SOL     OW21013   0.097   4.325   2.210
 6705SOL    HW121014   0.001   4.352   2.202
 6705SOL    HW221015   0.109   4.271   2.293
 6706SOL     OW21016   0.328   6.634   1.472
 6706SOL    HW121017   0.240   6.618   1.517
 6706SOL    HW221018   0.312   6.658   1.376
 6707SOL     OW21019   5.109   1.235   2.363
 6707SOL    HW121020   5.148   1.148   2.394
 6707SOL    HW221021   5.039   1.265   2.427
 6708SOL     OW21022   0.864   3.859   0.744
 6708SOL    HW121023   0.812   3.782   0.783
 6708SOL    HW221024   0.849   3.940   0.800
 6709SOL     OW21025   2.257   4.086   2.349
 6709SOL    HW121026   2.289   3.992   2.333
 6709SOL    HW221027   2.332   4.150   2.329
 6710SOL     OW21028   5.015   1.491   0.921
 6710SOL    HW121029   5.007   1.440   0.835
 6710SOL    HW221030   5.054   1.581   0.903
 6711SOL     OW21031   3.178   6.061   6.655
 6711SOL    HW121032   3.212   6.151   6.679
 6711SOL    HW221033   3.115   6.028   6.726
 6712SOL     OW21034   5.669   3.972   1.441
 6712SOL    HW121035   5.635   3.954   1.534
 6712SOL    HW221036   5.666   3.887   1.388
 6713SOL     OW21037   1.704   5.080   4.786
 6713SOL    HW121038   1.760   5.151   4.829
 6713SOL    HW221039   1.679   5.012   4.855
 6714SOL     OW21040   4.884   1.213   1.324
 6714SOL    HW121041   4.847   1.157   1.250
 6714SOL    HW221042   4.927   1.295   1.285
 6715SOL     OW21043   1.974   0.540   6.740
 6715SOL    HW121044   1.920   0.469   6.786
 6715SOL    HW221045   2.051   0.566   6.798
 6716SOL     OW21046   6.762   6.195   2.362
 6716SOL    HW121047   6.773   6.264   2.434
 6716SOL    HW221048   6.798   6.231   2.276
 6717SOL     OW21049   5.862   1.793   5.670
 6717SOL    HW121050   5.808   1.715   5.701
 6717SOL    HW221051   5.817   1.878   5.699
 6718SOL     OW21052   4.087   1.233   1.210
 6718SOL    HW121053   4.117   1.253   1.116
 6718SOL    HW221054   4.013   1.296   1.234
 6719SOL     OW21055   2.469   1.116   0.327
 6719SOL    HW121056   2.524   1.034   0.310
 6719SOL    HW221057   2.383   1.091   0.371
 6720SOL     OW21058   1.615   0.934   6.002
 6720SOL    HW121059   1.643   0.915   6.097
 6720SOL    HW221060   1.693   0.968   5.951
 6721SOL     OW21061   6.018   0.730   0.636
 6721SOL    HW121062   5.981   0.683   0.556
 6721SOL    HW221063   6.098   0.783   0.610
 6722SOL     OW21064   5.609   3.669   6.736
 6722SOL    HW121065   5.528   3.728   6.734
 6722SOL    HW221066   5.653   3.676   6.825
 6723SOL     OW21067   1.013   2.403   5.703
 6723SOL    HW121068   1.031   2.436   5.610
 6723SOL    HW221069   0.974   2.477   5.757
 6724SOL     OW21070   2.103   3.466   4.498
 6724SOL    HW121071   2.131   3.555   4.532
 6724SOL    HW221072   2.144   3.450   4.408
 6725SOL     OW21073   5.453   2.709   3.204
 6725SOL    HW121074   5.501   2.723   3.290
 6725SOL    HW221075   5.400   2.625   3.209
 6726SOL     OW21076   0.520   0.302   5.342
 6726SOL    HW121077   0.559   0.382   5.296
 6726SOL    HW221078   0.557   0.219   5.300
 6727SOL     OW21079   1.492   4.995   5.456
 6727SOL    HW121080   1.393   4.982   5.460
 6727SOL    HW221081   1.537   4.919   5.503
 6728SOL     OW21082   3.365   1.777   2.797
 6728SOL    HW121083   3.371   1.771   2.697
 6728SOL    HW221084   3.395   1.868   2.827
 6729SOL     OW21085   4.397   1.345   2.155
 6729SOL    HW121086   4.309   1.301   2.139
 6729SOL    HW221087   4.470   1.286   2.120
 6730SOL     OW21088   0.254   1.049   0.955
 6730SOL    HW121089   0.250   1.106   0.873
 6730SOL    HW221090   0.337   0.993   0.953
 6731SOL     OW21091   3.669   0.137   6.348
 6731SOL    HW121092   3.755   0.139   6.297
 6731SOL    HW221093   3.687   0.104   6.441
 6732SOL     OW21094   6.644   5.562   5.202
 6732SOL    HW121095   6.606   5.469   5.195
 6732SOL    HW221096   6.680   5.589   5.113
 6733SOL     OW21097   4.830   4.259   5.900
 6733SOL    HW121098   4.805   4.298   5.811
 6733SOL    HW221099   4.908   4.199   5.889
 6734SOL     OW21100   6.214   1.921   4.071
 6734SOL    HW121101   6.280   1.859   4.114
 6734SOL    HW221102   6.259   2.009   4.052
 6735SOL     OW21103   6.665   2.583   3.102
 6735SOL    HW121104   6.634   2.488   3.107
 6735SOL    HW221105   6.730   2.600   3.176
 6736SOL     OW21106   3.682   3.405   0.504
 6736SOL    HW121107   3.615   3.459   0.452
 6736SOL    HW221108   3.669   3.423   0.602
 6737SOL     OW21109   0.082   3.417   0.289
 6737SOL    HW121110   0.063   3.394   0.193
 6737SOL    HW221111   0.006   3.470   0.326
 6738SOL     OW21112   1.153   5.908   3.824
 6738SOL    HW121113   1.241   5.905   3.776
 6738SOL    HW221114   1.164   5.870   3.916
 6739SOL     OW21115   6.760   7.015   4.831
 6739SOL    HW121116   6.714   6.929   4.853
 6739SOL    HW221117   6.826   6.999   4.757
 6740SOL     OW21118   0.807   6.680   3.016
 6740SOL    HW121119   0.744   6.729   2.954
 6740SOL    HW221120   0.776   6.692   3.110
 6741SOL     OW21121   4.096   1.873   6.846
 6741SOL    HW121122   4.166   1.808   6.815
 6741SOL    HW221123   4.141   1.958   6.875
 6742SOL     OW21124   5.732   4.710   3.593
 6742SOL    HW121125   5.737   4.647   3.516
 6742SOL    HW221126   5.664   4.678   3.659
 6743SOL     OW21127   4.140   3.710   1.033
 6743SOL    HW121128   4.193   3.702   1.118
 6743SOL    HW221129   4.112   3.619   1.003
 6744SOL     OW21130   6.712   6.975   5.983
 6744SOL    HW121131   6.623   7.019   5.994
 6744SOL    HW221132   6.700   6.884   5.942
 6745SOL     OW21133   0.041   4.516   5.491
 6745SOL    HW121134   0.080   4.541   5.402
 6745SOL    HW221135   0.069   4.582   5.560
 6746SOL     OW21136   0.788   2.462   2.584
 6746SOL    HW121137   0.759   2.478   2.489
 6746SOL    HW221138   0.848   2.536   2.614
 6747SOL     OW21139   1.738   6.108   5.933
 6747SOL    HW121140   1.708   6.197   5.899
 6747SOL    HW221141   1.784   6.058   5.859
 6748SOL     OW21142   2.126   1.142   4.630
 6748SOL    HW121143   2.044   1.095   4.662
 6748SOL    HW221144   2.182   1.079   4.576
 6749SOL     OW21145   3.667   5.045   1.695
 6749SOL    HW121146   3.634   5.041   1.600
 6749SOL    HW221147   3.689   4.953   1.727
 6750SOL     OW21148   3.826   1.353   5.360
 6750SOL    HW121149   3.865   1.326   5.447
 6750SOL    HW221150   3.726   1.357   5.367
 6751SOL     OW21151   4.925   0.282   4.221
 6751SOL    HW121152   4.884   0.306   4.134
 6751SOL    HW221153   5.024   0.275   4.210
 6752SOL     OW21154   2.243   4.839   2.181
 6752SOL    HW121155   2.294   4.776   2.239
 6752SOL    HW221156   2.294   4.854   2.095
 6753SOL     OW21157   3.837   3.297   5.616
 6753SOL    HW121158   3.881   3.265   5.700
 6753SOL    HW221159   3.808   3.392   5.627
 6754SOL     OW21160   6.622   1.295   0.887
 6754SOL    HW121161   6.541   1.325   0.936
 6754SOL    HW221162   6.637   1.354   0.808
 6755SOL     OW21163   2.714   5.971   6.249
 6755SOL    HW121164   2.736   6.054   6.198
 6755SOL    HW221165   2.795   5.914   6.257
 6756SOL     OW21166   2.087   2.080   5.565
 6756SOL    HW121167   2.018   2.022   5.608
 6756SOL    HW221168   2.044   2.141   5.499
 6757SOL     OW21169   3.973   6.696   0.819
 6757SOL    HW121170   3.949   6.599   0.815
 6757SOL    HW221171   3.924   6.746   0.748
 6758SOL     OW21172   5.178   1.827   3.383
 6758SOL    HW121173   5.193   1.919   3.346
 6758SOL    HW221174   5.081   1.804   3.378
 6759SOL     OW21175   0.440   2.443   2.454
 6759SOL    HW121176   0.497   2.361   2.446
 6759SOL    HW221177   0.494   2.523   2.429
 6760SOL     OW21178   5.035   2.860   3.968
 6760SOL    HW121179   4.937   2.876   3.978
 6760SOL    HW221180   5.053   2.816   3.880
 6761SOL     OW21181   4.097   1.853   4.774
 6761SOL    HW121182   4.170   1.820   4.834
 6761SOL    HW221183   4.013   1.804   4.793
 6762SOL     OW21184   6.796   5.702   3.814
 6762SOL    HW121185   6.886   5.705   3.858
 6762SOL    HW221186   6.732   5.654   3.874
 6763SOL     OW21187   5.366   5.448   5.374
 6763SOL    HW121188   5.402   5.535   5.340
 6763SOL    HW221189   5.286   5.422   5.320
 6764SOL     OW21190   1.538   5.344   0.912
 6764SOL    HW121191   1.564   5.384   1.000
 6764SOL    HW221192   1.586   5.391   0.838
 6765SOL     OW21193   6.752   5.171   3.180
 6765SOL    HW121194   6.691   5.112   3.232
 6765SOL    HW221195   6.700   5.222   3.112
 6766SOL     OW21196   6.066   0.736   0.908
 6766SOL    HW121197   6.034   0.829   0.928
 6766SOL    HW221198   6.043   0.712   0.814
 6767SOL     OW21199   3.149   0.579   0.452
 6767SOL    HW121200   3.175   0.619   0.364
 6767SOL    HW221201   3.050   0.563   0.452
 6768SOL     OW21202   2.157   0.869   0.655
 6768SOL    HW121203   2.225   0.942   0.665
 6768SOL    HW221204   2.141   0.827   0.744
 6769SOL     OW21205   4.129   3.106   1.601
 6769SOL    HW121206   4.061   3.179   1.605
 6769SOL    HW221207   4.212   3.134   1.649
 6770SOL     OW21208   0.516   0.087   1.733
 6770SOL    HW121209   0.557   0.111   1.820
 6770SOL    HW221210   0.577   0.025   1.683
 6771SOL     OW21211   3.941   2.170   2.914
 6771SOL    HW121212   3.918   2.171   3.011
 6771SOL    HW221213   3.868   2.125   2.862
 6772SOL     OW21214   3.103   1.545   2.730
 6772SOL    HW121215   3.195   1.561   2.765
 6772SOL    HW221216   3.046   1.505   2.802
 6773SOL     OW21217   0.715   4.424   1.972
 6773SOL    HW121218   0.655   4.345   1.984
 6773SOL    HW221219   0.704   4.461   1.879
 6774SOL     OW21220   0.712   1.714   6.751
 6774SOL    HW121221   0.716   1.634   6.812
 6774SOL    HW221222   0.639   1.701   6.685
 6775SOL     OW21223   2.593   4.640   0.536
 6775SOL    HW121224   2.658   4.563   0.539
 6775SOL    HW221225   2.624   4.712   0.598
 6776SOL     OW21226   6.171   5.507   0.003
 6776SOL    HW121227   6.186   5.461   0.091
 6776SOL    HW221228   6.094   5.465   6.977
 6777SOL     OW21229   4.833   4.654   6.744
 6777SOL    HW121230   4.845   4.715   6.665
 6777SOL    HW221231   4.840   4.708   6.828
 6778SOL     OW21232   0.819   6.137   3.224
 6778SOL    HW121233   0.826   6.050   3.176
 6778SOL    HW221234   0.842   6.212   3.163
 6779SOL     OW21235   0.335   4.189   0.250
 6779SOL    HW121236   0.412   4.126   0.264
 6779SOL    HW221237   0.312   4.234   0.336
 6780SOL     OW21238   0.263   2.351   1.838
 6780SOL    HW121239   0.187   2.414   1.852
 6780SOL    HW221240   0.244   2.264   1.883
 6781SOL     OW21241   5.552   5.187   5.883
 6781SOL    HW121242   5.586   5.104   5.927
 6781SOL    HW221243   5.628   5.247   5.860
 6782SOL     OW21244   6.148   1.409   3.056
 6782SOL    HW121245   6.240   1.447   3.044
 6782SOL    HW221246   6.149   1.311   3.036
 6783SOL     OW21247   0.469   5.924   6.623
 6783SOL    HW121248   0.399   5.993   6.607
 6783SOL    HW221249   0.542   5.934   6.556
 6784SOL     OW21250   3.444   3.067   0.260
 6784SOL    HW121251   3.453   3.077   0.161
 6784SOL    HW221252   3.363   3.013   0.282
 6785SOL     OW21253   5.697   6.256   2.325
 6785SOL    HW121254   5.695   6.326   2.253
 6785SOL    HW221255   5.715   6.167   2.284
 6786SOL     OW21256   2.119   2.945   5.882
 6786SOL    HW121257   2.034   2.949   5.829
 6786SOL    HW221258   2.133   2.851   5.914
 6787SOL     OW21259   1.393   3.953   2.502
 6787SOL    HW121260   1.426   3.916   2.415
 6787SOL    HW221261   1.472   3.976   2.560
 6788SOL     OW21262   2.920   3.552   0.665
 6788SOL    HW121263   2.903   3.612   0.744
 6788SOL    HW221264   3.016   3.524   0.666
 6789SOL     OW21265   0.424   6.215   2.516
 6789SOL    HW121266   0.463   6.291   2.567
 6789SOL    HW221267   0.437   6.231   2.418
 6790SOL     OW21268   1.744   2.700   0.270
 6790SOL    HW121269   1.719   2.797   0.259
 6790SOL    HW221270   1.838   2.694   0.305
 6791SOL     OW21271   4.371   3.459   6.101
 6791SOL    HW121272   4.352   3.475   6.198
 6791SOL    HW221273   4.326   3.528   6.046
 6792SOL     OW21274   6.994   5.599   1.063
 6792SOL    HW121275   0.045   5.646   1.115
 6792SOL    HW221276   6.941   5.541   1.125
 6793SOL     OW21277   6.985   2.334   1.629
 6793SOL    HW121278   0.034   2.263   1.621
 6793SOL    HW221279   7.019   2.407   1.688
 6794SOL     OW21280   4.743   1.552   5.458
 6794SOL    HW121281   4.662   1.511   5.416
 6794SOL    HW221282   4.715   1.627   5.518
 6795SOL     OW21283   3.073   5.772   7.001
 6795SOL    HW121284   3.048   5.773   0.077
 6795SOL    HW221285   3.042   5.687   6.959
 6796SOL     OW21286   4.421   1.829   3.313
 6796SOL    HW121287   4.459   1.921   3.319
 6796SOL    HW221288   4.324   1.835   3.289
 6797SOL     OW21289   5.916   3.109   2.603
 6797SOL    HW121290   5.828   3.105   2.556
 6797SOL    HW221291   5.977   3.039   2.565
 6798SOL     OW21292   5.781   6.403   2.532
 6798SOL    HW121293   5.783   6.343   2.612
 6798SOL    HW221294   5.763   6.349   2.450
 6799SOL     OW21295   5.560   6.336   0.767
 6799SOL    HW121296   5.507   6.411   0.728
 6799SOL    HW221297   5.653   6.367   0.785
 6800SOL     OW21298   2.508   4.870   6.909
 6800SOL    HW121299   2.445   4.878   6.832
 6800SOL    HW221300   2.567   4.790   6.896
 6801SOL     OW21301   1.689   2.067   2.344
 6801SOL    HW121302   1.697   1.978   2.388
 6801SOL    HW221303   1.711   2.058   2.247
 6802SOL     OW21304   2.161   6.236   2.085
 6802SOL    HW121305   2.114   6.256   2.171
 6802SOL    HW221306   2.111   6.165   2.036
 6803SOL     OW21307   5.407   2.005   6.927
 6803SOL    HW121308   5.339   1.983   6.997
 6803SOL    HW221309   5.381   2.090   6.881
 6804SOL     OW21310   1.627   6.138   3.782
 6804SOL    HW121311   1.703   6.199   3.803
 6804SOL    HW221312   1.593   6.158   3.690
 6805SOL     OW21313   5.896   0.381   4.619
 6805SOL    HW121314   5.977   0.410   4.671
 6805SOL    HW221315   5.924   0.324   4.542
 6806SOL     OW21316   4.759   1.181   5.531
 6806SOL    HW121317   4.814   1.121   5.474
 6806SOL    HW221318   4.676   1.133   5.559
 6807SOL     OW21319   2.909   3.187   0.311
 6807SOL    HW121320   2.973   3.232   0.374
 6807SOL    HW221321   2.818   3.227   0.322
 6808SOL     OW21322   0.932   2.957   5.581
 6808SOL    HW121323   0.870   2.905   5.640
 6808SOL    HW221324   0.961   2.900   5.504
 6809SOL     OW21325   2.283   3.615   6.647
 6809SOL    HW121326   2.221   3.567   6.584
 6809SOL    HW221327   2.238   3.697   6.682
 6810SOL     OW21328   6.147   1.205   2.235
 6810SOL    HW121329   6.245   1.222   2.243
 6810SOL    HW221330   6.119   1.139   2.305
 6811SOL     OW21331   5.630   5.386   1.552
 6811SOL    HW121332   5.690   5.399   1.631
 6811SOL    HW221333   5.617   5.288   1.537
 6812SOL     OW21334   3.285   3.687   3.190
 6812SOL    HW121335   3.375   3.658   3.158
 6812SOL    HW221336   3.229   3.607   3.211
 6813SOL     OW21337   4.360   3.252   0.840
 6813SOL    HW121338   4.348   3.170   0.896
 6813SOL    HW221339   4.414   3.229   0.759
 6814SOL     OW21340   2.372   3.303   0.616
 6814SOL    HW121341   2.402   3.380   0.560
 6814SOL    HW221342   2.308   3.246   0.563
 6815SOL     OW21343   2.088   0.345   2.089
 6815SOL    HW121344   1.992   0.373   2.094
 6815SOL    HW221345   2.114   0.299   2.173
 6816SOL     OW21346   6.616   4.733   1.119
 6816SOL    HW121347   6.570   4.644   1.125
 6816SOL    HW221348   6.590   4.789   1.197
 6817SOL     OW21349   0.214   1.616   5.879
 6817SOL    HW121350   0.215   1.516   5.881
 6817SOL    HW221351   0.290   1.651   5.934
 6818SOL     OW21352   3.768   6.100   3.048
 6818SOL    HW121353   3.686   6.108   2.992
 6818SOL    HW221354   3.837   6.165   3.018
 6819SOL     OW21355   3.590   1.502   3.937
 6819SOL    HW121356   3.561   1.427   3.877
 6819SOL    HW221357   3.514   1.529   3.995
 6820SOL     OW21358   0.786   4.415   3.597
 6820SOL    HW121359   0.810   4.466   3.514
 6820SOL    HW221360   0.686   4.416   3.608
 6821SOL     OW21361   2.747   1.970   4.627
 6821SOL    HW121362   2.694   1.987   4.710
 6821SOL    HW221363   2.758   2.056   4.576
 6822SOL     OW21364   5.648   2.076   5.853
 6822SOL    HW121365   5.658   2.068   5.754
 6822SOL    HW221366   5.701   2.155   5.884
 6823SOL     OW21367   2.883   3.483   3.302
 6823SOL    HW121368   2.980   3.477   3.281
 6823SOL    HW221369   2.831   3.490   3.217
 6824SOL     OW21370   0.969   4.055   6.995
 6824SOL    HW121371   1.023   3.971   7.002
 6824SOL    HW221372   0.927   4.061   6.905
 6825SOL     OW21373   5.028   0.344   2.752
 6825SOL    HW121374   4.939   0.311   2.782
 6825SOL    HW221375   5.097   0.273   2.766
 6826SOL     OW21376   1.435   3.208   2.907
 6826SOL    HW121377   1.476   3.239   2.821
 6826SOL    HW221378   1.503   3.158   2.961
 6827SOL     OW21379   6.090   5.177   5.552
 6827SOL    HW121380   6.113   5.089   5.510
 6827SOL    HW221381   6.171   5.215   5.597
 6828SOL     OW21382   1.559   2.664   1.114
 6828SOL    HW121383   1.570   2.744   1.173
 6828SOL    HW221384   1.600   2.682   1.025
 6829SOL     OW21385   4.855   6.050   4.136
 6829SOL    HW121386   4.928   6.000   4.089
 6829SOL    HW221387   4.894   6.130   4.183
 6830SOL     OW21388   5.530   2.549   3.954
 6830SOL    HW121389   5.455   2.612   3.972
 6830SOL    HW221390   5.506   2.458   3.990
 6831SOL     OW21391   0.374   0.965   6.097
 6831SOL    HW121392   0.359   1.006   6.186
 6831SOL    HW221393   0.468   0.982   6.068
 6832SOL     OW21394   3.084   5.173   2.404
 6832SOL    HW121395   2.992   5.167   2.366
 6832SOL    HW221396   3.101   5.267   2.434
 6833SOL     OW21397   4.053   5.197   0.329
 6833SOL    HW121398   4.028   5.109   0.371
 6833SOL    HW221399   3.995   5.269   0.365
 6834SOL     OW21400   4.090   5.773   2.050
 6834SOL    HW121401   4.102   5.718   2.133
 6834SOL    HW221402   4.020   5.842   2.066
 6835SOL     OW21403   3.744   0.295   4.845
 6835SOL    HW121404   3.811   0.321   4.776
 6835SOL    HW221405   3.725   0.197   4.840
 6836SOL     OW21406   3.508   6.273   0.300
 6836SOL    HW121407   3.490   6.180   0.268
 6836SOL    HW221408   3.604   6.296   0.287
 6837SOL     OW21409   1.684   3.149   2.077
 6837SOL    HW121410   1.663   3.052   2.065
 6837SOL    HW221411   1.770   3.171   2.032
 6838SOL     OW21412   2.440   1.334   7.006
 6838SOL    HW121413   2.440   1.340   6.906
 6838SOL    HW221414   2.534   1.332   0.019
 6839SOL     OW21415   4.343   0.994   0.962
 6839SOL    HW121416   4.419   0.989   0.897
 6839SOL    HW221417   4.375   1.036   1.047
 6840SOL     OW21418   1.142   1.896   6.182
 6840SOL    HW121419   1.139   1.796   6.174
 6840SOL    HW221420   1.145   1.922   6.278
 6841SOL     OW21421   6.431   3.257   6.276
 6841SOL    HW121422   6.359   3.295   6.218
 6841SOL    HW221423   6.408   3.270   6.372
 6842SOL     OW21424   2.339   4.803   2.801
 6842SOL    HW121425   2.432   4.808   2.838
 6842SOL    HW221426   2.273   4.810   2.876
 6843SOL     OW21427   4.754   6.515   7.021
 6843SOL    HW121428   4.720   6.551   0.087
 6843SOL    HW221429   4.854   6.511   0.002
 6844SOL     OW21430   5.111   0.628   5.584
 6844SOL    HW121431   5.117   0.636   5.684
 6844SOL    HW221432   5.030   0.677   5.552
 6845SOL     OW21433   4.930   1.619   2.377
 6845SOL    HW121434   4.857   1.676   2.415
 6845SOL    HW221435   4.899   1.578   2.291
 6846SOL     OW21436   2.275   3.851   7.006
 6846SOL    HW121437   2.307   3.827   0.077
 6846SOL    HW221438   2.323   3.795   6.939
 6847SOL     OW21439   6.438   3.659   3.886
 6847SOL    HW121440   6.509   3.609   3.837
 6847SOL    HW221441   6.368   3.596   3.918
 6848SOL     OW21442   5.950   4.760   3.292
 6848SOL    HW121443   5.973   4.671   3.253
 6848SOL    HW221444   6.016   4.828   3.262
 6849SOL     OW21445   3.278   4.469   6.883
 6849SOL    HW121446   3.269   4.421   6.796
 6849SOL    HW221447   3.373   4.466   6.913
 6850SOL     OW21448   3.977   1.829   3.441
 6850SOL    HW121449   4.025   1.783   3.516
 6850SOL    HW221450   3.926   1.906   3.477
 6851SOL     OW21451   1.913   3.056   3.836
 6851SOL    HW121452   1.930   3.113   3.755
 6851SOL    HW221453   1.854   3.106   3.900
 6852SOL     OW21454   2.938   4.878   0.462
 6852SOL    HW121455   2.921   4.949   0.395
 6852SOL    HW221456   2.912   4.911   0.553
 6853SOL     OW21457   4.975   3.353   0.011
 6853SOL    HW121458   4.887   3.380   6.992
 6853SOL    HW221459   5.023   3.435   0.043
 6854SOL     OW21460   5.408   6.206   6.300
 6854SOL    HW121461   5.318   6.209   6.342
 6854SOL    HW221462   5.408   6.143   6.224
 6855SOL     OW21463   3.870   5.300   3.662
 6855SOL    HW121464   3.801   5.337   3.725
 6855SOL    HW221465   3.934   5.373   3.637
 6856SOL     OW21466   1.014   1.525   6.847
 6856SOL    HW121467   1.038   1.527   6.750
 6856SOL    HW221468   0.915   1.510   6.857
 6857SOL     OW21469   0.684   4.036   5.363
 6857SOL    HW121470   0.653   3.969   5.295
 6857SOL    HW221471   0.739   4.106   5.317
 6858SOL     OW21472   2.490   3.887   1.684
 6858SOL    HW121473   2.419   3.955   1.666
 6858SOL    HW221474   2.575   3.914   1.638
 6859SOL     OW21475   0.796   1.332   2.357
 6859SOL    HW121476   0.783   1.409   2.295
 6859SOL    HW221477   0.708   1.288   2.375
 6860SOL     OW21478   0.658   6.521   1.945
 6860SOL    HW121479   0.625   6.574   1.867
 6860SOL    HW221480   0.687   6.583   2.018
 6861SOL     OW21481   5.594   2.611   5.087
 6861SOL    HW121482   5.574   2.516   5.111
 6861SOL    HW221483   5.633   2.615   4.995
 6862SOL     OW21484   0.842   4.512   5.196
 6862SOL    HW121485   0.810   4.464   5.115
 6862SOL    HW221486   0.791   4.598   5.206
 6863SOL     OW21487   6.189   0.420   5.678
 6863SOL    HW121488   6.191   0.321   5.668
 6863SOL    HW221489   6.144   0.461   5.598
 6864SOL     OW21490   1.292   3.603   6.191
 6864SOL    HW121491   1.288   3.651   6.279
 6864SOL    HW221492   1.217   3.634   6.132
 6865SOL     OW21493   2.217   6.819   3.752
 6865SOL    HW121494   2.264   6.740   3.791
 6865SOL    HW221495   2.139   6.844   3.810
 6866SOL     OW21496   1.063   4.344   1.098
 6866SOL    HW121497   1.066   4.407   1.176
 6866SOL    HW221498   1.153   4.342   1.054
 6867SOL     OW21499   2.191   3.847   6.722
 6867SOL    HW121500   2.260   3.918   6.733
 6867SOL    HW221501   2.111   3.869   6.779
 6868SOL     OW21502   2.512   4.920   4.316
 6868SOL    HW121503   2.475   4.945   4.226
 6868SOL    HW221504   2.500   4.822   4.331
 6869SOL     OW21505   3.426   0.651   5.975
 6869SOL    HW121506   3.329   0.653   5.948
 6869SOL    HW221507   3.477   0.718   5.922
 6870SOL     OW21508   6.129   2.290   1.049
 6870SOL    HW121509   6.200   2.314   1.116
 6870SOL    HW221510   6.172   2.270   0.961
 6871SOL     OW21511   0.531   4.001   2.330
 6871SOL    HW121512   0.538   4.097   2.356
 6871SOL    HW221513   0.603   3.948   2.375
 6872SOL     OW21514   1.489   3.756   0.431
 6872SOL    HW121515   1.463   3.702   0.351
 6872SOL    HW221516   1.537   3.698   0.496
 6873SOL     OW21517   0.828   4.636   3.798
 6873SOL    HW121518   0.734   4.634   3.834
 6873SOL    HW221519   0.854   4.544   3.767
 6874SOL     OW21520   5.203   6.615   3.238
 6874SOL    HW121521   5.273   6.614   3.165
 6874SOL    HW221522   5.224   6.543   3.304
 6875SOL     OW21523   2.178   2.047   0.164
 6875SOL    HW121524   2.091   2.068   0.210
 6875SOL    HW221525   2.175   2.081   0.070
 6876SOL     OW21526   5.125   5.414   3.655
 6876SOL    HW121527   5.042   5.423   3.600
 6876SOL    HW221528   5.111   5.460   3.743
 6877SOL     OW21529   1.478   3.695   2.707
 6877SOL    HW121530   1.469   3.638   2.625
 6877SOL    HW221531   1.536   3.774   2.687
 6878SOL     OW21532   2.190   0.519   4.350
 6878SOL    HW121533   2.111   0.463   4.326
 6878SOL    HW221534   2.159   0.610   4.376
 6879SOL     OW21535   2.016   1.938   0.811
 6879SOL    HW121536   2.010   1.851   0.762
 6879SOL    HW221537   2.108   1.976   0.799
 6880SOL     OW21538   1.623   5.283   6.592
 6880SOL    HW121539   1.639   5.201   6.538
 6880SOL    HW221540   1.594   5.258   6.684
 6881SOL     OW21541   1.021   2.736   0.409
 6881SOL    HW121542   0.996   2.768   0.500
 6881SOL    HW221543   0.983   2.799   0.340
 6882SOL     OW21544   2.910   6.846   6.472
 6882SOL    HW121545   2.871   6.769   6.521
 6882SOL    HW221546   2.996   6.819   6.429
 6883SOL     OW21547   4.905   0.559   0.017
 6883SOL    HW121548   4.826   0.499   0.006
 6883SOL    HW221549   4.873   0.653   0.029
 6884SOL     OW21550   2.109   4.282   2.882
 6884SOL    HW121551   2.057   4.357   2.841
 6884SOL    HW221552   2.150   4.227   2.809
 6885SOL     OW21553   5.516   5.306   5.177
 6885SOL    HW121554   5.615   5.317   5.178
 6885SOL    HW221555   5.476   5.361   5.251
 6886SOL     OW21556   4.918   1.515   6.731
 6886SOL    HW121557   4.974   1.503   6.649
 6886SOL    HW221558   4.921   1.611   6.759
 6887SOL     OW21559   5.508   6.077   5.990
 6887SOL    HW121560   5.457   6.004   6.036
 6887SOL    HW221561   5.574   6.036   5.927
 6888SOL     OW21562   6.294   5.011   6.399
 6888SOL    HW121563   6.330   5.078   6.334
 6888SOL    HW221564   6.194   5.006   6.389
 6889SOL     OW21565   0.487   2.165   6.880
 6889SOL    HW121566   0.476   2.143   6.784
 6889SOL    HW221567   0.568   2.223   6.892
 6890SOL     OW21568   4.653   4.723   3.178
 6890SOL    HW121569   4.598   4.772   3.246
 6890SOL    HW221570   4.708   4.653   3.224
 6891SOL     OW21571   1.724   1.161   0.531
 6891SOL    HW121572   1.727   1.255   0.566
 6891SOL    HW221573   1.773   1.101   0.594
 6892SOL     OW21574   2.841   0.932   4.768
 6892SOL    HW121575   2.884   0.920   4.678
 6892SOL    HW221576   2.825   1.029   4.784
 6893SOL     OW21577   5.678   2.982   0.819
 6893SOL    HW121578   5.664   3.050   0.747
 6893SOL    HW221579   5.619   3.002   0.897
 6894SOL     OW21580   5.837   5.490   0.342
 6894SOL    HW121581   5.924   5.538   0.338
 6894SOL    HW221582   5.851   5.398   0.378
 6895SOL     OW21583   0.614   6.725   1.433
 6895SOL    HW121584   0.533   6.669   1.414
 6895SOL    HW221585   0.697   6.670   1.421
 6896SOL     OW21586   4.665   2.034   4.563
 6896SOL    HW121587   4.618   2.122   4.566
 6896SOL    HW221588   4.612   1.966   4.613
 6897SOL     OW21589   4.768   3.326   5.283
 6897SOL    HW121590   4.740   3.329   5.379
 6897SOL    HW221591   4.738   3.410   5.238
 6898SOL     OW21592   2.099   0.475   1.141
 6898SOL    HW121593   2.069   0.524   1.223
 6898SOL    HW221594   2.024   0.472   1.075
 6899SOL     OW21595   6.418   5.893   2.061
 6899SOL    HW121596   6.464   5.978   2.034
 6899SOL    HW221597   6.332   5.914   2.107
 6900SOL     OW21598   6.077   3.688   5.610
 6900SOL    HW121599   6.073   3.645   5.520
 6900SOL    HW221600   6.019   3.638   5.674
 6901SOL     OW21601   4.914   4.368   6.854
 6901SOL    HW121602   4.917   4.446   6.790
 6901SOL    HW221603   4.923   4.402   6.948
 6902SOL     OW21604   0.691   6.155   5.853
 6902SOL    HW121605   0.761   6.174   5.784
 6902SOL    HW221606   0.604   6.195   5.825
 6903SOL     OW21607   1.534   6.127   4.790
 6903SOL    HW121608   1.600   6.177   4.848
 6903SOL    HW221609   1.504   6.045   4.838
 6904SOL     OW21610   6.424   6.828   4.989
 6904SOL    HW121611   6.509   6.816   4.939
 6904SOL    HW221612   6.347   6.818   4.926
 6905SOL     OW21613   4.782   5.926   6.045
 6905SOL    HW121614   4.686   5.930   6.073
 6905SOL    HW221615   4.840   5.926   6.126
 6906SOL     OW21616   3.370   1.945   3.534
 6906SOL    HW121617   3.328   2.023   3.579
 6906SOL    HW221618   3.320   1.862   3.557
 6907SOL     OW21619   6.206   2.377   0.683
 6907SOL    HW121620   6.274   2.356   0.754
 6907SOL    HW221621   6.200   2.477   0.672
 6908SOL     OW21622   2.894   4.401   0.287
 6908SOL    HW121623   2.968   4.338   0.313
 6908SOL    HW221624   2.845   4.365   0.208
 6909SOL     OW21625   6.344   5.462   2.064
 6909SOL    HW121626   6.273   5.521   2.101
 6909SOL    HW221627   6.434   5.493   2.095
 6910SOL     OW21628   1.783   3.210   2.869
 6910SOL    HW121629   1.710   3.274   2.844
 6910SOL    HW221630   1.756   3.159   2.951
 6911SOL     OW21631   2.003   6.675   5.580
 6911SOL    HW121632   2.005   6.668   5.480
 6911SOL    HW221633   2.054   6.598   5.620
 6912SOL     OW21634   2.466   3.653   6.869
 6912SOL    HW121635   2.504   3.729   6.817
 6912SOL    HW221636   2.391   3.611   6.817
 6913SOL     OW21637   5.016   6.200   6.087
 6913SOL    HW121638   4.992   6.135   6.014
 6913SOL    HW221639   5.009   6.293   6.052
 6914SOL     OW21640   6.381   2.946   2.873
 6914SOL    HW121641   6.357   2.852   2.849
 6914SOL    HW221642   6.321   3.010   2.824
 6915SOL     OW21643   7.000   3.452   3.751
 6915SOL    HW121644   6.981   3.380   3.685
 6915SOL    HW221645   0.066   3.496   3.729
 6916SOL     OW21646   5.032   6.007   6.789
 6916SOL    HW121647   5.054   5.984   6.884
 6916SOL    HW221648   5.117   6.015   6.736
 6917SOL     OW21649   5.100   5.933   1.453
 6917SOL    HW121650   5.086   5.978   1.365
 6917SOL    HW221651   5.083   5.835   1.444
 6918SOL     OW21652   2.485   3.261   1.283
 6918SOL    HW121653   2.430   3.328   1.234
 6918SOL    HW221654   2.558   3.308   1.332
 6919SOL     OW21655   5.823   6.027   3.434
 6919SOL    HW121656   5.782   6.085   3.505
 6919SOL    HW221657   5.774   5.941   3.429
 6920SOL     OW21658   5.990   0.994   6.059
 6920SOL    HW121659   5.988   1.093   6.075
 6920SOL    HW221660   5.942   0.974   5.974
 6921SOL     OW21661   4.279   0.184   4.193
 6921SOL    HW121662   4.281   0.084   4.202
 6921SOL    HW221663   4.203   0.221   4.246
 6922SOL     OW21664   1.583   4.357   6.244
 6922SOL    HW121665   1.580   4.403   6.155
 6922SOL    HW221666   1.668   4.381   6.291
 6923SOL     OW21667   5.867   0.084   2.596
 6923SOL    HW121668   5.924   0.003   2.609
 6923SOL    HW221669   5.853   0.130   2.684
 6924SOL     OW21670   3.050   6.001   1.473
 6924SOL    HW121671   3.141   5.997   1.514
 6924SOL    HW221672   2.986   6.043   1.538
 6925SOL     OW21673   5.904   6.112   5.446
 6925SOL    HW121674   5.812   6.078   5.424
 6925SOL    HW221675   5.939   6.065   5.527
 6926SOL     OW21676   3.169   2.003   0.169
 6926SOL    HW121677   3.090   1.942   0.179
 6926SOL    HW221678   3.207   2.023   0.260
 6927SOL     OW21679   5.026   0.852   0.708
 6927SOL    HW121680   4.973   0.908   0.644
 6927SOL    HW221681   5.114   0.897   0.727
 6928SOL     OW21682   4.906   5.032   1.106
 6928SOL    HW121683   5.004   5.015   1.116
 6928SOL    HW221684   4.882   5.030   1.009
 6929SOL     OW21685   6.392   5.056   1.368
 6929SOL    HW121686   6.355   4.989   1.303
 6929SOL    HW221687   6.470   5.102   1.327
 6930SOL     OW21688   1.060   0.344   0.738
 6930SOL    HW121689   1.017   0.275   0.680
 6930SOL    HW221690   0.991   0.384   0.799
 6931SOL     OW21691   2.956   3.597   0.938
 6931SOL    HW121692   2.968   3.502   0.969
 6931SOL    HW221693   2.871   3.633   0.976
 6932SOL     OW21694   4.634   6.192   0.150
 6932SOL    HW121695   4.724   6.195   0.108
 6932SOL    HW221696   4.643   6.182   0.249
 6933SOL     OW21697   3.434   5.945   6.570
 6933SOL    HW121698   3.426   5.908   6.478
 6933SOL    HW221699   3.342   5.960   6.608
 6934SOL     OW21700   4.957   3.904   0.040
 6934SOL    HW121701   4.969   3.909   6.962
 6934SOL    HW221702   5.046   3.887   0.084
 6935SOL     OW21703   4.737   5.864   1.695
 6935SOL    HW121704   4.643   5.861   1.730
 6935SOL    HW221705   4.748   5.795   1.623
 6936SOL     OW21706   0.493   1.830   5.078
 6936SOL    HW121707   0.401   1.799   5.054
 6936SOL    HW221708   0.514   1.914   5.027
 6937SOL     OW21709   5.410   5.978   6.974
 6937SOL    HW121710   5.457   5.892   6.993
 6937SOL    HW221711   5.435   6.045   0.023
 6938SOL     OW21712   1.414   0.455   4.892
 6938SOL    HW121713   1.423   0.438   4.794
 6938SOL    HW221714   1.461   0.382   4.943
 6939SOL     OW21715   6.006   3.518   3.306
 6939SOL    HW121716   5.925   3.504   3.248
 6939SOL    HW221717   6.037   3.430   3.340
 6940SOL     OW21718   2.869   5.844   0.555
 6940SOL    HW121719   2.868   5.916   0.624
 6940SOL    HW221720   2.925   5.872   0.477
 6941SOL     OW21721   3.367   3.910   3.392
 6941SOL    HW121722   3.335   3.823   3.354
 6941SOL    HW221723   3.397   3.896   3.486
 6942SOL     OW21724   6.417   6.279   1.764
 6942SOL    HW121725   6.325   6.240   1.765
 6942SOL    HW221726   6.450   6.291   1.858
 6943SOL     OW21727   3.967   5.104   6.590
 6943SOL    HW121728   4.034   5.136   6.657
 6943SOL    HW221729   3.957   5.173   6.518
 6944SOL     OW21730   1.228   4.531   5.114
 6944SOL    HW121731   1.276   4.472   5.179
 6944SOL    HW221732   1.132   4.505   5.110
 6945SOL     OW21733   5.488   1.890   0.989
 6945SOL    HW121734   5.564   1.952   0.969
 6945SOL    HW221735   5.404   1.943   1.001
 6946SOL     OW21736   4.436   5.238   3.185
 6946SOL    HW121737   4.488   5.268   3.265
 6946SOL    HW221738   4.498   5.218   3.110
 6947SOL     OW21739   5.676   4.545   5.209
 6947SOL    HW121740   5.672   4.448   5.184
 6947SOL    HW221741   5.690   4.600   5.126
 6948SOL     OW21742   0.195   4.484   6.826
 6948SOL    HW121743   0.179   4.520   6.918
 6948SOL    HW221744   0.226   4.389   6.832
 6949SOL     OW21745   2.159   1.820   4.270
 6949SOL    HW121746   2.082   1.840   4.329
 6949SOL    HW221747   2.231   1.888   4.283
 6950SOL     OW21748   0.203   0.725   4.262
 6950SOL    HW121749   0.196   0.677   4.175
 6950SOL    HW221750   0.113   0.758   4.289
 6951SOL     OW21751   0.602   4.556   6.266
 6951SOL    HW121752   0.671   4.525   6.200
 6951SOL    HW221753   0.533   4.610   6.219
 6952SOL     OW21754   4.480   5.994   3.812
 6952SOL    HW121755   4.392   5.965   3.775
 6952SOL    HW221756   4.531   5.914   3.842
 6953SOL     OW21757   5.786   1.484   0.938
 6953SOL    HW121758   5.811   1.397   0.979
 6953SOL    HW221759   5.856   1.512   0.872
 6954SOL     OW21760   5.865   4.222   0.063
 6954SOL    HW121761   5.776   4.180   0.078
 6954SOL    HW221762   5.865   4.270   6.996
 6955SOL     OW21763   4.577   6.483   2.628
 6955SOL    HW121764   4.563   6.474   2.727
 6955SOL    HW221765   4.626   6.403   2.594
 6956SOL     OW21766   5.866   5.493   2.407
 6956SOL    HW121767   5.944   5.487   2.344
 6956SOL    HW221768   5.825   5.402   2.417
 6957SOL     OW21769   5.650   5.672   5.955
 6957SOL    HW121770   5.555   5.643   5.941
 6957SOL    HW221771   5.691   5.697   5.867
 6958SOL     OW21772   3.138   3.853   3.676
 6958SOL    HW121773   3.184   3.937   3.705
 6958SOL    HW221774   3.104   3.804   3.756
 6959SOL     OW21775   1.132   4.705   2.869
 6959SOL    HW121776   1.042   4.661   2.861
 6959SOL    HW221777   1.204   4.637   2.859
 6960SOL     OW21778   3.109   4.361   0.632
 6960SOL    HW121779   3.185   4.335   0.690
 6960SOL    HW221780   3.028   4.379   0.689
 6961SOL     OW21781   4.482   2.509   5.020
 6961SOL    HW121782   4.384   2.509   5.039
 6961SOL    HW221783   4.520   2.419   5.041
 6962SOL     OW21784   2.572   6.721   6.413
 6962SOL    HW121785   2.547   6.627   6.437
 6962SOL    HW221786   2.628   6.720   6.330
 6963SOL     OW21787   6.082   5.930   0.873
 6963SOL    HW121788   6.115   6.017   0.909
 6963SOL    HW221789   6.135   5.905   0.792
 6964SOL     OW21790   1.656   1.203   5.269
 6964SOL    HW121791   1.620   1.290   5.235
 6964SOL    HW221792   1.736   1.176   5.216
 6965SOL     OW21793   0.753   1.440   6.856
 6965SOL    HW121794   0.692   1.471   6.929
 6965SOL    HW221795   0.738   1.343   6.839
 6966SOL     OW21796   1.597   6.264   1.249
 6966SOL    HW121797   1.559   6.252   1.158
 6966SOL    HW221798   1.532   6.230   1.317
 6967SOL     OW21799   4.297   1.246   6.690
 6967SOL    HW121800   4.350   1.277   6.769
 6967SOL    HW221801   4.350   1.262   6.607
 6968SOL     OW21802   3.930   6.790   3.005
 6968SOL    HW121803   3.877   6.766   2.923
 6968SOL    HW221804   4.015   6.834   2.977
 6969SOL     OW21805   2.012   1.888   2.097
 6969SOL    HW121806   2.078   1.818   2.070
 6969SOL    HW221807   2.051   1.979   2.080
 6970SOL     OW21808   3.871   5.891   5.723
 6970SOL    HW121809   3.859   5.829   5.645
 6970SOL    HW221810   3.936   5.963   5.699
 6971SOL     OW21811   6.477   4.091   0.160
 6971SOL    HW121812   6.451   4.129   0.249
 6971SOL    HW221813   6.483   4.165   0.093
 6972SOL     OW21814   5.191   3.731   1.464
 6972SOL    HW121815   5.178   3.741   1.563
 6972SOL    HW221816   5.103   3.740   1.418
 6973SOL     OW21817   1.876   2.693   3.109
 6973SOL    HW121818   1.813   2.654   3.041
 6973SOL    HW221819   1.908   2.621   3.170
 6974SOL     OW21820   3.794   3.340   3.421
 6974SOL    HW121821   3.878   3.292   3.394
 6974SOL    HW221822   3.793   3.431   3.380
 6975SOL     OW21823   2.744   5.308   4.729
 6975SOL    HW121824   2.760   5.281   4.635
 6975SOL    HW221825   2.780   5.238   4.791
 6976SOL     OW21826   4.451   4.501   6.272
 6976SOL    HW121827   4.484   4.421   6.222
 6976SOL    HW221828   4.493   4.503   6.363
 6977SOL     OW21829   4.146   4.998   1.560
 6977SOL    HW121830   4.189   5.084   1.532
 6977SOL    HW221831   4.080   4.969   1.491
 6978SOL     OW21832   6.807   3.645   1.956
 6978SOL    HW121833   6.711   3.656   1.930
 6978SOL    HW221834   6.815   3.648   2.056
 6979SOL     OW21835   1.921   2.894   1.686
 6979SOL    HW121836   1.934   2.886   1.785
 6979SOL    HW221837   1.978   2.969   1.651
 6980SOL     OW21838   1.918   5.529   2.130
 6980SOL    HW121839   1.953   5.568   2.044
 6980SOL    HW221840   1.872   5.601   2.182
 6981SOL     OW21841   4.069   2.700   6.665
 6981SOL    HW121842   4.137   2.642   6.711
 6981SOL    HW221843   4.099   2.717   6.571
 6982SOL     OW21844   1.499   0.766   2.693
 6982SOL    HW121845   1.411   0.759   2.742
 6982SOL    HW221846   1.482   0.789   2.598
 6983SOL     OW21847   5.212   0.965   4.216
 6983SOL    HW121848   5.242   0.909   4.294
 6983SOL    HW221849   5.118   0.996   4.231
 6984SOL     OW21850   0.707   2.608   3.372
 6984SOL    HW121851   0.774   2.562   3.314
 6984SOL    HW221852   0.751   2.641   3.455
 6985SOL     OW21853   5.535   3.492   0.083
 6985SOL    HW121854   5.537   3.409   0.028
 6985SOL    HW221855   5.454   3.546   0.058
 6986SOL     OW21856   5.055   4.865   5.398
 6986SOL    HW121857   5.124   4.836   5.463
 6986SOL    HW221858   5.096   4.870   5.306
 6987SOL     OW21859   0.172   0.909   6.528
 6987SOL    HW121860   0.108   0.839   6.499
 6987SOL    HW221861   0.249   0.867   6.577
 6988SOL     OW21862   3.104   1.378   6.450
 6988SOL    HW121863   3.134   1.355   6.357
 6988SOL    HW221864   3.182   1.414   6.501
 6989SOL     OW21865   0.544   5.232   2.141
 6989SOL    HW121866   0.637   5.206   2.164
 6989SOL    HW221867   0.481   5.193   2.208
 6990SOL     OW21868   3.933   3.207   0.897
 6990SOL    HW121869   3.986   3.214   0.982
 6990SOL    HW221870   3.922   3.111   0.872
 6991SOL     OW21871   6.192   3.075   2.746
 6991SOL    HW121872   6.121   3.077   2.676
 6991SOL    HW221873   6.160   3.020   2.823
 6992SOL     OW21874   1.355   6.164   0.424
 6992SOL    HW121875   1.365   6.245   0.482
 6992SOL    HW221876   1.336   6.193   0.330
 6993SOL     OW21877   4.852   1.770   1.223
 6993SOL    HW121878   4.813   1.778   1.314
 6993SOL    HW221879   4.838   1.677   1.189
 6994SOL     OW21880   2.639   0.731   3.722
 6994SOL    HW121881   2.725   0.761   3.680
 6994SOL    HW221882   2.567   0.728   3.652
 6995SOL     OW21883   0.517   4.243   1.330
 6995SOL    HW121884   0.418   4.230   1.336
 6995SOL    HW221885   0.562   4.153   1.332
 6996SOL     OW21886   1.348   1.020   6.431
 6996SOL    HW121887   1.273   1.068   6.477
 6996SOL    HW221888   1.358   1.054   6.338
 6997SOL     OW21889   5.309   5.295   5.999
 6997SOL    HW121890   5.406   5.275   5.986
 6997SOL    HW221891   5.255   5.215   5.973
 6998SOL     OW21892   6.631   1.272   0.129
 6998SOL    HW121893   6.691   1.351   0.116
 6998SOL    HW221894   6.543   1.302   0.166
 6999SOL     OW21895   0.222   2.933   6.959
 6999SOL    HW121896   0.179   2.843   6.965
 6999SOL    HW221897   0.209   2.982   0.023
 7000SOL     OW21898   6.945   6.017   3.220
 7000SOL    HW121899   0.017   5.981   3.210
 7000SOL    HW221900   6.916   6.057   3.133
 7001SOL     OW21901   0.417   2.240   4.179
 7001SOL    HW121902   0.410   2.335   4.148
 7001SOL    HW221903   0.500   2.198   4.142
 7002SOL     OW21904   0.837   5.908   3.088
 7002SOL    HW121905   0.858   5.818   3.126
 7002SOL    HW221906   0.866   5.911   2.992
 7003SOL     OW21907   6.827   3.942   0.592
 7003SOL    HW121908   6.911   3.895   0.620
 7003SOL    HW221909   6.769   3.957   0.673
 7004SOL     OW21910   1.779   6.498   0.881
 7004SOL    HW121911   1.773   6.461   0.788
 7004SOL    HW221912   1.854   6.454   0.929
 7005SOL     OW21913   1.076   6.213   0.974
 7005SOL    HW121914   1.144   6.165   0.918
 7005SOL    HW221915   1.111   6.224   1.067
 7006SOL     OW21916   1.079   6.829   3.934
 7006SOL    HW121917   1.053   6.871   3.847
 7006SOL    HW221918   1.073   6.730   3.927
 7007SOL     OW21919   2.294   0.538   5.875
 7007SOL    HW121920   2.364   0.537   5.803
 7007SOL    HW221921   2.332   0.501   5.959
 7008SOL     OW21922   5.325   3.897   2.760
 7008SOL    HW121923   5.324   3.960   2.682
 7008SOL    HW221924   5.233   3.887   2.797
 7009SOL     OW21925   4.771   5.544   2.141
 7009SOL    HW121926   4.843   5.475   2.126
 7009SOL    HW221927   4.790   5.623   2.083
 7010SOL     OW21928   5.166   3.619   1.993
 7010SOL    HW121929   5.147   3.713   2.020
 7010SOL    HW221930   5.117   3.556   2.054
 7011SOL     OW21931   3.326   6.583   0.033
 7011SOL    HW121932   3.413   6.603   0.079
 7011SOL    HW221933   3.282   6.506   0.078
 7012SOL     OW21934   6.477   2.898   0.295
 7012SOL    HW121935   6.387   2.885   0.252
 7012SOL    HW221936   6.466   2.948   0.380
 7013SOL     OW21937   2.931   1.855   0.236
 7013SOL    HW121938   2.921   1.872   0.334
 7013SOL    HW221939   2.840   1.854   0.194
 7014SOL     OW21940   5.929   3.253   0.856
 7014SOL    HW121941   6.017   3.300   0.846
 7014SOL    HW221942   5.857   3.322   0.868
 7015SOL     OW21943   5.176   6.331   1.103
 7015SOL    HW121944   5.090   6.310   1.149
 7015SOL    HW221945   5.177   6.428   1.077
 7016SOL     OW21946   3.164   5.189   1.129
 7016SOL    HW121947   3.164   5.140   1.042
 7016SOL    HW221948   3.136   5.127   1.202
 7017SOL     OW21949   5.932   4.912   4.812
 7017SOL    HW121950   5.949   5.011   4.808
 7017SOL    HW221951   6.014   4.863   4.784
 7018SOL     OW21952   5.272   3.720   4.397
 7018SOL    HW121953   5.189   3.670   4.370
 7018SOL    HW221954   5.319   3.670   4.470
 7019SOL     OW21955   4.155   5.726   2.349
 7019SOL    HW121956   4.089   5.741   2.422
 7019SOL    HW221957   4.243   5.699   2.388
 7020SOL     OW21958   0.448   2.770   6.430
 7020SOL    HW121959   0.352   2.765   6.405
 7020SOL    HW221960   0.456   2.800   6.525
 7021SOL     OW21961   0.591   2.015   4.887
 7021SOL    HW121962   0.523   2.075   4.929
 7021SOL    HW221963   0.631   2.061   4.807
 7022SOL     OW21964   3.172   1.865   0.600
 7022SOL    HW121965   3.256   1.816   0.621
 7022SOL    HW221966   3.098   1.831   0.658
 7023SOL     OW21967   0.535   1.931   0.395
 7023SOL    HW121968   0.517   1.935   0.493
 7023SOL    HW221969   0.526   2.022   0.356
 7024SOL     OW21970   4.152   3.367   4.648
 7024SOL    HW121971   4.205   3.283   4.638
 7024SOL    HW221972   4.138   3.410   4.559
 7025SOL     OW21973   3.540   0.237   0.974
 7025SOL    HW121974   3.541   0.297   1.053
 7025SOL    HW221975   3.544   0.141   1.004
 7026SOL     OW21976   3.451   2.557   1.190
 7026SOL    HW121977   3.451   2.619   1.269
 7026SOL    HW221978   3.392   2.594   1.119
 7027SOL     OW21979   2.667   5.595   3.005
 7027SOL    HW121980   2.609   5.592   3.087
 7027SOL    HW221981   2.631   5.531   2.937
 7028SOL     OW21982   2.955   0.454   3.925
 7028SOL    HW121983   3.021   0.409   3.866
 7028SOL    HW221984   2.967   0.553   3.921
 7029SOL     OW21985   3.137   3.743   3.938
 7029SOL    HW121986   3.110   3.664   3.883
 7029SOL    HW221987   3.063   3.767   4.001
 7030SOL     OW21988   6.713   1.308   4.869
 7030SOL    HW121989   6.761   1.394   4.853
 7030SOL    HW221990   6.770   1.248   4.924
 7031SOL     OW21991   4.504   6.908   0.515
 7031SOL    HW121992   4.592   6.947   0.541
 7031SOL    HW221993   4.462   6.966   0.445
 7032SOL     OW21994   4.477   6.050   4.637
 7032SOL    HW121995   4.512   6.122   4.577
 7032SOL    HW221996   4.549   5.981   4.651
 7033SOL     OW21997   1.889   1.654   4.869
 7033SOL    HW121998   1.843   1.628   4.954
 7033SOL    HW221999   1.941   1.739   4.884
 7034SOL     OW22000   6.722   0.793   3.671
 7034SOL    HW122001   6.747   0.890   3.675
 7034SOL    HW222002   6.641   0.777   3.728
 7035SOL     OW22003   1.856   0.346   0.290
 7035SOL    HW122004   1.812   0.345   0.380
 7035SOL    HW222005   1.953   0.326   0.299
 7036SOL     OW22006   6.450   1.695   2.701
 7036SOL    HW122007   6.540   1.655   2.679
 7036SOL    HW222008   6.426   1.671   2.795
 7037SOL     OW22009   1.076   0.728   6.152
 7037SOL    HW122010   1.050   0.822   6.177
 7037SOL    HW222011   1.174   0.725   6.135
 7038SOL     OW22012   1.426   4.678   6.680
 7038SOL    HW122013   1.404   4.581   6.679
 7038SOL    HW222014   1.437   4.708   6.775
 7039SOL     OW22015   0.564   6.376   2.273
 7039SOL    HW122016   0.576   6.467   2.234
 7039SOL    HW222017   0.642   6.355   2.332
 7040SOL     OW22018   4.913   3.349   4.449
 7040SOL    HW122019   4.886   3.298   4.367
 7040SOL    HW222020   4.895   3.293   4.530
 7041SOL     OW22021   1.656   6.889   4.288
 7041SOL    HW122022   1.721   6.964   4.273
 7041SOL    HW222023   1.581   6.921   4.346
 7042SOL     OW22024   4.800   6.059   5.412
 7042SOL    HW122025   4.841   6.144   5.444
 7042SOL    HW222026   4.738   6.023   5.481
 7043SOL     OW22027   2.522   4.822   0.916
 7043SOL    HW122028   2.526   4.834   1.015
 7043SOL    HW222029   2.483   4.732   0.895
 7044SOL     OW22030   4.927   6.511   5.065
 7044SOL    HW122031   4.968   6.601   5.058
 7044SOL    HW222032   4.835   6.518   5.104
 7045SOL     OW22033   6.619   6.359   1.999
 7045SOL    HW122034   6.691   6.372   1.930
 7045SOL    HW222035   6.607   6.443   2.052
 7046SOL     OW22036   2.642   1.797   4.421
 7046SOL    HW122037   2.687   1.854   4.352
 7046SOL    HW222038   2.667   1.829   4.512
 7047SOL     OW22039   1.365   6.366   0.818
 7047SOL    HW122040   1.378   6.372   0.719
 7047SOL    HW222041   1.440   6.414   0.864
 7048SOL     OW22042   6.967   6.392   4.456
 7048SOL    HW122043   7.014   6.315   4.414
 7048SOL    HW222044   0.002   6.428   4.531
 7049SOL     OW22045   3.631   1.202   3.125
 7049SOL    HW122046   3.598   1.255   3.204
 7049SOL    HW222047   3.693   1.131   3.156
 7050SOL     OW22048   4.242   3.941   0.904
 7050SOL    HW122049   4.171   4.006   0.931
 7050SOL    HW222050   4.207   3.848   0.911
 7051SOL     OW22051   0.530   0.946   2.004
 7051SOL    HW122052   0.483   1.012   1.945
 7051SOL    HW222053   0.463   0.897   2.060
 7052SOL     OW22054   4.784   0.470   2.874
 7052SOL    HW122055   4.709   0.451   2.938
 7052SOL    HW222056   4.831   0.554   2.902
 7053SOL     OW22057   2.211   3.148   3.621
 7053SOL    HW122058   2.264   3.232   3.612
 7053SOL    HW222059   2.114   3.170   3.635
 7054SOL     OW22060   6.448   0.947   0.247
 7054SOL    HW122061   6.442   0.971   0.150
 7054SOL    HW222062   6.382   0.875   0.267
 7055SOL     OW22063   2.680   1.377   0.089
 7055SOL    HW122064   2.646   1.440   0.159
 7055SOL    HW222065   2.766   1.336   0.119
 7056SOL     OW22066   0.459   5.465   1.497
 7056SOL    HW122067   0.433   5.368   1.499
 7056SOL    HW222068   0.487   5.494   1.588
 7057SOL     OW22069   2.279   5.448   4.525
 7057SOL    HW122070   2.361   5.495   4.557
 7057SOL    HW222071   2.209   5.515   4.502
 7058SOL     OW22072   5.608   3.075   6.254
 7058SOL    HW122073   5.673   3.000   6.268
 7058SOL    HW222074   5.546   3.051   6.179
 7059SOL     OW22075   1.866   0.422   5.324
 7059SOL    HW122076   1.798   0.394   5.390
 7059SOL    HW222077   1.857   0.519   5.304
 7060SOL     OW22078   3.762   0.940   1.399
 7060SOL    HW122079   3.814   0.909   1.319
 7060SOL    HW222080   3.688   1.000   1.369
 7061SOL     OW22081   0.465   1.575   1.424
 7061SOL    HW122082   0.498   1.664   1.455
 7061SOL    HW222083   0.382   1.551   1.474
 7062SOL     OW22084   3.397   0.664   3.599
 7062SOL    HW122085   3.380   0.648   3.502
 7062SOL    HW222086   3.495   0.658   3.617
 7063SOL     OW22087   0.750   0.733   1.333
 7063SOL    HW122088   0.835   0.745   1.385
 7063SOL    HW222089   0.682   0.798   1.367
 7064SOL     OW22090   3.847   1.639   5.235
 7064SOL    HW122091   3.852   1.571   5.308
 7064SOL    HW222092   3.894   1.723   5.264
 7065SOL     OW22093   4.122   5.457   5.476
 7065SOL    HW122094   4.064   5.470   5.395
 7065SOL    HW222095   4.218   5.457   5.449
 7066SOL     OW22096   3.803   0.171   0.374
 7066SOL    HW122097   3.713   0.159   0.417
 7066SOL    HW222098   3.807   0.116   0.290
 7067SOL     OW22099   1.913   3.602   6.799
 7067SOL    HW122100   1.938   3.696   6.819
 7067SOL    HW222101   1.935   3.544   6.877
 7068SOL     OW22102   5.154   3.604   4.053
 7068SOL    HW122103   5.073   3.584   4.108
 7068SOL    HW222104   5.172   3.527   3.991
 7069SOL     OW22105   5.861   0.329   6.557
 7069SOL    HW122106   5.947   0.348   6.511
 7069SOL    HW222107   5.787   0.378   6.511
 7070SOL     OW22108   0.114   6.962   5.115
 7070SOL    HW122109   0.213   6.973   5.116
 7070SOL    HW222110   0.090   6.877   5.069
 7071SOL     OW22111   4.717   5.549   6.609
 7071SOL    HW122112   4.742   5.481   6.541
 7071SOL    HW222113   4.620   5.572   6.599
 7072SOL     OW22114   0.768   3.645   6.041
 7072SOL    HW122115   0.715   3.724   6.010
 7072SOL    HW222116   0.744   3.565   5.985
 7073SOL     OW22117   4.479   1.314   3.784
 7073SOL    HW122118   4.506   1.384   3.717
 7073SOL    HW222119   4.561   1.274   3.825
 7074SOL     OW22120   5.580   4.397   2.887
 7074SOL    HW122121   5.480   4.405   2.888
 7074SOL    HW222122   5.611   4.352   2.970
 7075SOL     OW22123   2.795   4.749   3.466
 7075SOL    HW122124   2.829   4.836   3.432
 7075SOL    HW222125   2.873   4.693   3.497
 7076SOL     OW22126   5.634   2.027   2.045
 7076SOL    HW122127   5.674   2.119   2.049
 7076SOL    HW222128   5.536   2.034   2.026
 7077SOL     OW22129   3.562   5.327   1.628
 7077SOL    HW122130   3.604   5.339   1.538
 7077SOL    HW222131   3.601   5.246   1.672
 7078SOL     OW22132   5.873   0.646   7.015
 7078SOL    HW122133   5.943   0.575   7.021
 7078SOL    HW222134   5.795   0.612   6.962
 7079SOL     OW22135   1.469   6.589   4.840
 7079SOL    HW122136   1.448   6.523   4.768
 7079SOL    HW222137   1.463   6.545   4.929
 7080SOL     OW22138   3.957   2.264   5.621
 7080SOL    HW122139   3.889   2.334   5.642
 7080SOL    HW222140   3.983   2.216   5.704
 7081SOL     OW22141   1.668   0.134   0.243
 7081SOL    HW122142   1.763   0.157   0.264
 7081SOL    HW222143   1.614   0.218   0.234
 7082SOL     OW22144   0.034   4.252   3.203
 7082SOL    HW122145   6.974   4.244   3.145
 7082SOL    HW222146   0.029   4.184   3.277
 7083SOL     OW22147   5.541   2.542   2.831
 7083SOL    HW122148   5.576   2.560   2.923
 7083SOL    HW222149   5.550   2.444   2.810
 7084SOL     OW22150   0.990   5.840   6.879
 7084SOL    HW122151   0.947   5.817   6.792
 7084SOL    HW222152   1.032   5.758   6.919
 7085SOL     OW22153   0.511   3.664   2.152
 7085SOL    HW122154   0.451   3.635   2.227
 7085SOL    HW222155   0.603   3.681   2.187
 7086SOL     OW22156   5.466   1.185   3.832
 7086SOL    HW122157   5.437   1.274   3.798
 7086SOL    HW222158   5.483   1.191   3.931
 7087SOL     OW22159   4.897   4.100   2.777
 7087SOL    HW122160   4.984   4.052   2.781
 7087SOL    HW222161   4.850   4.075   2.692
 7088SOL     OW22162   5.933   1.885   5.208
 7088SOL    HW122163   5.846   1.925   5.178
 7088SOL    HW222164   5.964   1.818   5.141
 7089SOL     OW22165   2.832   5.863   1.830
 7089SOL    HW122166   2.859   5.918   1.909
 7089SOL    HW222167   2.832   5.920   1.748
 7090SOL     OW22168   4.294   2.969   1.257
 7090SOL    HW122169   4.291   3.020   1.343
 7090SOL    HW222170   4.238   2.887   1.265
 7091SOL     OW22171   0.455   6.097   0.209
 7091SOL    HW122172   0.447   6.038   0.289
 7091SOL    HW222173   0.382   6.076   0.144
 7092SOL     OW22174   4.170   0.804   6.436
 7092SOL    HW122175   4.141   0.725   6.382
 7092SOL    HW222176   4.219   0.773   6.518
 7093SOL     OW22177   3.082   3.078   1.297
 7093SOL    HW122178   3.158   3.029   1.341
 7093SOL    HW222179   3.012   3.097   1.365
 7094SOL     OW22180   3.192   0.516   5.710
 7094SOL    HW122181   3.174   0.612   5.733
 7094SOL    HW222182   3.175   0.458   5.789
 7095SOL     OW22183   2.512   4.525   4.595
 7095SOL    HW122184   2.448   4.549   4.668
 7095SOL    HW222185   2.601   4.503   4.635
 7096SOL     OW22186   6.971   0.482   0.936
 7096SOL    HW122187   6.908   0.494   0.859
 7096SOL    HW222188   0.033   0.536   0.920
 7097SOL     OW22189   4.573   1.609   2.034
 7097SOL    HW122190   4.605   1.628   1.941
 7097SOL    HW222191   4.646   1.564   2.085
 7098SOL     OW22192   1.274   6.985   3.277
 7098SOL    HW122193   1.203   0.034   3.272
 7098SOL    HW222194   1.358   0.005   3.313
 7099SOL     OW22195   2.883   2.161   4.163
 7099SOL    HW122196   2.948   2.124   4.096
 7099SOL    HW222197   2.931   2.182   4.248
 7100SOL     OW22198   6.394   3.854   1.917
 7100SOL    HW122199   6.395   3.910   2.000
 7100SOL    HW222200   6.365   3.910   1.840
 7101SOL     OW22201   2.563   6.306   5.252
 7101SOL    HW122202   2.620   6.366   5.308
 7101SOL    HW222203   2.498   6.362   5.200
 7102SOL     OW22204   5.591   0.932   2.312
 7102SOL    HW122205   5.556   0.852   2.359
 7102SOL    HW222206   5.516   0.980   2.267
 7103SOL     OW22207   5.004   3.586   3.032
 7103SOL    HW122208   4.951   3.602   2.948
 7103SOL    HW222209   5.062   3.506   3.020
 7104SOL     OW22210   5.194   2.845   3.546
 7104SOL    HW122211   5.293   2.859   3.547
 7104SOL    HW222212   5.148   2.930   3.572
 7105SOL     OW22213   3.391   4.154   3.520
 7105SOL    HW122214   3.310   4.165   3.577
 7105SOL    HW222215   3.372   4.087   3.448
 7106SOL     OW22216   2.928   2.422   1.410
 7106SOL    HW122217   2.912   2.517   1.383
 7106SOL    HW222218   2.970   2.419   1.500
 7107SOL     OW22219   3.941   0.463   6.509
 7107SOL    HW122220   3.869   0.533   6.510
 7107SOL    HW222221   3.922   0.395   6.579
 7108SOL     OW22222   4.952   0.865   2.223
 7108SOL    HW122223   4.981   0.815   2.304
 7108SOL    HW222224   4.925   0.799   2.152
 7109SOL     OW22225   2.728   5.435   6.569
 7109SOL    HW122226   2.740   5.390   6.657
 7109SOL    HW222227   2.762   5.529   6.574
 7110SOL     OW22228   3.918   6.593   4.134
 7110SOL    HW122229   3.855   6.536   4.186
 7110SOL    HW222230   3.969   6.653   4.196
 7111SOL     OW22231   0.021   0.773   5.141
 7111SOL    HW122232   0.083   0.808   5.211
 7111SOL    HW222233   0.073   0.751   5.058
 7112SOL     OW22234   1.259   4.991   4.792
 7112SOL    HW122235   1.233   5.087   4.791
 7112SOL    HW222236   1.208   4.943   4.864
 7113SOL     OW22237   3.897   6.553   5.365
 7113SOL    HW122238   3.866   6.644   5.395
 7113SOL    HW222239   3.933   6.559   5.272
 7114SOL     OW22240   5.679   4.471   0.773
 7114SOL    HW122241   5.701   4.374   0.763
 7114SOL    HW222242   5.758   4.526   0.748
 7115SOL     OW22243   6.018   3.889   6.209
 7115SOL    HW122244   5.986   3.863   6.118
 7115SOL    HW222245   5.997   3.986   6.226
 7116SOL     OW22246   6.258   3.893   4.131
 7116SOL    HW122247   6.356   3.909   4.125
 7116SOL    HW222248   6.229   3.827   4.061
 7117SOL     OW22249   5.635   0.522   3.209
 7117SOL    HW122250   5.594   0.506   3.299
 7117SOL    HW222251   5.627   0.440   3.154
 7118SOL     OW22252   3.836   4.361   5.640
 7118SOL    HW122253   3.759   4.416   5.607
 7118SOL    HW222254   3.831   4.352   5.739
 7119SOL     OW22255   3.333   0.114   4.962
 7119SOL    HW122256   3.240   0.077   4.959
 7119SOL    HW222257   3.330   0.212   4.943
 7120SOL     OW22258   4.447   0.393   0.421
 7120SOL    HW122259   4.473   0.457   0.494
 7120SOL    HW222260   4.508   0.314   0.423
 7121SOL     OW22261   1.378   5.884   1.896
 7121SOL    HW122262   1.420   5.954   1.954
 7121SOL    HW222263   1.446   5.813   1.875
 7122SOL     OW22264   3.420   1.773   6.844
 7122SOL    HW122265   3.342   1.734   6.893
 7122SOL    HW222266   3.504   1.727   6.873
 7123SOL     OW22267   5.210   5.023   5.999
 7123SOL    HW122268   5.288   4.960   5.996
 7123SOL    HW222269   5.150   4.998   6.076
 7124SOL     OW22270   1.105   1.992   1.469
 7124SOL    HW122271   1.057   2.015   1.554
 7124SOL    HW222272   1.164   1.913   1.485
 7125SOL     OW22273   0.455   6.230   2.031
 7125SOL    HW122274   0.540   6.207   1.984
 7125SOL    HW222275   0.477   6.284   2.113
 7126SOL     OW22276   3.264   5.448   1.154
 7126SOL    HW122277   3.194   5.512   1.121
 7126SOL    HW222278   3.233   5.355   1.138
 7127SOL     OW22279   2.528   6.484   6.156
 7127SOL    HW122280   2.497   6.423   6.229
 7127SOL    HW222281   2.628   6.485   6.154
 7128SOL     OW22282   4.015   4.605   6.778
 7128SOL    HW122283   3.962   4.617   6.862
 7128SOL    HW222284   4.019   4.691   6.728
 7129SOL     OW22285   0.549   7.006   0.410
 7129SOL    HW122286   0.461   7.009   0.364
 7129SOL    HW222287   0.552   6.928   0.473
 7130SOL     OW22288   3.337   6.306   4.001
 7130SOL    HW122289   3.319   6.275   4.094
 7130SOL    HW222290   3.250   6.326   3.955
 7131SOL     OW22291   2.415   1.390   1.904
 7131SOL    HW122292   2.329   1.439   1.922
 7131SOL    HW222293   2.491   1.440   1.944
 7132SOL     OW22294   5.401   4.549   0.411
 7132SOL    HW122295   5.495   4.575   0.392
 7132SOL    HW222296   5.390   4.536   0.510
 7133SOL     OW22297   5.008   5.833   2.707
 7133SOL    HW122298   5.027   5.902   2.777
 7133SOL    HW222299   5.089   5.775   2.695
 7134SOL     OW22300   4.695   5.209   0.021
 7134SOL    HW122301   4.709   5.291   6.988
 7134SOL    HW222302   4.632   5.229   0.096
 7135SOL     OW22303   1.952   3.409   1.227
 7135SOL    HW122304   2.044   3.420   1.265
 7135SOL    HW222305   1.906   3.334   1.274
 7136SOL     OW22306   1.481   1.835   1.977
 7136SOL    HW122307   1.446   1.742   1.964
 7136SOL    HW222308   1.543   1.836   2.056
 7137SOL     OW22309   2.713   1.615   1.685
 7137SOL    HW122310   2.707   1.643   1.781
 7137SOL    HW222311   2.808   1.592   1.664
 7138SOL     OW22312   0.838   2.347   0.445
 7138SOL    HW122313   0.815   2.402   0.365
 7138SOL    HW222314   0.859   2.253   0.417
 7139SOL     OW22315   6.067   6.316   0.770
 7139SOL    HW122316   6.141   6.367   0.726
 7139SOL    HW222317   6.036   6.242   0.711
 7140SOL     OW22318   6.105   3.724   0.187
 7140SOL    HW122319   6.065   3.675   0.109
 7140SOL    HW222320   6.057   3.811   0.199
 7141SOL     OW22321   3.529   0.428   1.204
 7141SOL    HW122322   3.527   0.473   1.294
 7141SOL    HW222323   3.500   0.493   1.134
 7142SOL     OW22324   3.538   0.744   4.667
 7142SOL    HW122325   3.509   0.840   4.669
 7142SOL    HW222326   3.638   0.739   4.670
 7143SOL     OW22327   2.596   3.857   6.732
 7143SOL    HW122328   2.546   3.829   6.650
 7143SOL    HW222329   2.677   3.800   6.743
 7144SOL     OW22330   6.727   0.964   6.094
 7144SOL    HW122331   6.685   0.991   6.007
 7144SOL    HW222332   6.687   0.879   6.126
 7145SOL     OW22333   5.276   1.948   6.333
 7145SOL    HW122334   5.362   1.908   6.364
 7145SOL    HW222335   5.218   1.876   6.295
 7146SOL     OW22336   1.035   2.139   5.803
 7146SOL    HW122337   1.026   2.236   5.782
 7146SOL    HW222338   0.986   2.118   5.887
 7147SOL     OW22339   6.358   6.793   2.115
 7147SOL    HW122340   6.382   6.763   2.023
 7147SOL    HW222341   6.277   6.852   2.110
 7148SOL     OW22342   6.038   6.928   1.346
 7148SOL    HW122343   6.037   6.830   1.330
 7148SOL    HW222344   6.105   6.951   1.417
 7149SOL     OW22345   5.471   4.419   5.754
 7149SOL    HW122346   5.505   4.485   5.687
 7149SOL    HW222347   5.421   4.346   5.707
 7150SOL     OW22348   3.408   3.706   6.644
 7150SOL    HW122349   3.498   3.711   6.600
 7150SOL    HW222350   3.421   3.688   6.742
 7151SOL     OW22351   4.223   1.238   0.283
 7151SOL    HW122352   4.128   1.240   0.252
 7151SOL    HW222353   4.249   1.144   0.305
 7152SOL     OW22354   6.298   0.952   6.747
 7152SOL    HW122355   6.221   0.892   6.726
 7152SOL    HW222356   6.382   0.897   6.752
 7153SOL     OW22357   3.718   5.840   0.408
 7153SOL    HW122358   3.770   5.863   0.490
 7153SOL    HW222359   3.770   5.774   0.353
 7154SOL     OW22360   3.686   1.619   1.880
 7154SOL    HW122361   3.702   1.712   1.913
 7154SOL    HW222362   3.607   1.619   1.819
 7155SOL     OW22363   1.075   1.372   1.600
 7155SOL    HW122364   1.045   1.463   1.570
 7155SOL    HW222365   1.036   1.352   1.690
 7156SOL     OW22366   6.213   3.057   5.344
 7156SOL    HW122367   6.202   3.156   5.339
 7156SOL    HW222368   6.176   3.024   5.431
 7157SOL     OW22369   6.924   4.098   5.856
 7157SOL    HW122370   7.002   4.161   5.858
 7157SOL    HW222371   6.956   4.006   5.834
 7158SOL     OW22372   4.551   0.007   4.073
 7158SOL    HW122373   4.507   0.066   4.005
 7158SOL    HW222374   4.644   7.007   4.044
 7159SOL     OW22375   6.951   6.214   3.414
 7159SOL    HW122376   6.974   6.130   3.365
 7159SOL    HW222377   6.984   6.209   3.508
 7160SOL     OW22378   6.561   0.295   3.765
 7160SOL    HW122379   6.594   0.275   3.673
 7160SOL    HW222380   6.638   0.316   3.825
 7161SOL     OW22381   4.082   3.524   2.952
 7161SOL    HW122382   4.036   3.610   2.976
 7161SOL    HW222383   4.123   3.534   2.861
 7162SOL     OW22384   0.516   5.798   1.497
 7162SOL    HW122385   0.551   5.714   1.457
 7162SOL    HW222386   0.582   5.835   1.562
 7163SOL     OW22387   0.067   0.706   1.079
 7163SOL    HW122388   0.030   0.797   1.058
 7163SOL    HW222389   0.003   0.656   1.137
 7164SOL     OW22390   2.239   1.155   6.504
 7164SOL    HW122391   2.261   1.250   6.484
 7164SOL    HW222392   2.310   1.095   6.467
 7165SOL     OW22393   6.236   1.890   0.736
 7165SOL    HW122394   6.196   1.827   0.802
 7165SOL    HW222395   6.169   1.960   0.711
 7166SOL     OW22396   6.845   5.903   5.801
 7166SOL    HW122397   6.879   5.961   5.876
 7166SOL    HW222398   6.755   5.935   5.772
 7167SOL     OW22399   6.306   2.812   4.860
 7167SOL    HW122400   6.392   2.766   4.882
 7167SOL    HW222401   6.324   2.885   4.794
 7168SOL     OW22402   1.910   1.062   1.816
 7168SOL    HW122403   1.909   0.968   1.784
 7168SOL    HW222404   1.996   1.106   1.790
 7169SOL     OW22405   2.186   3.827   6.332
 7169SOL    HW122406   2.240   3.747   6.307
 7169SOL    HW222407   2.170   3.884   6.251
 7170SOL     OW22408   3.940   1.585   0.817
 7170SOL    HW122409   4.004   1.509   0.806
 7170SOL    HW222410   3.908   1.587   0.912
 7171SOL     OW22411   0.033   3.802   0.682
 7171SOL    HW122412   0.028   3.731   0.752
 7171SOL    HW222413   0.126   3.806   0.646
 7172SOL     OW22414   1.145   2.715   3.962
 7172SOL    HW122415   1.080   2.791   3.957
 7172SOL    HW222416   1.135   2.668   4.049
 7173SOL     OW22417   4.711   5.424   5.956
 7173SOL    HW122418   4.707   5.353   5.886
 7173SOL    HW222419   4.642   5.495   5.937
 7174SOL     OW22420   6.748   4.449   2.114
 7174SOL    HW122421   6.683   4.481   2.184
 7174SOL    HW222422   6.719   4.360   2.081
 7175SOL     OW22423   6.771   3.473   5.942
 7175SOL    HW122424   6.723   3.442   6.024
 7175SOL    HW222425   6.863   3.435   5.941
 7176SOL     OW22426   0.695   0.343   5.567
 7176SOL    HW122427   0.743   0.424   5.532
 7176SOL    HW222428   0.606   0.335   5.521
 7177SOL     OW22429   1.464   5.986   4.115
 7177SOL    HW122430   1.408   5.992   4.032
 7177SOL    HW222431   1.519   5.903   4.112
 7178SOL     OW22432   2.060   6.470   5.029
 7178SOL    HW122433   2.034   6.489   4.934
 7178SOL    HW222434   2.041   6.374   5.050
 7179SOL     OW22435   3.656   5.312   6.212
 7179SOL    HW122436   3.616   5.373   6.280
 7179SOL    HW222437   3.683   5.365   6.131
 7180SOL     OW22438   1.876   3.155   1.362
 7180SOL    HW122439   1.858   3.106   1.447
 7180SOL    HW222440   1.801   3.140   1.298
 7181SOL     OW22441   2.610   1.251   6.253
 7181SOL    HW122442   2.641   1.163   6.215
 7181SOL    HW222443   2.689   1.303   6.283
 7182SOL     OW22444   1.751   1.555   4.173
 7182SOL    HW122445   1.680   1.594   4.114
 7182SOL    HW222446   1.787   1.472   4.130
 7183SOL     OW22447   0.679   6.490   1.659
 7183SOL    HW122448   0.687   6.589   1.642
 7183SOL    HW222449   0.752   6.461   1.720
 7184SOL     OW22450   6.508   0.569   3.975
 7184SOL    HW122451   6.585   0.613   4.022
 7184SOL    HW222452   6.445   0.530   4.043
 7185SOL     OW22453   3.964   1.020   5.018
 7185SOL    HW122454   3.914   1.028   4.932
 7185SOL    HW222455   3.972   0.923   5.043
 7186SOL     OW22456   6.786   0.570   6.675
 7186SOL    HW122457   6.786   0.654   6.621
 7186SOL    HW222458   6.782   0.491   6.614
 7187SOL     OW22459   3.282   3.116   3.783
 7187SOL    HW122460   3.182   3.114   3.788
 7187SOL    HW222461   3.317   3.176   3.856
 7188SOL     OW22462   4.243   4.572   0.129
 7188SOL    HW122463   4.195   4.546   0.045
 7188SOL    HW222464   4.330   4.615   0.106
 7189SOL     OW22465   6.378   2.473   5.838
 7189SOL    HW122466   6.366   2.387   5.789
 7189SOL    HW222467   6.342   2.465   5.931
 7190SOL     OW22468   5.857   4.902   0.297
 7190SOL    HW122469   5.918   4.948   0.362
 7190SOL    HW222470   5.892   4.914   0.204
 7191SOL     OW22471   6.519   4.740   3.763
 7191SOL    HW122472   6.424   4.720   3.787
 7191SOL    HW222473   6.523   4.820   3.703
 7192SOL     OW22474   2.763   4.441   6.663
 7192SOL    HW122475   2.688   4.490   6.619
 7192SOL    HW222476   2.743   4.343   6.664
 7193SOL     OW22477   3.016   1.868   2.609
 7193SOL    HW122478   3.052   1.809   2.537
 7193SOL    HW222479   3.035   1.964   2.586
 7194SOL     OW22480   3.021   2.932   6.257
 7194SOL    HW122481   2.958   2.926   6.180
 7194SOL    HW222482   3.006   2.854   6.318
 7195SOL     OW22483   0.711   5.212   5.094
 7195SOL    HW122484   0.612   5.196   5.090
 7195SOL    HW222485   0.749   5.164   5.173
 7196SOL     OW22486   3.423   4.077   2.160
 7196SOL    HW122487   3.428   4.118   2.069
 7196SOL    HW222488   3.390   3.983   2.152
 7197SOL     OW22489   3.057   4.809   6.541
 7197SOL    HW122490   3.109   4.779   6.622
 7197SOL    HW222491   2.963   4.830   6.568
 7198SOL     OW22492   0.793   0.582   2.003
 7198SOL    HW122493   0.868   0.549   2.060
 7198SOL    HW222494   0.740   0.650   2.054
 7199SOL     OW22495   6.103   1.567   2.451
 7199SOL    HW122496   6.015   1.541   2.490
 7199SOL    HW222497   6.090   1.639   2.383
 7200SOL     OW22498   1.051   2.450   0.852
 7200SOL    HW122499   1.143   2.446   0.814
 7200SOL    HW222500   0.988   2.487   0.783
 7201SOL     OW22501   5.422   5.315   4.000
 7201SOL    HW122502   5.433   5.220   4.027
 7201SOL    HW222503   5.356   5.360   4.060
 7202SOL     OW22504   4.836   0.529   6.081
 7202SOL    HW122505   4.922   0.545   6.129
 7202SOL    HW222506   4.831   0.588   6.001
 7203SOL     OW22507   0.252   1.176   1.217
 7203SOL    HW122508   0.324   1.243   1.200
 7203SOL    HW222509   0.237   1.121   1.135
 7204SOL     OW22510   6.481   0.281   2.122
 7204SOL    HW122511   6.518   0.373   2.108
 7204SOL    HW222512   6.551   0.213   2.101
 7205SOL     OW22513   2.840   1.949   3.854
 7205SOL    HW122514   2.807   1.940   3.947
 7205SOL    HW222515   2.927   1.900   3.845
 7206SOL     OW22516   2.011   3.347   0.249
 7206SOL    HW122517   1.916   3.316   0.258
 7206SOL    HW222518   2.014   3.446   0.251
 7207SOL     OW22519   1.672   1.040   3.506
 7207SOL    HW122520   1.607   1.106   3.467
 7207SOL    HW222521   1.622   0.960   3.539
 7208SOL     OW22522   2.799   0.665   4.443
 7208SOL    HW122523   2.744   0.748   4.458
 7208SOL    HW222524   2.838   0.636   4.530
 7209SOL     OW22525   3.682   1.226   1.977
 7209SOL    HW122526   3.720   1.316   1.994
 7209SOL    HW222527   3.707   1.196   1.884
 7210SOL     OW22528   2.723   1.511   3.078
 7210SOL    HW122529   2.703   1.581   3.147
 7210SOL    HW222530   2.671   1.428   3.098
 7211SOL     OW22531   4.732   6.390   4.805
 7211SOL    HW122532   4.712   6.436   4.891
 7211SOL    HW222533   4.800   6.443   4.754
 7212SOL     OW22534   0.097   4.955   6.209
 7212SOL    HW122535   0.094   4.881   6.141
 7212SOL    HW222536   0.069   5.040   6.166
 7213SOL     OW22537   3.618   2.228   6.790
 7213SOL    HW122538   3.677   2.248   6.869
 7213SOL    HW222539   3.556   2.153   6.813
 7214SOL     OW22540   6.770   0.514   6.264
 7214SOL    HW122541   6.780   0.584   6.193
 7214SOL    HW222542   6.800   0.426   6.228
 7215SOL     OW22543   6.001   2.226   2.561
 7215SOL    HW122544   5.996   2.305   2.622
 7215SOL    HW222545   5.922   2.167   2.576
 7216SOL     OW22546   3.829   6.503   3.400
 7216SOL    HW122547   3.894   6.569   3.362
 7216SOL    HW222548   3.795   6.444   3.327
 7217SOL     OW22549   1.314   2.874   3.016
 7217SOL    HW122550   1.311   2.957   3.071
 7217SOL    HW222551   1.320   2.899   2.919
 7218SOL     OW22552   6.330   3.122   4.582
 7218SOL    HW122553   6.294   3.212   4.560
 7218SOL    HW222554   6.259   3.067   4.625
 7219SOL     OW22555   3.568   6.452   2.730
 7219SOL    HW122556   3.577   6.518   2.805
 7219SOL    HW222557   3.642   6.384   2.736
 7220SOL     OW22558   6.451   4.860   4.065
 7220SOL    HW122559   6.442   4.806   4.149
 7220SOL    HW222560   6.380   4.833   4.000
 7221SOL     OW22561   3.864   5.956   3.744
 7221SOL    HW122562   3.768   5.985   3.746
 7221SOL    HW222563   3.876   5.876   3.802
 7222SOL     OW22564   6.980   5.864   4.729
 7222SOL    HW122565   6.938   5.928   4.665
 7222SOL    HW222566   0.047   5.833   4.694
 7223SOL     OW22567   6.756   4.058   1.707
 7223SOL    HW122568   6.703   4.006   1.640
 7223SOL    HW222569   6.823   3.997   1.751
 7224SOL     OW22570   3.880   1.870   2.449
 7224SOL    HW122571   3.914   1.964   2.446
 7224SOL    HW222572   3.817   1.859   2.525
 7225SOL     OW22573   1.821   6.206   0.846
 7225SOL    HW122574   1.792   6.256   0.764
 7225SOL    HW222575   1.782   6.115   0.846
 7226SOL     OW22576   6.457   6.377   0.667
 7226SOL    HW122577   6.538   6.436   0.673
 7226SOL    HW222578   6.465   6.319   0.586
 7227SOL     OW22579   2.291   0.753   2.642
 7227SOL    HW122580   2.207   0.711   2.675
 7227SOL    HW222581   2.292   0.752   2.542
 7228SOL     OW22582   0.150   2.925   2.091
 7228SOL    HW122583   0.242   2.889   2.107
 7228SOL    HW222584   0.128   2.992   2.162
 7229SOL     OW22585   6.390   1.103   5.511
 7229SOL    HW122586   6.438   1.019   5.487
 7229SOL    HW222587   6.292   1.092   5.492
 7230SOL     OW22588   1.822   5.325   4.354
 7230SOL    HW122589   1.754   5.334   4.427
 7230SOL    HW222590   1.871   5.239   4.364
 7231SOL     OW22591   4.302   2.064   6.268
 7231SOL    HW122592   4.335   2.153   6.298
 7231SOL    HW222593   4.380   2.008   6.240
 7232SOL     OW22594   5.028   0.063   3.641
 7232SOL    HW122595   4.968   0.014   3.578
 7232SOL    HW222596   5.019   0.162   3.626
 7233SOL     OW22597   0.173   1.175   5.030
 7233SOL    HW122598   0.102   1.165   5.100
 7233SOL    HW222599   0.263   1.159   5.072
 7234SOL     OW22600   5.057   4.110   3.394
 7234SOL    HW122601   4.986   4.075   3.332
 7234SOL    HW222602   5.101   4.189   3.352
 7235SOL     OW22603   6.887   5.151   1.669
 7235SOL    HW122604   6.812   5.217   1.666
 7235SOL    HW222605   6.974   5.199   1.674
 7236SOL     OW22606   1.037   3.376   2.766
 7236SOL    HW122607   1.093   3.456   2.789
 7236SOL    HW222608   0.991   3.391   2.679
 7237SOL     OW22609   5.694   1.283   7.009
 7237SOL    HW122610   5.766   1.325   0.044
 7237SOL    HW222611   5.613   1.341   7.011
 7238SOL     OW22612   3.751   3.125   6.918
 7238SOL    HW122613   3.671   3.065   6.926
 7238SOL    HW222614   3.824   3.076   6.870
 7239SOL     OW22615   6.947   2.414   2.138
 7239SOL    HW122616   6.911   2.387   2.049
 7239SOL    HW222617   7.017   2.349   2.168
 7240SOL     OW22618   6.525   1.964   6.854
 7240SOL    HW122619   6.543   1.941   6.759
 7240SOL    HW222620   6.608   2.002   6.896
 7241SOL     OW22621   2.472   1.283   1.473
 7241SOL    HW122622   2.468   1.358   1.539
 7241SOL    HW222623   2.423   1.309   1.389
 7242SOL     OW22624   6.710   5.165   4.460
 7242SOL    HW122625   6.649   5.243   4.475
 7242SOL    HW222626   6.656   5.087   4.426
 7243SOL     OW22627   5.789   4.446   5.806
 7243SOL    HW122628   5.727   4.442   5.884
 7243SOL    HW222629   5.740   4.417   5.723
 7244SOL     OW22630   0.435   5.791   6.865
 7244SOL    HW122631   0.444   5.846   6.782
 7244SOL    HW222632   0.356   5.730   6.856
 7245SOL     OW22633   0.751   3.044   0.353
 7245SOL    HW122634   0.683   3.115   0.334
 7245SOL    HW222635   0.791   3.059   0.443
 7246SOL     OW22636   3.530   6.388   3.817
 7246SOL    HW122637   3.451   6.348   3.865
 7246SOL    HW222638   3.608   6.391   3.879
 7247SOL     OW22639   2.996   3.733   5.526
 7247SOL    HW122640   2.949   3.765   5.444
 7247SOL    HW222641   3.046   3.648   5.505
 7248SOL     OW22642   3.566   1.370   5.023
 7248SOL    HW122643   3.573   1.371   4.923
 7248SOL    HW222644   3.507   1.445   5.053
 7249SOL     OW22645   3.875   5.484   2.293
 7249SOL    HW122646   3.938   5.420   2.248
 7249SOL    HW222647   3.861   5.456   2.388
 7250SOL     OW22648   4.991   5.176   5.866
 7250SOL    HW122649   5.056   5.186   5.941
 7250SOL    HW222650   5.016   5.237   5.791
 7251SOL     OW22651   0.053   5.684   5.733
 7251SOL    HW122652   6.993   5.662   5.678
 7251SOL    HW222653   0.030   5.755   5.800
 7252SOL     OW22654   3.383   4.092   2.424
 7252SOL    HW122655   3.401   4.071   2.328
 7252SOL    HW222656   3.396   4.190   2.440
 7253SOL     OW22657   1.567   5.818   5.138
 7253SOL    HW122658   1.534   5.897   5.189
 7253SOL    HW222659   1.664   5.804   5.156
 7254SOL     OW22660   5.216   3.358   3.871
 7254SOL    HW122661   5.176   3.307   3.795
 7254SOL    HW222662   5.299   3.405   3.840
 7255SOL     OW22663   4.831   3.113   6.454
 7255SOL    HW122664   4.767   3.087   6.526
 7255SOL    HW222665   4.817   3.210   6.430
 7256SOL     OW22666   3.252   0.060   5.549
 7256SOL    HW122667   3.237   0.134   5.483
 7256SOL    HW222668   3.175   7.017   5.545
 7257SOL     OW22669   0.690   1.874   4.306
 7257SOL    HW122670   0.736   1.811   4.244
 7257SOL    HW222671   0.674   1.829   4.393
 7258SOL     OW22672   6.315   2.290   3.130
 7258SOL    HW122673   6.329   2.265   3.226
 7258SOL    HW222674   6.254   2.224   3.088
 7259SOL     OW22675   1.344   4.551   2.818
 7259SOL    HW122676   1.411   4.557   2.744
 7259SOL    HW222677   1.351   4.462   2.863
 7260SOL     OW22678   5.856   3.170   1.271
 7260SOL    HW122679   5.785   3.126   1.326
 7260SOL    HW222680   5.941   3.176   1.324
 7261SOL     OW22681   6.990   4.136   6.768
 7261SOL    HW122682   6.975   4.209   6.835
 7261SOL    HW222683   6.990   4.174   6.676
 7262SOL     OW22684   6.619   1.468   5.585
 7262SOL    HW122685   6.551   1.522   5.535
 7262SOL    HW222686   6.611   1.489   5.683
 7263SOL     OW22687   0.174   5.106   0.030
 7263SOL    HW122688   0.188   5.007   0.024
 7263SOL    HW222689   0.103   5.126   0.098
 7264SOL     OW22690   6.348   1.411   0.724
 7264SOL    HW122691   6.259   1.378   0.757
 7264SOL    HW222692   6.373   1.493   0.775
 7265SOL     OW22693   4.252   5.730   5.791
 7265SOL    HW122694   4.204   5.809   5.755
 7265SOL    HW222695   4.203   5.694   5.870
 7266SOL     OW22696   0.280   0.757   3.608
 7266SOL    HW122697   0.204   0.773   3.545
 7266SOL    HW222698   0.297   0.658   3.614
 7267SOL     OW22699   6.198   5.255   4.316
 7267SOL    HW122700   6.100   5.275   4.309
 7267SOL    HW222701   6.225   5.198   4.239
 7268SOL     OW22702   5.994   6.151   4.265
 7268SOL    HW122703   6.035   6.228   4.214
 7268SOL    HW222704   6.015   6.160   4.362
 7269SOL     OW22705   2.538   4.645   5.086
 7269SOL    HW122706   2.508   4.575   5.151
 7269SOL    HW222707   2.629   4.623   5.052
 7270SOL     OW22708   0.617   1.385   4.397
 7270SOL    HW122709   0.674   1.330   4.336
 7270SOL    HW222710   0.594   1.471   4.351
 7271SOL     OW22711   0.927   4.215   3.698
 7271SOL    HW122712   0.858   4.280   3.668
 7271SOL    HW222713   0.981   4.255   3.772
 7272SOL     OW22714   6.033   5.123   2.868
 7272SOL    HW122715   6.050   5.219   2.847
 7272SOL    HW222716   6.086   5.097   2.948
 7273SOL     OW22717   0.058   2.595   5.414
 7273SOL    HW122718   0.063   2.694   5.430
 7273SOL    HW222719   6.995   2.559   5.453
 7274SOL     OW22720   0.432   4.373   0.003
 7274SOL    HW122721   0.391   4.298   6.972
 7274SOL    HW222722   0.375   4.393   0.083
 7275SOL     OW22723   6.608   0.059   2.789
 7275SOL    HW122724   6.536   7.011   2.779
 7275SOL    HW222725   6.697   0.018   2.772
 7276SOL     OW22726   4.817   6.645   3.823
 7276SOL    HW122727   4.766   6.613   3.903
 7276SOL    HW222728   4.757   6.650   3.744
 7277SOL     OW22729   4.619   0.350   6.202
 7277SOL    HW122730   4.613   0.421   6.272
 7277SOL    HW222731   4.633   0.392   6.112
 7278SOL     OW22732   3.027   3.971   2.994
 7278SOL    HW122733   2.982   4.060   3.000
 7278SOL    HW222734   3.023   3.926   3.083
 7279SOL     OW22735   3.612   6.375   6.043
 7279SOL    HW122736   3.568   6.356   5.956
 7279SOL    HW222737   3.554   6.341   6.118
 7280SOL     OW22738   4.995   1.379   5.997
 7280SOL    HW122739   4.980   1.300   6.056
 7280SOL    HW222740   5.015   1.349   5.904
 7281SOL     OW22741   4.644   1.271   0.094
 7281SOL    HW122742   4.553   1.312   0.093
 7281SOL    HW222743   4.702   1.316   0.026
 7282SOL     OW22744   6.574   5.543   2.197
 7282SOL    HW122745   6.618   5.633   2.203
 7282SOL    HW222746   6.509   5.533   2.273
 7283SOL     OW22747   1.997   0.954   4.024
 7283SOL    HW122748   2.021   0.871   3.974
 7283SOL    HW222749   1.903   0.947   4.056
 7284SOL     OW22750   6.898   3.891   5.295
 7284SOL    HW122751   6.871   3.895   5.391
 7284SOL    HW222752   6.831   3.942   5.240
 7285SOL     OW22753   5.336   5.312   1.969
 7285SOL    HW122754   5.435   5.319   1.953
 7285SOL    HW222755   5.319   5.313   2.067
 7286SOL     OW22756   2.033   2.893   1.125
 7286SOL    HW122757   2.076   2.977   1.092
 7286SOL    HW222758   2.021   2.898   1.224
 7287SOL     OW22759   6.339   0.930   6.436
 7287SOL    HW122760   6.279   1.006   6.412
 7287SOL    HW222761   6.376   0.890   6.352
 7288SOL     OW22762   3.906   6.920   6.779
 7288SOL    HW122763   3.967   6.957   6.709
 7288SOL    HW222764   3.845   6.993   6.811
 7289SOL     OW22765   4.536   2.068   3.307
 7289SOL    HW122766   4.511   2.158   3.273
 7289SOL    HW222767   4.618   2.075   3.365
 7290SOL     OW22768   2.551   4.810   4.768
 7290SOL    HW122769   2.495   4.819   4.850
 7290SOL    HW222770   2.500   4.843   4.689
 7291SOL     OW22771   2.517   6.049   1.646
 7291SOL    HW122772   2.545   6.004   1.561
 7291SOL    HW222773   2.525   6.148   1.635
 7292SOL     OW22774   2.368   6.604   3.834
 7292SOL    HW122775   2.394   6.543   3.760
 7292SOL    HW222776   2.441   6.608   3.901
 7293SOL     OW22777   1.539   1.997   5.300
 7293SOL    HW122778   1.520   2.033   5.209
 7293SOL    HW222779   1.514   2.065   5.369
 7294SOL     OW22780   3.038   4.743   0.809
 7294SOL    HW122781   2.953   4.788   0.837
 7294SOL    HW222782   3.054   4.663   0.867
 7295SOL     OW22783   6.506   0.621   0.969
 7295SOL    HW122784   6.570   0.551   0.997
 7295SOL    HW222785   6.551   0.684   0.905
 7296SOL     OW22786   3.379   4.632   1.369
 7296SOL    HW122787   3.322   4.595   1.295
 7296SOL    HW222788   3.336   4.713   1.407
 7297SOL     OW22789   4.832   6.737   1.678
 7297SOL    HW122790   4.752   6.786   1.712
 7297SOL    HW222791   4.830   6.642   1.711
 7298SOL     OW22792   5.956   3.568   4.210
 7298SOL    HW122793   6.035   3.612   4.167
 7298SOL    HW222794   5.872   3.598   4.164
 7299SOL     OW22795   6.197   3.862   6.970
 7299SOL    HW122796   6.105   3.854   6.932
 7299SOL    HW222797   6.240   3.946   6.937
 7300SOL     OW22798   5.111   5.363   1.104
 7300SOL    HW122799   5.201   5.401   1.081
 7300SOL    HW222800   5.122   5.288   1.170
 7301SOL     OW22801   6.979   6.980   6.034
 7301SOL    HW122802   6.885   6.994   6.003
 7301SOL    HW222803   0.011   6.939   5.959
 7302SOL     OW22804   5.739   0.749   6.693
 7302SOL    HW122805   5.737   0.651   6.714
 7302SOL    HW222806   5.825   0.788   6.724
 7303SOL     OW22807   3.251   0.676   6.945
 7303SOL    HW122808   3.172   0.619   6.967
 7303SOL    HW222809   3.232   0.729   6.862
 7304SOL     OW22810   4.488   4.200   6.444
 7304SOL    HW122811   4.531   4.287   6.469
 7304SOL    HW222812   4.415   4.217   6.378
 7305SOL     OW22813   4.900   1.008   0.538
 7305SOL    HW122814   4.988   1.014   0.490
 7305SOL    HW222815   4.839   1.080   0.504
 7306SOL     OW22816   4.324   5.267   1.768
 7306SOL    HW122817   4.226   5.251   1.762
 7306SOL    HW222818   4.346   5.358   1.732
 7307SOL     OW22819   4.185   6.663   2.024
 7307SOL    HW122820   4.130   6.697   2.100
 7307SOL    HW222821   4.211   6.740   1.965
 7308SOL     OW22822   6.572   3.165   4.707
 7308SOL    HW122823   6.512   3.128   4.636
 7308SOL    HW222824   6.537   3.138   4.797
 7309SOL     OW22825   4.896   6.664   1.435
 7309SOL    HW122826   4.931   6.571   1.430
 7309SOL    HW222827   4.877   6.688   1.531
 7310SOL     OW22828   3.063   5.052   1.334
 7310SOL    HW122829   3.020   5.089   1.416
 7310SOL    HW222830   3.110   4.966   1.356
 7311SOL     OW22831   2.663   2.290   2.015
 7311SOL    HW122832   2.763   2.282   2.008
 7311SOL    HW222833   2.630   2.351   1.943
 7312SOL     OW22834   6.585   1.570   5.841
 7312SOL    HW122835   6.549   1.533   5.927
 7312SOL    HW222836   6.649   1.644   5.862
 7313SOL     OW22837   3.921   2.679   6.425
 7313SOL    HW122838   3.863   2.601   6.448
 7313SOL    HW222839   3.889   2.760   6.476
 7314SOL     OW22840   0.083   3.562   4.698
 7314SOL    HW122841   0.077   3.650   4.747
 7314SOL    HW222842   7.017   3.514   4.707
 7315SOL     OW22843   6.502   6.958   3.901
 7315SOL    HW122844   6.439   0.015   3.903
 7315SOL    HW222845   6.514   6.927   3.807
 7316SOL     OW22846   3.713   3.532   5.660
 7316SOL    HW122847   3.658   3.533   5.576
 7316SOL    HW222848   3.652   3.526   5.739
 7317SOL     OW22849   3.349   1.142   3.274
 7317SOL    HW122850   3.267   1.116   3.324
 7317SOL    HW222851   3.420   1.170   3.338
 7318SOL     OW22852   1.335   2.518   1.167
 7318SOL    HW122853   1.294   2.535   1.256
 7318SOL    HW222854   1.406   2.587   1.150
 7319SOL     OW22855   6.115   4.429   6.558
 7319SOL    HW122856   6.208   4.456   6.582
 7319SOL    HW222857   6.075   4.498   6.498
 7320SOL     OW22858   0.236   2.966   2.588
 7320SOL    HW122859   0.330   2.943   2.613
 7320SOL    HW222860   0.181   2.976   2.671
 7321SOL     OW22861   2.435   1.347   4.485
 7321SOL    HW122862   2.446   1.442   4.458
 7321SOL    HW222863   2.433   1.289   4.403
 7322SOL     OW22864   0.549   4.334   2.888
 7322SOL    HW122865   0.570   4.432   2.881
 7322SOL    HW222866   0.567   4.290   2.800
 7323SOL     OW22867   1.993   2.552   3.595
 7323SOL    HW122868   2.077   2.537   3.647
 7323SOL    HW222869   1.916   2.562   3.658
 7324SOL     OW22870   6.360   0.641   3.235
 7324SOL    HW122871   6.428   0.636   3.308
 7324SOL    HW222872   6.278   0.689   3.269
 7325SOL     OW22873   3.332   6.366   6.459
 7325SOL    HW122874   3.325   6.326   6.551
 7325SOL    HW222875   3.242   6.395   6.428
 7326SOL     OW22876   2.674   6.695   5.757
 7326SOL    HW122877   2.705   6.688   5.662
 7326SOL    HW222878   2.662   6.603   5.794
 7327SOL     OW22879   1.504   3.156   6.316
 7327SOL    HW122880   1.448   3.156   6.233
 7327SOL    HW222881   1.494   3.068   6.363
 7328SOL     OW22882   2.259   6.974   6.554
 7328SOL    HW122883   2.256   0.002   6.467
 7328SOL    HW222884   2.197   7.017   6.620
 7329SOL     OW22885   3.874   3.485   0.903
 7329SOL    HW122886   3.778   3.460   0.898
 7329SOL    HW222887   3.931   3.403   0.900
 7330SOL     OW22888   3.657   1.217   6.687
 7330SOL    HW122889   3.563   1.203   6.718
 7330SOL    HW222890   3.720   1.205   6.764
 7331SOL     OW22891   5.028   0.769   2.483
 7331SOL    HW122892   4.939   0.787   2.524
 7331SOL    HW222893   5.075   0.697   2.534
 7332SOL     OW22894   3.731   5.499   0.741
 7332SOL    HW122895   3.644   5.450   0.733
 7332SOL    HW222896   3.720   5.576   0.804
 7333SOL     OW22897   1.025   4.864   2.643
 7333SOL    HW122898   1.058   4.813   2.722
 7333SOL    HW222899   1.066   4.827   2.559
 7334SOL     OW22900   3.992   6.144   4.892
 7334SOL    HW122901   4.005   6.191   4.804
 7334SOL    HW222902   3.909   6.088   4.888
 7335SOL     OW22903   2.069   1.945   2.543
 7335SOL    HW122904   2.071   2.042   2.520
 7335SOL    HW222905   2.046   1.935   2.640
 7336SOL     OW22906   2.275   6.092   4.011
 7336SOL    HW122907   2.278   6.150   3.930
 7336SOL    HW222908   2.194   6.033   4.007
 7337SOL     OW22909   0.117   3.076   2.339
 7337SOL    HW122910   0.160   3.035   2.420
 7337SOL    HW222911   0.074   3.162   2.364
 7338SOL     OW22912   6.768   2.027   0.796
 7338SOL    HW122913   6.769   2.116   0.842
 7338SOL    HW222914   6.853   1.978   0.818
 7339SOL     OW22915   6.702   5.653   4.932
 7339SOL    HW122916   6.627   5.599   4.894
 7339SOL    HW222917   6.786   5.600   4.929
 7340SOL     OW22918   1.997   6.948   0.116
 7340SOL    HW122919   2.005   6.938   0.215
 7340SOL    HW222920   2.018   6.860   0.071
 7341SOL     OW22921   6.179   2.251   6.593
 7341SOL    HW122922   6.228   2.234   6.508
 7341SOL    HW222923   6.210   2.338   6.632
 7342SOL     OW22924   0.098   0.144   2.334
 7342SOL    HW122925   0.137   0.215   2.393
 7342SOL    HW222926   0.118   0.054   2.371
 7343SOL     OW22927   5.159   3.650   0.718
 7343SOL    HW122928   5.184   3.560   0.751
 7343SOL    HW222929   5.084   3.687   0.773
 7344SOL     OW22930   1.395   6.121   6.355
 7344SOL    HW122931   1.454   6.189   6.399
 7344SOL    HW222932   1.450   6.041   6.330
 7345SOL     OW22933   3.629   4.829   5.609
 7345SOL    HW122934   3.662   4.766   5.538
 7345SOL    HW222935   3.545   4.792   5.650
 7346SOL     OW22936   4.871   5.253   3.360
 7346SOL    HW122937   4.869   5.327   3.427
 7346SOL    HW222938   4.794   5.192   3.377
 7347SOL     OW22939   5.907   2.499   6.256
 7347SOL    HW122940   5.911   2.480   6.355
 7347SOL    HW222941   5.860   2.586   6.241
 7348SOL     OW22942   0.633   4.546   2.222
 7348SOL    HW122943   0.544   4.584   2.196
 7348SOL    HW222944   0.672   4.498   2.143
 7349SOL     OW22945   3.970   2.056   1.315
 7349SOL    HW122946   4.066   2.036   1.333
 7349SOL    HW222947   3.919   2.056   1.401
 7350SOL     OW22948   3.206   0.481   5.234
 7350SOL    HW122949   3.263   0.560   5.254
 7350SOL    HW222950   3.157   0.496   5.147
 7351SOL     OW22951   3.478   4.924   4.096
 7351SOL    HW122952   3.541   4.955   4.025
 7351SOL    HW222953   3.398   4.881   4.054
 7352SOL     OW22954   6.941   2.518   3.511
 7352SOL    HW122955   0.008   2.562   3.531
 7352SOL    HW222956   6.875   2.541   3.583
 7353SOL     OW22957   6.364   0.403   6.582
 7353SOL    HW122958   6.359   0.498   6.552
 7353SOL    HW222959   6.363   0.400   6.682
 7354SOL     OW22960   1.086   1.358   2.825
 7354SOL    HW122961   1.026   1.361   2.745
 7354SOL    HW222962   1.181   1.359   2.796
 7355SOL     OW22963   0.855   2.140   0.018
 7355SOL    HW122964   0.776   2.162   0.075
 7355SOL    HW222965   0.871   2.041   0.021
 7356SOL     OW22966   4.438   4.260   6.064
 7356SOL    HW122967   4.493   4.183   6.031
 7356SOL    HW222968   4.425   4.326   5.991
 7357SOL     OW22969   5.369   6.276   2.278
 7357SOL    HW122970   5.385   6.364   2.322
 7357SOL    HW222971   5.351   6.207   2.348
 7358SOL     OW22972   5.000   1.272   3.623
 7358SOL    HW122973   4.904   1.260   3.598
 7358SOL    HW222974   5.019   1.223   3.708
 7359SOL     OW22975   4.883   0.225   0.090
 7359SOL    HW122976   4.826   0.150   0.124
 7359SOL    HW222977   4.975   0.217   0.128
 7360SOL     OW22978   2.853   3.420   5.535
 7360SOL    HW122979   2.933   3.454   5.485
 7360SOL    HW222980   2.854   3.320   5.534
 7361SOL     OW22981   5.266   0.638   2.964
 7361SOL    HW122982   5.272   0.704   2.889
 7361SOL    HW222983   5.334   0.565   2.950
 7362SOL     OW22984   3.300   4.988   6.310
 7362SOL    HW122985   3.383   5.040   6.333
 7362SOL    HW222986   3.228   5.052   6.283
 7363SOL     OW22987   4.033   6.924   1.471
 7363SOL    HW122988   4.101   6.966   1.411
 7363SOL    HW222989   3.963   6.880   1.417
 7364SOL     OW22990   5.228   0.079   1.601
 7364SOL    HW122991   5.310   0.120   1.561
 7364SOL    HW222992   5.154   0.146   1.602
 7365SOL     OW22993   5.639   4.761   2.134
 7365SOL    HW122994   5.647   4.843   2.078
 7365SOL    HW222995   5.706   4.694   2.105
 7366SOL     OW22996   1.885   1.310   4.103
 7366SOL    HW122997   1.872   1.254   4.185
 7366SOL    HW222998   1.970   1.283   4.058
 7367SOL     OW22999   4.562   0.566   6.385
 7367SOL    HW123000   4.490   0.548   6.452
 7367SOL    HW223001   4.538   0.647   6.331
 7368SOL     OW23002   4.097   3.523   3.263
 7368SOL    HW123003   4.073   3.620   3.275
 7368SOL    HW223004   4.143   3.511   3.175
 7369SOL     OW23005   5.900   2.330   1.233
 7369SOL    HW123006   5.926   2.342   1.137
 7369SOL    HW223007   5.978   2.355   1.292
 7370SOL     OW23008   1.971   1.677   4.432
 7370SOL    HW123009   1.934   1.585   4.446
 7370SOL    HW223010   2.061   1.684   4.475
 7371SOL     OW23011   3.932   0.744   3.853
 7371SOL    HW123012   3.956   0.841   3.857
 7371SOL    HW223013   3.875   0.720   3.932
 7372SOL     OW23014   5.248   0.836   5.147
 7372SOL    HW123015   5.165   0.891   5.144
 7372SOL    HW223016   5.312   0.869   5.078
 7373SOL     OW23017   5.465   3.327   4.567
 7373SOL    HW123018   5.454   3.289   4.659
 7373SOL    HW223019   5.394   3.396   4.551
 7374SOL     OW23020   6.804   1.841   5.691
 7374SOL    HW123021   6.746   1.822   5.770
 7374SOL    HW223022   6.895   1.803   5.706
 7375SOL     OW23023   1.942   3.409   2.331
 7375SOL    HW123024   1.990   3.373   2.251
 7375SOL    HW223025   1.919   3.334   2.393
 7376SOL     OW23026   0.074   3.691   0.173
 7376SOL    HW123027   0.084   3.677   0.075
 7376SOL    HW223028   0.161   3.724   0.211
 7377SOL     OW23029   3.142   6.216   0.485
 7377SOL    HW123030   3.182   6.154   0.418
 7377SOL    HW223031   3.205   6.228   0.562
 7378SOL     OW23032   1.488   6.247   4.130
 7378SOL    HW123033   1.502   6.148   4.128
 7378SOL    HW223034   1.391   6.268   4.122
 7379SOL     OW23035   3.827   0.944   0.996
 7379SOL    HW123036   3.777   0.858   0.990
 7379SOL    HW223037   3.911   0.937   0.941
 7380SOL     OW23038   5.212   3.053   2.616
 7380SOL    HW123039   5.184   3.046   2.520
 7380SOL    HW223040   5.284   3.122   2.625
 7381SOL     OW23041   4.054   1.075   0.745
 7381SOL    HW123042   4.052   1.033   0.654
 7381SOL    HW223043   4.066   1.004   0.814
 7382SOL     OW23044   6.820   1.158   6.447
 7382SOL    HW123045   6.761   1.088   6.488
 7382SOL    HW223046   6.786   1.249   6.472
 7383SOL     OW23047   2.325   6.746   0.533
 7383SOL    HW123048   2.318   6.767   0.631
 7383SOL    HW223049   2.407   6.690   0.517
 7384SOL     OW23050   0.416   0.284   0.906
 7384SOL    HW123051   0.496   0.271   0.966
 7384SOL    HW223052   0.413   0.211   0.839
 7385SOL     OW23053   6.001   4.269   2.764
 7385SOL    HW123054   5.918   4.244   2.815
 7385SOL    HW223055   6.034   4.189   2.714
 7386SOL     OW23056   5.947   3.858   0.489
 7386SOL    HW123057   5.911   3.875   0.581
 7386SOL    HW223058   5.995   3.939   0.457
 7387SOL     OW23059   6.243   5.913   5.758
 7387SOL    HW123060   6.316   5.910   5.690
 7387SOL    HW223061   6.233   5.823   5.802
 7388SOL     OW23062   2.090   5.710   2.494
 7388SOL    HW123063   1.993   5.732   2.503
 7388SOL    HW223064   2.121   5.659   2.574
 7389SOL     OW23065   5.523   3.031   0.349
 7389SOL    HW123066   5.456   2.964   0.384
 7389SOL    HW223067   5.608   2.984   0.328
 7390SOL     OW23068   2.207   1.992   2.857
 7390SOL    HW123069   2.245   2.020   2.945
 7390SOL    HW223070   2.247   1.904   2.830
 7391SOL     OW23071   3.866   3.494   3.643
 7391SOL    HW123072   3.951   3.536   3.612
 7391SOL    HW223073   3.820   3.450   3.566
 7392SOL     OW23074   3.193   6.076   0.075
 7392SOL    HW123075   3.156   6.143   0.011
 7392SOL    HW223076   3.148   5.988   0.062
 7393SOL     OW23077   5.164   5.574   4.224
 7393SOL    HW123078   5.174   5.624   4.310
 7393SOL    HW223079   5.092   5.617   4.169
 7394SOL     OW23080   2.226   1.944   5.887
 7394SOL    HW123081   2.254   2.018   5.826
 7394SOL    HW223082   2.275   1.860   5.862
 7395SOL     OW23083   2.756   5.465   0.806
 7395SOL    HW123084   2.748   5.500   0.712
 7395SOL    HW223085   2.702   5.523   0.867
 7396SOL     OW23086   2.662   5.290   1.862
 7396SOL    HW123087   2.732   5.306   1.931
 7396SOL    HW223088   2.572   5.306   1.902
 7397SOL     OW23089   5.441   4.257   3.586
 7397SOL    HW123090   5.358   4.267   3.642
 7397SOL    HW223091   5.505   4.195   3.633
 7398SOL     OW23092   2.375   4.384   2.617
 7398SOL    HW123093   2.320   4.468   2.606
 7398SOL    HW223094   2.314   4.307   2.638
 7399SOL     OW23095   5.248   2.253   5.281
 7399SOL    HW123096   5.237   2.340   5.331
 7399SOL    HW223097   5.208   2.179   5.334
 7400SOL     OW23098   5.656   2.905   5.809
 7400SOL    HW123099   5.625   2.945   5.723
 7400SOL    HW223100   5.666   2.806   5.798
 7401SOL     OW23101   1.535   2.643   3.967
 7401SOL    HW123102   1.513   2.565   4.025
 7401SOL    HW223103   1.585   2.712   4.020
 7402SOL     OW23104   3.435   6.101   4.985
 7402SOL    HW123105   3.528   6.094   5.022
 7402SOL    HW223106   3.397   6.009   4.974
 7403SOL     OW23107   1.333   3.633   4.578
 7403SOL    HW123108   1.322   3.552   4.520
 7403SOL    HW223109   1.274   3.707   4.544
 7404SOL     OW23110   3.152   3.782   0.603
 7404SOL    HW123111   3.061   3.805   0.638
 7404SOL    HW223112   3.187   3.704   0.653
 7405SOL     OW23113   3.834   6.536   4.817
 7405SOL    HW123114   3.751   6.513   4.868
 7405SOL    HW223115   3.878   6.615   4.860
 7406SOL     OW23116   0.981   1.286   4.467
 7406SOL    HW123117   0.996   1.280   4.566
 7406SOL    HW223118   1.057   1.334   4.425
 7407SOL     OW23119   0.751   5.767   5.650
 7407SOL    HW123120   0.673   5.807   5.699
 7407SOL    HW223121   0.718   5.722   5.567
 7408SOL     OW23122   3.325   4.418   5.382
 7408SOL    HW123123   3.331   4.510   5.342
 7408SOL    HW223124   3.231   4.384   5.370
 7409SOL     OW23125   6.033   3.600   0.415
 7409SOL    HW123126   6.058   3.649   0.332
 7409SOL    HW223127   5.997   3.665   0.483
 7410SOL     OW23128   0.053   0.340   1.181
 7410SOL    HW123129   0.011   0.392   1.106
 7410SOL    HW223130   0.015   0.371   1.268
 7411SOL     OW23131   1.768   1.866   5.290
 7411SOL    HW123132   1.832   1.877   5.366
 7411SOL    HW223133   1.684   1.916   5.310
 7412SOL     OW23134   4.625   6.739   6.866
 7412SOL    HW123135   4.594   6.655   6.910
 7412SOL    HW223136   4.626   6.726   6.767
 7413SOL     OW23137   4.174   6.931   3.178
 7413SOL    HW123138   4.220   6.865   3.119
 7413SOL    HW223139   4.158   6.890   3.268
 7414SOL     OW23140   2.786   1.913   4.196
 7414SOL    HW123141   2.798   2.011   4.177
 7414SOL    HW223142   2.871   1.876   4.233
 7415SOL     OW23143   3.608   6.463   6.438
 7415SOL    HW123144   3.670   6.387   6.421
 7415SOL    HW223145   3.517   6.441   6.403
 7416SOL     OW23146   0.667   0.766   2.140
 7416SOL    HW123147   0.709   0.787   2.228
 7416SOL    HW223148   0.628   0.849   2.101
 7417SOL     OW23149   0.547   1.332   3.555
 7417SOL    HW123150   0.555   1.234   3.571
 7417SOL    HW223151   0.535   1.349   3.457
 7418SOL     OW23152   2.051   3.919   6.106
 7418SOL    HW123153   1.981   3.847   6.109
 7418SOL    HW223154   2.022   3.992   6.044
 7419SOL     OW23155   6.870   3.590   3.975
 7419SOL    HW123156   6.901   3.526   3.904
 7419SOL    HW223157   6.884   3.684   3.943
 7420SOL     OW23158   6.582   6.914   1.518
 7420SOL    HW123159   6.571   6.820   1.549
 7420SOL    HW223160   6.548   6.921   1.424
 7421SOL     OW23161   4.909   4.100   1.538
 7421SOL    HW123162   4.839   4.171   1.529
 7421SOL    HW223163   4.967   4.120   1.617
 7422SOL     OW23164   5.089   2.044   3.074
 7422SOL    HW123165   5.072   1.950   3.105
 7422SOL    HW223166   5.068   2.050   2.976
 7423SOL     OW23167   5.497   1.766   6.186
 7423SOL    HW123168   5.534   1.798   6.274
 7423SOL    HW223169   5.496   1.666   6.184
 7424SOL     OW23170   0.859   1.964   3.724
 7424SOL    HW123171   0.869   1.962   3.824
 7424SOL    HW223172   0.797   1.891   3.696
 7425SOL     OW23173   5.921   0.647   0.390
 7425SOL    HW123174   5.848   0.579   0.381
 7425SOL    HW223175   5.883   0.738   0.380
 7426SOL     OW23176   3.835   3.640   6.302
 7426SOL    HW123177   3.780   3.579   6.358
 7426SOL    HW223178   3.794   3.648   6.211
 7427SOL     OW23179   2.767   1.177   4.019
 7427SOL    HW123180   2.781   1.122   3.937
 7427SOL    HW223181   2.738   1.118   4.095
 7428SOL     OW23182   4.391   6.193   5.361
 7428SOL    HW123183   4.449   6.268   5.391
 7428SOL    HW223184   4.408   6.113   5.419
 7429SOL     OW23185   1.539   6.746   2.622
 7429SOL    HW123186   1.526   6.842   2.596
 7429SOL    HW223187   1.450   6.705   2.642
 7430SOL     OW23188   6.708   5.399   2.741
 7430SOL    HW123189   6.729   5.389   2.644
 7430SOL    HW223190   6.773   5.462   2.784
 7431SOL     OW23191   1.507   1.424   3.811
 7431SOL    HW123192   1.574   1.476   3.758
 7431SOL    HW223193   1.491   1.336   3.768
 7432SOL     OW23194   2.242   0.416   3.318
 7432SOL    HW123195   2.150   0.448   3.342
 7432SOL    HW223196   2.246   0.316   3.327
 7433SOL     OW23197   2.796   0.082   6.429
 7433SOL    HW123198   2.828   0.110   6.339
 7433SOL    HW223199   2.831   7.012   6.450
 7434SOL     OW23200   4.228   6.577   5.276
 7434SOL    HW123201   4.258   6.579   5.371
 7434SOL    HW223202   4.239   6.485   5.239
 7435SOL     OW23203   4.888   4.883   3.296
 7435SOL    HW123204   4.862   4.952   3.363
 7435SOL    HW223205   4.925   4.803   3.343
 7436SOL     OW23206   5.370   2.676   6.260
 7436SOL    HW123207   5.345   2.747   6.327
 7436SOL    HW223208   5.408   2.719   6.178
 7437SOL     OW23209   3.746   6.814   0.973
 7437SOL    HW123210   3.690   6.731   0.969
 7437SOL    HW223211   3.842   6.789   0.983
 7438SOL     OW23212   2.396   0.604   0.233
 7438SOL    HW123213   2.306   0.587   0.272
 7438SOL    HW223214   2.449   0.519   0.231
 7439SOL     OW23215   0.756   4.385   6.111
 7439SOL    HW123216   0.806   4.414   6.029
 7439SOL    HW223217   0.819   4.380   6.188
 7440SOL     OW23218   5.663   3.717   4.316
 7440SOL    HW123219   5.670   3.622   4.347
 7440SOL    HW223220   5.572   3.732   4.277
 7441SOL     OW23221   6.101   5.910   1.388
 7441SOL    HW123222   6.116   5.886   1.292
 7441SOL    HW223223   6.003   5.912   1.407
 7442SOL     OW23224   5.119   0.986   5.683
 7442SOL    HW123225   5.035   0.939   5.709
 7442SOL    HW223226   5.109   1.024   5.591
 7443SOL     OW23227   0.132   1.029   1.810
 7443SOL    HW123228   0.079   1.113   1.821
 7443SOL    HW223229   0.108   0.984   1.724
 7444SOL     OW23230   1.643   6.339   6.672
 7444SOL    HW123231   1.553   6.347   6.629
 7444SOL    HW223232   1.709   6.304   6.605
 7445SOL     OW23233   4.969   6.376   1.508
 7445SOL    HW123234   4.965   6.276   1.509
 7445SOL    HW223235   4.901   6.413   1.571
 7446SOL     OW23236   5.232   3.870   0.131
 7446SOL    HW123237   5.210   3.856   0.227
 7446SOL    HW223238   5.271   3.786   0.093
 7447SOL     OW23239   0.726   4.566   1.047
 7447SOL    HW123240   0.643   4.567   1.101
 7447SOL    HW223241   0.785   4.642   1.074
 7448SOL     OW23242   4.671   5.010   6.585
 7448SOL    HW123243   4.647   5.075   6.657
 7448SOL    HW223244   4.700   5.059   6.503
 7449SOL     OW23245   0.258   4.737   6.437
 7449SOL    HW123246   0.317   4.799   6.489
 7449SOL    HW223247   0.278   4.643   6.463
 7450SOL     OW23248   5.652   2.146   5.132
 7450SOL    HW123249   5.698   2.141   5.043
 7450SOL    HW223250   5.602   2.061   5.148
 7451SOL     OW23251   5.443   4.603   3.354
 7451SOL    HW123252   5.524   4.645   3.314
 7451SOL    HW223253   5.449   4.503   3.345
 7452SOL     OW23254   5.880   5.442   5.359
 7452SOL    HW123255   5.970   5.483   5.342
 7452SOL    HW223256   5.872   5.418   5.455
 7453SOL     OW23257   3.900   6.353   6.043
 7453SOL    HW123258   3.812   6.339   6.087
 7453SOL    HW223259   3.894   6.328   5.946
 7454SOL     OW23260   4.242   2.293   0.813
 7454SOL    HW123261   4.165   2.231   0.801
 7454SOL    HW223262   4.236   2.337   0.903
 7455SOL     OW23263   6.983   2.378   3.104
 7455SOL    HW123264   0.025   2.455   3.118
 7455SOL    HW223265   7.000   2.337   3.015
 7456SOL     OW23266   2.876   2.214   5.504
 7456SOL    HW123267   2.971   2.223   5.476
 7456SOL    HW223268   2.818   2.211   5.423
 7457SOL     OW23269   2.258   0.459   3.057
 7457SOL    HW123270   2.249   0.444   3.155
 7457SOL    HW223271   2.318   0.537   3.040
 7458SOL     OW23272   1.746   5.359   5.466
 7458SOL    HW123273   1.738   5.322   5.559
 7458SOL    HW223274   1.682   5.312   5.406
 7459SOL     OW23275   6.027   0.621   2.891
 7459SOL    HW123276   6.005   0.577   2.977
 7459SOL    HW223277   5.975   0.706   2.881
 7460SOL     OW23278   2.009   6.494   1.117
 7460SOL    HW123279   1.965   6.578   1.149
 7460SOL    HW223280   2.013   6.428   1.192
 7461SOL     OW23281   1.748   4.659   6.004
 7461SOL    HW123282   1.723   4.756   5.995
 7461SOL    HW223283   1.832   4.652   6.057
 7462SOL     OW23284   1.300   5.249   0.185
 7462SOL    HW123285   1.309   5.318   0.114
 7462SOL    HW223286   1.217   5.267   0.239
 7463SOL     OW23287   3.467   5.152   0.970
 7463SOL    HW123288   3.515   5.166   1.057
 7463SOL    HW223289   3.368   5.155   0.986
 7464SOL     OW23290   6.114   5.892   5.388
 7464SOL    HW123291   6.171   5.859   5.463
 7464SOL    HW223292   6.113   5.992   5.389
 7465SOL     OW23293   1.567   5.029   0.011
 7465SOL    HW123294   1.554   5.025   6.933
 7465SOL    HW223295   1.480   5.011   0.057
 7466SOL     OW23296   0.585   7.000   5.037
 7466SOL    HW123297   0.622   0.048   5.099
 7466SOL    HW223298   0.658   6.939   5.008
 7467SOL     OW23299   0.314   2.938   5.876
 7467SOL    HW123300   0.287   2.935   5.972
 7467SOL    HW223301   0.319   2.844   5.840
 7468SOL     OW23302   6.233   4.093   5.991
 7468SOL    HW123303   6.233   4.147   6.075
 7468SOL    HW223304   6.269   4.148   5.916
 7469SOL     OW23305   6.571   2.252   1.132
 7469SOL    HW123306   6.653   2.294   1.093
 7469SOL    HW223307   6.528   2.193   1.063
 7470SOL     OW23308   5.809   2.729   3.790
 7470SOL    HW123309   5.802   2.698   3.885
 7470SOL    HW223310   5.741   2.800   3.773
 7471SOL     OW23311   4.631   6.118   5.870
 7471SOL    HW123312   4.662   6.152   5.958
 7471SOL    HW223313   4.650   6.020   5.864
 7472SOL     OW23314   6.106   6.183   5.260
 7472SOL    HW123315   6.119   6.281   5.250
 7472SOL    HW223316   6.030   6.166   5.323
 7473SOL     OW23317   4.356   5.884   4.384
 7473SOL    HW123318   4.277   5.940   4.359
 7473SOL    HW223319   4.439   5.924   4.346
 7474SOL     OW23320   6.027   1.983   5.912
 7474SOL    HW123321   6.122   1.985   5.943
 7474SOL    HW223322   6.022   2.020   5.820
 7475SOL     OW23323   4.624   2.610   0.548
 7475SOL    HW123324   4.714   2.651   0.535
 7475SOL    HW223325   4.564   2.676   0.594
 7476SOL     OW23326   1.827   0.430   2.832
 7476SOL    HW123327   1.766   0.358   2.865
 7476SOL    HW223328   1.833   0.425   2.732
 7477SOL     OW23329   0.713   4.363   5.009
 7477SOL    HW123330   0.801   4.338   4.970
 7477SOL    HW223331   0.639   4.326   4.953
 7478SOL     OW23332   0.878   0.504   5.426
 7478SOL    HW123333   0.960   0.555   5.452
 7478SOL    HW223334   0.843   0.541   5.339
 7479SOL     OW23335   5.783   2.907   6.980
 7479SOL    HW123336   5.851   2.885   0.029
 7479SOL    HW223337   5.799   3.000   6.946
 7480SOL     OW23338   3.527   4.879   2.578
 7480SOL    HW123339   3.526   4.942   2.499
 7480SOL    HW223340   3.597   4.809   2.564
 7481SOL     OW23341   0.396   3.911   6.651
 7481SOL    HW123342   0.305   3.870   6.650
 7481SOL    HW223343   0.457   3.857   6.593
 7482SOL     OW23344   4.533   2.369   2.837
 7482SOL    HW123345   4.566   2.275   2.841
 7482SOL    HW223346   4.557   2.417   2.921
 7483SOL     OW23347   5.365   2.337   5.885
 7483SOL    HW123348   5.432   2.284   5.833
 7483SOL    HW223349   5.278   2.337   5.837
 7484SOL     OW23350   3.362   6.595   4.096
 7484SOL    HW123351   3.387   6.689   4.073
 7484SOL    HW223352   3.409   6.531   4.036
 7485SOL     OW23353   3.327   0.263   5.386
 7485SOL    HW123354   3.422   0.295   5.381
 7485SOL    HW223355   3.266   0.335   5.353
 7486SOL     OW23356   2.922   6.338   1.537
 7486SOL    HW123357   2.885   6.412   1.480
 7486SOL    HW223358   2.996   6.374   1.593
 7487SOL     OW23359   4.341   6.677   4.625
 7487SOL    HW123360   4.372   6.771   4.610
 7487SOL    HW223361   4.347   6.655   4.722
 7488SOL     OW23362   0.904   5.893   4.122
 7488SOL    HW123363   0.826   5.858   4.070
 7488SOL    HW223364   0.897   5.863   4.217
 7489SOL     OW23365   5.658   3.403   6.733
 7489SOL    HW123366   5.644   3.502   6.729
 7489SOL    HW223367   5.607   3.366   6.811
 7490SOL     OW23368   1.166   2.612   2.610
 7490SOL    HW123369   1.251   2.665   2.605
 7490SOL    HW223370   1.183   2.528   2.661
 7491SOL     OW23371   4.326   2.835   6.861
 7491SOL    HW123372   4.423   2.839   6.887
 7491SOL    HW223373   4.290   2.929   6.856
 7492SOL     OW23374   1.414   0.129   4.246
 7492SOL    HW123375   1.507   0.165   4.241
 7492SOL    HW223376   1.371   0.139   4.156
 7493SOL     OW23377   6.782   4.663   5.149
 7493SOL    HW123378   6.795   4.738   5.084
 7493SOL    HW223379   6.731   4.696   5.229
 7494SOL     OW23380   6.566   0.987   2.272
 7494SOL    HW123381   6.626   0.970   2.193
 7494SOL    HW223382   6.619   1.029   2.346
 7495SOL     OW23383   1.050   3.594   5.447
 7495SOL    HW123384   1.145   3.619   5.465
 7495SOL    HW223385   1.014   3.542   5.524
 7496SOL     OW23386   5.950   4.462   2.592
 7496SOL    HW123387   5.992   4.406   2.663
 7496SOL    HW223388   5.853   4.474   2.613
 7497SOL     OW23389   0.305   6.290   0.469
 7497SOL    HW123390   0.322   6.309   0.566
 7497SOL    HW223391   0.344   6.200   0.447
 7498SOL     OW23392   2.432   6.956   2.770
 7498SOL    HW123393   2.419   6.910   2.857
 7498SOL    HW223394   2.497   6.904   2.714
 7499SOL     OW23395   3.447   2.134   3.849
 7499SOL    HW123396   3.513   2.071   3.809
 7499SOL    HW223397   3.398   2.181   3.775
 7500SOL     OW23398   3.563   6.964   3.050
 7500SOL    HW123399   3.511   6.898   2.995
 7500SOL    HW223400   3.638   7.001   2.996
 7501SOL     OW23401   6.138   2.508   5.109
 7501SOL    HW123402   6.146   2.434   5.176
 7501SOL    HW223403   6.218   2.507   5.048
 7502SOL     OW23404   4.165   0.731   4.441
 7502SOL    HW123405   4.264   0.726   4.432
 7502SOL    HW223406   4.129   0.640   4.464
 7503SOL     OW23407   1.919   5.904   1.463
 7503SOL    HW123408   1.984   5.829   1.461
 7503SOL    HW223409   1.968   5.991   1.471
 7504SOL     OW23410   6.533   6.261   3.973
 7504SOL    HW123411   6.448   6.313   3.974
 7504SOL    HW223412   6.597   6.300   4.040
 7505SOL     OW23413   0.376   6.157   5.011
 7505SOL    HW123414   0.284   6.141   5.048
 7505SOL    HW223415   0.443   6.110   5.069
 7506SOL     OW23416   3.206   1.624   2.987
 7506SOL    HW123417   3.246   1.535   3.011
 7506SOL    HW223418   3.262   1.668   2.917
 7507SOL     OW23419   6.237   4.044   5.046
 7507SOL    HW123420   6.163   3.977   5.047
 7507SOL    HW223421   6.209   4.125   5.097
 7508SOL     OW23422   2.520   5.476   6.933
 7508SOL    HW123423   2.499   5.570   6.906
 7508SOL    HW223424   2.556   5.475   0.006
 7509SOL     OW23425   6.340   4.796   1.257
 7509SOL    HW123426   6.378   4.718   1.307
 7509SOL    HW223427   6.243   4.781   1.239
 7510SOL     OW23428   3.742   3.742   3.708
 7510SOL    HW123429   3.771   3.650   3.682
 7510SOL    HW223430   3.819   3.805   3.699
 7511SOL     OW23431   3.948   6.452   3.900
 7511SOL    HW123432   4.005   6.486   3.826
 7511SOL    HW223433   3.951   6.517   3.977
 7512SOL     OW23434   3.804   0.257   6.691
 7512SOL    HW123435   3.773   0.168   6.660
 7512SOL    HW223436   3.890   0.247   6.741
 7513SOL     OW23437   1.352   2.066   2.476
 7513SOL    HW123438   1.321   1.973   2.456
 7513SOL    HW223439   1.374   2.113   2.390
 7514SOL     OW23440   1.291   4.762   1.758
 7514SOL    HW123441   1.217   4.712   1.802
 7514SOL    HW223442   1.368   4.700   1.740
 7515SOL     OW23443   6.995   5.645   5.094
 7515SOL    HW123444   7.017   5.640   4.996
 7515SOL    HW223445   0.024   5.720   5.136
 7516SOL     OW23446   1.416   6.424   5.041
 7516SOL    HW123447   1.340   6.377   5.086
 7516SOL    HW223448   1.501   6.404   5.090
 7517SOL     OW23449   0.606   1.330   6.412
 7517SOL    HW123450   0.583   1.357   6.318
 7517SOL    HW223451   0.553   1.249   6.437
 7518SOL     OW23452   4.566   2.471   3.583
 7518SOL    HW123453   4.469   2.445   3.577
 7518SOL    HW223454   4.605   2.473   3.491
 7519SOL     OW23455   3.534   6.185   4.218
 7519SOL    HW123456   3.530   6.279   4.252
 7519SOL    HW223457   3.629   6.153   4.220
 7520SOL     OW23458   1.715   2.132   0.926
 7520SOL    HW123459   1.751   2.196   0.993
 7520SOL    HW223460   1.722   2.039   0.962
 7521SOL     OW23461   3.575   1.845   5.478
 7521SOL    HW123462   3.619   1.756   5.486
 7521SOL    HW223463   3.558   1.866   5.382
 7522SOL     OW23464   2.155   7.021   3.565
 7522SOL    HW123465   2.180   6.967   3.645
 7522SOL    HW223466   2.082   6.975   3.515
 7523SOL     OW23467   5.698   1.334   0.480
 7523SOL    HW123468   5.639   1.356   0.558
 7523SOL    HW223469   5.788   1.375   0.493
 7524SOL     OW23470   6.978   3.326   4.529
 7524SOL    HW123471   0.051   3.341   4.558
 7524SOL    HW223472   6.941   3.245   4.575
 7525SOL     OW23473   4.473   5.645   6.516
 7525SOL    HW123474   4.526   5.719   6.476
 7525SOL    HW223475   4.386   5.681   6.551
 7526SOL     OW23476   2.440   3.324   1.647
 7526SOL    HW123477   2.432   3.399   1.582
 7526SOL    HW223478   2.417   3.357   1.739
 7527SOL     OW23479   3.942   4.847   3.528
 7527SOL    HW123480   4.024   4.795   3.553
 7527SOL    HW223481   3.963   4.945   3.532
 7528SOL     OW23482   5.897   3.218   6.678
 7528SOL    HW123483   5.918   3.218   6.580
 7528SOL    HW223484   5.816   3.274   6.695
 7529SOL     OW23485   6.088   2.853   4.402
 7529SOL    HW123486   6.011   2.911   4.427
 7529SOL    HW223487   6.076   2.762   4.443
 7530SOL     OW23488   0.356   1.923   1.682
 7530SOL    HW123489   0.268   1.880   1.663
 7530SOL    HW223490   0.422   1.897   1.612
 7531SOL     OW23491   4.245   2.257   3.289
 7531SOL    HW123492   4.155   2.296   3.269
 7531SOL    HW223493   4.311   2.287   3.220
 7532SOL     OW23494   4.511   5.170   6.763
 7532SOL    HW123495   4.468   5.225   6.690
 7532SOL    HW223496   4.490   5.211   6.852
 7533SOL     OW23497   4.700   4.272   1.526
 7533SOL    HW123498   4.706   4.336   1.449
 7533SOL    HW223499   4.694   4.323   1.612
 7534SOL     OW23500   4.039   0.138   4.451
 7534SOL    HW123501   4.121   0.193   4.467
 7534SOL    HW223502   3.980   0.185   4.386
 7535SOL     OW23503   0.796   5.760   3.870
 7535SOL    HW123504   0.854   5.829   3.826
 7535SOL    HW223505   0.845   5.673   3.875
 7536SOL     OW23506   5.111   6.194   4.678
 7536SOL    HW123507   5.157   6.276   4.709
 7536SOL    HW223508   5.084   6.138   4.758
 7537SOL     OW23509   2.772   6.364   3.276
 7537SOL    HW123510   2.800   6.458   3.298
 7537SOL    HW223511   2.775   6.351   3.177
 7538SOL     OW23512   0.546   4.139   0.882
 7538SOL    HW123513   0.575   4.179   0.969
 7538SOL    HW223514   0.560   4.040   0.884
 7539SOL     OW23515   0.056   6.923   3.656
 7539SOL    HW123516   6.992   6.974   3.644
 7539SOL    HW223517   0.077   6.915   3.754
 7540SOL     OW23518   6.450   5.583   2.726
 7540SOL    HW123519   6.545   5.596   2.700
 7540SOL    HW223520   6.419   5.493   2.696
 7541SOL     OW23521   1.702   4.793   6.623
 7541SOL    HW123522   1.729   4.752   6.536
 7541SOL    HW223523   1.649   4.727   6.676
 7542SOL     OW23524   5.931   5.623   4.948
 7542SOL    HW123525   5.994   5.692   4.913
 7542SOL    HW223526   5.916   5.553   4.878
 7543SOL     OW23527   2.307   0.787   6.707
 7543SOL    HW123528   2.302   0.736   6.793
 7543SOL    HW223529   2.271   0.879   6.720
 7544SOL     OW23530   6.805   2.428   4.228
 7544SOL    HW123531   6.790   2.456   4.322
 7544SOL    HW223532   6.721   2.388   4.191
 7545SOL     OW23533   0.907   5.162   6.395
 7545SOL    HW123534   0.900   5.163   6.295
 7545SOL    HW223535   0.816   5.163   6.435
 7546SOL     OW23536   2.799   2.810   1.569
 7546SOL    HW123537   2.868   2.776   1.633
 7546SOL    HW223538   2.824   2.784   1.476
 7547SOL     OW23539   4.739   0.393   1.224
 7547SOL    HW123540   4.715   0.312   1.276
 7547SOL    HW223541   4.682   0.470   1.253
 7548SOL     OW23542   3.542   2.393   6.138
 7548SOL    HW123543   3.612   2.329   6.170
 7548SOL    HW223544   3.512   2.451   6.214
 7549SOL     OW23545   5.450   2.502   4.378
 7549SOL    HW123546   5.362   2.534   4.343
 7549SOL    HW223547   5.437   2.414   4.424
 7550SOL     OW23548   2.257   4.199   4.636
 7550SOL    HW123549   2.292   4.262   4.567
 7550SOL    HW223550   2.227   4.251   4.717
 7551SOL     OW23551   6.154   2.890   5.852
 7551SOL    HW123552   6.114   2.938   5.929
 7551SOL    HW223553   6.100   2.808   5.831
 7552SOL     OW23554   2.662   6.565   5.126
 7552SOL    HW123555   2.696   6.622   5.201
 7552SOL    HW223556   2.714   6.479   5.123
 7553SOL     OW23557   5.841   6.461   5.709
 7553SOL    HW123558   5.827   6.516   5.792
 7553SOL    HW223559   5.753   6.449   5.662
 7554SOL     OW23560   4.748   0.801   1.125
 7554SOL    HW123561   4.716   0.896   1.125
 7554SOL    HW223562   4.670   0.740   1.138
 7555SOL     OW23563   3.780   4.975   5.231
 7555SOL    HW123564   3.823   4.939   5.148
 7555SOL    HW223565   3.683   4.953   5.230
 7556SOL     OW23566   0.609   6.504   0.670
 7556SOL    HW123567   0.612   6.546   0.761
 7556SOL    HW223568   0.557   6.419   0.674
 7557SOL     OW23569   5.052   0.356   0.297
 7557SOL    HW123570   4.992   0.303   0.357
 7557SOL    HW223571   4.997   0.411   0.234
 7558SOL     OW23572   1.260   1.574   4.100
 7558SOL    HW123573   1.355   1.603   4.096
 7558SOL    HW223574   1.207   1.623   4.031
 7559SOL     OW23575   3.384   1.582   4.884
 7559SOL    HW123576   3.371   1.681   4.882
 7559SOL    HW223577   3.300   1.538   4.915
 7560SOL     OW23578   0.754   1.217   5.607
 7560SOL    HW123579   0.837   1.273   5.604
 7560SOL    HW223580   0.706   1.233   5.693
 7561SOL     OW23581   6.013   2.065   5.400
 7561SOL    HW123582   5.929   2.115   5.379
 7561SOL    HW223583   6.015   1.980   5.348
 7562SOL     OW23584   1.638   5.458   4.173
 7562SOL    HW123585   1.695   5.415   4.243
 7562SOL    HW223586   1.693   5.476   4.092
 7563SOL     OW23587   3.686   5.636   2.602
 7563SOL    HW123588   3.630   5.655   2.683
 7563SOL    HW223589   3.626   5.621   2.523
 7564SOL     OW23590   3.979   1.859   5.317
 7564SOL    HW123591   4.073   1.827   5.311
 7564SOL    HW223592   3.975   1.938   5.379
 7565SOL     OW23593   6.180   4.258   6.244
 7565SOL    HW123594   6.084   4.253   6.273
 7565SOL    HW223595   6.213   4.352   6.251
 7566SOL     OW23596   4.416   4.741   1.685
 7566SOL    HW123597   4.487   4.713   1.620
 7566SOL    HW223598   4.421   4.840   1.700
 7567SOL     OW23599   1.613   0.706   4.272
 7567SOL    HW123600   1.660   0.640   4.214
 7567SOL    HW223601   1.552   0.658   4.335
 7568SOL     OW23602   6.021   5.547   1.762
 7568SOL    HW123603   5.927   5.514   1.750
 7568SOL    HW223604   6.024   5.611   1.838
 7569SOL     OW23605   4.256   4.167   0.300
 7569SOL    HW123606   4.338   4.118   0.330
 7569SOL    HW223607   4.175   4.123   0.340
 7570SOL     OW23608   0.268   2.499   2.678
 7570SOL    HW123609   0.296   2.551   2.759
 7570SOL    HW223610   0.349   2.468   2.629
 7571SOL     OW23611   4.715   2.459   3.340
 7571SOL    HW123612   4.780   2.387   3.316
 7571SOL    HW223613   4.743   2.545   3.297
 7572SOL     OW23614   4.216   0.059   2.889
 7572SOL    HW123615   4.311   0.028   2.885
 7572SOL    HW223616   4.196   0.096   2.980
 7573SOL     OW23617   5.150   6.729   5.890
 7573SOL    HW123618   5.117   6.812   5.934
 7573SOL    HW223619   5.077   6.689   5.833
 7574SOL     OW23620   0.711   1.714   3.643
 7574SOL    HW123621   0.659   1.655   3.705
 7574SOL    HW223622   0.663   1.720   3.555
 7575SOL     OW23623   0.286   6.751   1.810
 7575SOL    HW123624   0.221   6.815   1.852
 7575SOL    HW223625   0.253   6.726   1.719
 7576SOL     OW23626   5.316   3.177   0.911
 7576SOL    HW123627   5.409   3.213   0.920
 7576SOL    HW223628   5.288   3.135   0.997
 7577SOL     OW23629   1.342   6.806   0.850
 7577SOL    HW123630   1.263   6.779   0.905
 7577SOL    HW223631   1.342   6.905   0.837
 7578SOL     OW23632   6.487   6.129   3.566
 7578SOL    HW123633   6.395   6.166   3.552
 7578SOL    HW223634   6.482   6.039   3.607
 7579SOL     OW23635   0.277   1.151   0.162
 7579SOL    HW123636   0.195   1.163   0.218
 7579SOL    HW223637   0.358   1.176   0.215
 7580SOL     OW23638   2.206   4.576   3.339
 7580SOL    HW123639   2.283   4.516   3.364
 7580SOL    HW223640   2.123   4.542   3.383
 7581SOL     OW23641   6.818   0.925   2.500
 7581SOL    HW123642   6.882   0.947   2.573
 7581SOL    HW223643   6.738   0.985   2.507
 7582SOL     OW23644   2.825   1.468   5.843
 7582SOL    HW123645   2.820   1.489   5.941
 7582SOL    HW223646   2.878   1.538   5.796
 7583SOL     OW23647   5.376   3.066   2.116
 7583SOL    HW123648   5.441   3.136   2.088
 7583SOL    HW223649   5.421   2.977   2.121
 7584SOL     OW23650   0.381   0.965   3.715
 7584SOL    HW123651   0.336   0.889   3.667
 7584SOL    HW223652   0.456   1.001   3.659
 7585SOL     OW23653   1.482   1.086   6.679
 7585SOL    HW123654   1.465   1.003   6.733
 7585SOL    HW223655   1.458   1.069   6.584
 7586SOL     OW23656   1.026   1.224   2.242
 7586SOL    HW123657   1.014   1.125   2.237
 7586SOL    HW223658   0.949   1.264   2.292
 7587SOL     OW23659   4.319   0.369   1.078
 7587SOL    HW123660   4.373   0.452   1.094
 7587SOL    HW223661   4.269   0.378   0.992
 7588SOL     OW23662   1.705   2.389   4.722
 7588SOL    HW123663   1.730   2.456   4.792
 7588SOL    HW223664   1.607   2.393   4.705
 7589SOL     OW23665   7.011   0.871   2.994
 7589SOL    HW123666   6.980   0.949   3.048
 7589SOL    HW223667   6.954   0.792   3.015
 7590SOL     OW23668   6.875   1.163   6.831
 7590SOL    HW123669   6.911   1.252   6.857
 7590SOL    HW223670   6.933   1.091   6.870
 7591SOL     OW23671   3.935   3.163   5.028
 7591SOL    HW123672   3.858   3.212   5.069
 7591SOL    HW223673   3.993   3.228   4.978
 7592SOL     OW23674   0.014   6.741   4.755
 7592SOL    HW123675   6.974   6.740   4.834
 7592SOL    HW223676   6.994   6.795   4.681
 7593SOL     OW23677   0.956   1.313   5.938
 7593SOL    HW123678   1.042   1.302   5.887
 7593SOL    HW223679   0.905   1.390   5.901
 7594SOL     OW23680   6.971   4.938   6.718
 7594SOL    HW123681   6.916   5.022   6.719
 7594SOL    HW223682   0.046   4.960   6.731
 7595SOL     OW23683   0.610   2.556   6.378
 7595SOL    HW123684   0.564   2.503   6.450
 7595SOL    HW223685   0.573   2.649   6.377
 7596SOL     OW23686   3.300   0.627   5.470
 7596SOL    HW123687   3.244   0.575   5.534
 7596SOL    HW223688   3.392   0.589   5.467
 7597SOL     OW23689   2.133   4.247   2.130
 7597SOL    HW123690   2.207   4.242   2.063
 7597SOL    HW223691   2.158   4.193   2.210
 7598SOL     OW23692   6.521   1.235   3.343
 7598SOL    HW123693   6.540   1.141   3.369
 7598SOL    HW223694   6.423   1.249   3.337
 7599SOL     OW23695   3.715   3.159   0.341
 7599SOL    HW123696   3.632   3.128   0.295
 7599SOL    HW223697   3.695   3.241   0.395
 7600SOL     OW23698   1.064   6.816   4.444
 7600SOL    HW123699   1.064   6.853   4.351
 7600SOL    HW223700   1.030   6.722   4.443
 7601SOL     OW23701   3.639   6.719   2.463
 7601SOL    HW123702   3.668   6.784   2.393
 7601SOL    HW223703   3.699   6.638   2.460
 7602SOL     OW23704   0.024   1.226   0.812
 7602SOL    HW123705   0.010   1.300   0.745
 7602SOL    HW223706   0.102   1.171   0.784
 7603SOL     OW23707   3.850   0.217   5.788
 7603SOL    HW123708   3.758   0.190   5.815
 7603SOL    HW223709   3.916   0.150   5.823
 7604SOL     OW23710   0.133   2.312   4.962
 7604SOL    HW123711   0.083   2.343   5.043
 7604SOL    HW223712   0.071   2.261   4.902
 7605SOL     OW23713   2.138   6.621   0.742
 7605SOL    HW123714   2.206   6.681   0.785
 7605SOL    HW223715   2.052   6.670   0.732
 7606SOL     OW23716   6.783   1.607   3.102
 7606SOL    HW123717   6.759   1.704   3.113
 7606SOL    HW223718   6.757   1.557   3.185
 7607SOL     OW23719   2.638   6.020   5.881
 7607SOL    HW123720   2.686   6.067   5.955
 7607SOL    HW223721   2.594   6.087   5.822
 7608SOL     OW23722   5.824   2.720   6.063
 7608SOL    HW123723   5.740   2.685   6.023
 7608SOL    HW223724   5.802   2.774   6.145
 7609SOL     OW23725   0.750   1.775   4.544
 7609SOL    HW123726   0.750   1.676   4.536
 7609SOL    HW223727   0.758   1.801   4.641
 7610SOL     OW23728   3.927   4.883   5.022
 7610SOL    HW123729   4.016   4.894   4.977
 7610SOL    HW223730   3.854   4.899   4.955
 7611SOL     OW23731   4.933   3.467   0.552
 7611SOL    HW123732   4.883   3.549   0.579
 7611SOL    HW223733   5.030   3.480   0.570
 7612SOL     OW23734   3.562   1.745   3.074
 7612SOL    HW123735   3.524   1.762   3.164
 7612SOL    HW223736   3.509   1.675   3.027
 7613SOL     OW23737   0.504   1.173   1.639
 7613SOL    HW123738   0.565   1.252   1.646
 7613SOL    HW223739   0.486   1.137   1.731
 7614SOL     OW23740   4.508   4.076   0.370
 7614SOL    HW123741   4.568   4.150   0.341
 7614SOL    HW223742   4.554   4.019   0.438
 7615SOL     OW23743   5.827   3.418   4.884
 7615SOL    HW123744   5.872   3.382   4.966
 7615SOL    HW223745   5.894   3.469   4.830
 7616SOL     OW23746   6.424   0.248   3.109
 7616SOL    HW123747   6.468   0.319   3.165
 7616SOL    HW223748   6.345   0.287   3.062
 7617SOL     OW23749   5.985   4.733   3.792
 7617SOL    HW123750   5.927   4.755   3.713
 7617SOL    HW223751   5.987   4.634   3.805
 7618SOL     OW23752   2.591   2.232   0.546
 7618SOL    HW123753   2.552   2.232   0.454
 7618SOL    HW223754   2.524   2.268   0.610
 7619SOL     OW23755   0.984   1.857   4.422
 7619SOL    HW123756   0.906   1.860   4.486
 7619SOL    HW223757   1.051   1.925   4.449
 7620SOL     OW23758   3.931   4.356   1.303
 7620SOL    HW123759   3.946   4.324   1.210
 7620SOL    HW223760   3.870   4.292   1.351
 7621SOL     OW23761   6.333   4.061   6.810
 7621SOL    HW123762   6.410   4.041   6.749
 7621SOL    HW223763   6.248   4.062   6.757
 7622SOL     OW23764   3.278   3.759   1.412
 7622SOL    HW123765   3.306   3.692   1.343
 7622SOL    HW223766   3.353   3.776   1.475
 7623SOL     OW23767   4.787   4.561   0.830
 7623SOL    HW123768   4.807   4.604   0.918
 7623SOL    HW223769   4.772   4.463   0.844
 7624SOL     OW23770   0.714   3.119   2.571
 7624SOL    HW123771   0.681   3.033   2.532
 7624SOL    HW223772   0.685   3.125   2.667
 7625SOL     OW23773   5.338   0.648   1.282
 7625SOL    HW123774   5.363   0.554   1.259
 7625SOL    HW223775   5.363   0.709   1.207
 7626SOL     OW23776   4.337   1.327   5.537
 7626SOL    HW123777   4.398   1.387   5.485
 7626SOL    HW223778   4.263   1.381   5.577
 7627SOL     OW23779   4.381   2.201   6.649
 7627SOL    HW123780   4.291   2.189   6.608
 7627SOL    HW223781   4.374   2.258   6.730
 7628SOL     OW23782   3.532   2.527   0.194
 7628SOL    HW123783   3.623   2.486   0.186
 7628SOL    HW223784   3.479   2.507   0.112
 7629SOL     OW23785   6.345   2.915   3.512
 7629SOL    HW123786   6.337   2.925   3.611
 7629SOL    HW223787   6.423   2.857   3.490
 7630SOL     OW23788   0.907   6.454   5.118
 7630SOL    HW123789   0.990   6.468   5.064
 7630SOL    HW223790   0.872   6.543   5.147
 7631SOL     OW23791   1.345   0.976   6.001
 7631SOL    HW123792   1.299   0.941   5.919
 7631SOL    HW223793   1.443   0.962   5.993
 7632SOL     OW23794   4.883   5.846   0.270
 7632SOL    HW123795   4.982   5.861   0.269
 7632SOL    HW223796   4.860   5.774   0.337
 7633SOL     OW23797   6.467   0.778   1.189
 7633SOL    HW123798   6.440   0.743   1.099
 7633SOL    HW223799   6.476   0.702   1.253
 7634SOL     OW23800   6.646   2.352   0.577
 7634SOL    HW123801   6.730   2.360   0.630
 7634SOL    HW223802   6.652   2.272   0.517
 7635SOL     OW23803   2.545   3.902   5.574
 7635SOL    HW123804   2.609   3.859   5.638
 7635SOL    HW223805   2.456   3.914   5.619
 7636SOL     OW23806   0.152   4.044   4.329
 7636SOL    HW123807   0.118   3.991   4.408
 7636SOL    HW223808   0.239   4.006   4.298
 7637SOL     OW23809   0.801   6.284   4.375
 7637SOL    HW123810   0.809   6.354   4.445
 7637SOL    HW223811   0.704   6.266   4.356
 7638SOL     OW23812   0.345   6.174   1.426
 7638SOL    HW123813   0.285   6.236   1.376
 7638SOL    HW223814   0.383   6.220   1.506
 7639SOL     OW23815   1.532   0.822   0.149
 7639SOL    HW123816   1.568   0.841   0.240
 7639SOL    HW223817   1.483   0.735   0.151
 7640SOL     OW23818   3.125   0.966   0.381
 7640SOL    HW123819   3.152   0.925   0.469
 7640SOL    HW223820   3.084   0.896   0.323
 7641SOL     OW23821   0.537   4.475   3.580
 7641SOL    HW123822   0.471   4.408   3.545
 7641SOL    HW223823   0.545   4.551   3.515
 7642SOL     OW23824   6.063   1.113   3.318
 7642SOL    HW123825   6.073   1.155   3.408
 7642SOL    HW223826   5.978   1.144   3.275
 7643SOL     OW23827   5.290   3.686   2.975
 7643SOL    HW123828   5.298   3.722   3.068
 7643SOL    HW223829   5.277   3.587   2.979
 7644SOL     OW23830   5.566   3.852   1.084
 7644SOL    HW123831   5.645   3.836   1.144
 7644SOL    HW223832   5.484   3.864   1.140
 7645SOL     OW23833   3.444   4.670   6.135
 7645SOL    HW123834   3.472   4.603   6.204
 7645SOL    HW223835   3.349   4.696   6.150
 7646SOL     OW23836   6.560   2.231   1.428
 7646SOL    HW123837   6.592   2.228   1.333
 7646SOL    HW223838   6.475   2.178   1.436
 7647SOL     OW23839   6.603   2.526   5.152
 7647SOL    HW123840   6.578   2.600   5.215
 7647SOL    HW223841   6.663   2.562   5.081
 7648SOL     OW23842   2.955   1.502   1.658
 7648SOL    HW123843   3.042   1.490   1.705
 7648SOL    HW223844   2.959   1.460   1.567
 7649SOL     OW23845   4.152   1.500   5.632
 7649SOL    HW123846   4.130   1.500   5.729
 7649SOL    HW223847   4.167   1.593   5.600
 7650SOL     OW23848   3.818   2.244   0.567
 7650SOL    HW123849   3.818   2.210   0.473
 7650SOL    HW223850   3.873   2.327   0.572
 7651SOL     OW23851   3.188   4.843   5.870
 7651SOL    HW123852   3.269   4.800   5.831
 7651SOL    HW223853   3.118   4.854   5.799
 7652SOL     OW23854   0.634   0.963   4.199
 7652SOL    HW123855   0.582   0.995   4.121
 7652SOL    HW223856   0.604   0.871   4.225
 7653SOL     OW23857   1.274   1.434   6.288
 7653SOL    HW123858   1.194   1.394   6.333
 7653SOL    HW223859   1.317   1.365   6.230
 7654SOL     OW23860   5.798   2.151   6.361
 7654SOL    HW123861   5.708   2.141   6.404
 7654SOL    HW223862   5.786   2.166   6.263
 7655SOL     OW23863   2.950   1.430   2.964
 7655SOL    HW123864   2.894   1.461   3.040
 7655SOL    HW223865   2.891   1.385   2.896
 7656SOL     OW23866   7.004   3.066   6.425
 7656SOL    HW123867   0.071   3.109   6.404
 7656SOL    HW223868   7.020   2.981   6.476
 7657SOL     OW23869   1.074   4.272   4.542
 7657SOL    HW123870   0.983   4.294   4.577
 7657SOL    HW223871   1.143   4.323   4.594
 7658SOL     OW23872   2.528   1.088   0.998
 7658SOL    HW123873   2.569   1.147   1.068
 7658SOL    HW223874   2.589   1.082   0.919
 7659SOL     OW23875   4.795   3.696   5.617
 7659SOL    HW123876   4.757   3.634   5.685
 7659SOL    HW223877   4.735   3.699   5.537
 7660SOL     OW23878   7.011   5.592   4.829
 7660SOL    HW123879   0.022   5.534   4.754
 7660SOL    HW223880   6.989   5.683   4.794
 7661SOL     OW23881   4.556   2.194   5.613
 7661SOL    HW123882   4.641   2.161   5.572
 7661SOL    HW223883   4.478   2.161   5.561
 7662SOL     OW23884   6.164   0.280   1.046
 7662SOL    HW123885   6.173   0.368   1.001
 7662SOL    HW223886   6.255   0.240   1.061
 7663SOL     OW23887   0.212   5.901   5.541
 7663SOL    HW123888   0.222   5.871   5.636
 7663SOL    HW223889   0.293   5.955   5.514
 7664SOL     OW23890   4.000   2.015   2.087
 7664SOL    HW123891   3.915   2.067   2.077
 7664SOL    HW223892   4.071   2.058   2.031
 7665SOL     OW23893   4.612   0.928   5.538
 7665SOL    HW123894   4.551   0.968   5.606
 7665SOL    HW223895   4.559   0.868   5.478
 7666SOL     OW23896   5.588   4.476   3.556
 7666SOL    HW123897   5.537   4.529   3.488
 7666SOL    HW223898   5.547   4.386   3.566
 7667SOL     OW23899   4.255   5.949   1.624
 7667SOL    HW123900   4.223   6.036   1.585
 7667SOL    HW223901   4.181   5.907   1.676
 7668SOL     OW23902   1.968   5.802   0.217
 7668SOL    HW123903   1.921   5.865   0.279
 7668SOL    HW223904   2.005   5.725   0.269
 7669SOL     OW23905   2.200   1.275   5.653
 7669SOL    HW123906   2.116   1.319   5.684
 7669SOL    HW223907   2.266   1.345   5.625
 7670SOL     OW23908   0.858   6.646   0.401
 7670SOL    HW123909   0.922   6.593   0.346
 7670SOL    HW223910   0.906   6.685   0.480
 7671SOL     OW23911   3.534   7.006   1.089
 7671SOL    HW123912   3.604   6.949   1.048
 7671SOL    HW223913   3.516   6.975   1.182
 7672SOL     OW23914   4.601   5.210   2.958
 7672SOL    HW123915   4.651   5.259   2.887
 7672SOL    HW223916   4.622   5.113   2.952
 7673SOL     OW23917   1.819   6.381   4.425
 7673SOL    HW123918   1.792   6.468   4.385
 7673SOL    HW223919   1.741   6.340   4.472
 7674SOL     OW23920   4.586   6.264   4.513
 7674SOL    HW123921   4.677   6.276   4.552
 7674SOL    HW223922   4.544   6.354   4.498
 7675SOL     OW23923   5.017   6.362   3.663
 7675SOL    HW123924   5.025   6.304   3.745
 7675SOL    HW223925   5.043   6.455   3.686
 7676SOL     OW23926   3.362   2.920   5.832
 7676SOL    HW123927   3.265   2.936   5.846
 7676SOL    HW223928   3.382   2.822   5.842
 7677SOL     OW23929   6.018   4.670   0.337
 7677SOL    HW123930   5.970   4.757   0.324
 7677SOL    HW223931   6.089   4.660   0.267
 7678SOL     OW23932   1.726   0.638   4.712
 7678SOL    HW123933   1.637   0.593   4.707
 7678SOL    HW223934   1.713   0.737   4.717
 7679SOL     OW23935   3.159   5.668   5.677
 7679SOL    HW123936   3.192   5.762   5.669
 7679SOL    HW223937   3.138   5.632   5.586
 7680SOL     OW23938   2.106   6.936   4.985
 7680SOL    HW123939   2.050   7.017   5.006
 7680SOL    HW223940   2.199   6.965   4.965
 7681SOL     OW23941   2.737   3.555   6.671
 7681SOL    HW123942   2.788   3.476   6.705
 7681SOL    HW223943   2.666   3.525   6.607
 7682SOL     OW23944   2.740   1.465   2.581
 7682SOL    HW123945   2.663   1.465   2.518
 7682SOL    HW223946   2.814   1.522   2.544
 7683SOL     OW23947   0.592   5.832   4.271
 7683SOL    HW123948   0.683   5.805   4.304
 7683SOL    HW223949   0.602   5.906   4.204
 7684SOL     OW23950   3.910   2.960   1.222
 7684SOL    HW123951   3.941   3.054   1.211
 7684SOL    HW223952   3.954   2.918   1.301
 7685SOL     OW23953   2.726   0.639   0.096
 7685SOL    HW123954   2.730   0.731   0.054
 7685SOL    HW223955   2.662   0.583   0.044
 7686SOL     OW23956   6.152   0.035   4.489
 7686SOL    HW123957   6.087   6.980   4.485
 7686SOL    HW223958   6.152   0.074   4.581
 7687SOL     OW23959   5.977   4.630   5.319
 7687SOL    HW123960   5.888   4.659   5.355
 7687SOL    HW223961   5.968   4.543   5.272
 7688SOL     OW23962   0.115   4.258   6.277
 7688SOL    HW123963   0.117   4.171   6.327
 7688SOL    HW223964   0.091   4.332   6.341
 7689SOL     OW23965   4.802   0.248   1.680
 7689SOL    HW123966   4.841   0.334   1.715
 7689SOL    HW223967   4.703   0.249   1.694
 7690SOL     OW23968   5.835   5.484   1.358
 7690SOL    HW123969   5.767   5.443   1.419
 7690SOL    HW223970   5.904   5.532   1.412
 7691SOL     OW23971   4.764   4.469   3.273
 7691SOL    HW123972   4.766   4.376   3.236
 7691SOL    HW223973   4.707   4.472   3.355
 7692SOL     OW23974   2.238   0.064   2.644
 7692SOL    HW123975   2.320   0.023   2.684
 7692SOL    HW223976   2.248   0.164   2.643
 7693SOL     OW23977   2.161   1.428   1.065
 7693SOL    HW123978   2.139   1.387   0.977
 7693SOL    HW223979   2.076   1.447   1.115
 7694SOL     OW23980   5.198   1.750   5.644
 7694SOL    HW123981   5.279   1.697   5.669
 7694SOL    HW223982   5.128   1.741   5.715
 7695SOL     OW23983   4.697   0.250   3.757
 7695SOL    HW123984   4.790   0.284   3.770
 7695SOL    HW223985   4.631   0.322   3.778
 7696SOL     OW23986   1.683   3.031   5.892
 7696SOL    HW123987   1.745   3.108   5.910
 7696SOL    HW223988   1.592   3.066   5.871
 7697SOL     OW23989   4.717   0.206   3.062
 7697SOL    HW123990   4.639   0.266   3.047
 7697SOL    HW223991   4.800   0.251   3.030
 7698SOL     OW23992   6.193   2.947   0.401
 7698SOL    HW123993   6.134   2.884   0.351
 7698SOL    HW223994   6.143   2.987   0.477
 7699SOL     OW23995   4.472   5.880   6.155
 7699SOL    HW123996   4.527   5.800   6.178
 7699SOL    HW223997   4.465   5.941   6.234
 7700SOL     OW23998   5.499   6.291   2.754
 7700SOL    HW123999   5.426   6.293   2.822
 7700SOL    HW224000   5.567   6.361   2.776
 7701SOL     OW24001   1.308   2.516   6.454
 7701SOL    HW124002   1.260   2.602   6.438
 7701SOL    HW224003   1.382   2.507   6.387
 7702SOL     OW24004   4.525   6.916   4.559
 7702SOL    HW124005   4.554   6.974   4.482
 7702SOL    HW224006   4.564   6.952   4.644
 7703SOL     OW24007   6.396   0.201   4.904
 7703SOL    HW124008   6.300   0.224   4.890
 7703SOL    HW224009   6.404   0.134   4.977
 7704SOL     OW24010   0.330   1.491   4.962
 7704SOL    HW124011   0.299   1.486   5.057
 7704SOL    HW224012   0.345   1.587   4.936
 7705SOL     OW24013   1.037   5.526   6.664
 7705SOL    HW124014   1.076   5.458   6.602
 7705SOL    HW224015   1.060   5.618   6.631
 7706SOL     OW24016   3.115   2.968   2.178
 7706SOL    HW124017   3.132   2.960   2.080
 7706SOL    HW224018   3.064   2.889   2.209
 7707SOL     OW24019   6.873   4.234   6.512
 7707SOL    HW124020   6.916   4.324   6.503
 7707SOL    HW224021   6.882   4.184   6.426
 7708SOL     OW24022   2.527   0.337   4.611
 7708SOL    HW124023   2.620   0.312   4.638
 7708SOL    HW224024   2.488   0.264   4.554
 7709SOL     OW24025   6.892   4.616   1.391
 7709SOL    HW124026   6.854   4.707   1.375
 7709SOL    HW224027   6.951   4.619   1.472
 7710SOL     OW24028   0.129   3.165   1.165
 7710SOL    HW124029   0.180   3.250   1.180
 7710SOL    HW224030   0.143   3.104   1.243
 7711SOL     OW24031   0.264   4.767   4.908
 7711SOL    HW124032   0.302   4.716   4.985
 7711SOL    HW224033   0.288   4.721   4.823
 7712SOL     OW24034   0.165   4.980   5.717
 7712SOL    HW124035   0.091   5.033   5.677
 7712SOL    HW224036   0.249   5.034   5.716
 7713SOL     OW24037   1.699   4.625   6.881
 7713SOL    HW124038   1.603   4.653   6.889
 7713SOL    HW224039   1.751   4.663   6.957
 7714SOL     OW24040   6.255   1.293   4.994
 7714SOL    HW124041   6.242   1.274   4.896
 7714SOL    HW224042   6.298   1.214   5.038
 7715SOL     OW24043   3.420   3.062   5.319
 7715SOL    HW124044   3.380   2.995   5.381
 7715SOL    HW224045   3.518   3.045   5.311
 7716SOL     OW24046   1.233   6.505   5.915
 7716SOL    HW124047   1.219   6.476   6.010
 7716SOL    HW224048   1.155   6.475   5.859
 7717SOL     OW24049   6.928   1.718   6.624
 7717SOL    HW124050   6.950   1.802   6.674
 7717SOL    HW224051   6.862   1.664   6.675
 7718SOL     OW24052   1.194   3.618   3.122
 7718SOL    HW124053   1.239   3.705   3.145
 7718SOL    HW224054   1.114   3.605   3.180
 7719SOL     OW24055   2.083   4.707   4.963
 7719SOL    HW124056   2.173   4.749   4.978
 7719SOL    HW224057   2.080   4.617   5.006
 7720SOL     OW24058   4.625   1.078   6.899
 7720SOL    HW124059   4.678   1.145   6.950
 7720SOL    HW224060   4.659   1.072   6.805
 7721SOL     OW24061   0.155   0.812   2.553
 7721SOL    HW124062   0.255   0.804   2.551
 7721SOL    HW224063   0.127   0.893   2.503
 7722SOL     OW24064   0.926   6.384   3.770
 7722SOL    HW124065   0.846   6.349   3.723
 7722SOL    HW224066   1.008   6.364   3.717
 7723SOL     OW24067   4.687   4.250   0.252
 7723SOL    HW124068   4.700   4.194   0.170
 7723SOL    HW224069   4.772   4.254   0.304
 7724SOL     OW24070   2.046   3.819   1.487
 7724SOL    HW124071   1.949   3.804   1.468
 7724SOL    HW224072   2.078   3.752   1.554
 7725SOL     OW24073   5.486   2.911   3.019
 7725SOL    HW124074   5.479   2.833   3.081
 7725SOL    HW224075   5.516   2.880   2.929
 7726SOL     OW24076   0.893   3.293   5.940
 7726SOL    HW124077   0.979   3.320   5.983
 7726SOL    HW224078   0.858   3.209   5.982
 7727SOL     OW24079   4.361   0.880   2.244
 7727SOL    HW124080   4.380   0.871   2.146
 7727SOL    HW224081   4.405   0.962   2.279
 7728SOL     OW24082   1.868   3.152   4.666
 7728SOL    HW124083   1.830   3.070   4.709
 7728SOL    HW224084   1.966   3.139   4.649
 7729SOL     OW24085   0.019   1.993   3.737
 7729SOL    HW124086   0.014   1.893   3.725
 7729SOL    HW224087   6.988   2.019   3.818
 7730SOL     OW24088   6.396   4.332   4.705
 7730SOL    HW124089   6.342   4.252   4.730
 7730SOL    HW224090   6.472   4.303   4.647
 7731SOL     OW24091   7.001   6.420   6.578
 7731SOL    HW124092   0.017   6.366   6.653
 7731SOL    HW224093   6.908   6.391   6.558
 7732SOL     OW24094   4.020   6.639   6.568
 7732SOL    HW124095   3.995   6.543   6.585
 7732SOL    HW224096   4.066   6.676   6.648
 7733SOL     OW24097   6.362   5.637   1.628
 7733SOL    HW124098   6.444   5.592   1.665
 7733SOL    HW224099   6.388   5.689   1.547
 7734SOL     OW24100   3.596   3.445   4.945
 7734SOL    HW124101   3.647   3.436   5.031
 7734SOL    HW224102   3.620   3.370   4.884
 7735SOL     OW24103   6.801   5.949   0.633
 7735SOL    HW124104   6.877   5.914   0.688
 7735SOL    HW224105   6.726   5.882   0.633
 7736SOL     OW24106   2.040   2.829   0.014
 7736SOL    HW124107   1.981   2.806   6.957
 7736SOL    HW224108   2.076   2.744   0.053
 7737SOL     OW24109   4.290   5.197   1.124
 7737SOL    HW124110   4.364   5.164   1.182
 7737SOL    HW224111   4.297   5.156   1.033
 7738SOL     OW24112   2.128   0.518   5.382
 7738SOL    HW124113   2.157   0.580   5.309
 7738SOL    HW224114   2.041   0.476   5.357
 7739SOL     OW24115   1.807   2.070   0.678
 7739SOL    HW124116   1.899   2.036   0.694
 7739SOL    HW224117   1.769   2.104   0.764
 7740SOL     OW24118   1.850   0.440   4.964
 7740SOL    HW124119   1.813   0.496   4.890
 7740SOL    HW224120   1.912   0.496   5.020
 7741SOL     OW24121   1.582   4.441   6.562
 7741SOL    HW124122   1.674   4.462   6.530
 7741SOL    HW224123   1.584   4.363   6.623
 7742SOL     OW24124   4.295   1.989   4.431
 7742SOL    HW124125   4.218   1.934   4.400
 7742SOL    HW224126   4.381   1.947   4.401
 7743SOL     OW24127   5.197   1.814   5.960
 7743SOL    HW124128   5.136   1.893   5.968
 7743SOL    HW224129   5.290   1.845   5.945
 7744SOL     OW24130   0.527   6.081   4.691
 7744SOL    HW124131   0.509   6.164   4.744
 7744SOL    HW224132   0.581   6.017   4.745
 7745SOL     OW24133   2.591   6.918   0.652
 7745SOL    HW124134   2.623   6.859   0.578
 7745SOL    HW224135   2.651   6.998   0.661
 7746SOL     OW24136   1.056   5.930   0.742
 7746SOL    HW124137   1.032   5.874   0.821
 7746SOL    HW224138   1.005   5.898   0.662
 7747SOL     OW24139   0.948   6.146   0.196
 7747SOL    HW124140   0.920   6.078   0.129
 7747SOL    HW224141   0.867   6.191   0.233
 7748SOL     OW24142   4.627   2.020   6.159
 7748SOL    HW124143   4.686   2.077   6.102
 7748SOL    HW224144   4.634   1.925   6.129
 7749SOL     OW24145   3.816   4.008   4.640
 7749SOL    HW124146   3.750   4.079   4.661
 7749SOL    HW224147   3.814   3.938   4.711
 7750SOL     OW24148   5.684   4.244   5.128
 7750SOL    HW124149   5.754   4.173   5.122
 7750SOL    HW224150   5.657   4.272   5.036
 7751SOL     OW24151   6.822   1.120   5.045
 7751SOL    HW124152   6.839   1.033   4.999
 7751SOL    HW224153   6.903   1.146   5.098
 7752SOL     OW24154   6.147   5.710   5.192
 7752SOL    HW124155   6.139   5.770   5.271
 7752SOL    HW224156   6.224   5.740   5.135
 7753SOL     OW24157   2.573   1.329   4.738
 7753SOL    HW124158   2.549   1.397   4.807
 7753SOL    HW224159   2.535   1.356   4.650
 7754SOL     OW24160   6.485   0.620   1.694
 7754SOL    HW124161   6.459   0.635   1.598
 7754SOL    HW224162   6.418   0.559   1.737
 7755SOL     OW24163   1.177   5.743   5.414
 7755SOL    HW124164   1.272   5.773   5.408
 7755SOL    HW224165   1.162   5.697   5.502
 7756SOL     OW24166   3.693   5.687   2.235
 7756SOL    HW124167   3.690   5.714   2.138
 7756SOL    HW224168   3.755   5.610   2.246
 7757SOL     OW24169   4.916   6.371   5.902
 7757SOL    HW124170   4.886   6.288   5.855
 7757SOL    HW224171   4.977   6.422   5.842
 7758SOL     OW24172   2.315   2.062   5.268
 7758SOL    HW124173   2.398   2.095   5.313
 7758SOL    HW224174   2.266   2.139   5.228
 7759SOL     OW24175   1.813   0.765   5.412
 7759SOL    HW124176   1.824   0.796   5.318
 7759SOL    HW224177   1.855   0.832   5.474
 7760SOL     OW24178   4.577   2.559   2.352
 7760SOL    HW124179   4.546   2.537   2.445
 7760SOL    HW224180   4.508   2.529   2.287
 7761SOL     OW24181   3.694   0.015   6.599
 7761SOL    HW124182   3.600   0.002   6.568
 7761SOL    HW224183   3.728   6.951   6.640
 7762SOL     OW24184   3.146   1.590   0.377
 7762SOL    HW124185   3.192   1.662   0.429
 7762SOL    HW224186   3.070   1.553   0.431
 7763SOL     OW24187   1.811   1.866   0.986
 7763SOL    HW124188   1.816   1.880   1.084
 7763SOL    HW224189   1.892   1.906   0.942
 7764SOL     OW24190   3.088   3.004   2.633
 7764SOL    HW124191   2.991   2.999   2.607
 7764SOL    HW224192   3.107   3.093   2.673
 7765SOL     OW24193   6.829   2.472   2.436
 7765SOL    HW124194   6.910   2.526   2.461
 7765SOL    HW224195   6.826   2.460   2.337
 7766SOL     OW24196   6.906   2.871   7.004
 7766SOL    HW124197   6.842   2.825   0.045
 7766SOL    HW224198   6.977   2.806   6.977
 7767SOL     OW24199   5.173   4.897   5.154
 7767SOL    HW124200   5.226   4.977   5.127
 7767SOL    HW224201   5.223   4.814   5.128
 7768SOL     OW24202   3.559   5.249   2.527
 7768SOL    HW124203   3.484   5.238   2.593
 7768SOL    HW224204   3.620   5.321   2.559
 7769SOL     OW24205   5.954   1.614   1.670
 7769SOL    HW124206   5.912   1.554   1.738
 7769SOL    HW224207   5.977   1.702   1.713
 7770SOL     OW24208   3.654   5.213   1.217
 7770SOL    HW124209   3.753   5.217   1.215
 7770SOL    HW224210   3.618   5.305   1.237
 7771SOL     OW24211   2.446   1.373   5.373
 7771SOL    HW124212   2.422   1.297   5.312
 7771SOL    HW224213   2.465   1.454   5.318
 7772SOL     OW24214   5.292   1.501   4.514
 7772SOL    HW124215   5.342   1.499   4.601
 7772SOL    HW224216   5.287   1.596   4.481
 7773SOL     OW24217   4.053   4.545   5.611
 7773SOL    HW124218   4.075   4.518   5.517
 7773SOL    HW224219   3.964   4.506   5.637
 7774SOL     OW24220   4.684   1.652   6.364
 7774SOL    HW124221   4.684   1.630   6.462
 7774SOL    HW224222   4.759   1.715   6.344
 7775SOL     OW24223   2.706   6.743   2.695
 7775SOL    HW124224   2.793   6.696   2.680
 7775SOL    HW224225   2.693   6.812   2.624
 7776SOL     OW24226   3.735   3.625   6.700
 7776SOL    HW124227   3.686   3.666   6.777
 7776SOL    HW224228   3.753   3.529   6.720
 7777SOL     OW24229   1.947   1.244   6.759
 7777SOL    HW124230   1.858   1.219   6.797
 7777SOL    HW224231   1.967   1.185   6.681
 7778SOL     OW24232   5.691   0.771   0.146
 7778SOL    HW124233   5.763   0.728   0.092
 7778SOL    HW224234   5.701   0.870   0.143
 7779SOL     OW24235   3.923   3.334   6.503
 7779SOL    HW124236   3.824   3.327   6.503
 7779SOL    HW224237   3.955   3.367   6.415
 7780SOL     OW24238   1.225   6.951   4.609
 7780SOL    HW124239   1.261   6.887   4.677
 7780SOL    HW224240   1.153   6.907   4.556
 7781SOL     OW24241   1.450   4.793   4.750
 7781SOL    HW124242   1.506   4.795   4.833
 7781SOL    HW224243   1.392   4.875   4.747
 7782SOL     OW24244   3.243   4.415   6.606
 7782SOL    HW124245   3.152   4.416   6.565
 7782SOL    HW224246   3.290   4.331   6.581
 7783SOL     OW24247   3.121   5.168   6.235
 7783SOL    HW124248   3.154   5.257   6.267
 7783SOL    HW224249   3.133   5.161   6.136
 7784SOL     OW24250   0.673   2.480   6.936
 7784SOL    HW124251   0.687   2.413   7.009
 7784SOL    HW224252   0.761   2.518   6.909
 7785SOL     OW24253   2.662   5.807   4.376
 7785SOL    HW124254   2.585   5.871   4.387
 7785SOL    HW224255   2.650   5.756   4.291
 7786SOL     OW24256   3.195   4.039   5.043
 7786SOL    HW124257   3.101   4.014   5.020
 7786SOL    HW224258   3.253   4.029   4.962
 7787SOL     OW24259   2.649   2.568   5.202
 7787SOL    HW124260   2.617   2.654   5.242
 7787SOL    HW224261   2.732   2.538   5.249
 7788SOL     OW24262   1.034   1.397   0.149
 7788SOL    HW124263   1.089   1.449   0.084
 7788SOL    HW224264   0.943   1.381   0.111
 7789SOL     OW24265   2.671   0.606   1.171
 7789SOL    HW124266   2.688   0.628   1.075
 7789SOL    HW224267   2.588   0.551   1.178
 7790SOL     OW24268   5.656   3.310   2.426
 7790SOL    HW124269   5.677   3.396   2.474
 7790SOL    HW224270   5.558   3.295   2.425
 7791SOL     OW24271   1.797   5.023   5.164
 7791SOL    HW124272   1.869   5.039   5.096
 7791SOL    HW224273   1.813   5.081   5.244
 7792SOL     OW24274   2.593   5.355   6.213
 7792SOL    HW124275   2.645   5.426   6.261
 7792SOL    HW224276   2.601   5.268   6.262
 7793SOL     OW24277   1.080   1.051   6.222
 7793SOL    HW124278   1.100   1.040   6.320
 7793SOL    HW224279   1.145   1.115   6.182
 7794SOL     OW24280   5.223   5.772   3.721
 7794SOL    HW124281   5.249   5.759   3.817
 7794SOL    HW224282   5.306   5.786   3.666
 7795SOL     OW24283   2.552   4.545   5.784
 7795SOL    HW124284   2.540   4.641   5.809
 7795SOL    HW224285   2.469   4.511   5.741
 7796SOL     OW24286   4.089   3.656   3.617
 7796SOL    HW124287   4.152   3.588   3.580
 7796SOL    HW224288   4.086   3.647   3.717
 7797SOL     OW24289   0.785   0.402   2.582
 7797SOL    HW124290   0.811   0.467   2.654
 7797SOL    HW224291   0.863   0.343   2.561
 7798SOL     OW24292   4.006   5.482   0.013
 7798SOL    HW124293   4.051   5.557   0.062
 7798SOL    HW224294   4.028   5.395   0.058
 7799SOL     OW24295   0.445   5.197   1.552
 7799SOL    HW124296   0.536   5.175   1.585
 7799SOL    HW224297   0.384   5.119   1.566
 7800SOL     OW24298   0.759   5.758   2.142
 7800SOL    HW124299   0.802   5.825   2.082
 7800SOL    HW224300   0.660   5.760   2.130
 7801SOL     OW24301   3.694   1.910   6.216
 7801SOL    HW124302   3.695   1.917   6.315
 7801SOL    HW224303   3.677   1.815   6.190
 7802SOL     OW24304   5.561   2.064   1.748
 7802SOL    HW124305   5.651   2.106   1.742
 7802SOL    HW224306   5.500   2.106   1.681
 7803SOL     OW24307   4.238   4.239   5.528
 7803SOL    HW124308   4.166   4.308   5.534
 7803SOL    HW224309   4.284   4.246   5.439
 7804SOL     OW24310   4.661   1.910   6.462
 7804SOL    HW124311   4.585   1.973   6.449
 7804SOL    HW224312   4.723   1.914   6.384
 7805SOL     OW24313   4.852   3.685   1.899
 7805SOL    HW124314   4.818   3.774   1.930
 7805SOL    HW224315   4.896   3.695   1.810
 7806SOL     OW24316   5.325   2.677   6.698
 7806SOL    HW124317   5.234   2.718   6.703
 7806SOL    HW224318   5.325   2.602   6.632
 7807SOL     OW24319   0.351   4.249   6.544
 7807SOL    HW124320   0.451   4.254   6.532
 7807SOL    HW224321   0.317   4.164   6.504
 7808SOL     OW24322   0.733   1.378   5.006
 7808SOL    HW124323   0.697   1.316   5.075
 7808SOL    HW224324   0.661   1.442   4.977
 7809SOL     OW24325   2.291   5.304   4.799
 7809SOL    HW124326   2.283   5.254   4.713
 7809SOL    HW224327   2.207   5.295   4.852
 7810SOL     OW24328   2.909   0.872   6.808
 7810SOL    HW124329   2.832   0.808   6.803
 7810SOL    HW224330   2.892   0.939   6.880
 7811SOL     OW24331   6.666   4.228   4.023
 7811SOL    HW124332   6.569   4.243   4.044
 7811SOL    HW224333   6.676   4.147   3.966
 7812SOL     OW24334   1.344   1.739   3.224
 7812SOL    HW124335   1.399   1.795   3.286
 7812SOL    HW224336   1.252   1.776   3.218
 7813SOL     OW24337   6.221   3.268   0.882
 7813SOL    HW124338   6.234   3.255   0.784
 7813SOL    HW224339   6.200   3.180   0.924
 7814SOL     OW24340   0.623   3.742   3.337
 7814SOL    HW124341   0.630   3.647   3.309
 7814SOL    HW224342   0.528   3.773   3.328
 7815SOL     OW24343   6.571   1.595   6.109
 7815SOL    HW124344   6.548   1.683   6.150
 7815SOL    HW224345   6.659   1.564   6.143
 7816SOL     OW24346   1.107   4.033   4.896
 7816SOL    HW124347   1.122   3.941   4.932
 7816SOL    HW224348   1.192   4.085   4.903
 7817SOL     OW24349   5.524   3.801   4.551
 7817SOL    HW124350   5.575   3.811   4.465
 7817SOL    HW224351   5.558   3.722   4.602
 7818SOL     OW24352   5.257   5.686   2.078
 7818SOL    HW124353   5.319   5.613   2.107
 7818SOL    HW224354   5.213   5.725   2.159
 7819SOL     OW24355   6.628   1.464   1.603
 7819SOL    HW124356   6.669   1.374   1.615
 7819SOL    HW224357   6.653   1.524   1.679
 7820SOL     OW24358   1.935   0.519   6.449
 7820SOL    HW124359   1.985   0.436   6.471
 7820SOL    HW224360   1.918   0.571   6.533
 7821SOL     OW24361   3.239   5.354   1.974
 7821SOL    HW124362   3.259   5.288   2.046
 7821SOL    HW224363   3.167   5.318   1.915
 7822SOL     OW24364   1.463   5.877   4.872
 7822SOL    HW124365   1.462   5.858   4.971
 7822SOL    HW224366   1.401   5.813   4.826
 7823SOL     OW24367   1.664   4.807   4.932
 7823SOL    HW124368   1.675   4.807   5.032
 7823SOL    HW224369   1.754   4.805   4.889
 7824SOL     OW24370   0.285   2.723   5.699
 7824SOL    HW124371   0.277   2.636   5.650
 7824SOL    HW224372   0.344   2.785   5.648
 7825SOL     OW24373   2.966   1.213   6.706
 7825SOL    HW124374   3.045   1.234   6.648
 7825SOL    HW224375   2.926   1.126   6.678
 7826SOL     OW24376   0.655   2.952   6.279
 7826SOL    HW124377   0.599   2.994   6.351
 7826SOL    HW224378   0.684   3.023   6.215
 7827SOL     OW24379   6.554   5.665   4.594
 7827SOL    HW124380   6.590   5.736   4.655
 7827SOL    HW224381   6.598   5.673   4.504
 7828SOL     OW24382   0.621   5.097   6.926
 7828SOL    HW124383   0.554   5.028   6.951
 7828SOL    HW224384   0.680   5.117   7.005
 7829SOL     OW24385   3.913   3.215   0.578
 7829SOL    HW124386   3.949   3.128   0.613
 7829SOL    HW224387   3.989   3.279   0.567
 7830SOL     OW24388   2.750   4.685   4.267
 7830SOL    HW124389   2.771   4.728   4.355
 7830SOL    HW224390   2.704   4.750   4.207
 7831SOL     OW24391   2.158   1.055   0.338
 7831SOL    HW124392   2.124   1.053   0.244
 7831SOL    HW224393   2.167   0.961   0.371
 7832SOL     OW24394   6.434   0.786   4.784
 7832SOL    HW124395   6.379   0.768   4.701
 7832SOL    HW224396   6.480   0.702   4.812
 7833SOL     OW24397   1.549   0.615   3.686
 7833SOL    HW124398   1.638   0.580   3.714
 7833SOL    HW224399   1.501   0.545   3.633
 7834SOL     OW24400   6.590   3.210   5.103
 7834SOL    HW124401   6.511   3.161   5.067
 7834SOL    HW224402   6.583   3.307   5.077
 7835SOL     OW24403   4.020   2.452   5.422
 7835SOL    HW124404   4.067   2.501   5.349
 7835SOL    HW224405   3.945   2.508   5.457
 7836SOL     OW24406   3.278   3.754   4.232
 7836SOL    HW124407   3.363   3.781   4.188
 7836SOL    HW224408   3.226   3.836   4.258
 7837SOL     OW24409   0.070   6.007   6.654
 7837SOL    HW124410   0.159   6.043   6.626
 7837SOL    HW224411   0.018   5.980   6.574
 7838SOL     OW24412   4.867   5.287   1.512
 7838SOL    HW124413   4.902   5.239   1.592
 7838SOL    HW224414   4.943   5.334   1.466
 7839SOL     OW24415   5.833   3.158   4.260
 7839SOL    HW124416   5.905   3.196   4.318
 7839SOL    HW224417   5.756   3.129   4.317
 7840SOL     OW24418   1.972   2.951   4.135
 7840SOL    HW124419   2.038   2.918   4.067
 7840SOL    HW224420   1.928   3.034   4.101
 7841SOL     OW24421   4.350   1.828   6.033
 7841SOL    HW124422   4.378   1.892   5.962
 7841SOL    HW224423   4.263   1.786   6.008
 7842SOL     OW24424   1.413   0.635   2.278
 7842SOL    HW124425   1.346   0.644   2.204
 7842SOL    HW224426   1.393   0.702   2.350
 7843SOL     OW24427   6.906   6.220   3.016
 7843SOL    HW124428   6.944   6.283   3.084
 7843SOL    HW224429   6.852   6.272   2.950
 7844SOL     OW24430   3.478   1.118   2.669
 7844SOL    HW124431   3.468   1.210   2.631
 7844SOL    HW224432   3.575   1.100   2.686
 7845SOL     OW24433   6.845   3.283   1.134
 7845SOL    HW124434   6.938   3.249   1.122
 7845SOL    HW224435   6.790   3.215   1.183
 7846SOL     OW24436   1.420   1.661   0.925
 7846SOL    HW124437   1.432   1.625   0.833
 7846SOL    HW224438   1.401   1.759   0.920
 7847SOL     OW24439   5.570   3.633   5.113
 7847SOL    HW124440   5.484   3.636   5.164
 7847SOL    HW224441   5.634   3.700   5.150
 7848SOL     OW24442   3.358   4.189   1.195
 7848SOL    HW124443   3.295   4.205   1.270
 7848SOL    HW224444   3.309   4.149   1.118
 7849SOL     OW24445   4.659   4.499   0.122
 7849SOL    HW124446   4.639   4.402   0.110
 7849SOL    HW224447   4.579   4.554   0.096
 7850SOL     OW24448   6.936   1.360   3.354
 7850SOL    HW124449   6.851   1.378   3.304
 7850SOL    HW224450   7.014   1.383   3.296
 7851SOL     OW24451   0.770   4.838   1.737
 7851SOL    HW124452   0.731   4.897   1.667
 7851SOL    HW224453   0.815   4.894   1.807
 7852SOL     OW24454   1.263   2.681   6.833
 7852SOL    HW124455   1.328   2.605   6.844
 7852SOL    HW224456   1.170   2.648   6.848
 7853SOL     OW24457   3.930   2.938   1.742
 7853SOL    HW124458   3.899   2.963   1.833
 7853SOL    HW224459   3.996   3.006   1.709
 7854SOL     OW24460   4.423   1.917   6.980
 7854SOL    HW124461   4.492   1.900   6.910
 7854SOL    HW224462   4.333   1.925   6.937
 7855SOL     OW24463   5.058   0.468   4.675
 7855SOL    HW124464   5.016   0.484   4.765
 7855SOL    HW224465   5.154   0.495   4.679
 7856SOL     OW24466   2.230   6.414   4.646
 7856SOL    HW124467   2.236   6.426   4.547
 7856SOL    HW224468   2.135   6.402   4.673
 7857SOL     OW24469   5.894   4.773   1.431
 7857SOL    HW124470   5.967   4.754   1.365
 7857SOL    HW224471   5.849   4.687   1.456
 7858SOL     OW24472   0.409   4.316   6.103
 7858SOL    HW124473   0.321   4.336   6.061
 7858SOL    HW224474   0.438   4.394   6.158
 7859SOL     OW24475   5.532   2.105   0.432
 7859SOL    HW124476   5.506   2.021   0.480
 7859SOL    HW224477   5.518   2.183   0.493
 7860SOL     OW24478   2.779   1.202   4.359
 7860SOL    HW124479   2.800   1.244   4.446
 7860SOL    HW224480   2.753   1.272   4.293
 7861SOL     OW24481   2.442   6.402   0.805
 7861SOL    HW124482   2.453   6.500   0.791
 7861SOL    HW224483   2.363   6.385   0.863
 7862SOL     OW24484   2.238   6.025   0.320
 7862SOL    HW124485   2.211   6.090   0.390
 7862SOL    HW224486   2.215   5.932   0.349
 7863SOL     OW24487   0.097   4.114   3.656
 7863SOL    HW124488   0.006   4.075   3.675
 7863SOL    HW224489   0.113   4.192   3.716
 7864SOL     OW24490   1.832   6.168   5.435
 7864SOL    HW124491   1.927   6.142   5.420
 7864SOL    HW224492   1.817   6.262   5.403
 7865SOL     OW24493   5.610   5.005   3.184
 7865SOL    HW124494   5.564   5.079   3.233
 7865SOL    HW224495   5.577   4.917   3.218
 7866SOL     OW24496   6.971   6.984   5.742
 7866SOL    HW124497   6.920   6.963   5.659
 7866SOL    HW224498   7.017   0.051   5.732
 7867SOL     OW24499   5.596   6.031   3.822
 7867SOL    HW124500   5.662   6.089   3.774
 7867SOL    HW224501   5.599   5.939   3.785
 7868SOL     OW24502   3.119   6.043   1.771
 7868SOL    HW124503   3.045   6.109   1.756
 7868SOL    HW224504   3.097   5.986   1.850
 7869SOL     OW24505   5.723   4.565   6.146
 7869SOL    HW124506   5.640   4.587   6.197
 7869SOL    HW224507   5.735   4.466   6.143
 7870SOL     OW24508   5.560   5.769   4.384
 7870SOL    HW124509   5.496   5.724   4.447
 7870SOL    HW224510   5.551   5.869   4.394
 7871SOL     OW24511   5.401   1.552   1.766
 7871SOL    HW124512   5.489   1.533   1.722
 7871SOL    HW224513   5.396   1.502   1.852
 7872SOL     OW24514   1.577   5.655   2.933
 7872SOL    HW124515   1.651   5.719   2.951
 7872SOL    HW224516   1.576   5.584   3.003
 7873SOL     OW24517   5.907   1.665   0.394
 7873SOL    HW124518   5.929   1.602   0.468
 7873SOL    HW224519   5.941   1.628   0.307
 7874SOL     OW24520   5.303   2.335   0.799
 7874SOL    HW124521   5.341   2.339   0.891
 7874SOL    HW224522   5.277   2.241   0.777
 7875SOL     OW24523   6.168   4.764   6.592
 7875SOL    HW124524   6.088   4.791   6.539
 7875SOL    HW224525   6.242   4.738   6.531
 7876SOL     OW24526   1.097   6.689   2.905
 7876SOL    HW124527   1.131   6.756   2.971
 7876SOL    HW224528   0.998   6.679   2.915
 7877SOL     OW24529   7.016   2.430   2.799
 7877SOL    HW124530   6.998   2.520   2.838
 7877SOL    HW224531   0.090   2.424   2.769
 7878SOL     OW24532   4.311   4.662   2.918
 7878SOL    HW124533   4.329   4.665   2.819
 7878SOL    HW224534   4.247   4.735   2.942
 7879SOL     OW24535   3.077   5.131   2.900
 7879SOL    HW124536   3.057   5.143   2.998
 7879SOL    HW224537   3.157   5.071   2.890
 7880SOL     OW24538   1.251   4.131   2.026
 7880SOL    HW124539   1.244   4.220   1.982
 7880SOL    HW224540   1.320   4.135   2.099
 7881SOL     OW24541   4.841   4.565   4.164
 7881SOL    HW124542   4.855   4.507   4.084
 7881SOL    HW224543   4.835   4.508   4.246
 7882SOL     OW24544   1.385   3.348   0.474
 7882SOL    HW124545   1.444   3.393   0.406
 7882SOL    HW224546   1.438   3.328   0.556
 7883SOL     OW24547   0.914   0.256   5.277
 7883SOL    HW124548   0.941   0.282   5.185
 7883SOL    HW224549   0.887   0.337   5.329
 7884SOL     OW24550   0.870   2.669   4.368
 7884SOL    HW124551   0.897   2.720   4.286
 7884SOL    HW224552   0.776   2.638   4.359
 7885SOL     OW24553   6.599   6.034   6.259
 7885SOL    HW124554   6.627   6.102   6.192
 7885SOL    HW224555   6.596   6.076   6.350
 7886SOL     OW24556   4.720   4.841   0.432
 7886SOL    HW124557   4.635   4.889   0.410
 7886SOL    HW224558   4.706   4.783   0.512
 7887SOL     OW24559   4.613   2.275   6.530
 7887SOL    HW124560   4.522   2.276   6.573
 7887SOL    HW224561   4.602   2.260   6.431
 7888SOL     OW24562   5.016   0.625   4.885
 7888SOL    HW124563   5.079   0.606   4.960
 7888SOL    HW224564   5.042   0.709   4.839
 7889SOL     OW24565   1.194   5.692   2.552
 7889SOL    HW124566   1.247   5.608   2.564
 7889SOL    HW224567   1.243   5.769   2.591
 7890SOL     OW24568   1.622   3.459   2.824
 7890SOL    HW124569   1.576   3.531   2.774
 7890SOL    HW224570   1.637   3.488   2.919
 7891SOL     OW24571   1.402   4.830   3.115
 7891SOL    HW124572   1.432   4.739   3.146
 7891SOL    HW224573   1.303   4.837   3.122
 7892SOL     OW24574   2.004   3.093   5.608
 7892SOL    HW124575   2.102   3.075   5.606
 7892SOL    HW224576   1.986   3.174   5.664
 7893SOL     OW24577   6.080   6.529   1.552
 7893SOL    HW124578   6.045   6.601   1.492
 7893SOL    HW224579   6.100   6.447   1.497
 7894SOL     OW24580   2.782   0.065   1.911
 7894SOL    HW124581   2.805   0.126   1.986
 7894SOL    HW224582   2.740   0.118   1.837
 7895SOL     OW24583   6.755   1.740   3.407
 7895SOL    HW124584   6.660   1.719   3.429
 7895SOL    HW224585   6.760   1.785   3.318
 7896SOL     OW24586   4.386   2.029   5.463
 7896SOL    HW124587   4.397   2.007   5.366
 7896SOL    HW224588   4.294   2.005   5.493
 7897SOL     OW24589   2.918   3.351   6.346
 7897SOL    HW124590   2.943   3.445   6.369
 7897SOL    HW224591   2.989   3.311   6.287
 7898SOL     OW24592   4.333   2.362   3.562
 7898SOL    HW124593   4.300   2.328   3.650
 7898SOL    HW224594   4.269   2.336   3.490
 7899SOL     OW24595   5.341   1.015   2.876
 7899SOL    HW124596   5.438   1.038   2.880
 7899SOL    HW224597   5.307   1.001   2.969
 7900SOL     OW24598   1.571   5.559   0.694
 7900SOL    HW124599   1.516   5.637   0.722
 7900SOL    HW224600   1.634   5.587   0.622
 7901SOL     OW24601   6.245   5.677   0.354
 7901SOL    HW124602   6.342   5.658   0.341
 7901SOL    HW224603   6.192   5.594   0.334
 7902SOL     OW24604   5.357   4.215   6.626
 7902SOL    HW124605   5.294   4.199   6.702
 7902SOL    HW224606   5.451   4.213   6.661
 7903SOL     OW24607   0.412   1.940   0.019
 7903SOL    HW124608   0.439   2.011   6.975
 7903SOL    HW224609   0.371   1.863   6.991
 7904SOL     OW24610   6.425   0.826   2.670
 7904SOL    HW124611   6.470   0.870   2.748
 7904SOL    HW224612   6.471   0.853   2.585
 7905SOL     OW24613   3.617   1.669   0.724
 7905SOL    HW124614   3.698   1.610   0.732
 7905SOL    HW224615   3.572   1.676   0.813
 7906SOL     OW24616   6.570   5.644   6.702
 7906SOL    HW124617   6.623   5.564   6.674
 7906SOL    HW224618   6.480   5.614   6.735
 7907SOL     OW24619   6.572   2.959   2.321
 7907SOL    HW124620   6.612   3.048   2.343
 7907SOL    HW224621   6.488   2.972   2.267
 7908SOL     OW24622   5.991   2.047   3.462
 7908SOL    HW124623   5.908   2.022   3.412
 7908SOL    HW224624   5.966   2.077   3.554
 7909SOL     OW24625   4.467   4.974   5.323
 7909SOL    HW124626   4.546   5.006   5.272
 7909SOL    HW224627   4.384   4.990   5.270
 7910SOL     OW24628   5.756   3.893   5.784
 7910SOL    HW124629   5.713   3.965   5.731
 7910SOL    HW224630   5.726   3.804   5.751
 7911SOL     OW24631   6.311   5.010   6.900
 7911SOL    HW124632   6.253   4.963   6.966
 7911SOL    HW224633   6.400   4.964   6.894
 7912SOL     OW24634   6.464   5.412   5.666
 7912SOL    HW124635   6.404   5.365   5.730
 7912SOL    HW224636   6.560   5.394   5.690
 7913SOL     OW24637   0.738   5.613   6.318
 7913SOL    HW124638   0.736   5.524   6.272
 7913SOL    HW224639   0.695   5.605   6.408
 7914SOL     OW24640   0.198   3.472   2.563
 7914SOL    HW124641   0.264   3.464   2.638
 7914SOL    HW224642   0.120   3.413   2.581
 7915SOL     OW24643   4.422   1.691   2.429
 7915SOL    HW124644   4.361   1.753   2.478
 7915SOL    HW224645   4.432   1.721   2.334
 7916SOL     OW24646   4.674   3.343   5.545
 7916SOL    HW124647   4.718   3.280   5.608
 7916SOL    HW224648   4.640   3.423   5.596
 7917SOL     OW24649   3.521   4.149   4.147
 7917SOL    HW124650   3.461   4.072   4.168
 7917SOL    HW224651   3.533   4.205   4.228
 7918SOL     OW24652   6.204   2.337   2.095
 7918SOL    HW124653   6.274   2.308   2.160
 7918SOL    HW224654   6.172   2.257   2.044
 7919SOL     OW24655   5.871   4.881   1.693
 7919SOL    HW124656   5.872   4.865   1.594
 7919SOL    HW224657   5.899   4.798   1.741
 7920SOL     OW24658   1.283   5.436   1.661
 7920SOL    HW124659   1.210   5.458   1.725
 7920SOL    HW224660   1.326   5.521   1.629
 7921SOL     OW24661   3.395   6.610   1.912
 7921SOL    HW124662   3.355   6.698   1.886
 7921SOL    HW224663   3.336   6.564   1.978
 7922SOL     OW24664   0.325   5.337   0.122
 7922SOL    HW124665   0.275   5.255   0.096
 7922SOL    HW224666   0.260   5.407   0.154
 7923SOL     OW24667   1.049   1.605   2.929
 7923SOL    HW124668   1.066   1.506   2.922
 7923SOL    HW224669   1.013   1.638   2.842
 7924SOL     OW24670   2.256   0.758   4.005
 7924SOL    HW124671   2.309   0.710   4.075
 7924SOL    HW224672   2.244   0.699   3.925
 7925SOL     OW24673   7.018   0.247   6.724
 7925SOL    HW124674   0.006   0.178   6.653
 7925SOL    HW224675   6.928   0.240   6.767
 7926SOL     OW24676   2.903   0.352   1.684
 7926SOL    HW124677   2.881   0.447   1.660
 7926SOL    HW224678   2.972   0.317   1.620
 7927SOL     OW24679   4.374   4.881   4.320
 7927SOL    HW124680   4.432   4.962   4.331
 7927SOL    HW224681   4.284   4.899   4.359
 7928SOL     OW24682   1.472   5.020   0.789
 7928SOL    HW124683   1.550   5.011   0.851
 7928SOL    HW224684   1.423   5.105   0.810
 7929SOL     OW24685   3.919   3.968   4.372
 7929SOL    HW124686   3.866   3.973   4.456
 7929SOL    HW224687   3.900   4.048   4.315
 7930SOL     OW24688   5.349   5.974   4.817
 7930SOL    HW124689   5.272   6.029   4.786
 7930SOL    HW224690   5.380   6.007   4.907
 7931SOL     OW24691   1.784   3.279   0.829
 7931SOL    HW124692   1.875   3.239   0.827
 7931SOL    HW224693   1.781   3.353   0.897
 7932SOL     OW24694   3.178   7.014   0.788
 7932SOL    HW124695   3.248   0.065   0.789
 7932SOL    HW224696   3.211   6.936   0.735
 7933SOL     OW24697   1.650   0.425   6.931
 7933SOL    HW124698   1.670   0.401   6.836
 7933SOL    HW224699   1.634   0.524   6.937
 7934SOL     OW24700   3.876   3.743   5.709
 7934SOL    HW124701   3.837   3.652   5.698
 7934SOL    HW224702   3.912   3.775   5.621
 7935SOL     OW24703   4.330   6.297   1.505
 7935SOL    HW124704   4.250   6.237   1.498
 7935SOL    HW224705   4.402   6.250   1.556
 7936SOL     OW24706   4.489   5.541   3.200
 7936SOL    HW124707   4.483   5.635   3.235
 7936SOL    HW224708   4.463   5.478   3.273
 7937SOL     OW24709   6.357   6.482   5.467
 7937SOL    HW124710   6.339   6.449   5.559
 7937SOL    HW224711   6.283   6.454   5.406
 7938SOL     OW24712   5.820   4.429   4.748
 7938SOL    HW124713   5.848   4.512   4.797
 7938SOL    HW224714   5.795   4.452   4.654
 7939SOL     OW24715   0.750   0.127   4.361
 7939SOL    HW124716   0.703   0.046   4.326
 7939SOL    HW224717   0.696   0.208   4.340
 7940SOL     OW24718   1.711   5.916   0.822
 7940SOL    HW124719   1.649   5.853   0.776
 7940SOL    HW224720   1.734   5.881   0.912
 7941SOL     OW24721   0.334   0.059   0.258
 7941SOL    HW124722   0.334   0.139   0.198
 7941SOL    HW224723   0.240   0.026   0.269
 7942SOL     OW24724   1.256   0.986   1.321
 7942SOL    HW124725   1.351   0.969   1.349
 7942SOL    HW224726   1.206   1.028   1.397
 7943SOL     OW24727   5.779   2.110   0.913
 7943SOL    HW124728   5.827   2.198   0.914
 7943SOL    HW224729   5.711   2.108   0.986
 7944SOL     OW24730   0.365   4.351   2.225
 7944SOL    HW124731   0.396   4.330   2.132
 7944SOL    HW224732   0.267   4.331   2.232
 7945SOL     OW24733   5.398   6.361   1.647
 7945SOL    HW124734   5.412   6.270   1.607
 7945SOL    HW224735   5.469   6.423   1.613
 7946SOL     OW24736   1.347   1.947   5.609
 7946SOL    HW124737   1.376   1.857   5.576
 7946SOL    HW224738   1.253   1.942   5.640
 7947SOL     OW24739   3.864   4.238   6.141
 7947SOL    HW124740   3.937   4.202   6.200
 7947SOL    HW224741   3.776   4.204   6.172
 7948SOL     OW24742   0.504   5.409   6.939
 7948SOL    HW124743   0.433   5.353   6.982
 7948SOL    HW224744   0.571   5.350   6.895
 7949SOL     OW24745   6.680   4.464   4.148
 7949SOL    HW124746   6.690   4.521   4.067
 7949SOL    HW224747   6.703   4.370   4.126
 7950SOL     OW24748   2.937   5.507   4.350
 7950SOL    HW124749   2.930   5.590   4.406
 7950SOL    HW224750   3.022   5.460   4.372
 7951SOL     OW24751   3.170   3.202   1.077
 7951SOL    HW124752   3.084   3.248   1.052
 7951SOL    HW224753   3.162   3.162   1.168
 7952SOL     OW24754   5.119   4.137   0.367
 7952SOL    HW124755   5.043   4.151   0.431
 7952SOL    HW224756   5.083   4.124   0.275
 7953SOL     OW24757   2.284   2.819   2.810
 7953SOL    HW124758   2.362   2.877   2.788
 7953SOL    HW224759   2.252   2.839   2.903
 7954SOL     OW24760   4.779   5.339   5.588
 7954SOL    HW124761   4.767   5.287   5.672
 7954SOL    HW224762   4.849   5.296   5.531
 7955SOL     OW24763   1.333   6.830   6.174
 7955SOL    HW124764   1.402   6.901   6.186
 7955SOL    HW224765   1.347   6.785   6.085
 7956SOL     OW24766   5.903   0.214   3.770
 7956SOL    HW124767   5.949   0.300   3.749
 7956SOL    HW224768   5.849   0.185   3.691
 7957SOL     OW24769   0.826   2.680   1.098
 7957SOL    HW124770   0.842   2.777   1.120
 7957SOL    HW224771   0.913   2.632   1.093
 7958SOL     OW24772   2.159   5.534   2.693
 7958SOL    HW124773   2.082   5.594   2.715
 7958SOL    HW224774   2.127   5.440   2.684
 7959SOL     OW24775   5.181   5.053   0.814
 7959SOL    HW124776   5.143   5.128   0.869
 7959SOL    HW224777   5.147   4.966   0.849
 7960SOL     OW24778   2.282   1.949   1.193
 7960SOL    HW124779   2.354   1.969   1.261
 7960SOL    HW224780   2.288   1.853   1.166
 7961SOL     OW24781   1.971   5.238   6.512
 7961SOL    HW124782   1.938   5.144   6.514
 7961SOL    HW224783   2.068   5.241   6.534
 7962SOL     OW24784   1.078   0.169   2.100
 7962SOL    HW124785   0.983   0.152   2.128
 7962SOL    HW224786   1.132   0.086   2.115
 7963SOL     OW24787   0.948   0.248   4.571
 7963SOL    HW124788   0.916   0.187   4.498
 7963SOL    HW224789   0.874   0.262   4.637
 7964SOL     OW24790   6.036   5.784   3.282
 7964SOL    HW124791   6.057   5.826   3.193
 7964SOL    HW224792   5.938   5.762   3.285
 7965SOL     OW24793   5.469   1.628   0.877
 7965SOL    HW124794   5.493   1.575   0.959
 7965SOL    HW224795   5.474   1.726   0.899
 7966SOL     OW24796   0.224   5.428   3.561
 7966SOL    HW124797   0.253   5.465   3.473
 7966SOL    HW224798   0.209   5.329   3.553
 7967SOL     OW24799   2.829   6.290   2.434
 7967SOL    HW124800   2.857   6.195   2.423
 7967SOL    HW224801   2.903   6.351   2.405
 7968SOL     OW24802   1.597   0.982   1.690
 7968SOL    HW124803   1.515   1.016   1.645
 7968SOL    HW224804   1.603   1.021   1.782
 7969SOL     OW24805   3.401   2.060   2.986
 7969SOL    HW124806   3.391   2.072   2.887
 7969SOL    HW224807   3.314   2.032   3.025
 7970SOL     OW24808   0.394   4.995   3.193
 7970SOL    HW124809   0.366   5.008   3.098
 7970SOL    HW224810   0.429   5.081   3.230
 7971SOL     OW24811   2.611   1.170   1.891
 7971SOL    HW124812   2.594   1.262   1.927
 7971SOL    HW224813   2.703   1.167   1.852
 7972SOL     OW24814   0.646   4.871   2.212
 7972SOL    HW124815   0.681   4.803   2.276
 7972SOL    HW224816   0.550   4.890   2.231
 7973SOL     OW24817   4.762   2.363   2.528
 7973SOL    HW124818   4.705   2.282   2.520
 7973SOL    HW224819   4.705   2.443   2.548
 7974SOL     OW24820   5.348   0.013   4.129
 7974SOL    HW124821   5.415   6.963   4.152
 7974SOL    HW224822   5.312   7.018   4.037
 7975SOL     OW24823   2.289   1.223   3.489
 7975SOL    HW124824   2.320   1.139   3.534
 7975SOL    HW224825   2.195   1.242   3.515
 7976SOL     OW24826   0.409   5.736   6.406
 7976SOL    HW124827   0.401   5.755   6.309
 7976SOL    HW224828   0.444   5.817   6.454
 7977SOL     OW24829   5.302   6.205   1.391
 7977SOL    HW124830   5.257   6.153   1.319
 7977SOL    HW224831   5.320   6.146   1.469
 7978SOL     OW24832   4.336   2.498   5.936
 7978SOL    HW124833   4.413   2.546   5.979
 7978SOL    HW224834   4.339   2.401   5.961
 7979SOL     OW24835   4.141   0.041   3.963
 7979SOL    HW124836   4.156   6.967   3.934
 7979SOL    HW224837   4.225   0.093   3.947
 7980SOL     OW24838   2.697   0.105   2.342
 7980SOL    HW124839   2.786   0.058   2.342
 7980SOL    HW224840   2.708   0.197   2.379
 7981SOL     OW24841   1.032   5.565   2.975
 7981SOL    HW124842   0.993   5.634   3.035
 7981SOL    HW224843   1.128   5.585   2.958
 7982SOL     OW24844   6.893   2.891   0.507
 7982SOL    HW124845   6.880   2.928   0.415
 7982SOL    HW224846   6.927   2.963   0.567
 7983SOL     OW24847   4.942   2.461   2.276
 7983SOL    HW124848   4.894   2.535   2.322
 7983SOL    HW224849   4.993   2.408   2.343
 7984SOL     OW24850   0.788   0.799   0.654
 7984SOL    HW124851   0.767   0.708   0.690
 7984SOL    HW224852   0.862   0.840   0.707
 7985SOL     OW24853   0.439   1.385   1.226
 7985SOL    HW124854   0.514   1.355   1.167
 7985SOL    HW224855   0.451   1.482   1.249
 7986SOL     OW24856   3.677   1.970   0.957
 7986SOL    HW124857   3.654   2.042   1.022
 7986SOL    HW224858   3.649   1.997   0.865
 7987SOL     OW24859   0.257   3.142   4.804
 7987SOL    HW124860   0.187   3.191   4.856
 7987SOL    HW224861   0.284   3.060   4.854
 7988SOL     OW24862   2.898   1.546   5.506
 7988SOL    HW124863   2.820   1.609   5.509
 7988SOL    HW224864   2.965   1.572   5.576
 7989SOL     OW24865   3.430   3.190   5.645
 7989SOL    HW124866   3.474   3.104   5.673
 7989SOL    HW224867   3.426   3.195   5.545
 7990SOL     OW24868   1.975   2.346   5.158
 7990SOL    HW124869   2.030   2.306   5.084
 7990SOL    HW224870   1.961   2.443   5.140
 7991SOL     OW24871   0.441   3.418   5.316
 7991SOL    HW124872   0.398   3.373   5.237
 7991SOL    HW224873   0.478   3.348   5.378
 7992SOL     OW24874   2.849   0.854   0.441
 7992SOL    HW124875   2.752   0.851   0.467
 7992SOL    HW224876   2.901   0.899   0.513
 7993SOL     OW24877   1.529   6.933   6.804
 7993SOL    HW124878   1.622   6.968   6.796
 7993SOL    HW224879   1.505   6.926   6.901
 7994SOL     OW24880   5.717   0.749   3.521
 7994SOL    HW124881   5.625   0.753   3.482
 7994SOL    HW224882   5.721   0.680   3.592
 7995SOL     OW24883   4.105   4.802   2.988
 7995SOL    HW124884   4.026   4.815   2.929
 7995SOL    HW224885   4.083   4.736   3.060
 7996SOL     OW24886   3.411   0.816   5.020
 7996SOL    HW124887   3.493   0.873   5.014
 7996SOL    HW224888   3.424   0.744   5.088
 7997SOL     OW24889   5.796   2.885   1.890
 7997SOL    HW124890   5.756   2.795   1.871
 7997SOL    HW224891   5.784   2.944   1.811
 7998SOL     OW24892   6.340   5.293   6.624
 7998SOL    HW124893   6.350   5.384   6.662
 7998SOL    HW224894   6.260   5.248   6.664
 7999SOL     OW24895   1.750   0.584   5.929
 7999SOL    HW124896   1.741   0.509   5.996
 7999SOL    HW224897   1.843   0.584   5.892
 8000SOL     OW24898   5.990   6.712   5.645
 8000SOL    HW124899   6.039   6.711   5.733
 8000SOL    HW224900   5.953   6.622   5.626
 8001SOL     OW24901   2.338   0.100   1.322
 8001SOL    HW124902   2.377   0.173   1.378
 8001SOL    HW224903   2.284   0.139   1.247
 8002SOL     OW24904   5.560   3.035   5.593
 8002SOL    HW124905   5.658   3.045   5.574
 8002SOL    HW224906   5.517   3.125   5.597
 8003SOL     OW24907   3.954   5.131   3.230
 8003SOL    HW124908   3.950   5.211   3.170
 8003SOL    HW224909   3.874   5.129   3.290
 8004SOL     OW24910   1.892   3.967   2.696
 8004SOL    HW124911   1.845   3.939   2.779
 8004SOL    HW224912   1.991   3.968   2.713
 8005SOL     OW24913   2.882   1.159   1.881
 8005SOL    HW124914   2.961   1.121   1.834
 8005SOL    HW224915   2.913   1.207   1.964
 8006SOL     OW24916   3.174   6.482   0.603
 8006SOL    HW124917   3.134   6.420   0.535
 8006SOL    HW224918   3.234   6.431   0.664
 8007SOL     OW24919   0.373   1.056   4.757
 8007SOL    HW124920   0.304   0.987   4.735
 8007SOL    HW224921   0.333   1.147   4.745
 8008SOL     OW24922   6.314   5.901   0.676
 8008SOL    HW124923   6.369   5.915   0.593
 8008SOL    HW224924   6.317   5.984   0.732
 8009SOL     OW24925   6.878   6.772   3.407
 8009SOL    HW124926   6.892   6.674   3.411
 8009SOL    HW224927   6.959   6.816   3.367
 8010SOL     OW24928   2.607   2.550   6.782
 8010SOL    HW124929   2.581   2.455   6.799
 8010SOL    HW224930   2.550   2.588   6.709
 8011SOL     OW24931   2.597   2.037   0.789
 8011SOL    HW124932   2.600   2.098   0.868
 8011SOL    HW224933   2.604   2.090   0.705
 8012SOL     OW24934   2.929   6.749   2.906
 8012SOL    HW124935   2.903   6.693   2.828
 8012SOL    HW224936   3.015   6.716   2.944
 8013SOL     OW24937   6.236   4.540   4.911
 8013SOL    HW124938   6.165   4.498   4.968
 8013SOL    HW224939   6.316   4.560   4.969
 8014SOL     OW24940   2.077   0.139   0.002
 8014SOL    HW124941   2.049   0.070   0.069
 8014SOL    HW224942   2.012   0.215   0.004
 8015SOL     OW24943   1.864   2.335   6.843
 8015SOL    HW124944   1.798   2.410   6.848
 8015SOL    HW224945   1.815   2.248   6.836
 8016SOL     OW24946   3.525   6.340   1.465
 8016SOL    HW124947   3.480   6.252   1.475
 8016SOL    HW224948   3.523   6.389   1.553
 8017SOL     OW24949   5.885   4.310   4.188
 8017SOL    HW124950   5.827   4.278   4.264
 8017SOL    HW224951   5.856   4.266   4.103
 8018SOL     OW24952   5.682   2.530   4.794
 8018SOL    HW124953   5.774   2.555   4.827
 8018SOL    HW224954   5.660   2.438   4.824
 8019SOL     OW24955   2.417   5.366   1.070
 8019SOL    HW124956   2.496   5.306   1.073
 8019SOL    HW224957   2.443   5.454   1.030
 8020SOL     OW24958   5.886   6.110   6.797
 8020SOL    HW124959   5.934   6.043   6.740
 8020SOL    HW224960   5.901   6.202   6.761
 8021SOL     OW24961   0.930   0.859   0.940
 8021SOL    HW124962   0.913   0.957   0.947
 8021SOL    HW224963   1.024   0.840   0.968
 8022SOL     OW24964   4.174   6.172   3.090
 8022SOL    HW124965   4.261   6.219   3.102
 8022SOL    HW224966   4.190   6.080   3.052
 8023SOL     OW24967   6.343   6.706   3.109
 8023SOL    HW124968   6.371   6.714   3.205
 8023SOL    HW224969   6.364   6.791   3.061
 8024SOL     OW24970   4.500   5.441   4.999
 8024SOL    HW124971   4.579   5.394   4.960
 8024SOL    HW224972   4.527   5.489   5.082
 8025SOL     OW24973   3.865   6.094   0.353
 8025SOL    HW124974   3.781   6.045   0.375
 8025SOL    HW224975   3.916   6.045   0.282
 8026SOL     OW24976   1.186   2.660   0.652
 8026SOL    HW124977   1.269   2.606   0.664
 8026SOL    HW224978   1.148   2.643   0.561
 8027SOL     OW24979   5.178   2.855   5.319
 8027SOL    HW124980   5.231   2.860   5.404
 8027SOL    HW224981   5.234   2.815   5.247
 8028SOL     OW24982   5.651   4.779   6.757
 8028SOL    HW124983   5.609   4.859   6.714
 8028SOL    HW224984   5.696   4.806   6.841
 8029SOL     OW24985   3.094   4.446   0.933
 8029SOL    HW124986   3.166   4.381   0.908
 8029SOL    HW224987   3.006   4.415   0.897
 8030SOL     OW24988   5.667   3.758   6.994
 8030SOL    HW124989   5.757   3.753   0.016
 8030SOL    HW224990   5.597   3.732   0.039
 8031SOL     OW24991   3.646   5.617   1.443
 8031SOL    HW124992   3.634   5.705   1.489
 8031SOL    HW224993   3.719   5.624   1.375
 8032SOL     OW24994   5.292   4.423   6.186
 8032SOL    HW124995   5.237   4.458   6.111
 8032SOL    HW224996   5.366   4.488   6.206
 8033SOL     OW24997   5.847   2.586   0.237
 8033SOL    HW124998   5.880   2.512   0.179
 8033SOL    HW224999   5.749   2.600   0.220
 8034SOL     OW25000   5.952   1.262   5.531
 8034SOL    HW125001   5.956   1.271   5.631
 8034SOL    HW225002   5.868   1.303   5.497
 8035SOL     OW25003   5.489   6.901   6.900
 8035SOL    HW125004   5.442   6.813   6.892
 8035SOL    HW225005   5.505   6.922   6.997
 8036SOL     OW25006   1.993   3.990   1.803
 8036SOL    HW125007   2.074   3.933   1.812
 8036SOL    HW225008   1.982   4.047   1.885
 8037SOL     OW25009   2.053   3.121   1.595
 8037SOL    HW125010   2.114   3.154   1.666
 8037SOL    HW225011   2.095   3.135   1.505
 8038SOL     OW25012   6.891   2.051   4.348
 8038SOL    HW125013   6.925   1.962   4.316
 8038SOL    HW225014   6.937   2.124   4.298
 8039SOL     OW25015   2.433   6.511   4.250
 8039SOL    HW125016   2.406   6.415   4.246
 8039SOL    HW225017   2.470   6.532   4.340
 8040SOL     OW25018   0.264   5.404   0.729
 8040SOL    HW125019   0.183   5.358   0.767
 8040SOL    HW225020   0.276   5.492   0.773
 8041SOL     OW25021   4.569   1.610   0.955
 8041SOL    HW125022   4.616   1.697   0.974
 8041SOL    HW225023   4.532   1.612   0.863
 8042SOL     OW25024   2.786   3.344   1.297
 8042SOL    HW125025   2.806   3.264   1.354
 8042SOL    HW225026   2.865   3.404   1.296
 8043SOL     OW25027   2.482   0.248   1.525
 8043SOL    HW125028   2.423   0.191   1.582
 8043SOL    HW225029   2.465   0.344   1.545
 8044SOL     OW25030   3.332   3.804   2.145
 8044SOL    HW125031   3.395   3.729   2.167
 8044SOL    HW225032   3.243   3.767   2.119
 8045SOL     OW25033   6.406   2.696   3.058
 8045SOL    HW125034   6.502   2.668   3.059
 8045SOL    HW225035   6.394   2.772   2.994
 8046SOL     OW25036   6.845   5.134   6.106
 8046SOL    HW125037   6.805   5.066   6.167
 8046SOL    HW225038   6.777   5.165   6.040
 8047SOL     OW25039   3.639   5.926   4.044
 8047SOL    HW125040   3.593   5.957   3.961
 8047SOL    HW225041   3.719   5.984   4.061
 8048SOL     OW25042   6.774   0.227   5.544
 8048SOL    HW125043   6.832   0.295   5.499
 8048SOL    HW225044   6.810   0.136   5.528
 8049SOL     OW25045   1.421   5.347   0.507
 8049SOL    HW125046   1.490   5.287   0.464
 8049SOL    HW225047   1.466   5.412   0.567
 8050SOL     OW25048   1.480   2.793   1.350
 8050SOL    HW125049   1.384   2.767   1.351
 8050SOL    HW225050   1.496   2.866   1.416
 8051SOL     OW25051   4.300   1.513   3.389
 8051SOL    HW125052   4.244   1.516   3.307
 8051SOL    HW225053   4.373   1.580   3.382
 8052SOL     OW25054   3.078   1.852   2.886
 8052SOL    HW125055   3.076   1.842   2.787
 8052SOL    HW225056   3.119   1.770   2.926
 8053SOL     OW25057   3.906   3.437   2.183
 8053SOL    HW125058   3.872   3.468   2.094
 8053SOL    HW225059   3.855   3.482   2.256
 8054SOL     OW25060   4.139   6.399   4.952
 8054SOL    HW125061   4.083   6.328   4.908
 8054SOL    HW225062   4.189   6.360   5.029
 8055SOL     OW25063   1.340   6.826   5.536
 8055SOL    HW125064   1.423   6.813   5.481
 8055SOL    HW225065   1.309   6.921   5.527
 8056SOL     OW25066   4.275   1.689   3.021
 8056SOL    HW125067   4.232   1.725   3.103
 8056SOL    HW225068   4.217   1.708   2.942
 8057SOL     OW25069   3.712   6.391   4.019
 8057SOL    HW125070   3.801   6.390   3.972
 8057SOL    HW225071   3.713   6.458   4.092
 8058SOL     OW25072   1.827   1.154   3.056
 8058SOL    HW125073   1.804   1.199   3.142
 8058SOL    HW225074   1.767   1.074   3.044
 8059SOL     OW25075   2.653   1.480   3.855
 8059SOL    HW125076   2.751   1.464   3.851
 8059SOL    HW225077   2.629   1.555   3.794
 8060SOL     OW25078   0.733   1.458   4.646
 8060SOL    HW125079   0.685   1.448   4.559
 8060SOL    HW225080   0.817   1.404   4.644
 8061SOL     OW25081   0.413   5.611   1.783
 8061SOL    HW125082   0.403   5.708   1.806
 8061SOL    HW225083   0.328   5.563   1.804
 8062SOL     OW25084   2.103   3.734   2.978
 8062SOL    HW125085   2.022   3.675   2.977
 8062SOL    HW225086   2.077   3.826   3.004
 8063SOL     OW25087   3.168   3.003   6.894
 8063SOL    HW125088   3.083   3.044   6.859
 8063SOL    HW225089   3.155   2.979   6.991
 8064SOL     OW25090   6.636   3.477   0.313
 8064SOL    HW125091   6.698   3.418   0.364
 8064SOL    HW225092   6.599   3.427   0.234
 8065SOL     OW25093   4.720   6.909   6.155
 8065SOL    HW125094   4.736   7.007   6.165
 8065SOL    HW225095   4.684   6.890   6.064
 8066SOL     OW25096   2.107   0.342   1.803
 8066SOL    HW125097   2.049   0.421   1.784
 8066SOL    HW225098   2.133   0.341   1.899
 8067SOL     OW25099   5.035   2.500   1.614
 8067SOL    HW125100   4.962   2.568   1.619
 8067SOL    HW225101   5.007   2.417   1.663
 8068SOL     OW25102   0.810   4.561   4.121
 8068SOL    HW125103   0.849   4.487   4.176
 8068SOL    HW225104   0.814   4.535   4.024
 8069SOL     OW25105   1.443   6.315   2.089
 8069SOL    HW125106   1.450   6.216   2.084
 8069SOL    HW225107   1.527   6.356   2.054
 8070SOL     OW25108   3.831   0.072   1.593
 8070SOL    HW125109   3.909   0.012   1.571
 8070SOL    HW225110   3.824   0.143   1.523
 8071SOL     OW25111   4.094   6.207   6.826
 8071SOL    HW125112   4.040   6.123   6.817
 8071SOL    HW225113   4.075   6.250   6.914
 8072SOL     OW25114   5.095   0.508   1.528
 8072SOL    HW125115   5.046   0.528   1.443
 8072SOL    HW225116   5.088   0.585   1.590
 8073SOL     OW25117   4.325   6.623   5.531
 8073SOL    HW125118   4.350   6.719   5.525
 8073SOL    HW225119   4.300   6.600   5.625
 8074SOL     OW25120   3.207   3.845   0.070
 8074SOL    HW125121   3.217   3.781   7.014
 8074SOL    HW225122   3.111   3.845   0.100
 8075SOL     OW25123   5.671   1.581   2.682
 8075SOL    HW125124   5.738   1.524   2.635
 8075SOL    HW225125   5.705   1.675   2.688
 8076SOL     OW25126   5.710   3.315   6.298
 8076SOL    HW125127   5.623   3.364   6.300
 8076SOL    HW225128   5.693   3.217   6.289
 8077SOL     OW25129   1.307   0.716   0.496
 8077SOL    HW125130   1.262   0.785   0.439
 8077SOL    HW225131   1.371   0.761   0.558
 8078SOL     OW25132   5.977   3.337   0.457
 8078SOL    HW125133   5.986   3.436   0.451
 8078SOL    HW225134   6.065   3.294   0.437
 8079SOL     OW25135   6.663   1.576   2.011
 8079SOL    HW125136   6.711   1.619   2.088
 8079SOL    HW225137   6.582   1.630   1.988
 8080SOL     OW25138   3.709   5.336   0.459
 8080SOL    HW125139   3.681   5.415   0.513
 8080SOL    HW225140   3.667   5.342   0.368
 8081SOL     OW25141   5.812   0.908   5.626
 8081SOL    HW125142   5.898   0.858   5.637
 8081SOL    HW225143   5.737   0.843   5.613
 8082SOL     OW25144   6.400   3.011   4.121
 8082SOL    HW125145   6.436   3.089   4.172
 8082SOL    HW225146   6.467   2.982   4.052
 8083SOL     OW25147   4.658   2.739   4.171
 8083SOL    HW125148   4.705   2.713   4.255
 8083SOL    HW225149   4.703   2.698   4.092
 8084SOL     OW25150   6.498   6.934   1.230
 8084SOL    HW125151   6.420   6.976   1.183
 8084SOL    HW225152   6.575   6.999   1.230
 8085SOL     OW25153   6.060   2.006   1.367
 8085SOL    HW125154   6.130   1.971   1.429
 8085SOL    HW225155   5.979   1.948   1.372
 8086SOL     OW25156   3.536   6.846   5.231
 8086SOL    HW125157   3.488   6.866   5.317
 8086SOL    HW225158   3.553   6.931   5.182
 8087SOL     OW25159   3.155   3.361   1.466
 8087SOL    HW125160   3.112   3.279   1.503
 8087SOL    HW225161   3.245   3.338   1.429
 8088SOL     OW25162   4.396   0.925   3.072
 8088SOL    HW125163   4.381   0.993   3.000
 8088SOL    HW225164   4.399   0.970   3.161
 8089SOL     OW25165   5.818   2.644   0.542
 8089SOL    HW125166   5.743   2.610   0.485
 8089SOL    HW225167   5.801   2.620   0.637
 8090SOL     OW25168   4.843   2.457   5.257
 8090SOL    HW125169   4.760   2.424   5.304
 8090SOL    HW225170   4.824   2.545   5.215
 8091SOL     OW25171   3.431   5.242   6.041
 8091SOL    HW125172   3.459   5.242   6.137
 8091SOL    HW225173   3.350   5.184   6.030
 8092SOL     OW25174   0.884   2.020   3.995
 8092SOL    HW125175   0.895   1.938   4.052
 8092SOL    HW225176   0.807   2.073   4.029
 8093SOL     OW25177   5.844   5.859   1.519
 8093SOL    HW125178   5.806   5.945   1.553
 8093SOL    HW225179   5.780   5.785   1.538
 8094SOL     OW25180   0.809   3.371   4.610
 8094SOL    HW125181   0.886   3.424   4.644
 8094SOL    HW225182   0.764   3.325   4.686
 8095SOL     OW25183   5.849   3.865   4.170
 8095SOL    HW125184   5.804   3.778   4.193
 8095SOL    HW225185   5.927   3.879   4.232
 8096SOL     OW25186   3.761   6.264   1.642
 8096SOL    HW125187   3.726   6.275   1.735
 8096SOL    HW225188   3.704   6.198   1.593
 8097SOL     OW25189   4.902   1.387   4.675
 8097SOL    HW125190   4.973   1.439   4.723
 8097SOL    HW225191   4.943   1.340   4.597
 8098SOL     OW25192   2.852   6.811   3.483
 8098SOL    HW125193   2.823   6.902   3.453
 8098SOL    HW225194   2.777   6.767   3.532
 8099SOL     OW25195   5.610   6.457   4.947
 8099SOL    HW125196   5.611   6.357   4.949
 8099SOL    HW225197   5.586   6.488   4.855
 8100SOL     OW25198   0.989   6.744   0.610
 8100SOL    HW125199   1.023   6.834   0.580
 8100SOL    HW225200   0.916   6.757   0.677
 8101SOL     OW25201   1.604   5.864   3.257
 8101SOL    HW125202   1.527   5.878   3.193
 8101SOL    HW225203   1.632   5.953   3.294
 8102SOL     OW25204   6.747   6.447   5.987
 8102SOL    HW125205   6.650   6.468   5.975
 8102SOL    HW225206   6.779   6.486   6.073
 8103SOL     OW25207   2.741   1.802   2.212
 8103SOL    HW125208   2.689   1.854   2.144
 8103SOL    HW225209   2.739   1.850   2.300
 8104SOL     OW25210   2.221   6.423   5.998
 8104SOL    HW125211   2.176   6.341   5.961
 8104SOL    HW225212   2.294   6.396   6.060
 8105SOL     OW25213   1.522   2.174   2.715
 8105SOL    HW125214   1.541   2.263   2.757
 8105SOL    HW225215   1.472   2.188   2.630
 8106SOL     OW25216   0.733   3.978   4.184
 8106SOL    HW125217   0.812   3.923   4.158
 8106SOL    HW225218   0.752   4.026   4.270
 8107SOL     OW25219   1.757   5.976   6.182
 8107SOL    HW125220   1.837   5.917   6.175
 8107SOL    HW225221   1.738   6.019   6.094
 8108SOL     OW25222   1.556   3.102   4.382
 8108SOL    HW125223   1.610   3.176   4.423
 8108SOL    HW225224   1.609   3.017   4.384
 8109SOL     OW25225   1.102   4.855   5.310
 8109SOL    HW125226   1.184   4.827   5.259
 8109SOL    HW225227   1.056   4.775   5.347
 8110SOL     OW25228   1.877   4.542   1.185
 8110SOL    HW125229   1.786   4.581   1.167
 8110SOL    HW225230   1.870   4.443   1.187
 8111SOL     OW25231   2.572   5.657   4.151
 8111SOL    HW125232   2.537   5.574   4.108
 8111SOL    HW225233   2.531   5.737   4.108
 8112SOL     OW25234   3.027   1.246   4.771
 8112SOL    HW125235   3.092   1.188   4.722
 8112SOL    HW225236   2.967   1.189   4.827
 8113SOL     OW25237   3.776   3.211   6.195
 8113SOL    HW125238   3.834   3.132   6.177
 8113SOL    HW225239   3.680   3.185   6.182
 8114SOL     OW25240   2.607   3.625   1.099
 8114SOL    HW125241   2.575   3.576   1.180
 8114SOL    HW225242   2.578   3.576   1.017
 8115SOL     OW25243   3.885   1.796   1.236
 8115SOL    HW125244   3.787   1.789   1.217
 8115SOL    HW225245   3.911   1.892   1.240
 8116SOL     OW25246   6.142   0.925   5.250
 8116SOL    HW125247   6.127   0.984   5.329
 8116SOL    HW225248   6.064   0.863   5.240
 8117SOL     OW25249   2.348   2.073   5.684
 8117SOL    HW125250   2.272   2.108   5.629
 8117SOL    HW225251   2.411   2.021   5.625
 8118SOL     OW25252   1.113   2.490   4.736
 8118SOL    HW125253   1.122   2.587   4.712
 8118SOL    HW225254   1.202   2.445   4.727
 8119SOL     OW25255   1.451   5.728   2.294
 8119SOL    HW125256   1.384   5.790   2.254
 8119SOL    HW225257   1.503   5.684   2.221
 8120SOL     OW25258   4.439   4.179   1.485
 8120SOL    HW125259   4.370   4.187   1.556
 8120SOL    HW225260   4.525   4.220   1.517
 8121SOL     OW25261   6.855   6.900   2.807
 8121SOL    HW125262   6.823   6.828   2.745
 8121SOL    HW225263   6.897   6.857   2.888
 8122SOL     OW25264   0.392   6.408   1.606
 8122SOL    HW125265   0.491   6.417   1.600
 8122SOL    HW225266   0.349   6.483   1.556
 8123SOL     OW25267   0.569   5.537   0.268
 8123SOL    HW125268   0.522   5.541   0.356
 8123SOL    HW225269   0.579   5.441   0.240
 8124SOL     OW25270   0.723   6.086   2.291
 8124SOL    HW125271   0.767   6.017   2.233
 8124SOL    HW225272   0.791   6.153   2.320
 8125SOL     OW25273   5.461   5.478   2.624
 8125SOL    HW125274   5.477   5.430   2.711
 8125SOL    HW225275   5.519   5.559   2.620
 8126SOL     OW25276   5.789   4.500   2.120
 8126SOL    HW125277   5.853   4.428   2.094
 8126SOL    HW225278   5.753   4.481   2.212
 8127SOL     OW25279   3.289   4.259   0.833
 8127SOL    HW125280   3.319   4.163   0.837
 8127SOL    HW225281   3.370   4.318   0.824
 8128SOL     OW25282   3.671   2.648   5.335
 8128SOL    HW125283   3.762   2.666   5.372
 8128SOL    HW225284   3.640   2.727   5.282
 8129SOL     OW25285   5.105   0.027   0.383
 8129SOL    HW125286   5.103   0.093   0.308
 8129SOL    HW225287   5.031   6.981   0.371
 8130SOL     OW25288   1.142   6.994   0.560
 8130SOL    HW125289   1.239   6.979   0.578
 8130SOL    HW225290   1.128   6.997   0.461
 8131SOL     OW25291   1.149   1.203   0.565
 8131SOL    HW125292   1.194   1.278   0.614
 8131SOL    HW225293   1.189   1.194   0.474
 8132SOL     OW25294   6.501   4.853   3.495
 8132SOL    HW125295   6.584   4.798   3.502
 8132SOL    HW225296   6.511   4.919   3.421
 8133SOL     OW25297   0.985   5.701   1.899
 8133SOL    HW125298   0.921   5.772   1.929
 8133SOL    HW225299   1.047   5.739   1.830
 8134SOL     OW25300   1.854   2.696   1.904
 8134SOL    HW125301   1.938   2.650   1.874
 8134SOL    HW225302   1.775   2.648   1.866
 8135SOL     OW25303   4.333   5.945   2.117
 8135SOL    HW125304   4.404   5.945   2.188
 8135SOL    HW225305   4.286   5.856   2.118
 8136SOL     OW25306   3.759   6.117   0.930
 8136SOL    HW125307   3.753   6.144   0.834
 8136SOL    HW225308   3.827   6.173   0.977
 8137SOL     OW25309   2.841   3.724   5.751
 8137SOL    HW125310   2.784   3.642   5.738
 8137SOL    HW225311   2.911   3.727   5.680
 8138SOL     OW25312   4.564   0.871   3.499
 8138SOL    HW125313   4.623   0.827   3.567
 8138SOL    HW225314   4.618   0.894   3.418
 8139SOL     OW25315   1.790   2.571   3.805
 8139SOL    HW125316   1.739   2.652   3.834
 8139SOL    HW225317   1.735   2.489   3.822
 8140SOL     OW25318   4.593   0.268   0.999
 8140SOL    HW125319   4.501   0.240   1.026
 8140SOL    HW225320   4.630   0.330   1.067
 8141SOL     OW25321   5.403   0.959   4.970
 8141SOL    HW125322   5.415   1.053   4.936
 8141SOL    HW225323   5.492   0.919   4.988
 8142SOL     OW25324   2.620   5.328   1.386
 8142SOL    HW125325   2.540   5.387   1.395
 8142SOL    HW225326   2.662   5.341   1.296
 8143SOL     OW25327   6.365   5.263   0.944
 8143SOL    HW125328   6.279   5.301   0.977
 8143SOL    HW225329   6.435   5.335   0.944
 8144SOL     OW25330   0.022   5.189   0.240
 8144SOL    HW125331   0.001   5.096   0.267
 8144SOL    HW225332   0.066   5.237   0.316
 8145SOL     OW25333   5.541   5.224   6.871
 8145SOL    HW125334   5.574   5.305   6.822
 8145SOL    HW225335   5.620   5.170   6.902
 8146SOL     OW25336   6.131   0.229   4.050
 8146SOL    HW125337   6.098   0.170   3.976
 8146SOL    HW225338   6.228   0.249   4.036
 8147SOL     OW25339   2.438   0.966   6.469
 8147SOL    HW125340   2.432   0.904   6.391
 8147SOL    HW225341   2.421   0.915   6.554
 8148SOL     OW25342   4.604   4.711   0.654
 8148SOL    HW125343   4.657   4.651   0.715
 8148SOL    HW225344   4.548   4.655   0.593
 8149SOL     OW25345   0.369   6.816   5.050
 8149SOL    HW125346   0.440   6.886   5.046
 8149SOL    HW225347   0.335   6.797   4.958
 8150SOL     OW25348   0.268   4.211   0.840
 8150SOL    HW125349   0.357   4.168   0.858
 8150SOL    HW225350   0.266   4.244   0.746
 8151SOL     OW25351   6.514   6.130   2.741
 8151SOL    HW125352   6.428   6.109   2.788
 8151SOL    HW225353   6.507   6.106   2.645
 8152SOL     OW25354   4.865   1.471   2.983
 8152SOL    HW125355   4.881   1.391   2.926
 8152SOL    HW225356   4.942   1.535   2.974
 8153SOL     OW25357   0.335   1.475   1.917
 8153SOL    HW125358   0.248   1.523   1.923
 8153SOL    HW225359   0.369   1.455   2.009
 8154SOL     OW25360   1.952   0.459   3.062
 8154SOL    HW125361   1.909   0.448   2.972
 8154SOL    HW225362   1.939   0.375   3.115
 8155SOL     OW25363   2.173   4.998   3.425
 8155SOL    HW125364   2.144   5.014   3.519
 8155SOL    HW225365   2.188   4.900   3.410
 8156SOL     OW25366   0.865   4.745   1.456
 8156SOL    HW125367   0.941   4.796   1.497
 8156SOL    HW225368   0.874   4.648   1.480
 8157SOL     OW25369   6.826   3.779   4.806
 8157SOL    HW125370   6.901   3.844   4.823
 8157SOL    HW225371   6.829   3.707   4.876
 8158SOL     OW25372   6.338   5.509   6.785
 8158SOL    HW125373   6.302   5.448   6.856
 8158SOL    HW225374   6.264   5.565   6.749
 8159SOL     OW25375   3.162   7.006   5.260
 8159SOL    HW125376   3.141   7.021   5.163
 8159SOL    HW225377   3.245   0.035   5.284
 8160SOL     OW25378   5.505   1.225   2.371
 8160SOL    HW125379   5.604   1.232   2.357
 8160SOL    HW225380   5.462   1.189   2.288
 8161SOL     OW25381   5.627   3.580   1.580
 8161SOL    HW125382   5.534   3.608   1.606
 8161SOL    HW225383   5.668   3.529   1.656
 8162SOL     OW25384   0.214   5.400   5.732
 8162SOL    HW125385   0.263   5.316   5.709
 8162SOL    HW225386   0.225   5.466   5.658
 8163SOL     OW25387   4.611   4.674   5.215
 8163SOL    HW125388   4.656   4.605   5.271
 8163SOL    HW225389   4.679   4.728   5.165
 8164SOL     OW25390   5.631   1.524   1.643
 8164SOL    HW125391   5.655   1.610   1.689
 8164SOL    HW225392   5.640   1.536   1.544
 8165SOL     OW25393   0.016   0.873   0.441
 8165SOL    HW125394   6.957   0.824   0.476
 8165SOL    HW225395   0.075   0.809   0.391
 8166SOL     OW25396   1.399   1.590   5.224
 8166SOL    HW125397   1.411   1.502   5.177
 8166SOL    HW225398   1.302   1.610   5.232
 8167SOL     OW25399   1.771   3.133   4.077
 8167SOL    HW125400   1.746   3.225   4.109
 8167SOL    HW225401   1.693   3.072   4.089
 8168SOL     OW25402   1.692   0.660   2.233
 8168SOL    HW125403   1.725   0.751   2.207
 8168SOL    HW225404   1.596   0.667   2.263
 8169SOL     OW25405   5.287   2.331   0.256
 8169SOL    HW125406   5.218   2.381   0.308
 8169SOL    HW225407   5.244   2.286   0.177
 8170SOL     OW25408   6.410   5.002   2.287
 8170SOL    HW125409   6.314   5.030   2.290
 8170SOL    HW225410   6.460   5.043   2.363
 8171SOL     OW25411   2.363   1.101   0.626
 8171SOL    HW125412   2.451   1.063   0.598
 8171SOL    HW225413   2.378   1.171   0.697
 8172SOL     OW25414   0.887   2.520   0.657
 8172SOL    HW125415   0.882   2.464   0.575
 8172SOL    HW225416   0.866   2.615   0.635
 8173SOL     OW25417   5.646   1.001   1.316
 8173SOL    HW125418   5.568   1.048   1.276
 8173SOL    HW225419   5.697   0.954   1.244
 8174SOL     OW25420   2.998   5.644   3.188
 8174SOL    HW125421   2.926   5.581   3.157
 8174SOL    HW225422   3.024   5.704   3.113
 8175SOL     OW25423   0.565   1.360   5.779
 8175SOL    HW125424   0.584   1.443   5.727
 8175SOL    HW225425   0.479   1.319   5.747
 8176SOL     OW25426   2.473   4.416   0.318
 8176SOL    HW125427   2.512   4.339   0.368
 8176SOL    HW225428   2.395   4.453   0.367
 8177SOL     OW25429   3.055   0.977   3.662
 8177SOL    HW125430   3.125   0.918   3.702
 8177SOL    HW225431   3.085   1.007   3.571
 8178SOL     OW25432   2.962   6.727   1.692
 8178SOL    HW125433   2.941   6.760   1.600
 8178SOL    HW225434   2.882   6.679   1.729
 8179SOL     OW25435   5.607   1.018   3.255
 8179SOL    HW125436   5.595   0.919   3.246
 8179SOL    HW225437   5.564   1.050   3.339
 8180SOL     OW25438   5.133   6.615   0.265
 8180SOL    HW125439   5.140   6.686   0.334
 8180SOL    HW225440   5.085   6.536   0.304
 8181SOL     OW25441   0.268   0.370   0.367
 8181SOL    HW125442   0.274   0.463   0.329
 8181SOL    HW225443   0.334   0.361   0.441
 8182SOL     OW25444   2.887   3.773   4.676
 8182SOL    HW125445   2.800   3.727   4.698
 8182SOL    HW225446   2.961   3.727   4.724
 8183SOL     OW25447   7.018   0.182   5.201
 8183SOL    HW125448   0.049   0.101   5.176
 8183SOL    HW225449   6.929   0.179   5.156
 8184SOL     OW25450   0.693   6.112   6.747
 8184SOL    HW125451   0.694   6.150   6.839
 8184SOL    HW225452   0.729   6.019   6.748
 8185SOL     OW25453   0.525   6.398   6.208
 8185SOL    HW125454   0.605   6.441   6.250
 8185SOL    HW225455   0.545   6.379   6.112
 8186SOL     OW25456   1.904   5.469   6.328
 8186SOL    HW125457   1.842   5.482   6.251
 8186SOL    HW225458   1.970   5.544   6.331
 8187SOL     OW25459   0.945   1.019   5.723
 8187SOL    HW125460   0.995   1.070   5.653
 8187SOL    HW225461   0.852   1.055   5.732
 8188SOL     OW25462   1.874   3.015   3.378
 8188SOL    HW125463   1.893   2.919   3.402
 8188SOL    HW225464   1.872   3.025   3.279
 8189SOL     OW25465   5.731   5.403   3.496
 8189SOL    HW125466   5.824   5.400   3.459
 8189SOL    HW225467   5.681   5.478   3.453
 8190SOL     OW25468   0.089   4.341   2.717
 8190SOL    HW125469   0.168   4.337   2.778
 8190SOL    HW225470   0.105   4.409   2.645
 8191SOL     OW25471   4.005   5.495   0.616
 8191SOL    HW125472   4.084   5.443   0.647
 8191SOL    HW225473   3.922   5.456   0.656
 8192SOL     OW25474   0.610   5.670   3.669
 8192SOL    HW125475   0.683   5.713   3.722
 8192SOL    HW225476   0.533   5.649   3.729
 8193SOL     OW25477   0.621   4.519   4.547
 8193SOL    HW125478   0.659   4.612   4.546
 8193SOL    HW225479   0.527   4.521   4.513
 8194SOL     OW25480   4.580   6.451   1.865
 8194SOL    HW125481   4.509   6.521   1.853
 8194SOL    HW225482   4.600   6.440   1.962
 8195SOL     OW25483   6.369   6.414   2.689
 8195SOL    HW125484   6.293   6.443   2.631
 8195SOL    HW225485   6.374   6.315   2.691
 8196SOL     OW25486   5.014   0.849   0.981
 8196SOL    HW125487   4.930   0.825   1.030
 8196SOL    HW225488   5.007   0.820   0.886
 8197SOL     OW25489   3.853   1.519   2.560
 8197SOL    HW125490   3.942   1.551   2.593
 8197SOL    HW225491   3.787   1.521   2.635
 8198SOL     OW25492   1.353   6.954   1.868
 8198SOL    HW125493   1.262   6.934   1.905
 8198SOL    HW225494   1.423   6.923   1.933
 8199SOL     OW25495   5.521   2.775   7.005
 8199SOL    HW125496   5.612   2.817   6.995
 8199SOL    HW225497   5.510   2.703   6.936
 8200SOL     OW25498   4.751   3.346   0.733
 8200SOL    HW125499   4.793   3.413   0.672
 8200SOL    HW225500   4.810   3.333   0.813
 8201SOL     OW25501   5.982   7.001   4.901
 8201SOL    HW125502   5.944   6.931   4.961
 8201SOL    HW225503   5.908   0.033   4.859
 8202SOL     OW25504   0.687   6.904   2.116
 8202SOL    HW125505   0.617   6.864   2.058
 8202SOL    HW225506   0.749   6.833   2.149
 8203SOL     OW25507   1.375   3.297   1.914
 8203SOL    HW125508   1.456   3.242   1.932
 8203SOL    HW225509   1.364   3.308   1.815
 8204SOL     OW25510   3.058   2.811   1.179
 8204SOL    HW125511   3.073   2.901   1.218
 8204SOL    HW225512   2.961   2.790   1.179
 8205SOL     OW25513   0.991   3.573   0.097
 8205SOL    HW125514   0.994   3.583   0.196
 8205SOL    HW225515   1.062   3.630   0.055
 8206SOL     OW25516   3.743   0.388   0.637
 8206SOL    HW125517   3.761   0.343   0.725
 8206SOL    HW225518   3.686   0.329   0.580
 8207SOL     OW25519   4.201   3.454   5.179
 8207SOL    HW125520   4.212   3.435   5.081
 8207SOL    HW225521   4.291   3.468   5.221
 8208SOL     OW25522   2.346   0.539   0.584
 8208SOL    HW125523   2.253   0.561   0.552
 8208SOL    HW225524   2.365   0.591   0.667
 8209SOL     OW25525   6.010   1.446   5.011
 8209SOL    HW125526   6.085   1.380   5.015
 8209SOL    HW225527   6.014   1.496   4.925
 8210SOL     OW25528   2.017   2.323   6.602
 8210SOL    HW125529   1.959   2.284   6.530
 8210SOL    HW225530   1.962   2.336   6.685
 8211SOL     OW25531   3.478   4.261   1.466
 8211SOL    HW125532   3.486   4.334   1.535
 8211SOL    HW225533   3.565   4.251   1.418
 8212SOL     OW25534   1.660   2.933   3.691
 8212SOL    HW125535   1.734   2.984   3.735
 8212SOL    HW225536   1.605   2.887   3.760
 8213SOL     OW25537   6.886   5.242   1.195
 8213SOL    HW125538   6.910   5.209   1.103
 8213SOL    HW225539   6.937   5.189   1.263
 8214SOL     OW25540   5.707   4.031   3.509
 8214SOL    HW125541   5.736   4.118   3.550
 8214SOL    HW225542   5.787   3.973   3.494
 8215SOL     OW25543   3.694   5.408   3.851
 8215SOL    HW125544   3.620   5.348   3.820
 8215SOL    HW225545   3.654   5.489   3.896
 8216SOL     OW25546   5.568   3.746   3.738
 8216SOL    HW125547   5.664   3.760   3.761
 8216SOL    HW225548   5.559   3.730   3.639
 8217SOL     OW25549   2.268   6.133   6.912
 8217SOL    HW125550   2.261   6.133   6.813
 8217SOL    HW225551   2.260   6.227   6.946
 8218SOL     OW25552   6.988   1.975   6.754
 8218SOL    HW125553   6.938   2.060   6.739
 8218SOL    HW225554   0.061   1.985   6.722
 8219SOL     OW25555   6.251   1.897   6.826
 8219SOL    HW125556   6.347   1.925   6.824
 8219SOL    HW225557   6.217   1.888   6.733
 8220SOL     OW25558   3.763   3.529   2.415
 8220SOL    HW125559   3.743   3.431   2.426
 8220SOL    HW225560   3.831   3.557   2.483
 8221SOL     OW25561   5.176   6.044   3.704
 8221SOL    HW125562   5.161   5.945   3.702
 8221SOL    HW225563   5.250   6.067   3.641
 8222SOL     OW25564   5.884   1.760   1.383
 8222SOL    HW125565   5.959   1.752   1.449
 8222SOL    HW225566   5.826   1.678   1.388
 8223SOL     OW25567   0.531   4.942   5.832
 8223SOL    HW125568   0.515   4.991   5.747
 8223SOL    HW225569   0.464   4.970   5.901
 8224SOL     OW25570   1.320   2.908   4.086
 8224SOL    HW125571   1.282   2.885   4.176
 8224SOL    HW225572   1.294   2.839   4.020
 8225SOL     OW25573   4.731   1.217   0.461
 8225SOL    HW125574   4.740   1.299   0.405
 8225SOL    HW225575   4.659   1.230   0.529
 8226SOL     OW25576   5.118   0.509   0.958
 8226SOL    HW125577   5.164   0.501   0.870
 8226SOL    HW225578   5.023   0.538   0.943
 8227SOL     OW25579   6.323   3.203   3.561
 8227SOL    HW125580   6.366   3.232   3.475
 8227SOL    HW225581   6.298   3.107   3.555
 8228SOL     OW25582   6.424   2.662   5.651
 8228SOL    HW125583   6.358   2.639   5.580
 8228SOL    HW225584   6.434   2.584   5.714
 8229SOL     OW25585   3.727   5.138   0.144
 8229SOL    HW125586   3.720   5.237   0.156
 8229SOL    HW225587   3.636   5.097   0.152
 8230SOL     OW25588   5.213   0.255   4.183
 8230SOL    HW125589   5.198   0.307   4.099
 8230SOL    HW225590   5.264   0.171   4.162
 8231SOL     OW25591   4.906   6.162   0.757
 8231SOL    HW125592   4.850   6.191   0.834
 8231SOL    HW225593   4.849   6.155   0.675
 8232SOL     OW25594   3.170   2.470   5.809
 8232SOL    HW125595   3.076   2.434   5.810
 8232SOL    HW225596   3.227   2.415   5.869
 8233SOL     OW25597   0.184   4.843   0.038
 8233SOL    HW125598   0.235   4.786   0.103
 8233SOL    HW225599   0.118   4.786   7.010
 8234SOL     OW25600   3.413   2.145   6.458
 8234SOL    HW125601   3.438   2.048   6.458
 8234SOL    HW225602   3.373   2.168   6.370
 8235SOL     OW25603   4.244   3.308   1.217
 8235SOL    HW125604   4.278   3.234   1.274
 8235SOL    HW225605   4.321   3.353   1.172
 8236SOL     OW25606   6.008   3.072   0.564
 8236SOL    HW125607   5.998   3.128   0.646
 8236SOL    HW225608   5.934   3.092   0.500
 8237SOL     OW25609   4.528   6.439   5.440
 8237SOL    HW125610   4.460   6.504   5.473
 8237SOL    HW225611   4.562   6.385   5.517
 8238SOL     OW25612   2.100   1.862   6.790
 8238SOL    HW125613   2.172   1.794   6.776
 8238SOL    HW225614   2.118   1.942   6.732
 8239SOL     OW25615   0.473   1.987   6.031
 8239SOL    HW125616   0.414   2.050   5.981
 8239SOL    HW225617   0.564   1.988   5.990
 8240SOL     OW25618   3.965   3.929   3.647
 8240SOL    HW125619   4.050   3.880   3.668
 8240SOL    HW225620   3.950   3.930   3.548
 8241SOL     OW25621   3.889   6.827   0.567
 8241SOL    HW125622   3.978   6.865   0.543
 8241SOL    HW225623   3.876   6.738   0.523
 8242SOL     OW25624   0.806   4.246   5.624
 8242SOL    HW125625   0.897   4.258   5.663
 8242SOL    HW225626   0.737   4.266   5.695
 8243SOL     OW25627   0.582   3.839   5.188
 8243SOL    HW125628   0.565   3.796   5.099
 8243SOL    HW225629   0.607   3.770   5.255
 8244SOL     OW25630   0.164   6.920   4.074
 8244SOL    HW125631   0.137   7.008   4.114
 8244SOL    HW225632   0.082   6.870   4.046
 8245SOL     OW25633   3.321   2.678   0.782
 8245SOL    HW125634   3.267   2.617   0.725
 8245SOL    HW225635   3.414   2.643   0.791
 8246SOL     OW25636   5.419   3.269   5.646
 8246SOL    HW125637   5.453   3.322   5.723
 8246SOL    HW225638   5.319   3.269   5.647
 8247SOL     OW25639   1.048   0.332   1.129
 8247SOL    HW125640   1.009   0.277   1.056
 8247SOL    HW225641   0.995   0.416   1.140
 8248SOL     OW25642   6.048   4.365   3.531
 8248SOL    HW125643   6.081   4.439   3.472
 8248SOL    HW225644   6.048   4.396   3.626
 8249SOL     OW25645   2.117   4.818   3.828
 8249SOL    HW125646   2.169   4.815   3.913
 8249SOL    HW225647   2.131   4.733   3.777
 8250SOL     OW25648   4.110   3.765   2.412
 8250SOL    HW125649   4.073   3.777   2.504
 8250SOL    HW225650   4.137   3.669   2.400
 8251SOL     OW25651   6.036   2.045   4.751
 8251SOL    HW125652   6.056   2.127   4.805
 8251SOL    HW225653   6.009   2.073   4.659
 8252SOL     OW25654   1.773   3.143   5.157
 8252SOL    HW125655   1.782   3.071   5.088
 8252SOL    HW225656   1.801   3.108   5.246
 8253SOL     OW25657   3.161   3.105   5.194
 8253SOL    HW125658   3.167   3.197   5.156
 8253SOL    HW225659   3.240   3.088   5.253
 8254SOL     OW25660   3.899   5.703   3.870
 8254SOL    HW125661   3.838   5.625   3.870
 8254SOL    HW225662   3.994   5.672   3.875
 8255SOL     OW25663   4.693   5.421   3.827
 8255SOL    HW125664   4.759   5.361   3.874
 8255SOL    HW225665   4.622   5.449   3.891
 8256SOL     OW25666   0.009   1.489   4.289
 8256SOL    HW125667   6.953   1.426   4.275
 8256SOL    HW225668   0.078   1.444   4.346
 8257SOL     OW25669   6.466   4.283   3.691
 8257SOL    HW125670   6.426   4.374   3.700
 8257SOL    HW225671   6.447   4.230   3.774
 8258SOL     OW25672   4.394   1.446   0.151
 8258SOL    HW125673   4.330   1.380   0.192
 8258SOL    HW225674   4.470   1.462   0.214
 8259SOL     OW25675   3.811   1.839   1.966
 8259SOL    HW125676   3.753   1.919   1.947
 8259SOL    HW225677   3.898   1.870   2.003
 8260SOL     OW25678   2.758   6.008   0.318
 8260SOL    HW125679   2.666   6.040   0.296
 8260SOL    HW225680   2.760   5.908   0.317
 8261SOL     OW25681   5.408   1.427   2.028
 8261SOL    HW125682   5.418   1.333   1.995
 8261SOL    HW225683   5.322   1.436   2.078
 8262SOL     OW25684   0.838   2.197   1.228
 8262SOL    HW125685   0.930   2.227   1.251
 8262SOL    HW225686   0.776   2.220   1.303
 8263SOL     OW25687   6.387   1.383   1.038
 8263SOL    HW125688   6.301   1.428   1.017
 8263SOL    HW225689   6.393   1.366   1.136
 8264SOL     OW25690   2.094   5.139   3.198
 8264SOL    HW125691   2.173   5.145   3.137
 8264SOL    HW225692   2.122   5.099   3.285
 8265SOL     OW25693   1.854   0.493   2.073
 8265SOL    HW125694   1.805   0.490   1.986
 8265SOL    HW225695   1.811   0.560   2.134
 8266SOL     OW25696   3.064   6.957   2.781
 8266SOL    HW125697   2.989   6.903   2.820
 8266SOL    HW225698   3.136   6.896   2.750
 8267SOL     OW25699   0.846   3.354   0.961
 8267SOL    HW125700   0.895   3.269   0.942
 8267SOL    HW225701   0.851   3.373   1.059
 8268SOL     OW25702   2.726   6.692   5.365
 8268SOL    HW125703   2.709   6.790   5.364
 8268SOL    HW225704   2.816   6.674   5.406
 8269SOL     OW25705   5.694   1.974   1.301
 8269SOL    HW125706   5.777   1.924   1.326
 8269SOL    HW225707   5.705   2.070   1.327
 8270SOL     OW25708   3.599   6.070   3.739
 8270SOL    HW125709   3.552   6.042   3.655
 8270SOL    HW225710   3.561   6.156   3.772
 8271SOL     OW25711   6.723   1.611   2.664
 8271SOL    HW125712   6.797   1.666   2.626
 8271SOL    HW225713   6.760   1.551   2.735
 8272SOL     OW25714   3.408   0.978   3.059
 8272SOL    HW125715   3.418   1.051   3.127
 8272SOL    HW225716   3.463   1.001   2.978
 8273SOL     OW25717   2.475   6.163   0.667
 8273SOL    HW125718   2.497   6.081   0.719
 8273SOL    HW225719   2.480   6.243   0.728
 8274SOL     OW25720   5.320   5.193   3.040
 8274SOL    HW125721   5.334   5.114   2.979
 8274SOL    HW225722   5.264   5.164   3.118
 8275SOL     OW25723   5.094   2.079   5.948
 8275SOL    HW125724   5.007   2.076   5.898
 8275SOL    HW225725   5.091   2.151   6.017
 8276SOL     OW25726   0.696   1.814   3.326
 8276SOL    HW125727   0.694   1.823   3.227
 8276SOL    HW225728   0.633   1.742   3.355
 8277SOL     OW25729   6.751   6.993   6.838
 8277SOL    HW125730   6.744   6.976   6.740
 8277SOL    HW225731   6.769   0.069   6.854
 8278SOL     OW25732   2.273   2.561   0.792
 8278SOL    HW125733   2.269   2.553   0.892
 8278SOL    HW225734   2.180   2.570   0.756
 8279SOL     OW25735   0.066   6.219   4.150
 8279SOL    HW125736   0.083   6.126   4.119
 8279SOL    HW225737   6.989   6.231   4.167
 8280SOL     OW25738   3.256   2.496   5.543
 8280SOL    HW125739   3.278   2.405   5.505
 8280SOL    HW225740   3.232   2.487   5.639
 8281SOL     OW25741   0.119   5.768   1.789
 8281SOL    HW125742   0.183   5.795   1.718
 8281SOL    HW225743   0.102   5.670   1.784
 8282SOL     OW25744   5.413   2.187   5.566
 8282SOL    HW125745   5.501   2.139   5.565
 8282SOL    HW225746   5.341   2.123   5.593
 8283SOL     OW25747   1.745   4.170   6.071
 8283SOL    HW125748   1.689   4.217   6.002
 8283SOL    HW225749   1.796   4.096   6.027
 8284SOL     OW25750   0.159   4.499   1.992
 8284SOL    HW125751   0.167   4.406   2.030
 8284SOL    HW225752   0.230   4.512   1.923
 8285SOL     OW25753   3.363   3.342   5.318
 8285SOL    HW125754   3.391   3.246   5.321
 8285SOL    HW225755   3.287   3.353   5.254
 8286SOL     OW25756   6.597   2.123   6.069
 8286SOL    HW125757   6.522   2.057   6.063
 8286SOL    HW225758   6.604   2.173   5.983
 8287SOL     OW25759   2.158   5.564   4.878
 8287SOL    HW125760   2.256   5.550   4.896
 8287SOL    HW225761   2.112   5.475   4.872
 8288SOL     OW25762   2.547   2.533   3.399
 8288SOL    HW125763   2.466   2.484   3.365
 8288SOL    HW225764   2.524   2.578   3.485
 8289SOL     OW25765   0.672   6.295   6.957
 8289SOL    HW125766   0.685   6.391   6.934
 8289SOL    HW225767   0.702   6.279   0.030
 8290SOL     OW25768   6.494   2.554   0.502
 8290SOL    HW125769   6.555   2.477   0.518
 8290SOL    HW225770   6.409   2.541   0.553
 8291SOL     OW25771   4.705   0.231   6.717
 8291SOL    HW125772   4.725   0.292   6.640
 8291SOL    HW225773   4.606   0.216   6.724
 8292SOL     OW25774   3.160   6.764   6.915
 8292SOL    HW125775   3.208   6.706   6.980
 8292SOL    HW225776   3.155   6.718   6.827
 8293SOL     OW25777   5.344   5.944   6.169
 8293SOL    HW125778   5.263   5.964   6.225
 8293SOL    HW225779   5.356   5.845   6.162
 8294SOL     OW25780   5.561   2.295   0.198
 8294SOL    HW125781   5.476   2.286   0.249
 8294SOL    HW225782   5.606   2.206   0.192
 8295SOL     OW25783   4.946   4.103   0.992
 8295SOL    HW125784   4.922   4.198   1.012
 8295SOL    HW225785   4.892   4.042   1.050
 8296SOL     OW25786   1.866   5.512   6.794
 8296SOL    HW125787   1.924   5.573   6.848
 8296SOL    HW225788   1.805   5.460   6.856
 8297SOL     OW25789   0.194   2.744   2.984
 8297SOL    HW125790   0.286   2.776   2.962
 8297SOL    HW225791   0.199   2.676   3.057
 8298SOL     OW25792   4.855   0.511   1.729
 8298SOL    HW125793   4.825   0.575   1.799
 8298SOL    HW225794   4.808   0.531   1.643
 8299SOL     OW25795   6.452   2.110   1.784
 8299SOL    HW125796   6.427   2.085   1.690
 8299SOL    HW225797   6.369   2.110   1.841
 8300SOL     OW25798   0.807   4.927   3.845
 8300SOL    HW125799   0.828   4.841   3.798
 8300SOL    HW225800   0.781   4.908   3.940
 8301SOL     OW25801   3.450   2.734   6.826
 8301SOL    HW125802   3.364   2.769   6.787
 8301SOL    HW225803   3.451   2.634   6.820
 8302SOL     OW25804   5.982   6.343   6.684
 8302SOL    HW125805   6.068   6.345   6.633
 8302SOL    HW225806   5.948   6.437   6.695
 8303SOL     OW25807   0.274   6.840   4.811
 8303SOL    HW125808   0.293   6.850   4.713
 8303SOL    HW225809   0.186   6.794   4.824
 8304SOL     OW25810   0.763   3.808   6.785
 8304SOL    HW125811   0.862   3.825   6.788
 8304SOL    HW225812   0.715   3.885   6.827
 8305SOL     OW25813   3.754   5.144   3.400
 8305SOL    HW125814   3.686   5.189   3.342
 8305SOL    HW225815   3.789   5.208   3.467
 8306SOL     OW25816   0.731   3.114   4.161
 8306SOL    HW125817   0.643   3.089   4.122
 8306SOL    HW225818   0.718   3.150   4.253
 8307SOL     OW25819   4.227   5.717   1.173
 8307SOL    HW125820   4.276   5.794   1.215
 8307SOL    HW225821   4.288   5.670   1.110
 8308SOL     OW25822   4.006   6.544   2.286
 8308SOL    HW125823   4.094   6.516   2.326
 8308SOL    HW225824   3.932   6.517   2.348
 8309SOL     OW25825   5.599   5.393   2.019
 8309SOL    HW125826   5.593   5.341   2.105
 8309SOL    HW225827   5.647   5.479   2.036
 8310SOL     OW25828   6.990   4.748   0.725
 8310SOL    HW125829   6.980   4.847   0.711
 8310SOL    HW225830   0.060   4.730   0.763
 8311SOL     OW25831   6.587   0.517   6.850
 8311SOL    HW125832   6.656   0.503   6.779
 8311SOL    HW225833   6.603   0.606   6.893
 8312SOL     OW25834   5.431   6.829   1.552
 8312SOL    HW125835   5.489   6.872   1.482
 8312SOL    HW225836   5.400   6.740   1.520
 8313SOL     OW25837   3.480   1.321   2.499
 8313SOL    HW125838   3.566   1.315   2.449
 8313SOL    HW225839   3.405   1.339   2.434
 8314SOL     OW25840   6.648   0.274   2.397
 8314SOL    HW125841   6.614   0.352   2.449
 8314SOL    HW225842   6.574   0.234   2.343
 8315SOL     OW25843   4.786   3.923   0.254
 8315SOL    HW125844   4.703   3.924   0.198
 8315SOL    HW225845   4.866   3.908   0.195
 8316SOL     OW25846   1.237   3.726   0.005
 8316SOL    HW125847   1.290   3.710   6.943
 8316SOL    HW225848   1.251   3.820   0.036
 8317SOL     OW25849   2.401   4.435   1.652
 8317SOL    HW125850   2.482   4.391   1.692
 8317SOL    HW225851   2.409   4.437   1.552
 8318SOL     OW25852   4.027   1.665   4.980
 8318SOL    HW125853   3.983   1.754   4.993
 8318SOL    HW225854   3.957   1.596   4.961
 8319SOL     OW25855   3.543   1.396   5.332
 8319SOL    HW125856   3.535   1.341   5.249
 8319SOL    HW225857   3.462   1.452   5.343
 8320SOL     OW25858   2.936   4.372   1.204
 8320SOL    HW125859   2.951   4.324   1.118
 8320SOL    HW225860   2.886   4.312   1.267
 8321SOL     OW25861   0.853   0.116   1.176
 8321SOL    HW125862   0.909   0.188   1.217
 8321SOL    HW225863   0.861   0.121   1.076
 8322SOL     OW25864   6.753   6.603   6.978
 8322SOL    HW125865   6.755   6.520   0.013
 8322SOL    HW225866   6.735   6.682   0.016
 8323SOL     OW25867   0.889   1.724   2.222
 8323SOL    HW125868   0.836   1.643   2.196
 8323SOL    HW225869   0.828   1.801   2.235
 8324SOL     OW25870   6.131   0.661   2.388
 8324SOL    HW125871   6.061   0.636   2.321
 8324SOL    HW225872   6.129   0.596   2.464
 8325SOL     OW25873   3.369   3.228   4.015
 8325SOL    HW125874   3.396   3.314   3.974
 8325SOL    HW225875   3.407   3.221   4.107
 8326SOL     OW25876   4.388   2.847   5.724
 8326SOL    HW125877   4.387   2.850   5.824
 8326SOL    HW225878   4.346   2.930   5.688
 8327SOL     OW25879   5.440   2.404   6.232
 8327SOL    HW125880   5.432   2.503   6.244
 8327SOL    HW225881   5.528   2.383   6.189
 8328SOL     OW25882   2.069   2.258   6.047
 8328SOL    HW125883   2.144   2.260   6.113
 8328SOL    HW225884   1.986   2.226   6.092
 8329SOL     OW25885   6.886   2.999   5.568
 8329SOL    HW125886   6.861   3.026   5.476
 8329SOL    HW225887   6.819   2.934   5.604
 8330SOL     OW25888   2.191   6.423   0.918
 8330SOL    HW125889   2.161   6.478   0.840
 8330SOL    HW225890   2.116   6.416   0.984
 8331SOL     OW25891   2.863   6.683   1.131
 8331SOL    HW125892   2.959   6.665   1.149
 8331SOL    HW225893   2.853   6.770   1.084
 8332SOL     OW25894   4.637   5.283   2.464
 8332SOL    HW125895   4.612   5.331   2.548
 8332SOL    HW225896   4.735   5.291   2.448
 8333SOL     OW25897   0.607   5.718   0.058
 8333SOL    HW125898   0.548   5.723   6.998
 8333SOL    HW225899   0.568   5.653   0.123
 8334SOL     OW25900   6.047   1.925   3.736
 8334SOL    HW125901   6.016   1.961   3.825
 8334SOL    HW225902   6.109   1.992   3.694
 8335SOL     OW25903   6.123   6.424   5.782
 8335SOL    HW125904   6.130   6.519   5.810
 8335SOL    HW225905   6.031   6.405   5.748
 8336SOL     OW25906   0.803   1.772   1.640
 8336SOL    HW125907   0.792   1.673   1.654
 8336SOL    HW225908   0.724   1.807   1.589
 8337SOL     OW25909   0.635   6.337   2.722
 8337SOL    HW125910   0.713   6.387   2.761
 8337SOL    HW225911   0.556   6.398   2.715
 8338SOL     OW25912   1.511   4.630   1.707
 8338SOL    HW125913   1.561   4.694   1.649
 8338SOL    HW225914   1.510   4.540   1.664
 8339SOL     OW25915   5.034   1.880   2.642
 8339SOL    HW125916   5.100   1.848   2.710
 8339SOL    HW225917   5.062   1.849   2.551
 8340SOL     OW25918   5.092   3.963   0.632
 8340SOL    HW125919   5.116   3.891   0.567
 8340SOL    HW225920   4.995   3.987   0.620
 8341SOL     OW25921   2.732   6.124   1.238
 8341SOL    HW125922   2.808   6.188   1.234
 8341SOL    HW225923   2.655   6.165   1.288
 8342SOL     OW25924   4.094   0.900   0.939
 8342SOL    HW125925   4.090   0.802   0.958
 8342SOL    HW225926   4.184   0.936   0.967
 8343SOL     OW25927   1.352   5.345   6.018
 8343SOL    HW125928   1.389   5.344   6.111
 8343SOL    HW225929   1.254   5.363   6.021
 8344SOL     OW25930   4.660   6.340   5.694
 8344SOL    HW125931   4.749   6.322   5.652
 8344SOL    HW225932   4.642   6.271   5.765
 8345SOL     OW25933   5.928   1.018   2.752
 8345SOL    HW125934   5.947   0.939   2.810
 8345SOL    HW225935   5.838   1.007   2.709
 8346SOL     OW25936   3.012   5.558   1.598
 8346SOL    HW125937   3.072   5.488   1.558
 8346SOL    HW225938   3.055   5.595   1.680
 8347SOL     OW25939   3.798   6.820   5.425
 8347SOL    HW125940   3.707   6.780   5.418
 8347SOL    HW225941   3.804   6.901   5.368
 8348SOL     OW25942   0.914   0.805   0.397
 8348SOL    HW125943   0.849   0.808   0.473
 8348SOL    HW225944   0.984   0.875   0.411
 8349SOL     OW25945   5.678   4.199   1.281
 8349SOL    HW125946   5.682   4.130   1.353
 8349SOL    HW225947   5.770   4.225   1.254
 8350SOL     OW25948   6.599   1.157   5.228
 8350SOL    HW125949   6.637   1.188   5.316
 8350SOL    HW225950   6.674   1.134   5.166
 8351SOL     OW25951   3.361   5.938   3.919
 8351SOL    HW125952   3.307   5.968   3.840
 8351SOL    HW225953   3.395   5.845   3.903
 8352SOL     OW25954   6.885   6.423   2.203
 8352SOL    HW125955   6.917   6.492   2.138
 8352SOL    HW225956   6.960   6.363   2.229
 8353SOL     OW25957   0.388   3.482   2.812
 8353SOL    HW125958   0.355   3.403   2.863
 8353SOL    HW225959   0.485   3.469   2.789
 8354SOL     OW25960   2.658   1.144   6.784
 8354SOL    HW125961   2.582   1.201   6.753
 8354SOL    HW225962   2.725   1.202   6.830
 8355SOL     OW25963   3.411   0.090   7.019
 8355SOL    HW125964   3.325   0.060   6.978
 8355SOL    HW225965   3.465   0.010   0.023
 8356SOL     OW25966   2.045   6.011   7.011
 8356SOL    HW125967   2.137   6.039   6.985
 8356SOL    HW225968   2.046   5.974   0.083
 8357SOL     OW25969   4.499   5.968   5.028
 8357SOL    HW125970   4.410   6.001   4.994
 8357SOL    HW225971   4.501   5.868   5.024
 8358SOL     OW25972   1.765   3.109   5.455
 8358SOL    HW125973   1.857   3.108   5.494
 8358SOL    HW225974   1.723   3.019   5.466
 8359SOL     OW25975   4.206   5.309   4.667
 8359SOL    HW125976   4.243   5.314   4.574
 8359SOL    HW225977   4.163   5.396   4.690
 8360SOL     OW25978   5.366   6.978   2.905
 8360SOL    HW125979   5.357   6.883   2.876
 8360SOL    HW225980   5.462   6.997   2.927
 8361SOL     OW25981   1.937   0.444   2.539
 8361SOL    HW125982   1.986   0.511   2.596
 8361SOL    HW225983   2.000   0.372   2.510
 8362SOL     OW25984   2.870   1.891   0.497
 8362SOL    HW125985   2.905   1.981   0.524
 8362SOL    HW225986   2.782   1.902   0.451
 8363SOL     OW25987   6.921   3.017   0.278
 8363SOL    HW125988   6.869   3.101   0.266
 8363SOL    HW225989   6.913   2.960   0.196
 8364SOL     OW25990   6.847   3.720   3.433
 8364SOL    HW125991   6.825   3.624   3.413
 8364SOL    HW225992   6.792   3.750   3.511
 8365SOL     OW25993   1.754   3.538   6.318
 8365SOL    HW125994   1.700   3.609   6.363
 8365SOL    HW225995   1.812   3.492   6.385
 8366SOL     OW25996   3.360   6.797   2.902
 8366SOL    HW125997   3.285   6.739   2.932
 8366SOL    HW225998   3.352   6.814   2.804
 8367SOL     OW25999   5.748   6.556   3.971
 8367SOL    HW126000   5.680   6.489   3.941
 8367SOL    HW226001   5.703   6.627   4.025
 8368SOL     OW26002   3.008   5.357   5.889
 8368SOL    HW126003   2.911   5.373   5.873
 8368SOL    HW226004   3.060   5.378   5.807
 8369SOL     OW26005   1.753   1.494   0.614
 8369SOL    HW126006   1.739   1.570   0.677
 8369SOL    HW226007   1.723   1.520   0.522
 8370SOL     OW26008   1.103   1.624   6.142
 8370SOL    HW126009   1.014   1.591   6.173
 8370SOL    HW226010   1.175   1.581   6.196
 8371SOL     OW26011   1.600   3.132   1.001
 8371SOL    HW126012   1.518   3.189   1.007
 8371SOL    HW226013   1.674   3.184   0.959
 8372SOL     OW26014   6.751   0.915   2.861
 8372SOL    HW126015   6.713   1.007   2.873
 8372SOL    HW226016   6.825   0.919   2.794
 8373SOL     OW26017   1.642   5.594   5.414
 8373SOL    HW126018   1.667   5.501   5.440
 8373SOL    HW226019   1.664   5.609   5.318
 8374SOL     OW26020   6.799   6.844   0.098
 8374SOL    HW126021   6.808   6.916   0.030
 8374SOL    HW226022   6.735   6.873   0.169
 8375SOL     OW26023   3.725   6.621   6.054
 8375SOL    HW126024   3.674   6.539   6.079
 8375SOL    HW226025   3.815   6.594   6.017
 8376SOL     OW26026   3.039   0.861   4.486
 8376SOL    HW126027   2.958   0.892   4.437
 8376SOL    HW226028   3.059   0.766   4.462
 8377SOL     OW26029   5.849   4.526   1.555
 8377SOL    HW126030   5.900   4.447   1.591
 8377SOL    HW226031   5.773   4.494   1.500
 8378SOL     OW26032   4.888   2.872   3.024
 8378SOL    HW126033   4.984   2.879   3.051
 8378SOL    HW226034   4.845   2.962   3.032
 8379SOL     OW26035   6.292   2.756   2.555
 8379SOL    HW126036   6.349   2.686   2.600
 8379SOL    HW226037   6.348   2.836   2.535
 8380SOL     OW26038   4.156   1.849   3.246
 8380SOL    HW126039   4.125   1.926   3.191
 8380SOL    HW226040   4.087   1.827   3.315
 8381SOL     OW26041   1.899   5.416   5.212
 8381SOL    HW126042   1.989   5.384   5.241
 8381SOL    HW226043   1.833   5.340   5.219
 8382SOL     OW26044   1.095   3.129   2.384
 8382SOL    HW126045   1.127   3.216   2.346
 8382SOL    HW226046   1.056   3.073   2.312
 8383SOL     OW26047   2.750   2.434   5.902
 8383SOL    HW126048   2.655   2.405   5.912
 8383SOL    HW226049   2.785   2.464   5.991
 8384SOL     OW26050   0.555   6.779   1.833
 8384SOL    HW126051   0.456   6.768   1.830
 8384SOL    HW226052   0.584   6.845   1.764
 8385SOL     OW26053   4.746   2.338   1.586
 8385SOL    HW126054   4.754   2.432   1.554
 8385SOL    HW226055   4.671   2.332   1.653
 8386SOL     OW26056   1.089   4.202   2.731
 8386SOL    HW126057   1.004   4.254   2.730
 8386SOL    HW226058   1.153   4.243   2.796
 8387SOL     OW26059   0.546   2.846   1.166
 8387SOL    HW126060   0.574   2.750   1.181
 8387SOL    HW226061   0.452   2.849   1.134
 8388SOL     OW26062   2.072   0.689   2.150
 8388SOL    HW126063   2.038   0.596   2.138
 8388SOL    HW226064   2.151   0.703   2.089
 8389SOL     OW26065   5.468   2.799   1.789
 8389SOL    HW126066   5.530   2.743   1.843
 8389SOL    HW226067   5.451   2.755   1.701
 8390SOL     OW26068   5.597   1.794   5.479
 8390SOL    HW126069   5.634   1.722   5.421
 8390SOL    HW226070   5.557   1.752   5.561
 8391SOL     OW26071   6.247   0.543   0.964
 8391SOL    HW126072   6.344   0.565   0.953
 8391SOL    HW226073   6.192   0.625   0.946
 8392SOL     OW26074   5.261   3.222   4.989
 8392SOL    HW126075   5.245   3.279   5.070
 8392SOL    HW226076   5.208   3.259   4.913
 8393SOL     OW26077   5.338   0.007   1.111
 8393SOL    HW126078   5.315   0.104   1.103
 8393SOL    HW226079   5.270   6.981   1.168
 8394SOL     OW26080   6.064   3.229   1.495
 8394SOL    HW126081   6.156   3.240   1.458
 8394SOL    HW226082   6.061   3.151   1.556
 8395SOL     OW26083   1.903   0.960   4.592
 8395SOL    HW126084   1.826   0.902   4.566
 8395SOL    HW226085   1.915   0.956   4.691
 8396SOL     OW26086   4.286   5.749   4.988
 8396SOL    HW126087   4.240   5.807   5.056
 8396SOL    HW226088   4.276   5.791   4.897
 8397SOL     OW26089   6.413   0.961   2.912
 8397SOL    HW126090   6.395   1.030   2.841
 8397SOL    HW226091   6.361   0.984   2.994
 8398SOL     OW26092   4.959   2.154   6.206
 8398SOL    HW126093   4.901   2.212   6.150
 8398SOL    HW226094   5.053   2.185   6.201
 8399SOL     OW26095   6.994   5.031   0.658
 8399SOL    HW126096   0.045   5.048   0.724
 8399SOL    HW226097   6.963   5.118   0.619
 8400SOL     OW26098   1.135   2.163   4.805
 8400SOL    HW126099   1.163   2.234   4.740
 8400SOL    HW226100   1.189   2.080   4.788
 8401SOL     OW26101   2.908   0.563   5.542
 8401SOL    HW126102   2.865   0.638   5.592
 8401SOL    HW226103   2.947   0.497   5.607
 8402SOL     OW26104   4.054   0.624   5.580
 8402SOL    HW126105   4.024   0.717   5.557
 8402SOL    HW226106   4.095   0.624   5.671
 8403SOL     OW26107   5.921   5.276   4.294
 8403SOL    HW126108   5.857   5.344   4.329
 8403SOL    HW226109   5.875   5.216   4.229
 8404SOL     OW26110   1.871   1.842   6.616
 8404SOL    HW126111   1.894   1.745   6.622
 8404SOL    HW226112   1.887   1.885   6.705
 8405SOL     OW26113   3.741   0.986   5.405
 8405SOL    HW126114   3.645   1.008   5.421
 8405SOL    HW226115   3.785   1.060   5.354
 8406SOL     OW26116   4.830   0.788   6.299
 8406SOL    HW126117   4.822   0.887   6.300
 8406SOL    HW226118   4.740   0.747   6.285
 8407SOL     OW26119   3.505   6.820   4.078
 8407SOL    HW126120   3.497   6.919   4.081
 8407SOL    HW226121   3.564   6.793   4.001
 8408SOL     OW26122   4.227   1.173   1.730
 8408SOL    HW126123   4.234   1.268   1.761
 8408SOL    HW226124   4.171   1.120   1.794
 8409SOL     OW26125   4.584   2.446   1.783
 8409SOL    HW126126   4.506   2.507   1.765
 8409SOL    HW226127   4.603   2.444   1.881
 8410SOL     OW26128   6.909   1.875   1.771
 8410SOL    HW126129   6.829   1.911   1.820
 8410SOL    HW226130   6.894   1.885   1.673
 8411SOL     OW26131   1.473   5.623   0.226
 8411SOL    HW126132   1.375   5.620   0.245
 8411SOL    HW226133   1.516   5.688   0.288
 8412SOL     OW26134   3.067   2.710   5.962
 8412SOL    HW126135   3.023   2.680   6.046
 8412SOL    HW226136   3.111   2.632   5.917
 8413SOL     OW26137   4.368   5.590   5.198
 8413SOL    HW126138   4.351   5.491   5.190
 8413SOL    HW226139   4.342   5.635   5.113
 8414SOL     OW26140   0.646   0.773   1.801
 8414SOL    HW126141   0.599   0.837   1.861
 8414SOL    HW226142   0.707   0.716   1.854
 8415SOL     OW26143   1.823   0.898   5.163
 8415SOL    HW126144   1.741   0.882   5.107
 8415SOL    HW226145   1.848   0.995   5.157
 8416SOL     OW26146   6.687   1.614   5.138
 8416SOL    HW126147   6.663   1.686   5.203
 8416SOL    HW226148   6.623   1.537   5.148
 8417SOL     OW26149   1.645   4.291   5.351
 8417SOL    HW126150   1.556   4.333   5.333
 8417SOL    HW226151   1.714   4.331   5.290
 8418SOL     OW26152   1.100   6.134   2.420
 8418SOL    HW126153   1.061   6.055   2.374
 8418SOL    HW226154   1.199   6.125   2.425
 8419SOL     OW26155   4.857   1.496   3.823
 8419SOL    HW126156   4.934   1.535   3.873
 8419SOL    HW226157   4.861   1.524   3.727
 8420SOL     OW26158   2.386   0.226   3.041
 8420SOL    HW126159   2.319   0.300   3.039
 8420SOL    HW226160   2.439   0.226   2.956
 8421SOL     OW26161   4.660   6.257   6.116
 8421SOL    HW126162   4.728   6.318   6.158
 8421SOL    HW226163   4.646   6.177   6.175
 8422SOL     OW26164   4.615   2.517   3.049
 8422SOL    HW126165   4.693   2.538   3.108
 8422SOL    HW226166   4.604   2.589   2.981
 8423SOL     OW26167   6.468   4.856   6.556
 8423SOL    HW126168   6.466   4.760   6.528
 8423SOL    HW226169   6.409   4.910   6.496
 8424SOL     OW26170   2.143   0.183   3.882
 8424SOL    HW126171   2.168   0.238   3.803
 8424SOL    HW226172   2.213   0.114   3.899
 8425SOL     OW26173   3.940   3.134   2.780
 8425SOL    HW126174   3.895   3.220   2.802
 8425SOL    HW226175   3.926   3.069   2.855
 8426SOL     OW26176   3.584   2.810   2.108
 8426SOL    HW126177   3.673   2.809   2.062
 8426SOL    HW226178   3.512   2.793   2.040
 8427SOL     OW26179   3.498   3.843   3.610
 8427SOL    HW126180   3.595   3.867   3.608
 8427SOL    HW226181   3.468   3.839   3.705
 8428SOL     OW26182   6.685   6.871   0.371
 8428SOL    HW126183   6.748   6.920   0.431
 8428SOL    HW226184   6.706   6.774   0.374
 8429SOL     OW26185   2.282   5.286   6.100
 8429SOL    HW126186   2.298   5.352   6.173
 8429SOL    HW226187   2.185   5.259   6.101
 8430SOL     OW26188   4.137   6.848   5.233
 8430SOL    HW126189   4.155   6.757   5.271
 8430SOL    HW226190   4.125   6.840   5.134
 8431SOL     OW26191   3.365   3.904   5.948
 8431SOL    HW126192   3.280   3.954   5.963
 8431SOL    HW226193   3.438   3.944   6.005
 8432SOL     OW26194   6.180   5.447   6.087
 8432SOL    HW126195   6.112   5.431   6.015
 8432SOL    HW226196   6.209   5.543   6.084
 8433SOL     OW26197   5.190   2.769   0.828
 8433SOL    HW126198   5.165   2.864   0.807
 8433SOL    HW226199   5.289   2.758   0.819
 8434SOL     OW26200   2.788   6.156   5.604
 8434SOL    HW126201   2.808   6.153   5.506
 8434SOL    HW226202   2.869   6.127   5.656
 8435SOL     OW26203   4.893   1.014   2.784
 8435SOL    HW126204   4.919   1.111   2.783
 8435SOL    HW226205   4.905   0.977   2.876
 8436SOL     OW26206   2.113   5.998   2.566
 8436SOL    HW126207   2.187   5.932   2.555
 8436SOL    HW226208   2.149   6.091   2.556
 8437SOL     OW26209   2.164   3.864   2.194
 8437SOL    HW126210   2.135   3.769   2.204
 8437SOL    HW226211   2.222   3.873   2.113
 8438SOL     OW26212   1.429   4.132   2.211
 8438SOL    HW126213   1.450   4.217   2.259
 8438SOL    HW226214   1.438   4.055   2.274
 8439SOL     OW26215   6.051   5.167   3.836
 8439SOL    HW126216   6.041   5.258   3.877
 8439SOL    HW226217   5.964   5.118   3.843
 8440SOL     OW26218   1.930   1.441   2.654
 8440SOL    HW126219   1.973   1.370   2.598
 8440SOL    HW226220   1.882   1.506   2.595
 8441SOL     OW26221   5.816   0.967   4.543
 8441SOL    HW126222   5.782   0.933   4.630
 8441SOL    HW226223   5.824   1.067   4.547
 8442SOL     OW26224   3.361   1.557   5.761
 8442SOL    HW126225   3.336   1.619   5.687
 8442SOL    HW226226   3.359   1.463   5.726
 8443SOL     OW26227   0.913   3.920   2.911
 8443SOL    HW126228   1.003   3.907   2.869
 8443SOL    HW226229   0.884   3.834   2.953
 8444SOL     OW26230   4.746   4.932   4.401
 8444SOL    HW126231   4.727   4.863   4.471
 8444SOL    HW226232   4.665   4.989   4.387
 8445SOL     OW26233   4.213   5.882   6.875
 8445SOL    HW126234   4.166   5.935   6.946
 8445SOL    HW226235   4.312   5.890   6.887
 8446SOL     OW26236   6.817   6.159   4.582
 8446SOL    HW126237   6.828   6.206   4.670
 8446SOL    HW226238   6.798   6.227   4.510
 8447SOL     OW26239   3.700   2.106   2.770
 8447SOL    HW126240   3.693   2.079   2.674
 8447SOL    HW226241   3.649   2.191   2.784
 8448SOL     OW26242   4.419   6.345   3.200
 8448SOL    HW126243   4.404   6.348   3.299
 8448SOL    HW226244   4.505   6.391   3.178
 8449SOL     OW26245   2.282   2.486   3.304
 8449SOL    HW126246   2.235   2.499   3.217
 8449SOL    HW226247   2.280   2.389   3.329
 8450SOL     OW26248   0.174   0.804   6.909
 8450SOL    HW126249   0.116   0.732   6.869
 8450SOL    HW226250   0.117   0.882   6.933
 8451SOL     OW26251   4.040   2.719   1.023
 8451SOL    HW126252   4.087   2.785   1.082
 8451SOL    HW226253   4.046   2.748   0.928
 8452SOL     OW26254   5.652   2.037   5.574
 8452SOL    HW126255   5.714   2.091   5.517
 8452SOL    HW226256   5.628   1.952   5.526
 8453SOL     OW26257   0.633   6.036   0.832
 8453SOL    HW126258   0.689   5.972   0.780
 8453SOL    HW226259   0.688   6.076   0.906
 8454SOL     OW26260   6.879   3.982   0.070
 8454SOL    HW126261   6.798   4.006   0.017
 8454SOL    HW226262   6.858   3.983   0.167
 8455SOL     OW26263   0.193   0.630   3.187
 8455SOL    HW126264   0.113   0.573   3.209
 8455SOL    HW226265   0.210   0.627   3.088
 8456SOL     OW26266   5.693   1.262   3.587
 8456SOL    HW126267   5.669   1.357   3.607
 8456SOL    HW226268   5.783   1.242   3.626
 8457SOL     OW26269   6.432   6.499   4.687
 8457SOL    HW126270   6.472   6.584   4.652
 8457SOL    HW226271   6.428   6.502   4.787
 8458SOL     OW26272   0.506   6.700   6.738
 8458SOL    HW126273   0.413   6.668   6.720
 8458SOL    HW226274   0.517   6.717   6.836
 8459SOL     OW26275   1.662   6.050   3.466
 8459SOL    HW126276   1.698   5.964   3.503
 8459SOL    HW226277   1.727   6.124   3.485
 8460SOL     OW26278   3.660   4.215   4.688
 8460SOL    HW126279   3.581   4.176   4.735
 8460SOL    HW226280   3.690   4.297   4.736
 8461SOL     OW26281   6.660   3.771   3.625
 8461SOL    HW126282   6.604   3.808   3.552
 8461SOL    HW226283   6.620   3.685   3.658
 8462SOL     OW26284   1.958   2.946   1.947
 8462SOL    HW126285   2.035   2.954   2.010
 8462SOL    HW226286   1.915   2.857   1.959
 8463SOL     OW26287   5.353   1.052   2.191
 8463SOL    HW126288   5.329   1.120   2.122
 8463SOL    HW226289   5.307   0.966   2.170
 8464SOL     OW26290   6.148   2.306   4.645
 8464SOL    HW126291   6.182   2.231   4.588
 8464SOL    HW226292   6.090   2.366   4.589
 8465SOL     OW26293   1.728   2.231   0.470
 8465SOL    HW126294   1.732   2.181   0.383
 8465SOL    HW226295   1.722   2.166   0.545
 8466SOL     OW26296   0.735   6.597   3.601
 8466SOL    HW126297   0.785   6.553   3.526
 8466SOL    HW226298   0.656   6.541   3.626
 8467SOL     OW26299   2.644   5.303   0.515
 8467SOL    HW126300   2.652   5.402   0.521
 8467SOL    HW226301   2.549   5.278   0.496
 8468SOL     OW26302   4.634   1.544   0.303
 8468SOL    HW126303   4.643   1.573   0.398
 8468SOL    HW226304   4.703   1.475   0.282
 8469SOL     OW26305   3.749   2.182   6.546
 8469SOL    HW126306   3.706   2.189   6.636
 8469SOL    HW226307   3.797   2.095   6.538
 8470SOL     OW26308   2.296   2.311   6.239
 8470SOL    HW126309   2.288   2.346   6.332
 8470SOL    HW226310   2.329   2.383   6.179
 8471SOL     OW26311   3.357   1.088   3.660
 8471SOL    HW126312   3.285   1.023   3.634
 8471SOL    HW226313   3.334   1.129   3.748
 8472SOL     OW26314   1.561   6.418   3.627
 8472SOL    HW126315   1.625   6.409   3.551
 8472SOL    HW226316   1.524   6.511   3.629
 8473SOL     OW26317   6.632   5.782   0.001
 8473SOL    HW126318   6.555   5.750   6.968
 8473SOL    HW226319   6.713   5.727   7.001
 8474SOL     OW26320   3.623   3.946   1.344
 8474SOL    HW126321   3.542   3.994   1.310
 8474SOL    HW226322   3.598   3.852   1.369
 8475SOL     OW26323   4.717   1.192   3.216
 8475SOL    HW126324   4.673   1.280   3.233
 8475SOL    HW226325   4.813   1.206   3.193
 8476SOL     OW26326   4.588   0.094   2.599
 8476SOL    HW126327   4.649   0.058   2.529
 8476SOL    HW226328   4.529   0.164   2.559
 8477SOL     OW26329   3.285   1.377   1.161
 8477SOL    HW126330   3.312   1.430   1.242
 8477SOL    HW226331   3.335   1.410   1.081
 8478SOL     OW26332   1.515   0.326   5.909
 8478SOL    HW126333   1.476   0.416   5.892
 8478SOL    HW226334   1.446   0.255   5.893
 8479SOL     OW26335   5.113   0.916   1.933
 8479SOL    HW126336   5.096   0.899   1.836
 8479SOL    HW226337   5.036   0.965   1.973
 8480SOL     OW26338   1.759   1.072   1.490
 8480SOL    HW126339   1.854   1.041   1.489
 8480SOL    HW226340   1.715   1.043   1.574
 8481SOL     OW26341   3.906   0.283   4.286
 8481SOL    HW126342   3.830   0.338   4.252
 8481SOL    HW226343   3.926   0.210   4.220
 8482SOL     OW26344   0.983   0.445   2.146
 8482SOL    HW126345   0.952   0.469   2.237
 8482SOL    HW226346   1.011   0.349   2.144
 8483SOL     OW26347   4.077   6.143   1.538
 8483SOL    HW126348   4.005   6.098   1.485
 8483SOL    HW226349   4.038   6.180   1.622
 8484SOL     OW26350   0.882   4.817   4.851
 8484SOL    HW126351   0.918   4.724   4.862
 8484SOL    HW226352   0.786   4.811   4.823
 8485SOL     OW26353   2.479   3.273   6.034
 8485SOL    HW126354   2.427   3.245   5.953
 8485SOL    HW226355   2.576   3.277   6.012
 8486SOL     OW26356   4.549   1.001   2.488
 8486SOL    HW126357   4.455   0.977   2.512
 8486SOL    HW226358   4.573   1.089   2.530
 8487SOL     OW26359   4.388   0.034   1.116
 8487SOL    HW126360   4.367   6.978   1.056
 8487SOL    HW226361   4.303   0.075   1.149
 8488SOL     OW26362   5.067   2.884   4.705
 8488SOL    HW126363   5.114   2.816   4.762
 8488SOL    HW226364   5.111   2.887   4.615
 8489SOL     OW26365   4.218   4.885   2.527
 8489SOL    HW126366   4.121   4.897   2.545
 8489SOL    HW226367   4.272   4.928   2.600
 8490SOL     OW26368   4.010   5.601   2.867
 8490SOL    HW126369   4.051   5.638   2.950
 8490SOL    HW226370   3.992   5.504   2.878
 8491SOL     OW26371   2.405   1.005   2.664
 8491SOL    HW126372   2.354   1.071   2.719
 8491SOL    HW226373   2.348   0.924   2.649
 8492SOL     OW26374   5.503   3.271   4.853
 8492SOL    HW126375   5.416   3.275   4.903
 8492SOL    HW226376   5.556   3.354   4.870
 8493SOL     OW26377   3.965   2.180   0.838
 8493SOL    HW126378   3.903   2.183   0.759
 8493SOL    HW226379   3.954   2.092   0.885
 8494SOL     OW26380   3.749   5.695   6.986
 8494SOL    HW126381   3.811   5.677   6.909
 8494SOL    HW226382   3.670   5.746   6.954
 8495SOL     OW26383   0.136   2.404   0.905
 8495SOL    HW126384   0.104   2.415   1.000
 8495SOL    HW226385   0.224   2.450   0.894
 8496SOL     OW26386   6.974   2.838   3.152
 8496SOL    HW126387   6.933   2.761   3.200
 8496SOL    HW226388   0.035   2.807   3.103
 8497SOL     OW26389   6.207   5.589   3.156
 8497SOL    HW126390   6.229   5.503   3.202
 8497SOL    HW226391   6.153   5.647   3.218
 8498SOL     OW26392   0.303   0.722   0.536
 8498SOL    HW126393   0.369   0.680   0.474
 8498SOL    HW226394   0.351   0.774   0.607
 8499SOL     OW26395   3.660   4.151   6.585
 8499SOL    HW126396   3.662   4.088   6.507
 8499SOL    HW226397   3.688   4.242   6.555
 8500SOL     OW26398   3.172   0.757   5.865
 8500SOL    HW126399   3.077   0.760   5.895
 8500SOL    HW226400   3.209   0.849   5.861
 8501SOL     OW26401   1.905   4.080   6.486
 8501SOL    HW126402   1.852   4.122   6.560
 8501SOL    HW226403   1.914   3.982   6.504
 8502SOL     OW26404   0.031   0.592   2.440
 8502SOL    HW126405   0.089   0.661   2.484
 8502SOL    HW226406   6.960   0.631   2.426
 8503SOL     OW26407   2.837   5.756   2.871
 8503SOL    HW126408   2.922   5.768   2.923
 8503SOL    HW226409   2.767   5.718   2.931
 8504SOL     OW26410   1.424   5.946   3.808
 8504SOL    HW126411   1.483   6.026   3.796
 8504SOL    HW226412   1.437   5.884   3.730
 8505SOL     OW26413   5.018   3.074   3.558
 8505SOL    HW126414   4.948   3.093   3.489
 8505SOL    HW226415   5.086   3.147   3.557
 8506SOL     OW26416   1.314   6.517   0.182
 8506SOL    HW126417   1.392   6.535   0.242
 8506SOL    HW226418   1.236   6.571   0.211
 8507SOL     OW26419   1.453   0.738   4.929
 8507SOL    HW126420   1.541   0.786   4.931
 8507SOL    HW226421   1.469   0.639   4.927
 8508SOL     OW26422   1.156   2.297   6.524
 8508SOL    HW126423   1.217   2.361   6.476
 8508SOL    HW226424   1.208   2.249   6.595
 8509SOL     OW26425   6.355   1.892   4.647
 8509SOL    HW126426   6.361   1.848   4.736
 8509SOL    HW226427   6.276   1.856   4.597
 8510SOL     OW26428   5.342   0.166   2.580
 8510SOL    HW126429   5.426   0.112   2.572
 8510SOL    HW226430   5.363   0.263   2.563
 8511SOL     OW26431   6.539   4.495   1.693
 8511SOL    HW126432   6.513   4.477   1.788
 8511SOL    HW226433   6.604   4.571   1.690
 8512SOL     OW26434   4.646   1.840   0.181
 8512SOL    HW126435   4.667   1.757   0.233
 8512SOL    HW226436   4.562   1.882   0.218
 8513SOL     OW26437   6.922   3.957   1.014
 8513SOL    HW126438   6.873   3.889   0.959
 8513SOL    HW226439   6.928   4.043   0.963
 8514SOL     OW26440   2.555   2.449   5.585
 8514SOL    HW126441   2.486   2.464   5.655
 8514SOL    HW226442   2.645   2.475   5.621
 8515SOL     OW26443   1.238   0.541   0.940
 8515SOL    HW126444   1.288   0.474   0.886
 8515SOL    HW226445   1.140   0.523   0.933
 8516SOL     OW26446   5.721   2.264   3.360
 8516SOL    HW126447   5.733   2.165   3.350
 8516SOL    HW226448   5.638   2.282   3.413
 8517SOL     OW26449   1.917   2.232   5.388
 8517SOL    HW126450   1.834   2.283   5.410
 8517SOL    HW226451   1.946   2.254   5.295
 8518SOL     OW26452   5.365   4.950   0.231
 8518SOL    HW126453   5.456   4.941   0.190
 8518SOL    HW226454   5.323   5.035   0.200
 8519SOL     OW26455   1.498   3.611   0.878
 8519SOL    HW126456   1.564   3.560   0.822
 8519SOL    HW226457   1.483   3.701   0.839
 8520SOL     OW26458   4.100   3.683   5.863
 8520SOL    HW126459   4.015   3.676   5.812
 8520SOL    HW226460   4.161   3.748   5.818
 8521SOL     OW26461   2.147   6.200   5.901
 8521SOL    HW126462   2.185   6.111   5.876
 8521SOL    HW226463   2.067   6.220   5.844
 8522SOL     OW26464   1.404   6.396   0.549
 8522SOL    HW126465   1.490   6.438   0.517
 8522SOL    HW226466   1.331   6.464   0.543
 8523SOL     OW26467   2.643   0.966   0.058
 8523SOL    HW126468   2.729   1.012   0.036
 8523SOL    HW226469   2.566   1.025   0.035
 8524SOL     OW26470   2.143   5.860   5.048
 8524SOL    HW126471   2.091   5.798   4.990
 8524SOL    HW226472   2.241   5.844   5.035
 8525SOL     OW26473   6.815   4.880   1.336
 8525SOL    HW126474   6.889   4.947   1.336
 8525SOL    HW226475   6.727   4.926   1.352
 8526SOL     OW26476   1.895   5.988   0.616
 8526SOL    HW126477   1.827   5.966   0.686
 8526SOL    HW226478   1.964   5.916   0.612
 8527SOL     OW26479   3.186   1.028   5.637
 8527SOL    HW126480   3.224   0.943   5.600
 8527SOL    HW226481   3.229   1.047   5.725
 8528SOL     OW26482   4.615   2.132   0.530
 8528SOL    HW126483   4.576   2.051   0.575
 8528SOL    HW226484   4.691   2.104   0.471
 8529SOL     OW26485   1.342   6.351   6.564
 8529SOL    HW126486   1.250   6.374   6.597
 8529SOL    HW226487   1.353   6.384   6.471
 8530SOL     OW26488   3.599   4.190   4.402
 8530SOL    HW126489   3.669   4.228   4.463
 8530SOL    HW226490   3.558   4.109   4.445
 8531SOL     OW26491   6.733   5.487   3.643
 8531SOL    HW126492   6.792   5.539   3.704
 8531SOL    HW226493   6.756   5.508   3.548
 8532SOL     OW26494   2.486   5.629   4.539
 8532SOL    HW126495   2.501   5.656   4.634
 8532SOL    HW226496   2.544   5.684   4.479
 8533SOL     OW26497   2.076   6.106   5.363
 8533SOL    HW126498   2.063   6.007   5.369
 8533SOL    HW226499   2.169   6.126   5.333
 8534SOL     OW26500   3.189   2.145   3.969
 8534SOL    HW126501   3.134   2.217   3.927
 8534SOL    HW226502   3.279   2.142   3.926
 8535SOL     OW26503   6.419   0.664   2.961
 8535SOL    HW126504   6.415   0.653   3.060
 8535SOL    HW226505   6.411   0.761   2.939
 8536SOL     OW26506   0.326   0.920   4.516
 8536SOL    HW126507   0.407   0.963   4.555
 8536SOL    HW226508   0.313   0.952   4.422
 8537SOL     OW26509   6.997   1.239   2.954
 8537SOL    HW126510   0.041   1.207   2.885
 8537SOL    HW226511   6.938   1.309   2.914
 8538SOL     OW26512   1.632   2.513   6.888
 8538SOL    HW126513   1.571   2.512   6.968
 8538SOL    HW226514   1.577   2.510   6.805
 8539SOL     OW26515   6.246   2.687   2.806
 8539SOL    HW126516   6.280   2.597   2.833
 8539SOL    HW226517   6.226   2.688   2.708
 8540SOL     OW26518   4.130   6.909   0.475
 8540SOL    HW126519   4.156   6.957   0.391
 8540SOL    HW226520   4.155   6.965   0.554
 8541SOL     OW26521   1.878   2.498   4.319
 8541SOL    HW126522   1.956   2.541   4.364
 8541SOL    HW226523   1.887   2.508   4.220
 8542SOL     OW26524   3.982   4.396   0.143
 8542SOL    HW126525   4.077   4.367   0.146
 8542SOL    HW226526   3.946   4.405   0.236
 8543SOL     OW26527   2.080   2.615   6.416
 8543SOL    HW126528   2.133   2.534   6.442
 8543SOL    HW226529   2.060   2.612   6.318
 8544SOL     OW26530   6.566   2.724   3.389
 8544SOL    HW126531   6.660   2.729   3.354
 8544SOL    HW226532   6.530   2.632   3.374
 8545SOL     OW26533   5.123   6.429   4.882
 8545SOL    HW126534   5.207   6.444   4.934
 8545SOL    HW226535   5.044   6.448   4.941
 8546SOL     OW26536   4.235   1.803   5.301
 8546SOL    HW126537   4.328   1.776   5.324
 8546SOL    HW226538   4.236   1.855   5.216
 8547SOL     OW26539   0.967   4.350   3.157
 8547SOL    HW126540   0.897   4.289   3.119
 8547SOL    HW226541   1.021   4.299   3.225
 8548SOL     OW26542   5.717   1.520   5.718
 8548SOL    HW126543   5.695   1.477   5.630
 8548SOL    HW226544   5.729   1.449   5.788
 8549SOL     OW26545   6.043   3.538   4.726
 8549SOL    HW126546   6.026   3.576   4.635
 8549SOL    HW226547   6.135   3.564   4.755
 8550SOL     OW26548   0.875   4.069   6.535
 8550SOL    HW126549   0.852   4.091   6.630
 8550SOL    HW226550   0.869   3.970   6.521
 8551SOL     OW26551   3.537   4.128   0.236
 8551SOL    HW126552   3.525   4.043   0.287
 8551SOL    HW226553   3.493   4.203   0.286
 8552SOL     OW26554   2.826   6.638   4.012
 8552SOL    HW126555   2.885   6.610   3.936
 8552SOL    HW226556   2.732   6.609   3.994
 8553SOL     OW26557   5.846   6.543   0.646
 8553SOL    HW126558   5.836   6.494   0.732
 8553SOL    HW226559   5.939   6.581   0.639
 8554SOL     OW26560   5.942   3.795   6.864
 8554SOL    HW126561   5.937   3.882   6.817
 8554SOL    HW226562   5.948   3.721   6.797
 8555SOL     OW26563   1.365   6.777   3.914
 8555SOL    HW126564   1.266   6.789   3.906
 8555SOL    HW226565   1.391   6.774   4.010
 8556SOL     OW26566   6.236   0.504   3.548
 8556SOL    HW126567   6.143   0.470   3.538
 8556SOL    HW226568   6.300   0.432   3.520
 8557SOL     OW26569   0.320   0.450   1.227
 8557SOL    HW126570   0.308   0.527   1.290
 8557SOL    HW226571   0.232   0.403   1.215
 8558SOL     OW26572   1.501   5.047   1.961
 8558SOL    HW126573   1.577   5.068   1.900
 8558SOL    HW226574   1.418   5.093   1.928
 8559SOL     OW26575   1.246   0.405   0.062
 8559SOL    HW126576   1.179   0.445   0.125
 8559SOL    HW226577   1.225   0.433   6.989
 8560SOL     OW26578   6.146   2.082   0.136
 8560SOL    HW126579   6.056   2.116   0.166
 8560SOL    HW226580   6.212   2.095   0.210
 8561SOL     OW26581   4.779   6.560   4.257
 8561SOL    HW126582   4.710   6.613   4.305
 8561SOL    HW226583   4.745   6.533   4.167
 8562SOL     OW26584   3.612   6.896   4.593
 8562SOL    HW126585   3.521   6.901   4.634
 8562SOL    HW226586   3.605   6.861   4.500
 8563SOL     OW26587   2.427   2.872   5.833
 8563SOL    HW126588   2.327   2.866   5.827
 8563SOL    HW226589   2.460   2.944   5.772
 8564SOL     OW26590   0.651   0.429   3.989
 8564SOL    HW126591   0.686   0.469   3.905
 8564SOL    HW226592   0.644   0.329   3.978
 8565SOL     OW26593   4.030   6.927   1.976
 8565SOL    HW126594   4.045   6.880   2.062
 8565SOL    HW226595   4.000   6.862   1.906
 8566SOL     OW26596   2.290   2.906   3.675
 8566SOL    HW126597   2.304   3.004   3.655
 8566SOL    HW226598   2.197   2.880   3.652
 8567SOL     OW26599   4.925   0.221   0.880
 8567SOL    HW126600   4.996   0.185   0.819
 8567SOL    HW226601   4.855   0.152   0.894
 8568SOL     OW26602   5.261   1.118   0.529
 8568SOL    HW126603   5.193   1.105   0.456
 8568SOL    HW226604   5.215   1.144   0.614
 8569SOL     OW26605   4.299   1.636   4.525
 8569SOL    HW126606   4.248   1.613   4.608
 8569SOL    HW226607   4.264   1.722   4.487
 8570SOL     OW26608   0.345   4.012   0.038
 8570SOL    HW126609   0.266   3.979   7.008
 8570SOL    HW226610   0.316   4.084   0.101
 8571SOL     OW26611   6.679   4.423   5.161
 8571SOL    HW126612   6.621   4.419   5.242
 8571SOL    HW226613   6.718   4.515   5.152
 8572SOL     OW26614   2.866   4.722   5.353
 8572SOL    HW126615   2.882   4.650   5.285
 8572SOL    HW226616   2.794   4.692   5.417
 8573SOL     OW26617   3.558   5.731   5.353
 8573SOL    HW126618   3.617   5.726   5.273
 8573SOL    HW226619   3.478   5.787   5.332
 8574SOL     OW26620   0.438   4.072   5.141
 8574SOL    HW126621   0.350   4.065   5.188
 8574SOL    HW226622   0.495   3.994   5.165
 8575SOL     OW26623   3.300   3.229   0.018
 8575SOL    HW126624   3.225   3.295   0.028
 8575SOL    HW226625   3.263   3.137   0.013
 8576SOL     OW26626   1.860   6.993   1.585
 8576SOL    HW126627   1.763   6.971   1.577
 8576SOL    HW226628   1.874   0.069   1.562
 8577SOL     OW26629   6.521   5.822   3.252
 8577SOL    HW126630   6.609   5.866   3.236
 8577SOL    HW226631   6.530   5.758   3.328
 8578SOL     OW26632   4.171   6.846   3.438
 8578SOL    HW126633   4.270   6.860   3.445
 8578SOL    HW226634   4.124   6.903   3.506
 8579SOL     OW26635   0.892   5.674   3.211
 8579SOL    HW126636   0.950   5.706   3.286
 8579SOL    HW226637   0.886   5.574   3.214
 8580SOL     OW26638   2.438   4.336   6.792
 8580SOL    HW126639   2.433   4.236   6.800
 8580SOL    HW226640   2.481   4.373   6.875
 8581SOL     OW26641   2.608   2.496   1.103
 8581SOL    HW126642   2.583   2.576   1.049
 8581SOL    HW226643   2.555   2.417   1.072
 8582SOL     OW26644   4.248   4.063   1.269
 8582SOL    HW126645   4.214   3.974   1.300
 8582SOL    HW226646   4.310   4.101   1.337
 8583SOL     OW26647   6.324   0.108   6.341
 8583SOL    HW126648   6.371   0.167   6.406
 8583SOL    HW226649   6.225   0.117   6.353
 8584SOL     OW26650   6.783   5.360   6.941
 8584SOL    HW126651   6.797   5.305   6.859
 8584SOL    HW226652   6.686   5.363   6.963
 8585SOL     OW26653   0.254   1.601   0.487
 8585SOL    HW126654   0.222   1.506   0.489
 8585SOL    HW226655   0.266   1.631   0.393
 8586SOL     OW26656   4.181   5.749   3.889
 8586SOL    HW126657   4.178   5.775   3.793
 8586SOL    HW226658   4.275   5.733   3.917
 8587SOL     OW26659   6.762   1.638   1.404
 8587SOL    HW126660   6.740   1.595   1.317
 8587SOL    HW226661   6.688   1.624   1.469
 8588SOL     OW26662   4.768   2.310   0.161
 8588SOL    HW126663   4.715   2.394   0.169
 8588SOL    HW226664   4.707   2.235   0.134
 8589SOL     OW26665   3.139   2.109   4.660
 8589SOL    HW126666   3.105   2.076   4.748
 8589SOL    HW226667   3.236   2.135   4.670
 8590SOL     OW26668   6.154   4.486   5.528
 8590SOL    HW126669   6.102   4.559   5.484
 8590SOL    HW226670   6.250   4.511   5.531
 8591SOL     OW26671   1.128   3.290   6.742
 8591SOL    HW126672   1.213   3.240   6.725
 8591SOL    HW226673   1.110   3.294   6.841
 8592SOL     OW26674   6.096   5.571   6.669
 8592SOL    HW126675   6.013   5.617   6.638
 8592SOL    HW226676   6.071   5.486   6.716
 8593SOL     OW26677   1.243   0.162   2.375
 8593SOL    HW126678   1.308   0.125   2.310
 8593SOL    HW226679   1.278   0.248   2.413
 8594SOL     OW26680   3.745   3.422   4.347
 8594SOL    HW126681   3.664   3.480   4.337
 8594SOL    HW226682   3.798   3.424   4.262
 8595SOL     OW26683   1.619   1.765   2.209
 8595SOL    HW126684   1.683   1.842   2.217
 8595SOL    HW226685   1.660   1.683   2.248
 8596SOL     OW26686   6.197   5.064   2.455
 8596SOL    HW126687   6.198   5.162   2.436
 8596SOL    HW226688   6.145   5.017   2.384
 8597SOL     OW26689   1.549   1.222   1.203
 8597SOL    HW126690   1.580   1.234   1.297
 8597SOL    HW226691   1.487   1.143   1.198
 8598SOL     OW26692   5.201   4.730   0.378
 8598SOL    HW126693   5.218   4.812   0.432
 8598SOL    HW226694   5.277   4.666   0.388
 8599SOL     OW26695   1.473   3.531   2.500
 8599SOL    HW126696   1.429   3.574   2.421
 8599SOL    HW226697   1.567   3.509   2.478
 8600SOL     OW26698   6.422   4.324   6.530
 8600SOL    HW126699   6.410   4.239   6.582
 8600SOL    HW226700   6.467   4.304   6.443
 8601SOL     OW26701   6.851   0.206   3.845
 8601SOL    HW126702   6.825   0.115   3.811
 8601SOL    HW226703   6.850   0.271   3.769
 8602SOL     OW26704   3.068   6.667   2.196
 8602SOL    HW126705   3.110   6.757   2.201
 8602SOL    HW226706   2.990   6.670   2.133
 8603SOL     OW26707   4.482   3.335   1.100
 8603SOL    HW126708   4.421   3.294   1.033
 8603SOL    HW226709   4.537   3.406   1.056
 8604SOL     OW26710   5.062   2.656   2.525
 8604SOL    HW126711   5.143   2.648   2.468
 8604SOL    HW226712   4.990   2.705   2.475
 8605SOL     OW26713   2.752   6.584   1.787
 8605SOL    HW126714   2.703   6.510   1.834
 8605SOL    HW226715   2.693   6.664   1.779
 8606SOL     OW26716   4.081   4.801   5.525
 8606SOL    HW126717   4.046   4.707   5.532
 8606SOL    HW226718   4.038   4.858   5.595
 8607SOL     OW26719   4.472   5.853   1.764
 8607SOL    HW126720   4.399   5.898   1.713
 8607SOL    HW226721   4.438   5.767   1.803
 8608SOL     OW26722   4.727   6.185   2.256
 8608SOL    HW126723   4.680   6.111   2.208
 8608SOL    HW226724   4.716   6.270   2.205
 8609SOL     OW26725   3.722   0.710   5.280
 8609SOL    HW126726   3.745   0.627   5.331
 8609SOL    HW226727   3.737   0.789   5.339
 8610SOL     OW26728   6.875   6.762   4.277
 8610SOL    HW126729   6.923   6.733   4.194
 8610SOL    HW226730   6.810   6.834   4.254
 8611SOL     OW26731   1.938   1.910   3.133
 8611SOL    HW126732   1.947   1.968   3.052
 8611SOL    HW226733   2.022   1.859   3.148
 8612SOL     OW26734   4.221   3.033   5.353
 8612SOL    HW126735   4.251   2.941   5.328
 8612SOL    HW226736   4.298   3.097   5.343
 8613SOL     OW26737   1.651   1.233   0.094
 8613SOL    HW126738   1.576   1.296   0.079
 8613SOL    HW226739   1.636   1.182   0.179
 8614SOL     OW26740   1.055   1.797   3.340
 8614SOL    HW126741   1.040   1.851   3.257
 8614SOL    HW226742   1.020   1.848   3.419
 8615SOL     OW26743   4.325   2.770   5.296
 8615SOL    HW126744   4.379   2.694   5.334
 8615SOL    HW226745   4.253   2.733   5.238
 8616SOL     OW26746   1.551   3.585   6.866
 8616SOL    HW126747   1.618   3.658   6.884
 8616SOL    HW226748   1.475   3.622   6.812
 8617SOL     OW26749   5.789   2.779   1.037
 8617SOL    HW126750   5.707   2.833   1.056
 8617SOL    HW226751   5.860   2.838   0.997
 8618SOL     OW26752   4.658   0.736   3.846
 8618SOL    HW126753   4.665   0.685   3.760
 8618SOL    HW226754   4.747   0.777   3.867
 8619SOL     OW26755   4.802   5.650   0.659
 8619SOL    HW126756   4.738   5.585   0.699
 8619SOL    HW226757   4.752   5.730   0.626
 8620SOL     OW26758   6.382   6.408   3.006
 8620SOL    HW126759   6.312   6.374   2.943
 8620SOL    HW226760   6.360   6.502   3.032
 8621SOL     OW26761   5.977   0.838   3.140
 8621SOL    HW126762   6.052   0.902   3.124
 8621SOL    HW226763   5.890   0.882   3.120
 8622SOL     OW26764   5.235   5.200   0.259
 8622SOL    HW126765   5.157   5.193   0.197
 8622SOL    HW226766   5.208   5.249   0.342
 8623SOL     OW26767   6.490   3.511   2.474
 8623SOL    HW126768   6.391   3.500   2.466
 8623SOL    HW226769   6.511   3.591   2.530
 8624SOL     OW26770   0.789   5.397   3.768
 8624SOL    HW126771   0.817   5.304   3.744
 8624SOL    HW226772   0.697   5.415   3.732
 8625SOL     OW26773   3.450   0.652   5.210
 8625SOL    HW126774   3.449   0.565   5.161
 8625SOL    HW226775   3.540   0.667   5.252
 8626SOL     OW26776   3.009   3.778   3.184
 8626SOL    HW126777   3.096   3.730   3.186
 8626SOL    HW226778   2.986   3.810   3.276
 8627SOL     OW26779   2.119   0.106   6.754
 8627SOL    HW126780   2.121   0.072   6.847
 8627SOL    HW226781   2.159   0.198   6.752
 8628SOL     OW26782   5.603   1.443   0.235
 8628SOL    HW126783   5.648   1.419   0.321
 8628SOL    HW226784   5.504   1.437   0.247
 8629SOL     OW26785   1.259   4.555   4.032
 8629SOL    HW126786   1.186   4.608   3.988
 8629SOL    HW226787   1.253   4.565   4.131
 8630SOL     OW26788   5.447   4.240   3.933
 8630SOL    HW126789   5.529   4.207   3.981
 8630SOL    HW226790   5.407   4.166   3.880
 8631SOL     OW26791   3.810   6.284   4.679
 8631SOL    HW126792   3.717   6.270   4.712
 8631SOL    HW226793   3.831   6.382   4.676
 8632SOL     OW26794   4.404   0.527   3.639
 8632SOL    HW126795   4.469   0.495   3.570
 8632SOL    HW226796   4.329   0.575   3.593
 8633SOL     OW26797   6.232   1.008   4.071
 8633SOL    HW126798   6.221   1.097   4.026
 8633SOL    HW226799   6.144   0.962   4.077
 8634SOL     OW26800   6.549   5.160   2.052
 8634SOL    HW126801   6.469   5.107   2.025
 8634SOL    HW226802   6.575   5.135   2.145
 8635SOL     OW26803   6.203   4.133   4.788
 8635SOL    HW126804   6.232   4.052   4.737
 8635SOL    HW226805   6.235   4.126   4.883
 8636SOL     OW26806   5.748   5.620   0.656
 8636SOL    HW126807   5.708   5.688   0.595
 8636SOL    HW226808   5.775   5.664   0.742
 8637SOL     OW26809   2.358   0.734   1.390
 8637SOL    HW126810   2.379   0.723   1.487
 8637SOL    HW226811   2.404   0.815   1.354
 8638SOL     OW26812   3.945   4.994   0.551
 8638SOL    HW126813   3.850   4.975   0.524
 8638SOL    HW226814   3.976   4.923   0.615
 8639SOL     OW26815   6.660   3.062   2.678
 8639SOL    HW126816   6.674   2.966   2.657
 8639SOL    HW226817   6.637   3.072   2.775
 8640SOL     OW26818   5.098   5.959   0.866
 8640SOL    HW126819   5.051   5.872   0.855
 8640SOL    HW226820   5.042   6.033   0.828
 8641SOL     OW26821   5.681   4.689   3.252
 8641SOL    HW126822   5.691   4.706   3.154
 8641SOL    HW226823   5.766   4.710   3.299
 8642SOL     OW26824   4.546   1.547   1.507
 8642SOL    HW126825   4.491   1.621   1.471
 8642SOL    HW226826   4.565   1.481   1.434
 8643SOL     OW26827   4.391   0.853   5.902
 8643SOL    HW126828   4.318   0.883   5.965
 8643SOL    HW226829   4.473   0.906   5.920
 8644SOL     OW26830   6.335   3.576   5.156
 8644SOL    HW126831   6.423   3.538   5.184
 8644SOL    HW226832   6.350   3.657   5.099
 8645SOL     OW26833   6.073   4.700   1.737
 8645SOL    HW126834   6.010   4.629   1.704
 8645SOL    HW226835   6.163   4.687   1.695
 8646SOL     OW26836   5.309   0.904   0.758
 8646SOL    HW126837   5.339   0.981   0.703
 8646SOL    HW226838   5.370   0.826   0.742
 8647SOL     OW26839   4.440   4.616   1.237
 8647SOL    HW126840   4.524   4.656   1.199
 8647SOL    HW226841   4.361   4.668   1.206
 8648SOL     OW26842   5.496   1.887   4.487
 8648SOL    HW126843   5.537   1.796   4.492
 8648SOL    HW226844   5.478   1.921   4.579
 8649SOL     OW26845   6.778   4.543   5.519
 8649SOL    HW126846   6.870   4.525   5.485
 8649SOL    HW226847   6.733   4.456   5.542
 8650SOL     OW26848   1.875   4.803   2.416
 8650SOL    HW126849   1.791   4.842   2.454
 8650SOL    HW226850   1.875   4.814   2.317
 8651SOL     OW26851   3.338   1.503   0.790
 8651SOL    HW126852   3.348   1.436   0.863
 8651SOL    HW226853   3.319   1.592   0.829
 8652SOL     OW26854   1.369   3.326   3.839
 8652SOL    HW126855   1.383   3.424   3.856
 8652SOL    HW226856   1.350   3.279   3.925
 8653SOL     OW26857   6.793   3.254   6.962
 8653SOL    HW126858   6.778   3.337   6.909
 8653SOL    HW226859   6.728   3.250   0.017
 8654SOL     OW26860   0.671   0.003   2.858
 8654SOL    HW126861   0.758   6.980   2.836
 8654SOL    HW226862   0.682   0.103   2.853
 8655SOL     OW26863   5.923   5.904   4.165
 8655SOL    HW126864   5.979   5.826   4.191
 8655SOL    HW226865   5.971   5.989   4.188
 8656SOL     OW26866   6.043   2.264   1.535
 8656SOL    HW126867   6.014   2.193   1.470
 8656SOL    HW226868   6.068   2.347   1.485
 8657SOL     OW26869   3.434   4.189   6.792
 8657SOL    HW126870   3.477   4.175   6.703
 8657SOL    HW226871   3.479   4.264   6.840
 8658SOL     OW26872   6.613   5.165   0.352
 8658SOL    HW126873   6.575   5.078   0.319
 8658SOL    HW226874   6.683   5.196   0.288
 8659SOL     OW26875   5.356   0.381   4.372
 8659SOL    HW126876   5.299   0.332   4.305
 8659SOL    HW226877   5.401   0.315   4.431
 8660SOL     OW26878   5.546   4.741   1.219
 8660SOL    HW126879   5.524   4.787   1.305
 8660SOL    HW226880   5.566   4.644   1.237
 8661SOL     OW26881   6.604   3.584   1.564
 8661SOL    HW126882   6.552   3.608   1.647
 8661SOL    HW226883   6.675   3.652   1.548
 8662SOL     OW26884   0.262   0.033   0.778
 8662SOL    HW126885   0.200   0.111   0.771
 8662SOL    HW226886   0.254   6.998   0.696
 8663SOL     OW26887   2.389   5.448   0.389
 8663SOL    HW126888   2.402   5.516   0.318
 8663SOL    HW226889   2.367   5.494   0.476
 8664SOL     OW26890   4.326   5.603   0.735
 8664SOL    HW126891   4.425   5.590   0.739
 8664SOL    HW226892   4.281   5.515   0.746
 8665SOL     OW26893   5.179   5.266   5.623
 8665SOL    HW126894   5.247   5.198   5.596
 8665SOL    HW226895   5.206   5.356   5.588
 8666SOL     OW26896   5.157   3.145   4.573
 8666SOL    HW126897   5.173   3.151   4.475
 8666SOL    HW226898   5.061   3.122   4.590
 8667SOL     OW26899   4.549   1.850   3.588
 8667SOL    HW126900   4.491   1.808   3.658
 8667SOL    HW226901   4.553   1.792   3.507
 8668SOL     OW26902   4.098   1.814   4.351
 8668SOL    HW126903   4.071   1.900   4.308
 8668SOL    HW226904   4.090   1.740   4.286
 8669SOL     OW26905   4.177   0.611   5.858
 8669SOL    HW126906   4.227   0.617   5.945
 8669SOL    HW226907   4.086   0.572   5.875
 8670SOL     OW26908   3.672   5.121   4.012
 8670SOL    HW126909   3.594   5.170   3.972
 8670SOL    HW226910   3.658   5.112   4.111
 8671SOL     OW26911   5.631   6.651   3.189
 8671SOL    HW126912   5.557   6.718   3.201
 8671SOL    HW226913   5.616   6.574   3.251
 8672SOL     OW26914   3.234   4.919   4.665
 8672SOL    HW126915   3.154   4.862   4.652
 8672SOL    HW226916   3.293   4.914   4.584
 8673SOL     OW26917   5.944   2.009   0.742
 8673SOL    HW126918   5.872   2.043   0.804
 8673SOL    HW226919   5.907   1.936   0.685
 8674SOL     OW26920   0.791   6.843   2.591
 8674SOL    HW126921   0.837   6.901   2.658
 8674SOL    HW226922   0.800   6.885   2.500
 8675SOL     OW26923   1.991   1.091   2.560
 8675SOL    HW126924   1.991   1.034   2.642
 8675SOL    HW226925   2.076   1.143   2.556
 8676SOL     OW26926   4.270   0.676   2.964
 8676SOL    HW126927   4.360   0.637   2.941
 8676SOL    HW226928   4.261   0.766   2.922
 8677SOL     OW26929   2.671   4.087   5.996
 8677SOL    HW126930   2.704   4.072   5.903
 8677SOL    HW226931   2.636   4.180   6.005
 8678SOL     OW26932   1.501   0.036   6.268
 8678SOL    HW126933   1.513   0.123   6.316
 8678SOL    HW226934   1.527   6.982   6.327
 8679SOL     OW26935   6.837   2.418   4.779
 8679SOL    HW126936   6.835   2.322   4.809
 8679SOL    HW226937   6.927   2.457   4.798
 8680SOL     OW26938   1.345   3.146   0.275
 8680SOL    HW126939   1.371   3.216   0.341
 8680SOL    HW226940   1.266   3.177   0.223
 8681SOL     OW26941   3.428   4.017   0.850
 8681SOL    HW126942   3.503   4.008   0.783
 8681SOL    HW226943   3.408   3.927   0.888
 8682SOL     OW26944   1.952   5.953   2.801
 8682SOL    HW126945   2.025   5.976   2.736
 8682SOL    HW226946   1.939   6.029   2.864
 8683SOL     OW26947   6.633   3.245   0.137
 8683SOL    HW126948   6.682   3.218   0.219
 8683SOL    HW226949   6.537   3.264   0.160
 8684SOL     OW26950   6.371   2.668   4.137
 8684SOL    HW126951   6.385   2.666   4.038
 8684SOL    HW226952   6.412   2.750   4.175
 8685SOL     OW26953   1.503   2.350   5.430
 8685SOL    HW126954   1.596   2.384   5.413
 8685SOL    HW226955   1.456   2.413   5.492
 8686SOL     OW26956   6.728   2.617   3.690
 8686SOL    HW126957   6.730   2.571   3.778
 8686SOL    HW226958   6.637   2.609   3.650
 8687SOL     OW26959   3.495   0.008   3.719
 8687SOL    HW126960   3.484   0.107   3.713
 8687SOL    HW226961   3.553   7.006   3.797
 8688SOL     OW26962   2.345   0.579   1.902
 8688SOL    HW126963   2.403   0.552   1.978
 8688SOL    HW226964   2.270   0.513   1.891
 8689SOL     OW26965   4.656   5.839   1.021
 8689SOL    HW126966   4.582   5.784   1.061
 8689SOL    HW226967   4.623   5.885   0.939
 8690SOL     OW26968   0.161   1.627   2.494
 8690SOL    HW126969   0.081   1.578   2.528
 8690SOL    HW226970   0.162   1.719   2.531
 8691SOL     OW26971   5.261   1.958   0.472
 8691SOL    HW126972   5.335   2.024   0.487
 8691SOL    HW226973   5.180   1.987   0.522
 8692SOL     OW26974   1.918   1.796   4.049
 8692SOL    HW126975   1.964   1.720   4.096
 8692SOL    HW226976   1.967   1.881   4.067
 8693SOL     OW26977   5.203   2.064   0.771
 8693SOL    HW126978   5.204   2.057   0.871
 8693SOL    HW226979   5.117   2.103   0.741
 8694SOL     OW26980   4.920   0.028   5.788
 8694SOL    HW126981   4.845   0.088   5.815
 8694SOL    HW226982   4.924   0.023   5.688
 8695SOL     OW26983   4.417   4.447   5.865
 8695SOL    HW126984   4.348   4.496   5.812
 8695SOL    HW226985   4.507   4.484   5.844
 8696SOL     OW26986   2.349   5.401   1.513
 8696SOL    HW126987   2.314   5.308   1.501
 8696SOL    HW226988   2.310   5.460   1.442
 8697SOL     OW26989   6.155   4.483   1.049
 8697SOL    HW126990   6.197   4.556   0.994
 8697SOL    HW226991   6.226   4.417   1.075
 8698SOL     OW26992   5.116   5.690   4.481
 8698SOL    HW126993   5.033   5.672   4.534
 8698SOL    HW226994   5.195   5.650   4.527
 8699SOL     OW26995   1.132   1.644   5.282
 8699SOL    HW126996   1.036   1.641   5.307
 8699SOL    HW226997   1.162   1.739   5.275
 8700SOL     OW26998   3.092   1.261   5.878
 8700SOL    HW126999   3.034   1.257   5.797
 8700SOL    HW227000   3.036   1.273   5.960
 8701SOL     OW27001   0.740   1.721   5.090
 8701SOL    HW127002   0.643   1.739   5.105
 8701SOL    HW227003   0.759   1.723   4.992
 8702SOL     OW27004   4.951   6.171   0.115
 8702SOL    HW127005   4.981   6.076   0.109
 8702SOL    HW227006   4.957   6.214   0.025
 8703SOL     OW27007   2.481   5.610   0.966
 8703SOL    HW127008   2.485   5.672   0.888
 8703SOL    HW227009   2.565   5.618   1.019
 8704SOL     OW27010   0.086   4.172   1.730
 8704SOL    HW127011   0.179   4.157   1.699
 8704SOL    HW227012   0.037   4.228   1.663
 8705SOL     OW27013   4.983   0.380   5.890
 8705SOL    HW127014   4.910   0.312   5.883
 8705SOL    HW227015   4.951   0.457   5.946
 8706SOL     OW27016   5.358   1.674   0.453
 8706SOL    HW127017   5.352   1.645   0.358
 8706SOL    HW227018   5.331   1.769   0.461
 8707SOL     OW27019   5.195   2.590   5.905
 8707SOL    HW127020   5.244   2.521   5.959
 8707SOL    HW227021   5.233   2.594   5.813
 8708SOL     OW27022   3.865   1.297   1.574
 8708SOL    HW127023   3.945   1.242   1.553
 8708SOL    HW227024   3.889   1.366   1.642
 8709SOL     OW27025   6.960   4.171   0.828
 8709SOL    HW127026   6.971   4.086   0.776
 8709SOL    HW227027   0.027   4.218   0.834
 8710SOL     OW27028   1.687   3.548   3.402
 8710SOL    HW127029   1.671   3.566   3.305
 8710SOL    HW227030   1.626   3.475   3.433
 8711SOL     OW27031   0.054   0.924   3.722
 8711SOL    HW127032   0.039   0.916   3.821
 8711SOL    HW227033   0.148   0.899   3.701
 8712SOL     OW27034   3.338   1.926   5.612
 8712SOL    HW127035   3.292   1.840   5.637
 8712SOL    HW227036   3.426   1.906   5.571
 8713SOL     OW27037   0.127   4.691   3.425
 8713SOL    HW127038   0.140   4.592   3.439
 8713SOL    HW227039   0.216   4.736   3.423
 8714SOL     OW27040   1.408   1.668   4.867
 8714SOL    HW127041   1.502   1.659   4.836
 8714SOL    HW227042   1.391   1.606   4.943
 8715SOL     OW27043   6.264   1.848   1.523
 8715SOL    HW127044   6.260   1.783   1.598
 8715SOL    HW227045   6.287   1.800   1.438
 8716SOL     OW27046   1.305   2.198   1.137
 8716SOL    HW127047   1.393   2.193   1.184
 8716SOL    HW227048   1.292   2.291   1.100
 8717SOL     OW27049   3.896   3.594   1.203
 8717SOL    HW127050   3.854   3.542   1.129
 8717SOL    HW227051   3.933   3.531   1.271
 8718SOL     OW27052   5.991   3.293   5.058
 8718SOL    HW127053   6.038   3.243   4.984
 8718SOL    HW227054   6.026   3.261   5.146
 8719SOL     OW27055   0.156   0.584   6.046
 8719SOL    HW127056   0.177   0.619   6.137
 8719SOL    HW227057   0.237   0.540   6.007
 8720SOL     OW27058   4.893   3.630   6.367
 8720SOL    HW127059   4.823   3.658   6.432
 8720SOL    HW227060   4.975   3.686   6.380
 8721SOL     OW27061   0.102   2.469   4.000
 8721SOL    HW127062   0.197   2.458   4.029
 8721SOL    HW227063   0.058   2.541   4.053
 8722SOL     OW27064   3.759   2.422   0.189
 8722SOL    HW127065   3.812   2.495   0.232
 8722SOL    HW227066   3.803   2.395   0.104
 8723SOL     OW27067   6.884   4.625   1.122
 8723SOL    HW127068   6.786   4.639   1.106
 8723SOL    HW227069   6.897   4.597   1.217
 8724SOL     OW27070   5.089   0.115   6.200
 8724SOL    HW127071   5.144   0.050   6.251
 8724SOL    HW227072   5.102   0.100   6.102
 8725SOL     OW27073   2.747   5.598   0.538
 8725SOL    HW127074   2.810   5.675   0.547
 8725SOL    HW227075   2.759   5.556   0.448
 8726SOL     OW27076   5.830   0.392   1.156
 8726SOL    HW127077   5.731   0.387   1.169
 8726SOL    HW227078   5.859   0.487   1.154
 8727SOL     OW27079   6.568   5.961   1.298
 8727SOL    HW127080   6.659   5.943   1.335
 8727SOL    HW227081   6.554   6.060   1.288
 8728SOL     OW27082   2.771   6.974   5.166
 8728SOL    HW127083   2.842   6.919   5.122
 8728SOL    HW227084   2.807   7.012   5.251
 8729SOL     OW27085   5.494   6.066   4.310
 8729SOL    HW127086   5.572   6.125   4.331
 8729SOL    HW227087   5.411   6.108   4.345
 8730SOL     OW27088   0.369   5.888   1.855
 8730SOL    HW127089   0.338   5.941   1.933
 8730SOL    HW227090   0.339   5.932   1.770
 8731SOL     OW27091   0.570   1.543   2.610
 8731SOL    HW127092   0.628   1.495   2.676
 8731SOL    HW227093   0.628   1.582   2.538
 8732SOL     OW27094   5.479   3.932   1.639
 8732SOL    HW127095   5.423   3.902   1.562
 8732SOL    HW227096   5.457   4.027   1.662
 8733SOL     OW27097   0.994   6.346   1.320
 8733SOL    HW127098   0.896   6.327   1.324
 8733SOL    HW227099   1.018   6.381   1.229
 8734SOL     OW27100   6.642   5.603   1.178
 8734SOL    HW127101   6.738   5.581   1.199
 8734SOL    HW227102   6.585   5.524   1.197
 8735SOL     OW27103   6.808   1.789   6.898
 8735SOL    HW127104   6.872   1.751   6.965
 8735SOL    HW227105   6.850   1.867   6.852
 8736SOL     OW27106   0.355   4.890   6.649
 8736SOL    HW127107   0.318   4.965   6.703
 8736SOL    HW227108   0.446   4.866   6.683
 8737SOL     OW27109   3.917   6.085   6.147
 8737SOL    HW127110   3.921   6.000   6.096
 8737SOL    HW227111   3.953   6.160   6.091
 8738SOL     OW27112   0.700   3.981   4.456
 8738SOL    HW127113   0.675   4.042   4.530
 8738SOL    HW227114   0.634   3.906   4.450
 8739SOL     OW27115   0.422   3.007   5.137
 8739SOL    HW127116   0.346   3.011   5.202
 8739SOL    HW227117   0.388   2.985   5.046
 8740SOL     OW27118   2.063   6.137   1.472
 8740SOL    HW127119   2.112   6.179   1.548
 8740SOL    HW227120   2.028   6.208   1.411
 8741SOL     OW27121   1.232   3.602   2.833
 8741SOL    HW127122   1.325   3.594   2.796
 8741SOL    HW227123   1.236   3.600   2.933
 8742SOL     OW27124   4.735   0.081   2.054
 8742SOL    HW127125   4.638   0.073   2.033
 8742SOL    HW227126   4.789   0.049   1.976
 8743SOL     OW27127   2.404   5.088   2.813
 8743SOL    HW127128   2.383   4.990   2.816
 8743SOL    HW227129   2.492   5.102   2.767
 8744SOL     OW27130   3.340   2.342   5.955
 8744SOL    HW127131   3.336   2.250   5.918
 8744SOL    HW227132   3.421   2.351   6.013
 8745SOL     OW27133   6.543   2.316   6.242
 8745SOL    HW127134   6.579   2.252   6.175
 8745SOL    HW227135   6.611   2.331   6.314
 8746SOL     OW27136   5.251   4.592   5.567
 8746SOL    HW127137   5.180   4.528   5.595
 8746SOL    HW227138   5.280   4.571   5.474
 8747SOL     OW27139   1.837   2.210   4.282
 8747SOL    HW127140   1.935   2.189   4.286
 8747SOL    HW227141   1.825   2.309   4.271
 8748SOL     OW27142   2.019   6.760   6.716
 8748SOL    HW127143   2.025   6.789   6.621
 8748SOL    HW227144   1.960   6.823   6.767
 8749SOL     OW27145   3.680   0.872   3.474
 8749SOL    HW127146   3.738   0.792   3.456
 8749SOL    HW227147   3.634   0.861   3.562
 8750SOL     OW27148   2.110   1.451   5.177
 8750SOL    HW127149   2.099   1.381   5.106
 8750SOL    HW227150   2.052   1.529   5.155
 8751SOL     OW27151   1.681   0.013   3.047
 8751SOL    HW127152   1.683   0.075   2.969
 8751SOL    HW227153   1.588   6.997   3.057
 8752SOL     OW27154   1.610   2.313   6.110
 8752SOL    HW127155   1.675   2.240   6.091
 8752SOL    HW227156   1.553   2.329   6.029
 8753SOL     OW27157   5.109   1.573   4.770
 8753SOL    HW127158   5.189   1.540   4.722
 8753SOL    HW227159   5.065   1.646   4.717
 8754SOL     OW27160   1.449   1.691   5.502
 8754SOL    HW127161   1.454   1.702   5.403
 8754SOL    HW227162   1.507   1.615   5.531
 8755SOL     OW27163   1.835   1.916   1.258
 8755SOL    HW127164   1.880   2.003   1.278
 8755SOL    HW227165   1.893   1.841   1.291
 8756SOL     OW27166   1.863   3.714   4.587
 8756SOL    HW127167   1.845   3.802   4.631
 8756SOL    HW227168   1.781   3.658   4.590
 8757SOL     OW27169   5.097   5.990   5.143
 8757SOL    HW127170   5.065   5.933   5.219
 8757SOL    HW227171   5.085   6.086   5.166
 8758SOL     OW27172   6.120   6.320   1.387
 8758SOL    HW127173   6.046   6.270   1.342
 8758SOL    HW227174   6.208   6.286   1.354
 8759SOL     OW27175   5.132   0.644   5.857
 8759SOL    HW127176   5.079   0.717   5.902
 8759SOL    HW227177   5.178   0.589   5.926
 8760SOL     OW27178   1.712   1.980   4.181
 8760SOL    HW127179   1.758   2.050   4.235
 8760SOL    HW227180   1.780   1.914   4.148
 8761SOL     OW27181   4.427   6.829   0.142
 8761SOL    HW127182   4.466   6.747   0.184
 8761SOL    HW227183   4.494   6.868   0.079
 8762SOL     OW27184   0.862   4.099   0.932
 8762SOL    HW127185   0.817   4.170   0.986
 8762SOL    HW227186   0.930   4.140   0.873
 8763SOL     OW27187   0.433   6.132   6.217
 8763SOL    HW127188   0.451   6.229   6.233
 8763SOL    HW227189   0.390   6.120   6.128
 8764SOL     OW27190   3.836   1.880   4.934
 8764SOL    HW127191   3.798   1.911   5.022
 8764SOL    HW227192   3.831   1.955   4.868
 8765SOL     OW27193   6.719   0.607   4.332
 8765SOL    HW127194   6.713   0.515   4.370
 8765SOL    HW227195   6.726   0.602   4.233
 8766SOL     OW27196   2.423   4.678   2.315
 8766SOL    HW127197   2.513   4.667   2.271
 8766SOL    HW227198   2.435   4.720   2.405
 8767SOL     OW27199   4.192   1.400   3.877
 8767SOL    HW127200   4.288   1.389   3.852
 8767SOL    HW227201   4.141   1.433   3.798
 8768SOL     OW27202   1.380   3.204   6.941
 8768SOL    HW127203   1.297   3.169   6.985
 8768SOL    HW227204   1.377   3.182   6.843
 8769SOL     OW27205   1.775   0.297   5.786
 8769SOL    HW127206   1.843   0.301   5.859
 8769SOL    HW227207   1.687   0.330   5.821
 8770SOL     OW27208   5.448   2.390   2.039
 8770SOL    HW127209   5.546   2.375   2.055
 8770SOL    HW227210   5.404   2.414   2.126
 8771SOL     OW27211   1.260   1.814   6.447
 8771SOL    HW127212   1.317   1.738   6.477
 8771SOL    HW227213   1.316   1.896   6.436
 8772SOL     OW27214   5.372   1.113   6.995
 8772SOL    HW127215   5.427   1.072   6.921
 8772SOL    HW227216   5.350   1.043   0.042
 8773SOL     OW27217   2.922   2.275   3.344
 8773SOL    HW127218   2.865   2.255   3.423
 8773SOL    HW227219   2.868   2.321   3.273
 8774SOL     OW27220   1.081   0.564   0.238
 8774SOL    HW127221   1.086   0.664   0.243
 8774SOL    HW227222   1.089   0.525   0.330
 8775SOL     OW27223   6.709   0.218   3.549
 8775SOL    HW127224   6.755   0.289   3.496
 8775SOL    HW227225   6.728   0.129   3.509
 8776SOL     OW27226   3.255   3.464   4.784
 8776SOL    HW127227   3.307   3.393   4.832
 8776SOL    HW227228   3.207   3.423   4.706
 8777SOL     OW27229   6.828   6.204   1.521
 8777SOL    HW127230   6.732   6.185   1.543
 8777SOL    HW227231   6.882   6.122   1.536
 8778SOL     OW27232   0.400   1.987   3.210
 8778SOL    HW127233   0.406   2.079   3.247
 8778SOL    HW227234   0.489   1.959   3.174
 8779SOL     OW27235   1.292   4.361   0.581
 8779SOL    HW127236   1.319   4.283   0.524
 8779SOL    HW227237   1.194   4.376   0.574
 8780SOL     OW27238   1.511   5.712   4.192
 8780SOL    HW127239   1.421   5.748   4.216
 8780SOL    HW227240   1.535   5.638   4.254
 8781SOL     OW27241   0.488   1.880   1.927
 8781SOL    HW127242   0.416   1.848   1.990
 8781SOL    HW227243   0.457   1.867   1.833
 8782SOL     OW27244   4.082   1.804   2.828
 8782SOL    HW127245   3.982   1.814   2.823
 8782SOL    HW227246   4.114   1.747   2.752
 8783SOL     OW27247   5.648   3.358   5.120
 8783SOL    HW127248   5.704   3.355   5.037
 8783SOL    HW227249   5.606   3.448   5.129
 8784SOL     OW27250   5.324   4.674   4.777
 8784SOL    HW127251   5.400   4.734   4.750
 8784SOL    HW227252   5.243   4.729   4.795
 8785SOL     OW27253   5.915   4.851   6.425
 8785SOL    HW127254   5.827   4.808   6.446
 8785SOL    HW227255   5.907   4.905   6.342
 8786SOL     OW27256   2.034   6.574   0.342
 8786SOL    HW127257   2.068   6.547   0.252
 8786SOL    HW227258   2.104   6.557   0.411
 8787SOL     OW27259   0.503   3.563   0.454
 8787SOL    HW127260   0.523   3.658   0.430
 8787SOL    HW227261   0.489   3.509   0.371
 8788SOL     OW27262   0.879   1.561   5.262
 8788SOL    HW127263   0.831   1.614   5.192
 8788SOL    HW227264   0.840   1.582   5.352
 8789SOL     OW27265   0.059   6.752   6.169
 8789SOL    HW127266   0.127   6.708   6.111
 8789SOL    HW227267   0.012   6.823   6.116
 8790SOL     OW27268   5.688   1.824   0.461
 8790SOL    HW127269   5.758   1.754   0.450
 8790SOL    HW227270   5.676   1.874   0.375
 8791SOL     OW27271   4.938   6.529   5.411
 8791SOL    HW127272   4.874   6.568   5.344
 8791SOL    HW227273   5.032   6.546   5.381
 8792SOL     OW27274   4.961   0.334   3.122
 8792SOL    HW127275   5.026   0.410   3.128
 8792SOL    HW227276   5.001   0.252   3.164
 8793SOL     OW27277   0.864   5.786   4.376
 8793SOL    HW127278   0.886   5.843   4.454
 8793SOL    HW227279   0.916   5.700   4.382
 8794SOL     OW27280   2.197   6.610   2.522
 8794SOL    HW127281   2.191   6.541   2.595
 8794SOL    HW227282   2.112   6.662   2.520
 8795SOL     OW27283   2.118   6.002   5.699
 8795SOL    HW127284   2.149   5.951   5.779
 8795SOL    HW227285   2.194   6.011   5.634
 8796SOL     OW27286   5.493   2.361   5.182
 8796SOL    HW127287   5.409   2.322   5.221
 8796SOL    HW227288   5.567   2.294   5.187
 8797SOL     OW27289   0.592   6.476   6.582
 8797SOL    HW127290   0.565   6.560   6.628
 8797SOL    HW227291   0.525   6.404   6.602
 8798SOL     OW27292   4.667   3.743   5.382
 8798SOL    HW127293   4.721   3.819   5.347
 8798SOL    HW227294   4.655   3.674   5.310
 8799SOL     OW27295   3.844   5.804   2.835
 8799SOL    HW127296   3.876   5.712   2.812
 8799SOL    HW227297   3.858   5.821   2.933
 8800SOL     OW27298   4.330   4.974   6.881
 8800SOL    HW127299   4.252   4.923   6.917
 8800SOL    HW227300   4.301   5.067   6.859
 8801SOL     OW27301   2.557   0.400   4.933
 8801SOL    HW127302   2.630   0.416   4.867
 8801SOL    HW227303   2.595   0.361   5.016
 8802SOL     OW27304   2.594   6.936   2.510
 8802SOL    HW127305   2.614   6.999   2.435
 8802SOL    HW227306   2.547   6.855   2.474
 8803SOL     OW27307   4.112   6.089   0.809
 8803SOL    HW127308   4.179   6.016   0.799
 8803SOL    HW227309   4.053   6.070   0.887
 8804SOL     OW27310   4.560   0.597   1.259
 8804SOL    HW127311   4.494   0.621   1.188
 8804SOL    HW227312   4.535   0.642   1.344
 8805SOL     OW27313   0.438   0.417   2.650
 8805SOL    HW127314   0.375   0.375   2.716
 8805SOL    HW227315   0.532   0.397   2.676
 8806SOL     OW27316   2.186   4.915   6.892
 8806SOL    HW127317   2.231   4.826   6.890
 8806SOL    HW227318   2.099   4.910   6.843
 8807SOL     OW27319   1.116   6.095   6.284
 8807SOL    HW127320   1.214   6.074   6.289
 8807SOL    HW227321   1.081   6.113   6.376
 8808SOL     OW27322   6.098   1.018   0.760
 8808SOL    HW127323   6.061   1.058   0.676
 8808SOL    HW227324   6.177   1.071   0.790
 8809SOL     OW27325   5.839   3.888   1.224
 8809SOL    HW127326   5.843   3.907   1.322
 8809SOL    HW227327   5.875   3.796   1.207
 8810SOL     OW27328   4.709   1.796   4.023
 8810SOL    HW127329   4.747   1.811   3.932
 8810SOL    HW227330   4.622   1.747   4.015
 8811SOL     OW27331   1.114   1.474   3.245
 8811SOL    HW127332   1.077   1.558   3.205
 8811SOL    HW227333   1.056   1.444   3.321
 8812SOL     OW27334   2.435   0.655   0.821
 8812SOL    HW127335   2.414   0.561   0.849
 8812SOL    HW227336   2.526   0.680   0.856
 8813SOL     OW27337   1.628   5.131   1.244
 8813SOL    HW127338   1.630   5.194   1.166
 8813SOL    HW227339   1.623   5.037   1.211
 8814SOL     OW27340   5.870   0.794   6.216
 8814SOL    HW127341   5.792   0.798   6.278
 8814SOL    HW227342   5.887   0.884   6.177
 8815SOL     OW27343   0.598   5.887   2.461
 8815SOL    HW127344   0.502   5.909   2.481
 8815SOL    HW227345   0.630   5.946   2.387
 8816SOL     OW27346   0.963   5.733   1.308
 8816SOL    HW127347   0.917   5.652   1.273
 8816SOL    HW227348   0.933   5.813   1.257
 8817SOL     OW27349   2.180   4.828   5.619
 8817SOL    HW127350   2.104   4.806   5.557
 8817SOL    HW227351   2.266   4.793   5.580
 8818SOL     OW27352   0.328   5.388   3.992
 8818SOL    HW127353   0.310   5.485   3.974
 8818SOL    HW227354   0.257   5.332   3.949
 8819SOL     OW27355   4.864   7.000   4.302
 8819SOL    HW127356   4.772   0.015   4.321
 8819SOL    HW227357   4.929   0.056   4.297
 8820SOL     OW27358   1.602   2.380   3.858
 8820SOL    HW127359   1.544   2.411   3.933
 8820SOL    HW227360   1.545   2.331   3.792
 8821SOL     OW27361   1.821   1.214   6.149
 8821SOL    HW127362   1.831   1.174   6.058
 8821SOL    HW227363   1.904   1.267   6.172
 8822SOL     OW27364   0.222   2.708   3.319
 8822SOL    HW127365   0.156   2.744   3.385
 8822SOL    HW227366   0.314   2.714   3.357
 8823SOL     OW27367   2.390   5.982   1.893
 8823SOL    HW127368   2.424   5.970   1.799
 8823SOL    HW227369   2.408   6.076   1.923
 8824SOL     OW27370   3.890   3.981   0.789
 8824SOL    HW127371   3.883   3.931   0.875
 8824SOL    HW227372   3.803   4.025   0.769
 8825SOL     OW27373   0.883   1.357   1.294
 8825SOL    HW127374   0.949   1.287   1.268
 8825SOL    HW227375   0.924   1.448   1.284
 8826SOL     OW27376   5.645   1.455   6.796
 8826SOL    HW127377   5.656   1.530   6.861
 8826SOL    HW227378   5.711   1.383   6.816
 8827SOL     OW27379   1.117   1.522   3.685
 8827SOL    HW127380   1.035   1.521   3.628
 8827SOL    HW227381   1.198   1.537   3.628
 8828SOL     OW27382   2.195   6.705   2.827
 8828SOL    HW127383   2.264   6.749   2.884
 8828SOL    HW227384   2.236   6.628   2.779
 8829SOL     OW27385   0.287   1.732   0.253
 8829SOL    HW127386   0.192   1.758   0.237
 8829SOL    HW227387   0.343   1.815   0.258
 8830SOL     OW27388   0.625   2.294   0.621
 8830SOL    HW127389   0.575   2.207   0.621
 8830SOL    HW227390   0.696   2.292   0.551
 8831SOL     OW27391   6.578   0.511   2.787
 8831SOL    HW127392   6.530   0.590   2.824
 8831SOL    HW227393   6.588   0.442   2.859
 8832SOL     OW27394   6.734   1.229   2.322
 8832SOL    HW127395   6.791   1.204   2.401
 8832SOL    HW227396   6.653   1.277   2.353
 8833SOL     OW27397   2.131   4.547   3.757
 8833SOL    HW127398   2.093   4.530   3.848
 8833SOL    HW227399   2.215   4.494   3.745
 8834SOL     OW27400   5.903   3.933   4.550
 8834SOL    HW127401   5.901   3.874   4.630
 8834SOL    HW227402   5.964   3.893   4.481
 8835SOL     OW27403   0.235   6.580   6.684
 8835SOL    HW127404   0.214   6.594   6.587
 8835SOL    HW227405   0.153   6.591   6.739
 8836SOL     OW27406   5.081   1.766   0.847
 8836SOL    HW127407   5.086   1.727   0.755
 8836SOL    HW227408   5.167   1.810   0.870
 8837SOL     OW27409   0.378   0.740   1.687
 8837SOL    HW127410   0.472   0.755   1.717
 8837SOL    HW227411   0.315   0.756   1.763
 8838SOL     OW27412   2.280   5.635   3.872
 8838SOL    HW127413   2.199   5.657   3.818
 8838SOL    HW227414   2.262   5.653   3.969
 8839SOL     OW27415   6.509   6.661   3.763
 8839SOL    HW127416   6.549   6.631   3.676
 8839SOL    HW227417   6.414   6.691   3.747
 8840SOL     OW27418   5.062   2.021   2.297
 8840SOL    HW127419   5.104   1.939   2.335
 8840SOL    HW227420   5.006   2.065   2.367
 8841SOL     OW27421   1.668   0.848   4.499
 8841SOL    HW127422   1.668   0.794   4.415
 8841SOL    HW227423   1.576   0.884   4.516
 8842SOL     OW27424   2.186   3.071   2.199
 8842SOL    HW127425   2.260   3.118   2.246
 8842SOL    HW227426   2.139   3.010   2.263
 8843SOL     OW27427   0.262   3.341   4.639
 8843SOL    HW127428   0.268   3.266   4.704
 8843SOL    HW227429   0.193   3.407   4.670
 8844SOL     OW27430   6.619   1.672   6.462
 8844SOL    HW127431   6.529   1.650   6.497
 8844SOL    HW227432   6.669   1.587   6.444
 8845SOL     OW27433   5.435   4.507   0.030
 8845SOL    HW127434   5.517   4.556   0.058
 8845SOL    HW227435   5.418   4.430   0.093
 8846SOL     OW27436   1.733   4.610   3.541
 8846SOL    HW127437   1.720   4.607   3.640
 8846SOL    HW227438   1.692   4.529   3.499
 8847SOL     OW27439   2.696   0.483   2.886
 8847SOL    HW127440   2.685   0.526   2.976
 8847SOL    HW227441   2.689   0.384   2.895
 8848SOL     OW27442   1.772   0.727   2.769
 8848SOL    HW127443   1.777   0.628   2.753
 8848SOL    HW227444   1.703   0.767   2.710
 8849SOL     OW27445   2.999   6.897   0.934
 8849SOL    HW127446   3.053   6.950   0.868
 8849SOL    HW227447   2.915   6.947   0.956
 8850SOL     OW27448   3.746   2.531   6.743
 8850SOL    HW127449   3.775   2.502   6.652
 8850SOL    HW227450   3.676   2.602   6.735
 8851SOL     OW27451   1.365   3.387   3.117
 8851SOL    HW127452   1.397   3.360   3.026
 8851SOL    HW227453   1.293   3.455   3.109
 8852SOL     OW27454   0.724   2.043   5.963
 8852SOL    HW127455   0.803   2.060   6.023
 8852SOL    HW227456   0.739   2.087   5.875
 8853SOL     OW27457   4.991   1.135   1.004
 8853SOL    HW127458   4.901   1.173   1.025
 8853SOL    HW227459   4.988   1.035   1.013
 8854SOL     OW27460   0.703   2.370   4.551
 8854SOL    HW127461   0.751   2.384   4.638
 8854SOL    HW227462   0.769   2.372   4.476
 8855SOL     OW27463   5.773   5.331   0.919
 8855SOL    HW127464   5.864   5.328   0.961
 8855SOL    HW227465   5.726   5.244   0.935
 8856SOL     OW27466   6.836   6.983   5.498
 8856SOL    HW127467   6.807   6.888   5.501
 8856SOL    HW227468   6.929   6.988   5.462
 8857SOL     OW27469   6.313   1.531   6.114
 8857SOL    HW127470   6.282   1.449   6.161
 8857SOL    HW227471   6.412   1.541   6.125
 8858SOL     OW27472   5.829   5.748   4.488
 8858SOL    HW127473   5.751   5.787   4.438
 8858SOL    HW227474   5.802   5.727   4.582
 8859SOL     OW27475   0.781   6.871   3.702
 8859SOL    HW127476   0.863   6.926   3.688
 8859SOL    HW227477   0.794   6.781   3.660
 8860SOL     OW27478   0.293   4.328   2.903
 8860SOL    HW127479   0.256   4.389   2.973
 8860SOL    HW227480   0.393   4.338   2.899
 8861SOL     OW27481   4.332   3.034   0.980
 8861SOL    HW127482   4.318   3.001   1.073
 8861SOL    HW227483   4.259   3.000   0.921
 8862SOL     OW27484   4.899   4.574   4.845
 8862SOL    HW127485   4.922   4.501   4.910
 8862SOL    HW227486   4.826   4.542   4.785
 8863SOL     OW27487   2.064   3.682   3.397
 8863SOL    HW127488   2.132   3.733   3.343
 8863SOL    HW227489   2.013   3.746   3.454
 8864SOL     OW27490   6.216   1.703   5.286
 8864SOL    HW127491   6.235   1.772   5.216
 8864SOL    HW227492   6.126   1.721   5.327
 8865SOL     OW27493   2.578   1.528   0.322
 8865SOL    HW127494   2.638   1.574   0.387
 8865SOL    HW227495   2.493   1.501   0.368
 8866SOL     OW27496   5.868   6.849   2.270
 8866SOL    HW127497   5.799   6.881   2.204
 8866SOL    HW227498   5.834   6.766   2.314
 8867SOL     OW27499   6.363   3.540   2.925
 8867SOL    HW127500   6.458   3.555   2.895
 8867SOL    HW227501   6.305   3.610   2.884
 8868SOL     OW27502   6.773   2.875   3.679
 8868SOL    HW127503   6.786   2.897   3.582
 8868SOL    HW227504   6.759   2.776   3.689
 8869SOL     OW27505   3.812   6.671   3.634
 8869SOL    HW127506   3.797   6.593   3.572
 8869SOL    HW227507   3.737   6.676   3.700
 8870SOL     OW27508   1.130   0.897   3.101
 8870SOL    HW127509   1.215   0.941   3.130
 8870SOL    HW227510   1.061   0.967   3.081
 8871SOL     OW27511   6.849   0.514   2.785
 8871SOL    HW127512   6.902   0.572   2.847
 8871SOL    HW227513   6.752   0.540   2.789
 8872SOL     OW27514   6.272   4.497   3.721
 8872SOL    HW127515   6.303   4.590   3.742
 8872SOL    HW227516   6.271   4.484   3.622
 8873SOL     OW27517   2.177   1.571   2.788
 8873SOL    HW127518   2.261   1.519   2.777
 8873SOL    HW227519   2.108   1.538   2.723
 8874SOL     OW27520   3.308   6.428   0.993
 8874SOL    HW127521   3.228   6.368   0.993
 8874SOL    HW227522   3.381   6.387   1.048
 8875SOL     OW27523   6.519   3.265   4.200
 8875SOL    HW127524   6.600   3.311   4.164
 8875SOL    HW227525   6.439   3.323   4.187
 8876SOL     OW27526   4.218   0.261   6.343
 8876SOL    HW127527   4.222   0.361   6.346
 8876SOL    HW227528   4.303   0.223   6.378
 8877SOL     OW27529   1.201   4.089   1.098
 8877SOL    HW127530   1.130   4.159   1.104
 8877SOL    HW227531   1.268   4.103   1.171
 8878SOL     OW27532   4.598   3.729   1.102
 8878SOL    HW127533   4.528   3.687   1.160
 8878SOL    HW227534   4.636   3.660   1.041
 8879SOL     OW27535   6.627   4.796   2.908
 8879SOL    HW127536   6.627   4.884   2.860
 8879SOL    HW227537   6.671   4.727   2.852
 8880SOL     OW27538   4.038   1.011   3.828
 8880SOL    HW127539   4.118   1.031   3.884
 8880SOL    HW227540   4.061   1.017   3.731
 8881SOL     OW27541   3.976   4.843   4.170
 8881SOL    HW127542   3.982   4.756   4.219
 8881SOL    HW227543   4.023   4.914   4.223
 8882SOL     OW27544   4.433   0.718   0.812
 8882SOL    HW127545   4.355   0.732   0.751
 8882SOL    HW227546   4.518   0.743   0.765
 8883SOL     OW27547   6.782   6.431   4.931
 8883SOL    HW127548   6.826   6.360   4.986
 8883SOL    HW227549   6.708   6.390   4.878
 8884SOL     OW27550   5.347   3.631   5.269
 8884SOL    HW127551   5.334   3.727   5.246
 8884SOL    HW227552   5.282   3.605   5.341
 8885SOL     OW27553   5.816   6.037   0.837
 8885SOL    HW127554   5.801   6.107   0.767
 8885SOL    HW227555   5.908   6.000   0.827
 8886SOL     OW27556   4.420   6.212   6.826
 8886SOL    HW127557   4.419   6.252   6.918
 8886SOL    HW227558   4.330   6.174   6.806
 8887SOL     OW27559   4.853   0.331   2.130
 8887SOL    HW127560   4.845   0.362   2.224
 8887SOL    HW227561   4.788   0.256   2.114
 8888SOL     OW27562   2.752   1.891   2.479
 8888SOL    HW127563   2.703   1.919   2.562
 8888SOL    HW227564   2.850   1.882   2.499
 8889SOL     OW27565   1.460   5.347   6.285
 8889SOL    HW127566   1.468   5.396   6.372
 8889SOL    HW227567   1.543   5.294   6.270
 8890SOL     OW27568   0.918   6.454   0.010
 8890SOL    HW127569   0.853   6.497   6.967
 8890SOL    HW227570   0.991   6.410   6.979
 8891SOL     OW27571   6.390   4.059   6.284
 8891SOL    HW127572   6.315   4.120   6.258
 8891SOL    HW227573   6.467   4.113   6.316
 8892SOL     OW27574   3.236   5.628   4.530
 8892SOL    HW127575   3.184   5.551   4.493
 8892SOL    HW227576   3.333   5.616   4.507
 8893SOL     OW27577   0.990   5.117   5.232
 8893SOL    HW127578   1.033   5.035   5.269
 8893SOL    HW227579   1.049   5.158   5.163
 8894SOL     OW27580   4.852   1.923   0.840
 8894SOL    HW127581   4.765   1.915   0.889
 8894SOL    HW227582   4.905   1.839   0.853
 8895SOL     OW27583   6.786   3.588   0.665
 8895SOL    HW127584   6.865   3.619   0.718
 8895SOL    HW227585   6.777   3.645   0.583
 8896SOL     OW27586   0.317   2.387   4.433
 8896SOL    HW127587   0.359   2.322   4.369
 8896SOL    HW227588   0.244   2.342   4.483
 8897SOL     OW27589   1.703   4.425   4.441
 8897SOL    HW127590   1.772   4.362   4.476
 8897SOL    HW227591   1.718   4.439   4.343
 8898SOL     OW27592   4.585   4.389   2.729
 8898SOL    HW127593   4.503   4.363   2.678
 8898SOL    HW227594   4.562   4.461   2.795
 8899SOL     OW27595   1.162   3.451   4.103
 8899SOL    HW127596   1.111   3.397   4.171
 8899SOL    HW227597   1.244   3.400   4.076
 8900SOL     OW27598   5.218   2.332   4.086
 8900SOL    HW127599   5.310   2.294   4.074
 8900SOL    HW227600   5.168   2.325   4.000
 8901SOL     OW27601   1.406   3.932   4.767
 8901SOL    HW127602   1.463   3.957   4.689
 8901SOL    HW227603   1.408   3.833   4.779
 8902SOL     OW27604   0.171   4.527   0.079
 8902SOL    HW127605   0.093   4.569   0.126
 8902SOL    HW227606   0.256   4.572   0.108
 8903SOL     OW27607   0.975   6.866   5.297
 8903SOL    HW127608   1.053   6.808   5.318
 8903SOL    HW227609   0.930   6.894   5.383
 8904SOL     OW27610   0.497   0.864   3.291
 8904SOL    HW127611   0.583   0.884   3.338
 8904SOL    HW227612   0.506   0.886   3.193
 8905SOL     OW27613   0.827   3.982   2.651
 8905SOL    HW127614   0.925   3.990   2.637
 8905SOL    HW227615   0.809   3.960   2.747
 8906SOL     OW27616   6.367   6.665   6.971
 8906SOL    HW127617   6.384   6.656   0.048
 8906SOL    HW227618   6.448   6.704   6.926
 8907SOL     OW27619   2.700   3.538   5.276
 8907SOL    HW127620   2.636   3.607   5.242
 8907SOL    HW227621   2.765   3.582   5.339
 8908SOL     OW27622   1.191   4.911   6.916
 8908SOL    HW127623   1.092   4.893   6.912
 8908SOL    HW227624   1.225   4.889   7.007
 8909SOL     OW27625   2.231   6.617   1.482
 8909SOL    HW127626   2.173   6.634   1.561
 8909SOL    HW227627   2.265   6.704   1.446
 8910SOL     OW27628   1.657   0.190   3.953
 8910SOL    HW127629   1.607   0.108   3.924
 8910SOL    HW227630   1.599   0.270   3.938
 8911SOL     OW27631   4.193   2.257   4.176
 8911SOL    HW127632   4.260   2.259   4.102
 8911SOL    HW227633   4.234   2.297   4.259
 8912SOL     OW27634   3.600   3.845   4.258
 8912SOL    HW127635   3.651   3.764   4.231
 8912SOL    HW227636   3.658   3.926   4.247
 8913SOL     OW27637   5.400   6.604   6.963
 8913SOL    HW127638   5.302   6.626   6.957
 8913SOL    HW227639   5.411   6.506   6.977
 8914SOL     OW27640   4.729   5.093   6.335
 8914SOL    HW127641   4.787   5.040   6.274
 8914SOL    HW227642   4.703   5.179   6.291
 8915SOL     OW27643   1.338   1.067   3.181
 8915SOL    HW127644   1.365   1.093   3.274
 8915SOL    HW227645   1.277   1.136   3.143
 8916SOL     OW27646   4.778   1.177   0.747
 8916SOL    HW127647   4.864   1.186   0.697
 8916SOL    HW227648   4.719   1.255   0.727
 8917SOL     OW27649   6.029   1.795   0.942
 8917SOL    HW127650   5.933   1.811   0.965
 8917SOL    HW227651   6.087   1.858   0.994
 8918SOL     OW27652   0.862   3.656   3.028
 8918SOL    HW127653   0.907   3.673   3.115
 8918SOL    HW227654   0.831   3.561   3.024
 8919SOL     OW27655   6.437   3.409   1.414
 8919SOL    HW127656   6.495   3.484   1.445
 8919SOL    HW227657   6.379   3.378   1.488
 8920SOL     OW27658   6.286   1.172   0.281
 8920SOL    HW127659   6.369   1.118   0.267
 8920SOL    HW227660   6.290   1.255   0.225
 8921SOL     OW27661   2.143   2.952   2.616
 8921SOL    HW127662   2.167   2.909   2.530
 8921SOL    HW227663   2.196   2.911   2.690
 8922SOL     OW27664   4.320   6.263   4.178
 8922SOL    HW127665   4.386   6.312   4.235
 8922SOL    HW227666   4.268   6.199   4.235
 8923SOL     OW27667   2.126   1.345   4.319
 8923SOL    HW127668   2.026   1.349   4.327
 8923SOL    HW227669   2.163   1.294   4.397
 8924SOL     OW27670   6.130   5.015   5.033
 8924SOL    HW127671   6.107   5.040   4.939
 8924SOL    HW227672   6.163   5.096   5.082
 8925SOL     OW27673   0.992   5.969   2.656
 8925SOL    HW127674   1.030   6.060   2.641
 8925SOL    HW227675   0.949   5.937   2.571
 8926SOL     OW27676   5.530   1.893   6.466
 8926SOL    HW127677   5.555   1.972   6.522
 8926SOL    HW227678   5.527   1.811   6.523
 8927SOL     OW27679   1.620   0.942   5.639
 8927SOL    HW127680   1.524   0.970   5.648
 8927SOL    HW227681   1.631   0.849   5.672
 8928SOL     OW27682   1.512   6.314   5.326
 8928SOL    HW127683   1.412   6.321   5.334
 8928SOL    HW227684   1.555   6.341   5.412
 8929SOL     OW27685   0.164   2.266   4.616
 8929SOL    HW127686   0.120   2.176   4.625
 8929SOL    HW227687   0.116   2.332   4.674
 8930SOL     OW27688   2.257   4.143   3.725
 8930SOL    HW127689   2.196   4.135   3.646
 8930SOL    HW227690   2.231   4.075   3.794
 8931SOL     OW27691   3.874   2.958   0.771
 8931SOL    HW127692   3.813   2.987   0.698
 8931SOL    HW227693   3.820   2.933   0.851
 8932SOL     OW27694   0.689   3.448   3.341
 8932SOL    HW127695   0.704   3.471   3.437
 8932SOL    HW227696   0.777   3.443   3.294
 8933SOL     OW27697   3.629   2.108   5.146
 8933SOL    HW127698   3.602   2.155   5.230
 8933SOL    HW227699   3.722   2.134   5.121
 8934SOL     OW27700   3.424   5.922   3.210
 8934SOL    HW127701   3.408   5.880   3.120
 8934SOL    HW227702   3.518   5.904   3.238
 8935SOL     OW27703   0.235   4.304   1.411
 8935SOL    HW127704   0.146   4.261   1.404
 8935SOL    HW227705   0.231   4.397   1.374
 8936SOL     OW27706   2.660   1.919   1.134
 8936SOL    HW127707   2.616   1.884   1.051
 8936SOL    HW227708   2.595   1.914   1.210
 8937SOL     OW27709   0.313   6.188   5.979
 8937SOL    HW127710   0.229   6.171   5.927
 8937SOL    HW227711   0.354   6.274   5.950
 8938SOL     OW27712   5.260   5.706   1.564
 8938SOL    HW127713   5.226   5.762   1.639
 8938SOL    HW227714   5.314   5.630   1.600
 8939SOL     OW27715   4.906   2.362   5.023
 8939SOL    HW127716   4.840   2.378   5.096
 8939SOL    HW227717   4.975   2.435   5.023
 8940SOL     OW27718   5.940   0.571   3.133
 8940SOL    HW127719   5.932   0.669   3.146
 8940SOL    HW227720   5.892   0.523   3.206
 8941SOL     OW27721   4.902   1.896   6.304
 8941SOL    HW127722   4.988   1.847   6.292
 8941SOL    HW227723   4.899   1.975   6.243
 8942SOL     OW27724   0.300   2.493   5.504
 8942SOL    HW127725   0.203   2.504   5.484
 8942SOL    HW227726   0.354   2.526   5.427
 8943SOL     OW27727   5.194   3.968   0.925
 8943SOL    HW127728   5.179   3.912   0.844
 8943SOL    HW227729   5.123   4.039   0.930
 8944SOL     OW27730   4.476   5.592   1.103
 8944SOL    HW127731   4.468   5.570   1.200
 8944SOL    HW227732   4.521   5.516   1.055
 8945SOL     OW27733   1.744   0.921   4.150
 8945SOL    HW127734   1.718   0.827   4.171
 8945SOL    HW227735   1.684   0.956   4.078
 8946SOL     OW27736   3.617   1.911   4.291
 8946SOL    HW127737   3.616   1.926   4.192
 8946SOL    HW227738   3.524   1.895   4.323
 8947SOL     OW27739   4.214   3.813   5.326
 8947SOL    HW127740   4.208   3.745   5.253
 8947SOL    HW227741   4.175   3.899   5.294
 8948SOL     OW27742   6.370   5.155   2.950
 8948SOL    HW127743   6.451   5.204   2.920
 8948SOL    HW227744   6.367   5.154   3.050
 8949SOL     OW27745   2.003   6.307   0.676
 8949SOL    HW127746   1.943   6.264   0.744
 8949SOL    HW227747   2.058   6.236   0.631
 8950SOL     OW27748   4.833   2.756   4.896
 8950SOL    HW127749   4.817   2.826   4.826
 8950SOL    HW227750   4.905   2.786   4.958
 8951SOL     OW27751   2.030   2.617   5.516
 8951SOL    HW127752   2.107   2.586   5.460
 8951SOL    HW227753   1.977   2.537   5.546
 8952SOL     OW27754   6.510   0.486   2.530
 8952SOL    HW127755   6.479   0.573   2.493
 8952SOL    HW227756   6.544   0.499   2.623
 8953SOL     OW27757   1.333   3.684   6.763
 8953SOL    HW127758   1.252   3.630   6.743
 8953SOL    HW227759   1.337   3.762   6.700
 8954SOL     OW27760   2.194   5.915   5.948
 8954SOL    HW127761   2.246   5.830   5.945
 8954SOL    HW227762   2.102   5.895   5.982
 8955SOL     OW27763   6.287   3.667   3.208
 8955SOL    HW127764   6.285   3.600   3.133
 8955SOL    HW227765   6.272   3.759   3.171
 8956SOL     OW27766   1.203   0.813   5.783
 8956SOL    HW127767   1.113   0.855   5.799
 8956SOL    HW227768   1.257   0.874   5.725
 8957SOL     OW27769   3.291   4.988   2.597
 8957SOL    HW127770   3.229   5.018   2.525
 8957SOL    HW227771   3.362   4.929   2.557
 8958SOL     OW27772   2.330   0.127   4.632
 8958SOL    HW127773   2.344   0.202   4.698
 8958SOL    HW227774   2.239   0.089   4.645
 8959SOL     OW27775   2.002   4.190   0.757
 8959SOL    HW127776   1.928   4.197   0.824
 8959SOL    HW227777   2.038   4.097   0.758
 8960SOL     OW27778   3.732   5.904   1.550
 8960SOL    HW127779   3.788   5.935   1.474
 8960SOL    HW227780   3.787   5.903   1.634
 8961SOL     OW27781   1.293   1.644   3.501
 8961SOL    HW127782   1.238   1.647   3.418
 8961SOL    HW227783   1.355   1.565   3.496
 8962SOL     OW27784   5.401   0.166   3.469
 8962SOL    HW127785   5.362   0.160   3.377
 8962SOL    HW227786   5.377   0.084   3.521
 8963SOL     OW27787   6.412   1.013   4.265
 8963SOL    HW127788   6.452   0.933   4.310
 8963SOL    HW227789   6.345   0.984   4.196
 8964SOL     OW27790   5.977   5.245   2.595
 8964SOL    HW127791   6.009   5.317   2.655
 8964SOL    HW227792   6.012   5.157   2.626
 8965SOL     OW27793   1.365   4.839   2.072
 8965SOL    HW127794   1.419   4.759   2.046
 8965SOL    HW227795   1.411   4.922   2.038
 8966SOL     OW27796   2.661   2.820   5.548
 8966SOL    HW127797   2.689   2.908   5.586
 8966SOL    HW227798   2.689   2.747   5.610
 8967SOL     OW27799   3.944   0.615   0.617
 8967SOL    HW127800   3.966   0.613   0.520
 8967SOL    HW227801   3.861   0.562   0.634
 8968SOL     OW27802   4.904   5.285   2.425
 8968SOL    HW127803   4.906   5.333   2.337
 8968SOL    HW227804   4.982   5.222   2.430
 8969SOL     OW27805   6.228   1.017   4.511
 8969SOL    HW127806   6.262   1.039   4.420
 8969SOL    HW227807   6.263   0.928   4.540
 8970SOL     OW27808   3.590   2.087   1.191
 8970SOL    HW127809   3.608   1.994   1.222
 8970SOL    HW227810   3.498   2.093   1.153
 8971SOL     OW27811   3.765   5.903   2.365
 8971SOL    HW127812   3.735   5.807   2.362
 8971SOL    HW227813   3.764   5.942   2.273
 8972SOL     OW27814   5.777   0.136   4.738
 8972SOL    HW127815   5.800   0.227   4.705
 8972SOL    HW227816   5.682   0.135   4.768
 8973SOL     OW27817   1.560   5.528   6.769
 8973SOL    HW127818   1.607   5.452   6.813
 8973SOL    HW227819   1.587   5.532   6.672
 8974SOL     OW27820   0.646   3.200   4.743
 8974SOL    HW127821   0.565   3.186   4.686
 8974SOL    HW227822   0.667   3.115   4.791
 8975SOL     OW27823   3.008   6.993   0.272
 8975SOL    HW127824   3.014   0.070   0.254
 8975SOL    HW227825   2.991   6.945   0.186
 8976SOL     OW27826   0.380   5.650   4.178
 8976SOL    HW127827   0.408   5.560   4.209
 8976SOL    HW227828   0.444   5.719   4.212
 8977SOL     OW27829   5.902   1.504   6.021
 8977SOL    HW127830   5.814   1.535   6.055
 8977SOL    HW227831   5.924   1.552   5.936
 8978SOL     OW27832   5.766   6.199   1.061
 8978SOL    HW127833   5.674   6.189   1.098
 8978SOL    HW227834   5.780   6.132   0.988
 8979SOL     OW27835   1.970   4.311   4.606
 8979SOL    HW127836   1.997   4.232   4.551
 8979SOL    HW227837   2.046   4.337   4.666
 8980SOL     OW27838   3.659   2.992   4.483
 8980SOL    HW127839   3.739   3.051   4.492
 8980SOL    HW227840   3.654   2.955   4.391
 8981SOL     OW27841   3.483   1.883   5.217
 8981SOL    HW127842   3.535   1.955   5.171
 8981SOL    HW227843   3.495   1.797   5.168
 8982SOL     OW27844   2.869   4.366   0.784
 8982SOL    HW127845   2.809   4.418   0.844
 8982SOL    HW227846   2.827   4.356   0.694
 8983SOL     OW27847   4.841   5.056   0.545
 8983SOL    HW127848   4.773   4.994   0.507
 8983SOL    HW227849   4.930   5.038   0.504
 8984SOL     OW27850   1.930   5.921   3.200
 8984SOL    HW127851   2.020   5.964   3.201
 8984SOL    HW227852   1.924   5.854   3.274
 8985SOL     OW27853   3.641   3.225   6.528
 8985SOL    HW127854   3.688   3.171   6.458
 8985SOL    HW227855   3.579   3.166   6.580
 8986SOL     OW27856   3.757   6.219   2.665
 8986SOL    HW127857   3.736   6.140   2.608
 8986SOL    HW227858   3.823   6.193   2.736
 8987SOL     OW27859   5.015   6.213   2.213
 8987SOL    HW127860   5.075   6.163   2.150
 8987SOL    HW227861   4.920   6.192   2.191
 8988SOL     OW27862   0.407   5.589   4.655
 8988SOL    HW127863   0.457   5.666   4.616
 8988SOL    HW227864   0.430   5.580   4.752
 8989SOL     OW27865   3.477   3.047   6.636
 8989SOL    HW127866   3.532   2.985   6.692
 8989SOL    HW227867   3.386   3.007   6.622
 8990SOL     OW27868   0.004   6.191   3.670
 8990SOL    HW127869   6.928   6.204   3.689
 8990SOL    HW227870   0.050   6.156   3.751
 8991SOL     OW27871   0.795   1.996   5.133
 8991SOL    HW127872   0.745   2.064   5.188
 8991SOL    HW227873   0.760   1.905   5.155
 8992SOL     OW27874   5.975   2.079   6.579
 8992SOL    HW127875   6.050   2.138   6.608
 8992SOL    HW227876   5.933   2.116   6.496
 8993SOL     OW27877   4.438   2.404   6.951
 8993SOL    HW127878   4.476   2.460   0.005
 8993SOL    HW227879   4.485   2.316   6.948
 8994SOL     OW27880   1.492   5.060   4.455
 8994SOL    HW127881   1.403   5.024   4.481
 8994SOL    HW227882   1.505   5.151   4.495
 8995SOL     OW27883   6.962   1.458   0.678
 8995SOL    HW127884   6.868   1.470   0.710
 8995SOL    HW227885   7.004   1.548   0.665
 8996SOL     OW27886   5.269   4.725   6.258
 8996SOL    HW127887   5.194   4.706   6.194
 8996SOL    HW227888   5.232   4.771   6.339
 8997SOL     OW27889   5.205   0.796   4.515
 8997SOL    HW127890   5.303   0.795   4.531
 8997SOL    HW227891   5.177   0.709   4.475
 8998SOL     OW27892   6.416   3.638   4.216
 8998SOL    HW127893   6.510   3.665   4.239
 8998SOL    HW227894   6.356   3.658   4.294
 8999SOL     OW27895   4.436   6.392   6.135
 8999SOL    HW127896   4.448   6.444   6.220
 8999SOL    HW227897   4.510   6.326   6.127
 9000SOL     OW27898   1.790   3.856   1.672
 9000SOL    HW127899   1.781   3.757   1.685
 9000SOL    HW227900   1.877   3.887   1.710
 9001SOL     OW27901   1.047   5.386   2.365
 9001SOL    HW127902   0.983   5.463   2.367
 9001SOL    HW227903   1.140   5.422   2.358
 9002SOL     OW27904   1.052   4.313   6.958
 9002SOL    HW127905   1.032   4.218   6.981
 9002SOL    HW227906   1.147   4.333   6.981
 9003SOL     OW27907   5.298   0.878   1.463
 9003SOL    HW127908   5.367   0.947   1.439
 9003SOL    HW227909   5.310   0.798   1.405
 9004SOL     OW27910   4.269   4.796   0.675
 9004SOL    HW127911   4.287   4.762   0.583
 9004SOL    HW227912   4.346   4.853   0.705
 9005SOL     OW27913   5.356   1.363   5.459
 9005SOL    HW127914   5.274   1.318   5.424
 9005SOL    HW227915   5.390   1.428   5.390
 9006SOL     OW27916   3.471   6.077   0.885
 9006SOL    HW127917   3.437   6.049   0.975
 9006SOL    HW227918   3.568   6.097   0.891
 9007SOL     OW27919   2.767   1.156   3.044
 9007SOL    HW127920   2.863   1.136   3.023
 9007SOL    HW227921   2.733   1.088   3.109
 9008SOL     OW27922   6.925   5.571   2.829
 9008SOL    HW127923   6.857   5.635   2.867
 9008SOL    HW227924   7.005   5.622   2.799
 9009SOL     OW27925   4.272   5.838   0.826
 9009SOL    HW127926   4.298   5.754   0.777
 9009SOL    HW227927   4.253   5.816   0.922
 9010SOL     OW27928   1.664   6.633   4.309
 9010SOL    HW127929   1.663   6.732   4.299
 9010SOL    HW227930   1.686   6.591   4.220
 9011SOL     OW27931   3.300   1.364   2.072
 9011SOL    HW127932   3.357   1.283   2.083
 9011SOL    HW227933   3.355   1.446   2.089
 9012SOL     OW27934   1.862   5.830   6.414
 9012SOL    HW127935   1.945   5.824   6.359
 9012SOL    HW227936   1.818   5.918   6.399
 9013SOL     OW27937   1.378   6.729   4.187
 9013SOL    HW127938   1.316   6.796   4.229
 9013SOL    HW227939   1.465   6.728   4.236
 9014SOL     OW27940   5.766   2.745   2.991
 9014SOL    HW127941   5.735   2.836   3.018
 9014SOL    HW227942   5.730   2.724   2.900
 9015SOL     OW27943   5.252   1.854   0.216
 9015SOL    HW127944   5.224   1.893   0.304
 9015SOL    HW227945   5.351   1.847   0.213
 9016SOL     OW27946   5.519   5.481   6.389
 9016SOL    HW127947   5.614   5.453   6.406
 9016SOL    HW227948   5.499   5.563   6.441
 9017SOL     OW27949   3.190   1.045   4.655
 9017SOL    HW127950   3.227   1.123   4.604
 9017SOL    HW227951   3.165   0.972   4.593
 9018SOL     OW27952   4.482   3.905   6.395
 9018SOL    HW127953   4.434   3.854   6.324
 9018SOL    HW227954   4.466   4.003   6.383
 9019SOL     OW27955   0.556   3.360   3.830
 9019SOL    HW127956   0.539   3.279   3.775
 9019SOL    HW227957   0.497   3.358   3.911
 9020SOL     OW27958   6.052   6.240   2.006
 9020SOL    HW127959   6.115   6.231   2.083
 9020SOL    HW227960   6.104   6.257   1.922
 9021SOL     OW27961   0.209   0.704   3.987
 9021SOL    HW127962   0.300   0.686   3.950
 9021SOL    HW227963   0.141   0.657   3.931
 9022SOL     OW27964   4.839   2.854   6.344
 9022SOL    HW127965   4.775   2.792   6.389
 9022SOL    HW227966   4.813   2.948   6.363
 9023SOL     OW27967   5.117   3.787   1.147
 9023SOL    HW127968   5.040   3.829   1.196
 9023SOL    HW227969   5.172   3.859   1.105
 9024SOL     OW27970   1.990   4.969   6.488
 9024SOL    HW127971   2.081   5.010   6.476
 9024SOL    HW227972   1.984   4.927   6.578
 9025SOL     OW27973   0.946   5.318   0.918
 9025SOL    HW127974   0.852   5.342   0.894
 9025SOL    HW227975   0.959   5.219   0.908
 9026SOL     OW27976   4.228   1.615   0.495
 9026SOL    HW127977   4.195   1.617   0.401
 9026SOL    HW227978   4.182   1.686   0.548
 9027SOL     OW27979   0.105   3.754   3.367
 9027SOL    HW127980   0.106   3.753   3.267
 9027SOL    HW227981   0.016   3.721   3.400
 9028SOL     OW27982   3.508   4.268   5.580
 9028SOL    HW127983   3.488   4.190   5.640
 9028SOL    HW227984   3.430   4.283   5.519
 9029SOL     OW27985   4.458   6.985   5.249
 9029SOL    HW127986   4.359   6.992   5.240
 9029SOL    HW227987   4.486   6.890   5.231
 9030SOL     OW27988   2.306   1.908   3.137
 9030SOL    HW127989   2.368   1.876   3.066
 9030SOL    HW227990   2.260   1.830   3.179
 9031SOL     OW27991   4.232   0.395   4.712
 9031SOL    HW127992   4.157   0.371   4.773
 9031SOL    HW227993   4.292   0.461   4.757
 9032SOL     OW27994   4.794   3.936   1.979
 9032SOL    HW127995   4.822   3.989   2.059
 9032SOL    HW227996   4.733   3.992   1.922
 9033SOL     OW27997   1.321   5.852   3.142
 9033SOL    HW127998   1.366   5.854   3.052
 9033SOL    HW227999   1.272   5.937   3.157
 9034SOL     OW28000   4.037   6.461   4.433
 9034SOL    HW128001   3.988   6.542   4.466
 9034SOL    HW228002   4.085   6.418   4.509
 9035SOL     OW28003   0.935   5.200   0.055
 9035SOL    HW128004   1.034   5.214   0.061
 9035SOL    HW228005   0.896   5.264   7.011
 9036SOL     OW28006   1.489   3.520   6.017
 9036SOL    HW128007   1.424   3.532   6.092
 9036SOL    HW228008   1.582   3.533   6.050
 9037SOL     OW28009   0.705   1.831   2.730
 9037SOL    HW128010   0.654   1.829   2.644
 9037SOL    HW228011   0.739   1.924   2.746
 9038SOL     OW28012   4.251   3.063   5.634
 9038SOL    HW128013   4.218   3.061   5.540
 9038SOL    HW228014   4.256   3.158   5.665
 9039SOL     OW28015   3.951   5.483   0.361
 9039SOL    HW128016   3.965   5.525   0.451
 9039SOL    HW228017   4.034   5.491   0.307
 9040SOL     OW28018   2.067   1.785   1.324
 9040SOL    HW128019   2.112   1.752   1.406
 9040SOL    HW228020   2.089   1.882   1.310
 9041SOL     OW28021   0.151   1.786   1.160
 9041SOL    HW128022   0.085   1.856   1.187
 9041SOL    HW228023   0.244   1.822   1.170
 9042SOL     OW28024   3.925   5.958   6.732
 9042SOL    HW128025   3.991   5.883   6.726
 9042SOL    HW228026   3.880   5.971   6.644
 9043SOL     OW28027   3.210   1.604   6.931
 9043SOL    HW128028   3.132   1.607   6.994
 9043SOL    HW228029   3.176   1.608   6.837
 9044SOL     OW28030   0.816   0.584   6.665
 9044SOL    HW128031   0.790   0.579   6.568
 9044SOL    HW228032   0.750   0.533   6.720
 9045SOL     OW28033   3.791   1.024   3.243
 9045SOL    HW128034   3.744   0.962   3.307
 9045SOL    HW228035   3.876   1.055   3.284
 9046SOL     OW28036   3.298   3.929   3.025
 9046SOL    HW128037   3.284   3.854   3.089
 9046SOL    HW228038   3.209   3.962   2.992
 9047SOL     OW28039   0.900   3.921   6.202
 9047SOL    HW128040   0.894   3.948   6.106
 9047SOL    HW228041   0.811   3.933   6.246
 9048SOL     OW28042   6.168   1.768   6.092
 9048SOL    HW128043   6.223   1.691   6.125
 9048SOL    HW228044   6.140   1.751   5.998
 9049SOL     OW28045   3.215   6.314   6.737
 9049SOL    HW128046   3.127   6.299   6.783
 9049SOL    HW228047   3.276   6.365   6.798
 9050SOL     OW28048   0.212   4.784   0.425
 9050SOL    HW128049   0.125   4.823   0.393
 9050SOL    HW228050   0.197   4.689   0.453
 9051SOL     OW28051   2.349   1.641   1.118
 9051SOL    HW128052   2.273   1.578   1.105
 9051SOL    HW228053   2.379   1.637   1.214
 9052SOL     OW28054   1.389   2.966   5.189
 9052SOL    HW128055   1.385   2.917   5.276
 9052SOL    HW228056   1.398   3.064   5.207
 9053SOL     OW28057   2.064   1.209   0.570
 9053SOL    HW128058   1.978   1.166   0.542
 9053SOL    HW228059   2.134   1.192   0.500
 9054SOL     OW28060   2.449   5.627   3.446
 9054SOL    HW128061   2.404   5.570   3.514
 9054SOL    HW228062   2.383   5.692   3.407
 9055SOL     OW28063   0.030   3.930   4.552
 9055SOL    HW128064   7.011   3.989   4.623
 9055SOL    HW228065   0.046   3.839   4.589
 9056SOL     OW28066   6.250   2.442   2.571
 9056SOL    HW128067   6.151   2.435   2.577
 9056SOL    HW228068   6.291   2.351   2.580
 9057SOL     OW28069   4.420   2.333   4.010
 9057SOL    HW128070   4.448   2.355   4.104
 9057SOL    HW228071   4.490   2.275   3.968
 9058SOL     OW28072   1.838   1.104   5.886
 9058SOL    HW128073   1.785   1.167   5.830
 9058SOL    HW228074   1.896   1.047   5.827
 9059SOL     OW28075   1.294   2.114   3.091
 9059SOL    HW128076   1.360   2.074   3.028
 9059SOL    HW228077   1.252   2.041   3.146
 9060SOL     OW28078   5.143   2.524   5.112
 9060SOL    HW128079   5.185   2.614   5.105
 9060SOL    HW228080   5.172   2.480   5.198
 9061SOL     OW28081   3.953   5.771   2.536
 9061SOL    HW128082   3.908   5.826   2.465
 9061SOL    HW228083   3.889   5.704   2.572
 9062SOL     OW28084   1.805   5.610   1.059
 9062SOL    HW128085   1.783   5.702   1.092
 9062SOL    HW228086   1.894   5.612   1.012
 9063SOL     OW28087   3.188   1.459   1.809
 9063SOL    HW128088   3.161   1.553   1.829
 9063SOL    HW228089   3.244   1.424   1.884
 9064SOL     OW28090   5.501   3.304   0.320
 9064SOL    HW128091   5.515   3.205   0.310
 9064SOL    HW228092   5.521   3.350   0.234
 9065SOL     OW28093   2.518   0.855   0.284
 9065SOL    HW128094   2.579   0.866   0.205
 9065SOL    HW228095   2.478   0.763   0.283
 9066SOL     OW28096   4.838   6.731   0.518
 9066SOL    HW128097   4.919   6.697   0.566
 9066SOL    HW228098   4.785   6.789   0.579
 9067SOL     OW28099   1.852   6.201   2.912
 9067SOL    HW128100   1.808   6.175   2.998
 9067SOL    HW228101   1.791   6.259   2.859
 9068SOL     OW28102   2.008   6.236   6.840
 9068SOL    HW128103   1.985   6.176   6.917
 9068SOL    HW228104   1.953   6.320   6.845
 9069SOL     OW28105   1.412   2.442   6.704
 9069SOL    HW128106   1.396   2.343   6.709
 9069SOL    HW228107   1.370   2.478   6.620
 9070SOL     OW28108   1.125   4.266   3.385
 9070SOL    HW128109   1.048   4.273   3.448
 9070SOL    HW228110   1.194   4.205   3.423
 9071SOL     OW28111   5.091   6.758   6.890
 9071SOL    HW128112   5.148   6.767   6.809
 9071SOL    HW228113   5.065   6.849   6.923
 9072SOL     OW28114   5.281   5.280   6.733
 9072SOL    HW128115   5.376   5.269   6.763
 9072SOL    HW228116   5.263   5.219   6.656
 9073SOL     OW28117   1.962   0.585   1.735
 9073SOL    HW128118   1.863   0.589   1.719
 9073SOL    HW228119   2.000   0.677   1.727
 9074SOL     OW28120   1.192   6.431   2.921
 9074SOL    HW128121   1.165   6.404   3.013
 9074SOL    HW228122   1.184   6.531   2.912
 9075SOL     OW28123   0.380   1.072   2.660
 9075SOL    HW128124   0.462   1.088   2.715
 9075SOL    HW228125   0.322   1.004   2.705
 9076SOL     OW28126   6.515   1.394   5.151
 9076SOL    HW128127   6.438   1.398   5.087
 9076SOL    HW228128   6.546   1.300   5.159
 9077SOL     OW28129   5.894   6.517   1.781
 9077SOL    HW128130   5.962   6.523   1.708
 9077SOL    HW228131   5.871   6.421   1.798
 9078SOL     OW28132   3.386   2.965   4.504
 9078SOL    HW128133   3.485   2.979   4.507
 9078SOL    HW228134   3.350   2.963   4.597
 9079SOL     OW28135   3.719   0.626   6.270
 9079SOL    HW128136   3.736   0.623   6.369
 9079SOL    HW228137   3.799   0.591   6.221
 9080SOL     OW28138   5.024   1.745   0.522
 9080SOL    HW128139   4.937   1.698   0.505
 9080SOL    HW228140   5.008   1.843   0.526
 9081SOL     OW28141   5.471   0.113   2.179
 9081SOL    HW128142   5.448   0.162   2.095
 9081SOL    HW228143   5.538   0.165   2.231
 9082SOL     OW28144   2.905   1.489   3.689
 9082SOL    HW128145   2.982   1.462   3.632
 9082SOL    HW228146   2.822   1.492   3.632
 9083SOL     OW28147   4.053   4.902   4.451
 9083SOL    HW128148   4.114   4.826   4.469
 9083SOL    HW228149   4.066   4.973   4.521
 9084SOL     OW28150   3.673   3.757   2.901
 9084SOL    HW128151   3.718   3.681   2.853
 9084SOL    HW228152   3.742   3.826   2.926
 9085SOL     OW28153   0.978   1.817   0.554
 9085SOL    HW128154   0.907   1.748   0.542
 9085SOL    HW228155   1.063   1.773   0.580
 9086SOL     OW28156   0.275   3.750   0.547
 9086SOL    HW128157   0.356   3.797   0.582
 9086SOL    HW228158   0.304   3.672   0.492
 9087SOL     OW28159   4.557   3.757   1.655
 9087SOL    HW128160   4.573   3.659   1.667
 9087SOL    HW228161   4.637   3.808   1.686
 9088SOL     OW28162   5.331   6.732   0.792
 9088SOL    HW128163   5.247   6.734   0.737
 9088SOL    HW228164   5.392   6.661   0.757
 9089SOL     OW28165   4.319   0.208   5.964
 9089SOL    HW128166   4.297   0.192   6.061
 9089SOL    HW228167   4.303   0.124   5.913
 9090SOL     OW28168   6.452   1.310   3.812
 9090SOL    HW128169   6.552   1.309   3.815
 9090SOL    HW228170   6.422   1.354   3.728
 9091SOL     OW28171   2.885   2.893   6.831
 9091SOL    HW128172   2.833   2.862   6.911
 9091SOL    HW228173   2.827   2.952   6.775
 9092SOL     OW28174   0.048   2.662   6.536
 9092SOL    HW128175   0.080   2.748   6.576
 9092SOL    HW228176   0.090   2.586   6.584
 9093SOL     OW28177   1.834   6.005   5.704
 9093SOL    HW128178   1.932   5.999   5.686
 9093SOL    HW228179   1.785   6.011   5.617
 9094SOL     OW28180   0.749   3.872   2.007
 9094SOL    HW128181   0.759   3.801   1.938
 9094SOL    HW228182   0.793   3.842   2.092
 9095SOL     OW28183   6.429   6.438   4.976
 9095SOL    HW128184   6.373   6.366   5.018
 9095SOL    HW228185   6.492   6.475   5.044
 9096SOL     OW28186   6.717   5.653   2.997
 9096SOL    HW128187   6.622   5.641   3.026
 9096SOL    HW228188   6.772   5.684   3.074
 9097SOL     OW28189   1.378   2.062   6.452
 9097SOL    HW128190   1.381   2.113   6.366
 9097SOL    HW228191   1.464   2.013   6.465
 9098SOL     OW28192   1.800   3.743   4.129
 9098SOL    HW128193   1.818   3.655   4.085
 9098SOL    HW228194   1.874   3.762   4.194
 9099SOL     OW28195   2.553   2.237   6.817
 9099SOL    HW128196   2.645   2.201   6.800
 9099SOL    HW228197   2.542   2.255   6.915
 9100SOL     OW28198   1.114   4.742   3.331
 9100SOL    HW128199   1.126   4.707   3.424
 9100SOL    HW228200   1.194   4.716   3.275
 9101SOL     OW28201   0.729   2.378   0.861
 9101SOL    HW128202   0.796   2.450   0.844
 9101SOL    HW228203   0.681   2.355   0.776
 9102SOL     OW28204   4.165   6.814   2.893
 9102SOL    HW128205   4.144   6.767   2.808
 9102SOL    HW228206   4.171   6.912   2.876
 9103SOL     OW28207   6.352   0.612   0.644
 9103SOL    HW128208   6.442   0.640   0.677
 9103SOL    HW228209   6.327   0.667   0.564
 9104SOL     OW28210   5.713   2.334   6.126
 9104SOL    HW128211   5.783   2.391   6.169
 9104SOL    HW228212   5.707   2.357   6.028
 9105SOL     OW28213   1.800   1.108   5.526
 9105SOL    HW128214   1.768   1.135   5.435
 9105SOL    HW228215   1.727   1.056   5.572
 9106SOL     OW28216   1.256   4.030   0.082
 9106SOL    HW128217   1.321   4.100   0.113
 9106SOL    HW228218   1.196   4.005   0.158
 9107SOL     OW28219   2.830   1.624   0.471
 9107SOL    HW128220   2.799   1.592   0.560
 9107SOL    HW228221   2.879   1.710   0.481
 9108SOL     OW28222   5.844   5.506   6.078
 9108SOL    HW128223   5.854   5.570   6.154
 9108SOL    HW228224   5.771   5.538   6.018
 9109SOL     OW28225   5.309   3.632   2.355
 9109SOL    HW128226   5.340   3.543   2.322
 9109SOL    HW228227   5.244   3.619   2.430
 9110SOL     OW28228   2.235   6.335   3.888
 9110SOL    HW128229   2.259   6.432   3.886
 9110SOL    HW228230   2.136   6.325   3.900
 9111SOL     OW28231   4.230   2.371   6.316
 9111SOL    HW128232   4.223   2.468   6.341
 9111SOL    HW228233   4.322   2.351   6.282
 9112SOL     OW28234   1.140   5.194   1.493
 9112SOL    HW128235   1.229   5.176   1.451
 9112SOL    HW228236   1.152   5.249   1.576
 9113SOL     OW28237   5.936   0.889   4.023
 9113SOL    HW128238   5.962   0.851   4.112
 9113SOL    HW228239   5.838   0.909   4.023
 9114SOL     OW28240   1.374   6.111   5.547
 9114SOL    HW128241   1.394   6.014   5.539
 9114SOL    HW228242   1.301   6.135   5.483
 9115SOL     OW28243   4.856   4.438   4.410
 9115SOL    HW128244   4.869   4.340   4.426
 9115SOL    HW228245   4.758   4.460   4.413
 9116SOL     OW28246   1.300   0.450   2.891
 9116SOL    HW128247   1.231   0.415   2.954
 9116SOL    HW228248   1.391   0.438   2.931
 9117SOL     OW28249   2.486   6.067   0.369
 9117SOL    HW128250   2.391   6.042   0.355
 9117SOL    HW228251   2.495   6.167   0.364
 9118SOL     OW28252   6.389   4.351   2.203
 9118SOL    HW128253   6.299   4.365   2.246
 9118SOL    HW228254   6.452   4.422   2.234
 9119SOL     OW28255   3.193   0.378   0.170
 9119SOL    HW128256   3.140   0.318   0.230
 9119SOL    HW228257   3.290   0.371   0.192
 9120SOL     OW28258   6.324   3.922   4.655
 9120SOL    HW128259   6.291   4.002   4.604
 9120SOL    HW228260   6.410   3.945   4.699
 9121SOL     OW28261   3.189   0.830   4.853
 9121SOL    HW128262   3.188   0.913   4.797
 9121SOL    HW228263   3.278   0.823   4.898
 9122SOL     OW28264   1.187   3.636   1.893
 9122SOL    HW128265   1.202   3.623   1.795
 9122SOL    HW228266   1.163   3.549   1.936
 9123SOL     OW28267   6.781   6.229   4.199
 9123SOL    HW128268   6.719   6.219   4.277
 9123SOL    HW228269   6.771   6.151   4.138
 9124SOL     OW28270   2.906   5.227   0.768
 9124SOL    HW128271   2.855   5.157   0.718
 9124SOL    HW228272   2.846   5.305   0.785
 9125SOL     OW28273   5.192   6.532   1.594
 9125SOL    HW128274   5.132   6.460   1.558
 9125SOL    HW228275   5.284   6.494   1.607
 9126SOL     OW28276   4.369   4.253   1.118
 9126SOL    HW128277   4.313   4.179   1.156
 9126SOL    HW228278   4.374   4.328   1.183
 9127SOL     OW28279   6.707   5.200   4.937
 9127SOL    HW128280   6.760   5.199   4.853
 9127SOL    HW228281   6.628   5.139   4.928
 9128SOL     OW28282   5.373   4.159   5.866
 9128SOL    HW128283   5.450   4.094   5.865
 9128SOL    HW228284   5.407   4.250   5.890
 9129SOL     OW28285   0.893   2.854   0.871
 9129SOL    HW128286   0.902   2.780   0.938
 9129SOL    HW228287   0.848   2.819   0.789
 9130SOL     OW28288   2.898   3.438   5.078
 9130SOL    HW128289   2.840   3.480   5.149
 9130SOL    HW228290   2.850   3.359   5.039
 9131SOL     OW28291   4.499   2.350   0.436
 9131SOL    HW128292   4.539   2.440   0.456
 9131SOL    HW228293   4.556   2.279   0.476
 9132SOL     OW28294   0.591   3.781   3.854
 9132SOL    HW128295   0.624   3.777   3.760
 9132SOL    HW228296   0.504   3.732   3.862
 9133SOL     OW28297   5.683   0.639   1.016
 9133SOL    HW128298   5.620   0.585   1.072
 9133SOL    HW228299   5.705   0.589   0.933
 9134SOL     OW28300   4.636   5.119   0.942
 9134SOL    HW128301   4.632   5.186   1.016
 9134SOL    HW228302   4.724   5.126   0.896
 9135SOL     OW28303   6.247   6.727   2.520
 9135SOL    HW128304   6.345   6.721   2.536
 9135SOL    HW228305   6.227   6.716   2.423
 9136SOL     OW28306   6.438   4.264   6.960
 9136SOL    HW128307   6.401   4.184   6.914
 9136SOL    HW228308   6.466   4.332   6.892
 9137SOL     OW28309   5.446   6.263   5.521
 9137SOL    HW128310   5.464   6.276   5.423
 9137SOL    HW228311   5.509   6.319   5.574
 9138SOL     OW28312   2.514   3.504   0.207
 9138SOL    HW128313   2.606   3.510   0.168
 9138SOL    HW228314   2.463   3.587   0.185
 9139SOL     OW28315   6.518   0.118   0.625
 9139SOL    HW128316   6.504   0.207   0.668
 9139SOL    HW228317   6.596   0.072   0.667
 9140SOL     OW28318   1.948   3.475   3.522
 9140SOL    HW128319   1.851   3.491   3.500
 9140SOL    HW228320   2.005   3.535   3.466
 9141SOL     OW28321   6.879   5.174   5.169
 9141SOL    HW128322   6.945   5.102   5.149
 9141SOL    HW228323   6.815   5.183   5.092
 9142SOL     OW28324   1.024   4.788   4.592
 9142SOL    HW128325   0.988   4.827   4.677
 9142SOL    HW228326   1.104   4.731   4.613
 9143SOL     OW28327   6.814   4.271   2.331
 9143SOL    HW128328   6.788   4.355   2.284
 9143SOL    HW228329   6.785   4.275   2.427
 9144SOL     OW28330   2.947   4.293   5.619
 9144SOL    HW128331   2.897   4.210   5.593
 9144SOL    HW228332   2.996   4.329   5.540
 9145SOL     OW28333   1.553   5.918   5.707
 9145SOL    HW128334   1.502   5.941   5.790
 9145SOL    HW228335   1.638   5.971   5.705
 9146SOL     OW28336   5.787   3.129   3.169
 9146SOL    HW128337   5.886   3.117   3.177
 9146SOL    HW228338   5.758   3.103   3.077
 9147SOL     OW28339   4.178   0.524   5.104
 9147SOL    HW128340   4.200   0.550   5.198
 9147SOL    HW228341   4.262   0.514   5.051
 9148SOL     OW28342   6.047   5.954   1.714
 9148SOL    HW128343   6.117   5.884   1.726
 9148SOL    HW228344   6.013   5.951   1.620
 9149SOL     OW28345   0.363   3.892   1.156
 9149SOL    HW128346   0.422   3.926   1.229
 9149SOL    HW228347   0.268   3.898   1.185
 9150SOL     OW28348   2.613   3.181   0.012
 9150SOL    HW128349   2.585   3.104   6.975
 9150SOL    HW228350   2.558   3.262   7.009
 9151SOL     OW28351   1.725   2.802   4.148
 9151SOL    HW128352   1.678   2.796   4.236
 9151SOL    HW228353   1.811   2.853   4.161
 9152SOL     OW28354   1.754   4.222   2.970
 9152SOL    HW128355   1.776   4.320   2.964
 9152SOL    HW228356   1.672   4.203   2.915
 9153SOL     OW28357   0.962   3.094   6.477
 9153SOL    HW128358   0.937   3.020   6.415
 9153SOL    HW228359   1.062   3.103   6.478
 9154SOL     OW28360   5.809   4.957   2.993
 9154SOL    HW128361   5.774   4.914   2.910
 9154SOL    HW228362   5.735   4.967   3.059
 9155SOL     OW28363   1.323   5.917   2.640
 9155SOL    HW128364   1.358   5.890   2.729
 9155SOL    HW228365   1.263   5.996   2.651
 9156SOL     OW28366   6.860   4.108   6.274
 9156SOL    HW128367   6.781   4.050   6.257
 9156SOL    HW228368   6.861   4.184   6.210
 9157SOL     OW28369   1.565   4.282   5.871
 9157SOL    HW128370   1.636   4.302   5.805
 9157SOL    HW228371   1.542   4.365   5.921
 9158SOL     OW28372   6.659   3.795   4.579
 9158SOL    HW128373   6.722   3.784   4.656
 9158SOL    HW228374   6.601   3.875   4.595
 9159SOL     OW28375   2.087   1.453   3.855
 9159SOL    HW128376   2.152   1.515   3.812
 9159SOL    HW228377   2.136   1.374   3.892
 9160SOL     OW28378   1.422   3.827   0.688
 9160SOL    HW128379   1.323   3.833   0.687
 9160SOL    HW228380   1.455   3.798   0.598
 9161SOL     OW28381   6.138   3.884   2.350
 9161SOL    HW128382   6.063   3.923   2.297
 9161SOL    HW228383   6.199   3.833   2.289
 9162SOL     OW28384   4.073   2.245   1.831
 9162SOL    HW128385   4.138   2.170   1.843
 9162SOL    HW228386   3.980   2.212   1.851
 9163SOL     OW28387   2.431   2.234   3.476
 9163SOL    HW128388   2.499   2.269   3.412
 9163SOL    HW228389   2.459   2.254   3.570
 9164SOL     OW28390   2.529   6.472   6.516
 9164SOL    HW128391   2.492   6.408   6.449
 9164SOL    HW228392   2.513   6.437   6.608
 9165SOL     OW28393   5.796   1.904   6.013
 9165SOL    HW128394   5.885   1.925   5.973
 9165SOL    HW228395   5.723   1.938   5.954
 9166SOL     OW28396   5.210   6.269   1.818
 9166SOL    HW128397   5.283   6.302   1.757
 9166SOL    HW228398   5.124   6.313   1.793
 9167SOL     OW28399   1.658   1.212   4.531
 9167SOL    HW128400   1.675   1.311   4.523
 9167SOL    HW228401   1.723   1.162   4.473
 9168SOL     OW28402   6.449   5.930   5.277
 9168SOL    HW128403   6.435   5.836   5.309
 9168SOL    HW228404   6.381   5.990   5.318
 9169SOL     OW28405   6.844   5.945   1.344
 9169SOL    HW128406   6.898   6.026   1.317
 9169SOL    HW228407   6.905   5.867   1.353
 9170SOL     OW28408   1.319   1.001   5.624
 9170SOL    HW128409   1.373   1.028   5.545
 9170SOL    HW228410   1.238   1.059   5.631
 9171SOL     OW28411   3.671   5.582   6.648
 9171SOL    HW128412   3.747   5.568   6.712
 9171SOL    HW228413   3.584   5.570   6.696
 9172SOL     OW28414   5.050   1.837   5.411
 9172SOL    HW128415   5.059   1.798   5.320
 9172SOL    HW228416   5.101   1.782   5.477
 9173SOL     OW28417   5.758   3.803   5.175
 9173SOL    HW128418   5.804   3.824   5.088
 9173SOL    HW228419   5.826   3.775   5.243
 9174SOL     OW28420   6.999   5.068   1.399
 9174SOL    HW128421   0.078   5.070   1.389
 9174SOL    HW228422   6.976   5.052   1.495
 9175SOL     OW28423   2.418   6.750   1.071
 9175SOL    HW128424   2.427   6.671   1.133
 9175SOL    HW228425   2.344   6.809   1.104
 9176SOL     OW28426   1.239   1.304   2.055
 9176SOL    HW128427   1.167   1.247   2.095
 9176SOL    HW228428   1.287   1.251   1.985
 9177SOL     OW28429   0.433   6.349   3.802
 9177SOL    HW128430   0.444   6.436   3.755
 9177SOL    HW228431   0.394   6.364   3.893
 9178SOL     OW28432   1.376   4.573   1.245
 9178SOL    HW128433   1.354   4.511   1.321
 9178SOL    HW228434   1.370   4.668   1.277
 9179SOL     OW28435   3.379   5.524   4.133
 9179SOL    HW128436   3.477   5.543   4.146
 9179SOL    HW228437   3.334   5.606   4.098
 9180SOL     OW28438   0.319   1.259   5.804
 9180SOL    HW128439   0.330   1.161   5.789
 9180SOL    HW228440   0.251   1.275   5.875
 9181SOL     OW28441   2.650   2.463   3.749
 9181SOL    HW128442   2.595   2.399   3.803
 9181SOL    HW228443   2.595   2.542   3.725
 9182SOL     OW28444   0.594   1.907   2.226
 9182SOL    HW128445   0.541   1.987   2.255
 9182SOL    HW228446   0.575   1.888   2.130
 9183SOL     OW28447   1.801   1.870   6.190
 9183SOL    HW128448   1.723   1.814   6.216
 9183SOL    HW228449   1.877   1.810   6.162
 9184SOL     OW28450   3.651   3.102   0.675
 9184SOL    HW128451   3.723   3.166   0.646
 9184SOL    HW228452   3.588   3.150   0.737
 9185SOL     OW28453   1.535   0.527   6.462
 9185SOL    HW128454   1.491   0.616   6.478
 9185SOL    HW228455   1.611   0.539   6.397
 9186SOL     OW28456   4.992   0.368   6.361
 9186SOL    HW128457   5.028   0.456   6.332
 9186SOL    HW228458   5.043   0.294   6.317
 9187SOL     OW28459   5.443   2.233   1.020
 9187SOL    HW128460   5.401   2.158   1.071
 9187SOL    HW228461   5.448   2.314   1.078
 9188SOL     OW28462   1.899   0.231   1.608
 9188SOL    HW128463   1.859   0.259   1.520
 9188SOL    HW228464   1.968   0.297   1.635
 9189SOL     OW28465   3.928   1.065   5.722
 9189SOL    HW128466   3.965   1.009   5.648
 9189SOL    HW228467   3.828   1.066   5.716
 9190SOL     OW28468   4.750   1.192   5.227
 9190SOL    HW128469   4.769   1.105   5.273
 9190SOL    HW228470   4.651   1.204   5.220
 9191SOL     OW28471   5.485   0.028   1.780
 9191SOL    HW128472   5.544   0.051   1.703
 9191SOL    HW228473   5.470   0.110   1.836
 9192SOL     OW28474   4.917   3.528   4.170
 9192SOL    HW128475   4.942   3.571   4.257
 9192SOL    HW228476   4.897   3.431   4.185
 9193SOL     OW28477   3.977   3.124   3.385
 9193SOL    HW128478   3.934   3.127   3.295
 9193SOL    HW228479   3.947   3.042   3.434
 9194SOL     OW28480   4.062   5.278   2.456
 9194SOL    HW128481   3.979   5.279   2.512
 9194SOL    HW228482   4.135   5.326   2.505
 9195SOL     OW28483   0.802   2.602   2.954
 9195SOL    HW128484   0.877   2.643   2.902
 9195SOL    HW228485   0.783   2.511   2.917
 9196SOL     OW28486   5.173   6.768   4.026
 9196SOL    HW128487   5.156   6.851   3.973
 9196SOL    HW228488   5.113   6.768   4.107
 9197SOL     OW28489   4.316   1.478   6.051
 9197SOL    HW128490   4.365   1.507   5.969
 9197SOL    HW228491   4.376   1.485   6.130
 9198SOL     OW28492   6.138   2.289   5.277
 9198SOL    HW128493   6.236   2.272   5.265
 9198SOL    HW228494   6.091   2.203   5.297
 9199SOL     OW28495   1.663   2.856   6.118
 9199SOL    HW128496   1.754   2.833   6.084
 9199SOL    HW228497   1.618   2.920   6.054
 9200SOL     OW28498   5.547   6.074   0.621
 9200SOL    HW128499   5.473   6.041   0.679
 9200SOL    HW228500   5.576   6.165   0.651
 9201SOL     OW28501   0.904   4.454   2.416
 9201SOL    HW128502   0.841   4.499   2.352
 9201SOL    HW228503   0.942   4.373   2.372
 9202SOL     OW28504   2.501   5.918   4.032
 9202SOL    HW128505   2.543   5.889   3.947
 9202SOL    HW228506   2.409   5.954   4.013
 9203SOL     OW28507   5.137   0.732   0.235
 9203SOL    HW128508   5.045   0.721   0.272
 9203SOL    HW228509   5.159   0.654   0.176
 9204SOL     OW28510   5.298   4.516   2.701
 9204SOL    HW128511   5.209   4.510   2.655
 9204SOL    HW228512   5.293   4.468   2.789
 9205SOL     OW28513   4.743   2.745   1.843
 9205SOL    HW128514   4.728   2.691   1.926
 9205SOL    HW228515   4.754   2.841   1.868
 9206SOL     OW28516   6.817   5.960   3.703
 9206SOL    HW128517   6.759   5.976   3.623
 9206SOL    HW228518   6.790   5.875   3.747
 9207SOL     OW28519   4.169   6.122   6.356
 9207SOL    HW128520   4.118   6.057   6.413
 9207SOL    HW228521   4.125   6.211   6.359
 9208SOL     OW28522   4.650   4.025   1.732
 9208SOL    HW128523   4.572   4.087   1.732
 9208SOL    HW228524   4.717   4.055   1.664
 9209SOL     OW28525   3.579   0.404   3.127
 9209SOL    HW128526   3.569   0.479   3.062
 9209SOL    HW228527   3.668   0.360   3.113
 9210SOL     OW28528   1.525   6.642   0.384
 9210SOL    HW128529   1.505   6.693   0.467
 9210SOL    HW228530   1.569   6.702   0.317
 9211SOL     OW28531   4.936   1.170   6.188
 9211SOL    HW128532   4.967   1.214   6.272
 9211SOL    HW228533   4.840   1.143   6.198
 9212SOL     OW28534   5.437   4.264   5.245
 9212SOL    HW128535   5.371   4.212   5.191
 9212SOL    HW228536   5.529   4.242   5.214
 9213SOL     OW28537   6.700   6.718   2.011
 9213SOL    HW128538   6.622   6.757   1.961
 9213SOL    HW228539   6.683   6.725   2.109
 9214SOL     OW28540   1.949   2.393   5.679
 9214SOL    HW128541   2.029   2.364   5.732
 9214SOL    HW228542   1.879   2.428   5.740
 9215SOL     OW28543   0.501   3.298   3.538
 9215SOL    HW128544   0.515   3.384   3.489
 9215SOL    HW228545   0.403   3.281   3.547
 9216SOL     OW28546   2.414   6.103   3.688
 9216SOL    HW128547   2.448   6.010   3.699
 9216SOL    HW228548   2.417   6.129   3.591
 9217SOL     OW28549   3.980   1.589   6.610
 9217SOL    HW128550   3.915   1.648   6.657
 9217SOL    HW228551   4.059   1.644   6.581
 9218SOL     OW28552   5.510   5.651   6.671
 9218SOL    HW128553   5.416   5.635   6.641
 9218SOL    HW228554   5.538   5.743   6.643
 9219SOL     OW28555   2.824   2.285   5.235
 9219SOL    HW128556   2.886   2.359   5.260
 9219SOL    HW228557   2.870   2.223   5.172
 9220SOL     OW28558   0.112   6.527   3.298
 9220SOL    HW128559   0.198   6.491   3.262
 9220SOL    HW228560   0.067   6.456   3.353
 9221SOL     OW28561   2.636   1.277   1.152
 9221SOL    HW128562   2.695   1.263   1.232
 9221SOL    HW228563   2.675   1.348   1.094
 9222SOL     OW28564   1.570   4.003   4.555
 9222SOL    HW128565   1.570   3.940   4.478
 9222SOL    HW228566   1.664   4.026   4.579
 9223SOL     OW28567   6.791   3.418   4.810
 9223SOL    HW128568   6.798   3.392   4.713
 9223SOL    HW228569   6.701   3.458   4.827
 9224SOL     OW28570   2.341   5.167   3.068
 9224SOL    HW128571   2.372   5.079   3.105
 9224SOL    HW228572   2.349   5.165   2.969
 9225SOL     OW28573   5.854   6.166   5.873
 9225SOL    HW128574   5.831   6.264   5.867
 9225SOL    HW228575   5.896   6.148   5.962
 9226SOL     OW28576   1.067   0.632   6.799
 9226SOL    HW128577   0.975   0.638   6.762
 9226SOL    HW228578   1.134   0.643   6.725
 9227SOL     OW28579   2.984   4.004   0.296
 9227SOL    HW128580   3.040   4.085   0.312
 9227SOL    HW228581   2.906   4.028   0.237
 9228SOL     OW28582   3.769   2.889   4.953
 9228SOL    HW128583   3.828   2.810   4.938
 9228SOL    HW228584   3.825   2.967   4.980
 9229SOL     OW28585   6.786   5.206   0.584
 9229SOL    HW128586   6.733   5.197   0.500
 9229SOL    HW228587   6.856   5.277   0.572
 9230SOL     OW28588   4.427   1.157   4.857
 9230SOL    HW128589   4.505   1.218   4.845
 9230SOL    HW228590   4.378   1.148   4.770
 9231SOL     OW28591   6.252   5.785   1.810
 9231SOL    HW128592   6.297   5.727   1.743
 9231SOL    HW228593   6.321   5.824   1.872
 9232SOL     OW28594   1.098   5.231   2.125
 9232SOL    HW128595   1.020   5.283   2.090
 9232SOL    HW228596   1.121   5.263   2.217
 9233SOL     OW28597   1.217   6.255   5.733
 9233SOL    HW128598   1.260   6.337   5.770
 9233SOL    HW228599   1.272   6.220   5.657
 9234SOL     OW28600   2.649   3.487   6.204
 9234SOL    HW128601   2.642   3.390   6.224
 9234SOL    HW228602   2.745   3.511   6.187
 9235SOL     OW28603   1.916   2.247   3.103
 9235SOL    HW128604   1.929   2.301   3.020
 9235SOL    HW228605   2.005   2.217   3.139
 9236SOL     OW28606   1.753   3.260   6.225
 9236SOL    HW128607   1.671   3.220   6.265
 9236SOL    HW228608   1.746   3.360   6.225
 9237SOL     OW28609   6.304   5.801   2.815
 9237SOL    HW128610   6.378   5.736   2.805
 9237SOL    HW228611   6.339   5.887   2.852
 9238SOL     OW28612   1.949   2.730   4.570
 9238SOL    HW128613   1.961   2.780   4.484
 9238SOL    HW228614   1.855   2.698   4.577
 9239SOL     OW28615   0.899   4.844   6.588
 9239SOL    HW128616   0.989   4.864   6.550
 9239SOL    HW228617   0.852   4.777   6.530
 9240SOL     OW28618   4.228   2.033   3.490
 9240SOL    HW128619   4.248   2.104   3.421
 9240SOL    HW228620   4.185   1.955   3.445
 9241SOL     OW28621   5.357   0.167   0.392
 9241SOL    HW128622   5.279   0.105   0.387
 9241SOL    HW228623   5.351   0.234   0.317
 9242SOL     OW28624   1.705   2.462   1.172
 9242SOL    HW128625   1.641   2.537   1.186
 9242SOL    HW228626   1.733   2.459   1.076
 9243SOL     OW28627   1.880   0.326   0.025
 9243SOL    HW128628   1.863   0.338   0.123
 9243SOL    HW228629   1.794   0.340   6.996
 9244SOL     OW28630   3.305   6.173   6.043
 9244SOL    HW128631   3.375   6.115   6.002
 9244SOL    HW228632   3.334   6.200   6.135
 9245SOL     OW28633   1.614   5.392   2.601
 9245SOL    HW128634   1.624   5.293   2.612
 9245SOL    HW228635   1.681   5.425   2.534
 9246SOL     OW28636   4.779   6.488   6.726
 9246SOL    HW128637   4.733   6.565   6.681
 9246SOL    HW228638   4.786   6.506   6.824
 9247SOL     OW28639   4.055   6.136   2.644
 9247SOL    HW128640   4.057   6.149   2.545
 9247SOL    HW228641   4.101   6.050   2.667
 9248SOL     OW28642   2.311   0.663   6.467
 9248SOL    HW128643   2.346   0.702   6.553
 9248SOL    HW228644   2.323   0.564   6.469
 9249SOL     OW28645   2.546   6.646   0.388
 9249SOL    HW128646   2.630   6.646   0.442
 9249SOL    HW228647   2.538   6.732   0.337
 9250SOL     OW28648   0.200   2.781   3.762
 9250SOL    HW128649   0.186   2.693   3.718
 9250SOL    HW228650   0.298   2.802   3.767
 9251SOL     OW28651   3.540   1.701   0.992
 9251SOL    HW128652   3.580   1.792   0.981
 9251SOL    HW228653   3.441   1.706   0.978
 9252SOL     OW28654   5.747   1.364   4.772
 9252SOL    HW128655   5.717   1.436   4.834
 9252SOL    HW228656   5.804   1.298   4.821
 9253SOL     OW28657   1.650   5.555   4.972
 9253SOL    HW128658   1.597   5.490   5.026
 9253SOL    HW228659   1.650   5.644   5.017
 9254SOL     OW28660   6.753   5.191   2.256
 9254SOL    HW128661   6.760   5.092   2.270
 9254SOL    HW228662   6.845   5.230   2.253
 9255SOL     OW28663   6.431   4.547   0.558
 9255SOL    HW128664   6.507   4.498   0.601
 9255SOL    HW228665   6.368   4.482   0.517
 9256SOL     OW28666   3.012   6.562   0.822
 9256SOL    HW128667   3.023   6.535   0.726
 9256SOL    HW228668   2.915   6.582   0.840
 9257SOL     OW28669   5.438   5.368   4.370
 9257SOL    HW128670   5.490   5.284   4.386
 9257SOL    HW228671   5.354   5.346   4.320
 9258SOL     OW28672   3.864   5.594   1.294
 9258SOL    HW128673   3.856   5.559   1.201
 9258SOL    HW228674   3.903   5.524   1.353
 9259SOL     OW28675   0.854   1.848   6.960
 9259SOL    HW128676   0.809   1.824   6.874
 9259SOL    HW228677   0.801   1.812   0.016
 9260SOL     OW28678   5.068   3.973   4.313
 9260SOL    HW128679   5.002   3.925   4.370
 9260SOL    HW228680   5.155   3.980   4.361
 9261SOL     OW28681   1.844   1.609   1.584
 9261SOL    HW128682   1.780   1.606   1.507
 9261SOL    HW228683   1.795   1.634   1.667
 9262SOL     OW28684   6.499   6.531   5.949
 9262SOL    HW128685   6.497   6.598   5.875
 9262SOL    HW228686   6.417   6.474   5.944
 9263SOL     OW28687   1.872   4.676   3.185
 9263SOL    HW128688   1.965   4.657   3.154
 9263SOL    HW228689   1.828   4.591   3.214
 9264SOL     OW28690   5.794   4.359   6.384
 9264SOL    HW128691   5.868   4.427   6.380
 9264SOL    HW228692   5.740   4.375   6.467
 9265SOL     OW28693   5.530   1.169   1.852
 9265SOL    HW128694   5.432   1.155   1.868
 9265SOL    HW228695   5.582   1.123   1.924
 9266SOL     OW28696   1.600   4.532   0.626
 9266SOL    HW128697   1.509   4.501   0.655
 9266SOL    HW228698   1.641   4.462   0.568
 9267SOL     OW28699   0.187   1.193   4.097
 9267SOL    HW128700   0.201   1.172   4.194
 9267SOL    HW228701   0.135   1.120   4.055
 9268SOL     OW28702   0.484   0.187   1.448
 9268SOL    HW128703   0.492   0.158   1.544
 9268SOL    HW228704   0.544   0.265   1.432
 9269SOL     OW28705   3.726   0.817   6.784
 9269SOL    HW128706   3.723   0.915   6.768
 9269SOL    HW228707   3.688   0.796   6.874
 9270SOL     OW28708   2.686   0.439   6.314
 9270SOL    HW128709   2.662   0.461   6.408
 9270SOL    HW228710   2.782   0.414   6.308
 9271SOL     OW28711   1.523   5.073   5.192
 9271SOL    HW128712   1.493   5.027   5.275
 9271SOL    HW228713   1.622   5.064   5.182
 9272SOL     OW28714   6.149   6.676   5.868
 9272SOL    HW128715   6.083   6.685   5.943
 9272SOL    HW228716   6.221   6.746   5.879
 9273SOL     OW28717   5.369   3.784   3.198
 9273SOL    HW128718   5.416   3.702   3.230
 9273SOL    HW228719   5.419   3.865   3.230
 9274SOL     OW28720   0.720   3.300   0.739
 9274SOL    HW128721   0.748   3.301   0.835
 9274SOL    HW228722   0.665   3.381   0.719
 9275SOL     OW28723   5.783   0.955   0.646
 9275SOL    HW128724   5.851   0.888   0.676
 9275SOL    HW228725   5.787   0.965   0.547
 9276SOL     OW28726   2.734   5.018   0.062
 9276SOL    HW128727   2.807   4.996   7.018
 9276SOL    HW228728   2.775   5.048   0.148
 9277SOL     OW28729   4.629   5.028   2.634
 9277SOL    HW128730   4.646   5.093   2.560
 9277SOL    HW228731   4.698   5.039   2.705
 9278SOL     OW28732   0.708   6.950   5.475
 9278SOL    HW128733   0.773   6.986   5.541
 9278SOL    HW228734   0.618   6.991   5.491
 9279SOL     OW28735   3.531   5.890   1.898
 9279SOL    HW128736   3.483   5.907   1.812
 9279SOL    HW228737   3.582   5.804   1.891
 9280SOL     OW28738   1.796   5.784   2.977
 9280SOL    HW128739   1.823   5.814   3.068
 9280SOL    HW228740   1.854   5.829   2.909
 9281SOL     OW28741   1.604   5.458   1.152
 9281SOL    HW128742   1.692   5.488   1.116
 9281SOL    HW228743   1.575   5.521   1.224
 9282SOL     OW28744   3.074   0.037   4.963
 9282SOL    HW128745   3.028   6.970   4.973
 9282SOL    HW228746   3.005   0.109   4.954
 9283SOL     OW28747   4.319   6.846   0.917
 9283SOL    HW128748   4.349   6.766   0.970
 9283SOL    HW228749   4.353   6.838   0.824
 9284SOL     OW28750   4.045   4.418   6.018
 9284SOL    HW128751   4.059   4.445   6.114
 9284SOL    HW228752   4.025   4.320   6.014
 9285SOL     OW28753   0.288   6.072   2.969
 9285SOL    HW128754   0.375   6.023   2.971
 9285SOL    HW228755   0.291   6.142   2.897
 9286SOL     OW28756   4.193   0.102   1.856
 9286SOL    HW128757   4.142   0.026   1.896
 9286SOL    HW228758   4.141   0.187   1.866
 9287SOL     OW28759   4.236   3.750   6.158
 9287SOL    HW128760   4.291   3.825   6.123
 9287SOL    HW228761   4.161   3.730   6.094
 9288SOL     OW28762   3.431   1.732   1.763
 9288SOL    HW128763   3.335   1.753   1.780
 9288SOL    HW228764   3.477   1.813   1.729
 9289SOL     OW28765   4.998   6.871   0.793
 9289SOL    HW128766   5.045   6.958   0.784
 9289SOL    HW228767   5.049   6.800   0.745
 9290SOL     OW28768   6.277   1.537   4.096
 9290SOL    HW128769   6.204   1.504   4.036
 9290SOL    HW228770   6.330   1.607   4.048
 9291SOL     OW28771   0.572   3.815   5.968
 9291SOL    HW128772   0.576   3.911   5.998
 9291SOL    HW228773   0.586   3.811   5.869
 9292SOL     OW28774   0.840   0.950   6.414
 9292SOL    HW128775   0.775   1.017   6.449
 9292SOL    HW228776   0.826   0.937   6.316
 9293SOL     OW28777   4.994   2.294   4.644
 9293SOL    HW128778   4.958   2.378   4.685
 9293SOL    HW228779   4.930   2.219   4.660
 9294SOL     OW28780   4.817   0.139   6.163
 9294SOL    HW128781   4.758   0.215   6.190
 9294SOL    HW228782   4.906   0.147   6.209
 9295SOL     OW28783   6.246   1.475   4.626
 9295SOL    HW128784   6.334   1.510   4.657
 9295SOL    HW228785   6.237   1.488   4.528
 9296SOL     OW28786   2.050   4.949   6.139
 9296SOL    HW128787   2.065   4.956   6.041
 9296SOL    HW228788   2.013   5.036   6.174
 9297SOL     OW28789   6.510   5.250   2.393
 9297SOL    HW128790   6.516   5.304   2.477
 9297SOL    HW228791   6.595   5.261   2.341
 9298SOL     OW28792   1.098   4.093   6.353
 9298SOL    HW128793   1.120   4.143   6.270
 9298SOL    HW228794   1.003   4.061   6.349
 9299SOL     OW28795   2.196   2.404   4.833
 9299SOL    HW128796   2.292   2.394   4.859
 9299SOL    HW228797   2.168   2.324   4.781
 9300SOL     OW28798   2.422   5.943   4.650
 9300SOL    HW128799   2.476   5.960   4.568
 9300SOL    HW228800   2.339   5.999   4.648
 9301SOL     OW28801   0.297   4.439   4.127
 9301SOL    HW128802   0.298   4.529   4.085
 9301SOL    HW228803   0.355   4.377   4.074
 9302SOL     OW28804   1.843   4.072   4.456
 9302SOL    HW128805   1.767   4.110   4.403
 9302SOL    HW228806   1.929   4.092   4.409
 9303SOL     OW28807   2.415   4.408   0.049
 9303SOL    HW128808   2.431   4.407   0.148
 9303SOL    HW228809   2.373   4.494   0.023
 9304SOL     OW28810   5.248   5.735   6.594
 9304SOL    HW128811   5.218   5.768   6.505
 9304SOL    HW228812   5.178   5.674   6.633
 9305SOL     OW28813   1.553   2.232   1.277
 9305SOL    HW128814   1.628   2.285   1.237
 9305SOL    HW228815   1.494   2.294   1.330
 9306SOL     OW28816   0.102   6.515   4.692
 9306SOL    HW128817   0.128   6.456   4.769
 9306SOL    HW228818   0.059   6.598   4.727
 9307SOL     OW28819   1.794   3.893   1.111
 9307SOL    HW128820   1.891   3.905   1.095
 9307SOL    HW228821   1.778   3.883   1.210
 9308SOL     OW28822   2.160   3.228   1.800
 9308SOL    HW128823   2.205   3.316   1.814
 9308SOL    HW228824   2.085   3.218   1.866
 9309SOL     OW28825   4.932   5.084   6.678
 9309SOL    HW128826   4.894   4.998   6.644
 9309SOL    HW228827   4.935   5.151   6.603
 9310SOL     OW28828   5.974   5.710   6.305
 9310SOL    HW128829   6.027   5.633   6.341
 9310SOL    HW228830   5.928   5.757   6.380
 9311SOL     OW28831   4.953   4.433   0.633
 9311SOL    HW128832   4.906   4.474   0.711
 9311SOL    HW228833   4.933   4.486   0.551
 9312SOL     OW28834   0.417   2.873   3.134
 9312SOL    HW128835   0.422   2.815   3.215
 9312SOL    HW228836   0.363   2.955   3.156
 9313SOL     OW28837   0.353   0.861   2.194
 9313SOL    HW128838   0.324   0.766   2.201
 9313SOL    HW228839   0.276   0.918   2.165
 9314SOL     OW28840   5.327   4.695   1.049
 9314SOL    HW128841   5.268   4.669   1.125
 9314SOL    HW228842   5.423   4.684   1.077
 9315SOL     OW28843   5.426   6.302   5.869
 9315SOL    HW128844   5.376   6.347   5.943
 9315SOL    HW228845   5.467   6.217   5.903
 9316SOL     OW28846   4.822   7.006   6.818
 9316SOL    HW128847   4.853   0.057   6.757
 9316SOL    HW228848   4.761   6.944   6.768
 9317SOL     OW28849   3.254   6.115   3.311
 9317SOL    HW128850   3.310   6.050   3.261
 9317SOL    HW228851   3.157   6.095   3.296
 9318SOL     OW28852   4.046   6.808   2.260
 9318SOL    HW128853   4.086   6.826   2.349
 9318SOL    HW228854   3.997   6.720   2.262
 9319SOL     OW28855   4.422   1.797   0.453
 9319SOL    HW128856   4.392   1.837   0.366
 9319SOL    HW228857   4.363   1.719   0.475
 9320SOL     OW28858   6.916   6.190   0.039
 9320SOL    HW128859   6.980   6.265   0.021
 9320SOL    HW228860   6.967   6.107   0.060
 9321SOL     OW28861   0.772   3.095   4.481
 9321SOL    HW128862   0.682   3.060   4.506
 9321SOL    HW228863   0.803   3.160   4.550
 9322SOL     OW28864   5.350   2.996   6.997
 9322SOL    HW128865   5.256   2.972   6.973
 9322SOL    HW228866   5.407   2.913   6.995
 9323SOL     OW28867   0.740   2.254   5.760
 9323SOL    HW128868   0.830   2.285   5.728
 9323SOL    HW228869   0.687   2.333   5.790
 9324SOL     OW28870   0.554   4.426   1.518
 9324SOL    HW128871   0.542   4.373   1.434
 9324SOL    HW228872   0.509   4.515   1.509
 9325SOL     OW28873   0.741   4.881   3.555
 9325SOL    HW128874   0.763   4.868   3.652
 9325SOL    HW228875   0.695   4.799   3.520
 9326SOL     OW28876   4.470   4.080   0.840
 9326SOL    HW128877   4.379   4.055   0.873
 9326SOL    HW228878   4.466   4.169   0.794
 9327SOL     OW28879   2.683   1.136   3.554
 9327SOL    HW128880   2.638   1.213   3.508
 9327SOL    HW228881   2.616   1.066   3.575
 9328SOL     OW28882   2.454   0.925   3.879
 9328SOL    HW128883   2.536   0.875   3.851
 9328SOL    HW228884   2.387   0.861   3.916
 9329SOL     OW28885   0.171   5.585   0.091
 9329SOL    HW128886   0.249   5.611   0.034
 9329SOL    HW228887   0.092   5.564   0.032
 9330SOL     OW28888   0.049   6.315   0.377
 9330SOL    HW128889   0.003   6.230   0.402
 9330SOL    HW228890   0.148   6.303   0.385
 9331SOL     OW28891   2.154   3.737   4.205
 9331SOL    HW128892   2.112   3.654   4.169
 9331SOL    HW228893   2.147   3.738   4.305
 9332SOL     OW28894   6.012   5.518   0.713
 9332SOL    HW128895   5.989   5.501   0.809
 9332SOL    HW228896   5.934   5.560   0.667
 9333SOL     OW28897   3.072   3.780   1.245
 9333SOL    HW128898   3.103   3.842   1.173
 9333SOL    HW228899   3.128   3.793   1.326
 9334SOL     OW28900   5.999   6.008   5.682
 9334SOL    HW128901   5.955   6.070   5.747
 9334SOL    HW228902   6.081   5.969   5.723
 9335SOL     OW28903   1.079   3.713   1.428
 9335SOL    HW128904   1.100   3.789   1.367
 9335SOL    HW228905   0.980   3.701   1.434
 9336SOL     OW28906   5.563   0.469   5.476
 9336SOL    HW128907   5.549   0.449   5.573
 9336SOL    HW228908   5.509   0.550   5.451
 9337SOL     OW28909   2.415   1.449   5.629
 9337SOL    HW128910   2.440   1.406   5.542
 9337SOL    HW228911   2.474   1.414   5.702
 9338SOL     OW28912   5.548   6.618   0.183
 9338SOL    HW128913   5.513   6.669   0.105
 9338SOL    HW228914   5.642   6.645   0.202
 9339SOL     OW28915   6.872   3.825   5.556
 9339SOL    HW128916   6.966   3.792   5.543
 9339SOL    HW228917   6.820   3.757   5.608
 9340SOL     OW28918   2.991   4.712   1.505
 9340SOL    HW128919   2.914   4.734   1.446
 9340SOL    HW228920   2.963   4.718   1.601
 9341SOL     OW28921   5.131   4.843   6.465
 9341SOL    HW128922   5.183   4.870   6.546
 9341SOL    HW228923   5.033   4.838   6.489
 9342SOL     OW28924   2.812   0.524   4.709
 9342SOL    HW128925   2.823   0.431   4.673
 9342SOL    HW228926   2.897   0.553   4.753
 9343SOL     OW28927   4.966   3.752   0.891
 9343SOL    HW128928   5.047   3.776   0.944
 9343SOL    HW228929   4.886   3.748   0.951
 9344SOL     OW28930   6.163   0.577   5.449
 9344SOL    HW128931   6.251   0.597   5.406
 9344SOL    HW228932   6.089   0.604   5.387
 9345SOL     OW28933   6.996   4.629   0.229
 9345SOL    HW128934   6.954   4.587   0.310
 9345SOL    HW228935   6.929   4.689   0.184
 9346SOL     OW28936   5.815   6.778   1.870
 9346SOL    HW128937   5.836   6.683   1.847
 9346SOL    HW228938   5.802   6.831   1.786
 9347SOL     OW28939   3.909   6.031   1.355
 9347SOL    HW128940   3.978   5.961   1.374
 9347SOL    HW228941   3.847   5.999   1.284
 9348SOL     OW28942   2.469   5.579   1.715
 9348SOL    HW128943   2.396   5.619   1.770
 9348SOL    HW228944   2.430   5.517   1.647
 9349SOL     OW28945   7.016   5.998   1.673
 9349SOL    HW128946   0.021   6.064   1.743
 9349SOL    HW228947   0.030   5.908   1.698
 9350SOL     OW28948   6.502   0.572   0.142
 9350SOL    HW128949   6.515   0.632   0.063
 9350SOL    HW228950   6.477   0.480   0.110
 9351SOL     OW28951   4.024   2.937   5.736
 9351SOL    HW128952   4.008   2.856   5.792
 9351SOL    HW228953   4.122   2.955   5.729
 9352SOL     OW28954   2.893   3.073   6.507
 9352SOL    HW128955   2.900   3.169   6.484
 9352SOL    HW228956   2.922   3.017   6.430
 9353SOL     OW28957   0.539   3.519   1.261
 9353SOL    HW128958   0.554   3.463   1.180
 9353SOL    HW228959   0.504   3.461   1.335
 9354SOL     OW28960   5.095   1.672   2.094
 9354SOL    HW128961   5.152   1.748   2.127
 9354SOL    HW228962   5.103   1.666   1.994
 9355SOL     OW28963   6.593   1.324   2.882
 9355SOL    HW128964   6.602   1.238   2.932
 9355SOL    HW228965   6.562   1.396   2.945
 9356SOL     OW28966   4.888   4.633   2.860
 9356SOL    HW128967   4.903   4.541   2.826
 9356SOL    HW228968   4.807   4.672   2.817
 9357SOL     OW28969   3.332   3.327   0.662
 9357SOL    HW128970   3.367   3.247   0.711
 9357SOL    HW228971   3.375   3.333   0.572
 9358SOL     OW28972   5.135   4.186   2.105
 9358SOL    HW128973   5.211   4.173   2.169
 9358SOL    HW228974   5.172   4.201   2.013
 9359SOL     OW28975   5.127   4.568   6.022
 9359SOL    HW128976   5.031   4.591   6.008
 9359SOL    HW228977   5.178   4.585   5.938
 9360SOL     OW28978   1.374   0.326   5.540
 9360SOL    HW128979   1.297   0.321   5.603
 9360SOL    HW228980   1.416   0.417   5.547
 9361SOL     OW28981   2.563   0.948   2.442
 9361SOL    HW128982   2.624   1.017   2.403
 9361SOL    HW228983   2.528   0.981   2.530
 9362SOL     OW28984   1.673   1.582   3.006
 9362SOL    HW128985   1.700   1.664   2.955
 9362SOL    HW228986   1.729   1.505   2.977
 9363SOL     OW28987   2.596   6.822   1.752
 9363SOL    HW128988   2.661   6.894   1.728
 9363SOL    HW228989   2.526   6.859   1.813
 9364SOL     OW28990   5.453   5.395   0.781
 9364SOL    HW128991   5.372   5.355   0.737
 9364SOL    HW228992   5.535   5.357   0.740
 9365SOL     OW28993   1.693   1.125   4.799
 9365SOL    HW128994   1.688   1.216   4.841
 9365SOL    HW228995   1.723   1.134   4.704
 9366SOL     OW28996   2.402   1.110   1.678
 9366SOL    HW128997   2.431   1.139   1.587
 9366SOL    HW228998   2.467   1.143   1.747
 9367SOL     OW28999   6.709   5.999   3.428
 9367SOL    HW129000   6.785   6.039   3.375
 9367SOL    HW229001   6.627   6.054   3.416
 9368SOL     OW29002   4.028   2.883   1.451
 9368SOL    HW129003   4.094   2.816   1.417
 9368SOL    HW229004   4.077   2.958   1.496
 9369SOL     OW29005   0.103   2.267   5.523
 9369SOL    HW129006   0.193   2.275   5.480
 9369SOL    HW229007   0.037   2.233   5.456
 9370SOL     OW29008   5.885   0.110   3.328
 9370SOL    HW129009   5.879   0.021   3.284
 9370SOL    HW229010   5.914   0.098   3.423
 9371SOL     OW29011   1.366   6.780   0.563
 9371SOL    HW129012   1.288   6.750   0.508
 9371SOL    HW229013   1.344   6.768   0.660
 9372SOL     OW29014   6.762   6.308   6.508
 9372SOL    HW129015   6.667   6.333   6.520
 9372SOL    HW229016   6.781   6.222   6.556
 9373SOL     OW29017   4.652   2.100   4.062
 9373SOL    HW129018   4.662   2.140   3.971
 9373SOL    HW229019   4.703   2.014   4.066
 9374SOL     OW29020   5.139   3.813   0.376
 9374SOL    HW129021   5.211   3.744   0.363
 9374SOL    HW229022   5.051   3.767   0.389
 9375SOL     OW29023   0.504   1.508   3.750
 9375SOL    HW129024   0.495   1.457   3.836
 9375SOL    HW229025   0.529   1.445   3.676
 9376SOL     OW29026   2.176   2.830   2.393
 9376SOL    HW129027   2.113   2.760   2.359
 9376SOL    HW229028   2.259   2.830   2.338
 9377SOL     OW29029   5.862   5.287   3.010
 9377SOL    HW129030   5.860   5.188   3.017
 9377SOL    HW229031   5.947   5.316   2.967
 9378SOL     OW29032   3.073   6.285   0.933
 9378SOL    HW129033   3.051   6.201   0.883
 9378SOL    HW229034   3.032   6.363   0.886
 9379SOL     OW29035   5.952   4.437   5.101
 9379SOL    HW129036   5.893   4.360   5.080
 9379SOL    HW229037   5.930   4.514   5.040
 9380SOL     OW29038   5.793   6.037   6.404
 9380SOL    HW129039   5.780   6.089   6.320
 9380SOL    HW229040   5.705   6.002   6.436
 9381SOL     OW29041   2.908   1.059   7.002
 9381SOL    HW129042   2.983   1.122   6.981
 9381SOL    HW229043   2.940   0.992   0.048
 9382SOL     OW29044   4.945   2.154   2.511
 9382SOL    HW129045   4.959   2.134   2.608
 9382SOL    HW229046   4.879   2.228   2.501
 9383SOL     OW29047   5.391   5.607   5.893
 9383SOL    HW129048   5.350   5.646   5.975
 9383SOL    HW229049   5.380   5.507   5.895
 9384SOL     OW29050   4.817   6.118   1.800
 9384SOL    HW129051   4.862   6.030   1.785
 9384SOL    HW229052   4.736   6.105   1.857
 9385SOL     OW29053   3.374   1.599   3.308
 9385SOL    HW129054   3.356   1.577   3.404
 9385SOL    HW229055   3.352   1.695   3.292
 9386SOL     OW29056   3.643   0.451   4.501
 9386SOL    HW129057   3.723   0.429   4.556
 9386SOL    HW229058   3.574   0.495   4.559
 9387SOL     OW29059   4.099   0.090   0.267
 9387SOL    HW129060   4.081   0.182   0.300
 9387SOL    HW229061   4.019   0.057   0.216
 9388SOL     OW29062   0.001   0.350   2.674
 9388SOL    HW129063   6.955   0.415   2.709
 9388SOL    HW229064   0.040   0.385   2.589
 9389SOL     OW29065   2.940   0.377   6.256
 9389SOL    HW129066   2.995   0.444   6.206
 9389SOL    HW229067   2.982   0.287   6.247
 9390SOL     OW29068   3.026   6.451   2.348
 9390SOL    HW129069   3.019   6.530   2.287
 9390SOL    HW229070   3.122   6.427   2.361
 9391SOL     OW29071   0.836   0.952   5.146
 9391SOL    HW129072   0.901   0.946   5.222
 9391SOL    HW229073   0.878   1.002   5.071
 9392SOL     OW29074   1.530   6.409   4.354
 9392SOL    HW129075   1.539   6.381   4.259
 9392SOL    HW229076   1.545   6.507   4.362
 9393SOL     OW29077   3.742   2.323   5.417
 9393SOL    HW129078   3.718   2.234   5.455
 9393SOL    HW229079   3.840   2.325   5.396
 9394SOL     OW29080   5.166   2.321   2.392
 9394SOL    HW129081   5.144   2.254   2.462
 9394SOL    HW229082   5.193   2.408   2.435
 9395SOL     OW29083   1.791   2.766   6.890
 9395SOL    HW129084   1.749   2.857   6.893
 9395SOL    HW229085   1.728   2.702   6.845
 9396SOL     OW29086   6.774   0.238   6.857
 9396SOL    HW129087   6.738   0.300   6.788
 9396SOL    HW229088   6.730   0.257   6.945
 9397SOL     OW29089   3.374   0.577   0.827
 9397SOL    HW129090   3.402   0.517   0.753
 9397SOL    HW229091   3.284   0.548   0.861
 9398SOL     OW29092   2.730   1.825   6.794
 9398SOL    HW129093   2.792   1.902   6.777
 9398SOL    HW229094   2.701   1.785   6.706
 9399SOL     OW29095   6.807   0.849   5.378
 9399SOL    HW129096   6.901   0.824   5.353
 9399SOL    HW229097   6.758   0.768   5.410
 9400SOL     OW29098   5.194   2.101   3.325
 9400SOL    HW129099   5.164   2.088   3.231
 9400SOL    HW229100   5.121   2.143   3.379
 9401SOL     OW29101   2.957   0.180   2.895
 9401SOL    HW129102   2.982   0.099   2.843
 9401SOL    HW229103   2.903   0.242   2.838
 9402SOL     OW29104   2.468   5.571   6.596
 9402SOL    HW129105   2.514   5.659   6.582
 9402SOL    HW229106   2.537   5.500   6.613
 9403SOL     OW29107   5.262   1.583   4.159
 9403SOL    HW129108   5.252   1.657   4.224
 9403SOL    HW229109   5.293   1.500   4.207
 9404SOL     OW29110   0.117   4.232   6.013
 9404SOL    HW129111   0.170   4.150   5.989
 9404SOL    HW229112   0.109   4.237   6.113
 9405SOL     OW29113   6.295   0.020   1.027
 9405SOL    HW129114   6.198   0.039   1.012
 9405SOL    HW229115   6.349   0.098   0.996
 9406SOL     OW29116   0.100   1.130   5.478
 9406SOL    HW129117   0.025   1.089   5.530
 9406SOL    HW229118   0.117   1.222   5.511
 9407SOL     OW29119   3.300   6.321   2.835
 9407SOL    HW129120   3.242   6.251   2.794
 9407SOL    HW229121   3.339   6.378   2.763
 9408SOL     OW29122   4.110   1.550   6.323
 9408SOL    HW129123   4.025   1.500   6.303
 9408SOL    HW229124   4.180   1.524   6.258
 9409SOL     OW29125   5.554   4.057   2.968
 9409SOL    HW129126   5.637   4.038   3.020
 9409SOL    HW229127   5.579   4.104   2.883
 9410SOL     OW29128   4.453   6.302   2.869
 9410SOL    HW129129   4.387   6.365   2.829
 9410SOL    HW229130   4.497   6.346   2.948
 9411SOL     OW29131   4.781   5.587   1.056
 9411SOL    HW129132   4.773   5.687   1.047
 9411SOL    HW229133   4.824   5.565   1.144
 9412SOL     OW29134   6.354   2.371   1.236
 9412SOL    HW129135   6.392   2.401   1.323
 9412SOL    HW229136   6.428   2.348   1.173
 9413SOL     OW29137   3.828   6.230   5.299
 9413SOL    HW129138   3.805   6.312   5.352
 9413SOL    HW229139   3.927   6.218   5.298
 9414SOL     OW29140   2.482   1.483   1.630
 9414SOL    HW129141   2.447   1.475   1.723
 9414SOL    HW229142   2.574   1.523   1.632
 9415SOL     OW29143   3.087   0.607   2.343
 9415SOL    HW129144   3.096   0.510   2.319
 9415SOL    HW229145   2.994   0.625   2.374
 9416SOL     OW29146   0.472   2.601   1.493
 9416SOL    HW129147   0.402   2.672   1.486
 9416SOL    HW229148   0.467   2.559   1.584
 9417SOL     OW29149   2.084   6.725   4.695
 9417SOL    HW129150   2.124   6.716   4.604
 9417SOL    HW229151   2.015   6.653   4.708
 9418SOL     OW29152   3.676   4.796   0.734
 9418SOL    HW129153   3.643   4.810   0.827
 9418SOL    HW229154   3.650   4.873   0.677
 9419SOL     OW29155   3.695   6.405   5.502
 9419SOL    HW129156   3.662   6.496   5.476
 9419SOL    HW229157   3.789   6.412   5.535
 9420SOL     OW29158   0.710   1.718   3.985
 9420SOL    HW129159   0.674   1.627   4.002
 9420SOL    HW229160   0.802   1.712   3.946
 9421SOL     OW29161   1.809   4.566   5.451
 9421SOL    HW129162   1.863   4.514   5.517
 9421SOL    HW229163   1.797   4.512   5.368
 9422SOL     OW29164   4.077   1.569   2.235
 9422SOL    HW129165   4.144   1.527   2.296
 9422SOL    HW229166   4.103   1.663   2.215
 9423SOL     OW29167   4.929   1.141   4.982
 9423SOL    HW129168   4.878   1.097   4.908
 9423SOL    HW229169   4.866   1.168   5.055
 9424SOL     OW29170   3.204   6.385   4.502
 9424SOL    HW129171   3.188   6.483   4.505
 9424SOL    HW229172   3.123   6.336   4.535
 9425SOL     OW29173   1.276   3.794   4.088
 9425SOL    HW129174   1.285   3.893   4.082
 9425SOL    HW229175   1.180   3.769   4.097
 9426SOL     OW29176   3.510   6.544   0.290
 9426SOL    HW129177   3.564   6.576   0.212
 9426SOL    HW229178   3.523   6.445   0.301
 9427SOL     OW29179   2.928   5.089   4.108
 9427SOL    HW129180   2.973   5.179   4.105
 9427SOL    HW229181   2.841   5.097   4.158
 9428SOL     OW29182   5.316   6.295   2.983
 9428SOL    HW129183   5.349   6.261   3.071
 9428SOL    HW229184   5.303   6.218   2.920
 9429SOL     OW29185   0.333   3.595   2.357
 9429SOL    HW129186   0.290   3.546   2.433
 9429SOL    HW229187   0.305   3.691   2.358
 9430SOL     OW29188   5.976   0.004   1.937
 9430SOL    HW129189   5.903   6.957   1.934
 9430SOL    HW229190   6.034   7.014   1.856
 9431SOL     OW29191   6.939   4.502   1.868
 9431SOL    HW129192   6.872   4.510   1.942
 9431SOL    HW229193   0.010   4.506   1.906
 9432SOL     OW29194   6.555   6.715   4.588
 9432SOL    HW129195   6.554   6.812   4.567
 9432SOL    HW229196   6.618   6.668   4.526
 9433SOL     OW29197   2.836   4.794   4.838
 9433SOL    HW129198   2.740   4.820   4.827
 9433SOL    HW229199   2.842   4.718   4.902
 9434SOL     OW29200   5.215   5.570   2.963
 9434SOL    HW129201   5.270   5.499   2.920
 9434SOL    HW229202   5.120   5.562   2.932
 9435SOL     OW29203   1.378   0.612   4.401
 9435SOL    HW129204   1.326   0.693   4.375
 9435SOL    HW229205   1.331   0.530   4.370
 9436SOL     OW29206   2.271   2.633   6.853
 9436SOL    HW129207   2.267   2.591   6.943
 9436SOL    HW229208   2.289   2.731   6.862
 9437SOL     OW29209   1.030   5.122   4.120
 9437SOL    HW129210   0.975   5.145   4.200
 9437SOL    HW229211   1.059   5.027   4.126
 9438SOL     OW29212   1.230   6.324   1.874
 9438SOL    HW129213   1.281   6.288   1.796
 9438SOL    HW229214   1.280   6.401   1.913
 9439SOL     OW29215   0.246   2.845   1.586
 9439SOL    HW129216   0.206   2.773   1.642
 9439SOL    HW229217   0.259   2.927   1.641
 9440SOL     OW29218   4.928   6.137   5.737
 9440SOL    HW129219   4.930   6.204   5.663
 9440SOL    HW229220   4.994   6.064   5.718
 9441SOL     OW29221   1.661   4.786   5.212
 9441SOL    HW129222   1.704   4.728   5.281
 9441SOL    HW229223   1.707   4.875   5.210
 9442SOL     OW29224   0.522   4.038   1.817
 9442SOL    HW129225   0.567   3.949   1.813
 9442SOL    HW229226   0.427   4.026   1.844
 9443SOL     OW29227   1.750   3.577   1.740
 9443SOL    HW129228   1.732   3.530   1.653
 9443SOL    HW229229   1.759   3.509   1.813
 9444SOL     OW29230   0.029   3.354   6.646
 9444SOL    HW129231   6.963   3.369   6.599
 9444SOL    HW229232   0.020   3.276   6.708
 9445SOL     OW29233   5.735   3.433   1.227
 9445SOL    HW129234   5.638   3.421   1.245
 9445SOL    HW229235   5.780   3.344   1.222
 9446SOL     OW29236   6.190   5.493   1.301
 9446SOL    HW129237   6.134   5.503   1.383
 9446SOL    HW229238   6.283   5.468   1.328
 9447SOL     OW29239   5.997   2.599   1.715
 9447SOL    HW129240   5.941   2.528   1.755
 9447SOL    HW229241   6.092   2.589   1.746
 9448SOL     OW29242   6.394   6.336   0.328
 9448SOL    HW129243   6.491   6.326   0.353
 9448SOL    HW229244   6.338   6.282   0.391
 9449SOL     OW29245   6.983   5.362   5.782
 9449SOL    HW129246   6.958   5.380   5.877
 9449SOL    HW229247   0.060   5.383   5.769
 9450SOL     OW29248   3.121   4.973   4.391
 9450SOL    HW129249   3.080   4.924   4.468
 9450SOL    HW229250   3.049   5.000   4.327
 9451SOL     OW29251   4.283   4.780   5.921
 9451SOL    HW129252   4.197   4.730   5.929
 9451SOL    HW229253   4.357   4.725   5.958
 9452SOL     OW29254   2.626   4.241   1.255
 9452SOL    HW129255   2.526   4.234   1.261
 9452SOL    HW229256   2.658   4.315   1.315
 9453SOL     OW29257   3.307   5.173   2.178
 9453SOL    HW129258   3.263   5.141   2.261
 9453SOL    HW229259   3.343   5.094   2.127
 9454SOL     OW29260   2.324   2.743   5.158
 9454SOL    HW129261   2.318   2.818   5.092
 9454SOL    HW229262   2.400   2.760   5.220
 9455SOL     OW29263   3.150   1.740   1.816
 9455SOL    HW129264   3.170   1.837   1.801
 9455SOL    HW229265   3.057   1.730   1.851
 9456SOL     OW29266   1.676   3.089   1.739
 9456SOL    HW129267   1.617   3.008   1.729
 9456SOL    HW229268   1.760   3.063   1.786
 9457SOL     OW29269   6.996   3.525   0.839
 9457SOL    HW129270   0.015   3.545   0.928
 9457SOL    HW229271   0.045   3.492   0.776
 9458SOL     OW29272   6.835   5.874   5.137
 9458SOL    HW129273   6.861   5.777   5.134
 9458SOL    HW229274   6.821   5.901   5.232
 9459SOL     OW29275   5.627   5.668   1.493
 9459SOL    HW129276   5.575   5.704   1.416
 9459SOL    HW229277   5.593   5.577   1.517
 9460SOL     OW29278   0.693   2.155   5.311
 9460SOL    HW129279   0.631   2.233   5.304
 9460SOL    HW229280   0.788   2.188   5.317
 9461SOL     OW29281   1.253   0.784   3.418
 9461SOL    HW129282   1.249   0.759   3.321
 9461SOL    HW229283   1.180   0.738   3.467
 9462SOL     OW29284   0.580   2.979   2.928
 9462SOL    HW129285   0.584   3.072   2.967
 9462SOL    HW229286   0.533   2.918   2.992
 9463SOL     OW29287   5.013   1.423   0.647
 9463SOL    HW129288   5.036   1.450   0.554
 9463SOL    HW229289   5.088   1.370   0.686
 9464SOL     OW29290   5.227   0.364   6.062
 9464SOL    HW129291   5.249   0.350   6.158
 9464SOL    HW229292   5.178   0.283   6.027
 9465SOL     OW29293   6.014   0.732   3.823
 9465SOL    HW129294   5.985   0.791   3.899
 9465SOL    HW229295   6.011   0.785   3.738
 9466SOL     OW29296   2.885   2.596   6.770
 9466SOL    HW129297   2.787   2.578   6.775
 9466SOL    HW229298   2.903   2.692   6.792
 9467SOL     OW29299   2.034   3.285   2.100
 9467SOL    HW129300   2.091   3.363   2.073
 9467SOL    HW229301   2.093   3.211   2.133
 9468SOL     OW29302   0.118   2.895   5.536
 9468SOL    HW129303   0.032   2.946   5.527
 9468SOL    HW229304   0.115   2.841   5.620
 9469SOL     OW29305   6.478   4.757   1.920
 9469SOL    HW129306   6.538   4.769   1.841
 9469SOL    HW229307   6.442   4.664   1.921
 9470SOL     OW29308   5.358   4.187   0.882
 9470SOL    HW129309   5.451   4.170   0.917
 9470SOL    HW229310   5.294   4.123   0.924
 9471SOL     OW29311   6.698   1.820   5.941
 9471SOL    HW129312   6.746   1.902   5.970
 9471SOL    HW229313   6.652   1.779   6.019
 9472SOL     OW29314   6.532   3.865   4.050
 9472SOL    HW129315   6.630   3.855   4.068
 9472SOL    HW229316   6.500   3.788   3.995
 9473SOL     OW29317   3.376   5.472   5.258
 9473SOL    HW129318   3.392   5.499   5.164
 9473SOL    HW229319   3.394   5.549   5.319
 9474SOL     OW29320   4.155   5.089   2.282
 9474SOL    HW129321   4.140   5.161   2.350
 9474SOL    HW229322   4.070   5.069   2.234
 9475SOL     OW29323   2.305   3.403   0.889
 9475SOL    HW129324   2.259   3.486   0.858
 9475SOL    HW229325   2.330   3.347   0.810
 9476SOL     OW29326   3.672   3.880   5.417
 9476SOL    HW129327   3.717   3.969   5.412
 9476SOL    HW229328   3.608   3.879   5.494
 9477SOL     OW29329   1.261   2.872   1.049
 9477SOL    HW129330   1.212   2.793   1.086
 9477SOL    HW229331   1.224   2.893   0.958
 9478SOL     OW29332   5.408   4.523   5.336
 9478SOL    HW129333   5.498   4.563   5.320
 9478SOL    HW229334   5.399   4.438   5.284
 9479SOL     OW29335   6.317   6.030   6.129
 9479SOL    HW129336   6.244   6.015   6.195
 9479SOL    HW229337   6.406   6.016   6.174
 9480SOL     OW29338   5.794   4.771   0.008
 9480SOL    HW129339   5.841   4.710   6.965
 9480SOL    HW229340   5.762   4.718   0.086
 9481SOL     OW29341   0.206   3.408   2.182
 9481SOL    HW129342   0.250   3.481   2.235
 9481SOL    HW229343   0.264   3.327   2.182
 9482SOL     OW29344   4.028   0.511   2.949
 9482SOL    HW129345   4.115   0.548   2.982
 9482SOL    HW229346   3.977   0.583   2.902
 9483SOL     OW29347   1.703   2.055   6.904
 9483SOL    HW129348   1.619   2.071   6.957
 9483SOL    HW229349   1.695   1.967   6.856
 9484SOL     OW29350   6.682   1.435   3.293
 9484SOL    HW129351   6.694   1.484   3.380
 9484SOL    HW229352   6.624   1.355   3.307
 9485SOL     OW29353   1.026   0.280   2.836
 9485SOL    HW129354   1.011   0.237   2.747
 9485SOL    HW229355   1.083   0.220   2.893
 9486SOL     OW29356   3.092   5.828   2.202
 9486SOL    HW129357   3.109   5.729   2.202
 9486SOL    HW229358   3.173   5.876   2.235
 9487SOL     OW29359   3.128   3.101   4.077
 9487SOL    HW129360   3.203   3.165   4.065
 9487SOL    HW229361   3.158   3.022   4.131
 9488SOL     OW29362   1.932   6.886   1.014
 9488SOL    HW129363   1.868   6.858   0.943
 9488SOL    HW229364   1.898   6.856   1.103
 9489SOL     OW29365   3.584   4.542   0.588
 9489SOL    HW129366   3.634   4.626   0.607
 9489SOL    HW229367   3.497   4.564   0.545
 9490SOL     OW29368   5.290   1.399   1.015
 9490SOL    HW129369   5.201   1.378   1.054
 9490SOL    HW229370   5.280   1.469   0.944
 9491SOL     OW29371   5.680   5.415   6.718
 9491SOL    HW129372   5.679   5.362   6.634
 9491SOL    HW229373   5.644   5.507   6.699
 9492SOL     OW29374   3.055   4.007   1.824
 9492SOL    HW129375   3.113   4.088   1.828
 9492SOL    HW229376   3.048   3.967   1.916
 9493SOL     OW29377   4.893   6.260   3.292
 9493SOL    HW129378   4.844   6.333   3.339
 9493SOL    HW229379   4.957   6.300   3.227
 9494SOL     OW29380   4.175   3.371   5.448
 9494SOL    HW129381   4.184   3.378   5.349
 9494SOL    HW229382   4.138   3.282   5.473
 9495SOL     OW29383   5.746   2.473   5.449
 9495SOL    HW129384   5.796   2.508   5.528
 9495SOL    HW229385   5.722   2.548   5.388
 9496SOL     OW29386   5.219   4.158   6.838
 9496SOL    HW129387   5.130   4.115   6.825
 9496SOL    HW229388   5.261   4.122   6.921
 9497SOL     OW29389   5.959   6.075   6.118
 9497SOL    HW129390   5.864   6.077   6.149
 9497SOL    HW229391   6.020   6.093   6.195
 9498SOL     OW29392   4.460   0.115   6.211
 9498SOL    HW129393   4.487   0.062   6.131
 9498SOL    HW229394   4.496   0.208   6.204
 9499SOL     OW29395   4.278   4.218   5.807
 9499SOL    HW129396   4.261   4.201   5.710
 9499SOL    HW229397   4.301   4.314   5.820
 9500SOL     OW29398   5.471   6.085   1.596
 9500SOL    HW129399   5.512   6.065   1.685
 9500SOL    HW229400   5.538   6.066   1.524
 9501SOL     OW29401   3.373   1.956   4.453
 9501SOL    HW129402   3.377   2.018   4.531
 9501SOL    HW229403   3.332   2.002   4.375
 9502SOL     OW29404   6.053   3.306   5.586
 9502SOL    HW129405   6.103   3.224   5.558
 9502SOL    HW229406   5.979   3.324   5.521
 9503SOL     OW29407   1.812   6.714   1.209
 9503SOL    HW129408   1.857   6.731   1.296
 9503SOL    HW229409   1.733   6.654   1.223
 9504SOL     OW29410   0.883   2.630   6.677
 9504SOL    HW129411   0.798   2.662   6.719
 9504SOL    HW229412   0.945   2.597   6.748
 9505SOL     OW29413   6.028   2.900   2.879
 9505SOL    HW129414   5.958   2.886   2.949
 9505SOL    HW229415   6.071   2.813   2.857
 9506SOL     OW29416   6.272   3.846   0.374
 9506SOL    HW129417   6.245   3.801   0.289
 9506SOL    HW229418   6.194   3.897   0.411
 9507SOL     OW29419   1.139   2.069   3.565
 9507SOL    HW129420   1.139   2.099   3.469
 9507SOL    HW229421   1.070   2.120   3.616
 9508SOL     OW29422   5.937   2.278   0.430
 9508SOL    HW129423   5.874   2.329   0.488
 9508SOL    HW229424   5.995   2.219   0.487
 9509SOL     OW29425   2.354   6.504   5.175
 9509SOL    HW129426   2.270   6.452   5.163
 9509SOL    HW229427   2.353   6.549   5.264
 9510SOL     OW29428   6.218   4.665   3.038
 9510SOL    HW129429   6.163   4.581   3.030
 9510SOL    HW229430   6.315   4.641   3.042
 9511SOL     OW29431   0.585   1.293   0.845
 9511SOL    HW129432   0.616   1.299   0.940
 9511SOL    HW229433   0.657   1.251   0.790
 9512SOL     OW29434   1.343   2.246   3.708
 9512SOL    HW129435   1.319   2.150   3.692
 9512SOL    HW229436   1.265   2.293   3.749
 9513SOL     OW29437   2.210   4.278   3.966
 9513SOL    HW129438   2.267   4.282   3.884
 9513SOL    HW229439   2.212   4.185   4.004
 9514SOL     OW29440   1.961   3.167   6.612
 9514SOL    HW129441   2.046   3.162   6.665
 9514SOL    HW229442   1.968   3.109   6.531
 9515SOL     OW29443   2.084   5.522   6.595
 9515SOL    HW129444   2.151   5.517   6.521
 9515SOL    HW229445   2.131   5.540   6.681
 9516SOL     OW29446   5.487   3.592   4.132
 9516SOL    HW129447   5.396   3.634   4.133
 9516SOL    HW229448   5.488   3.512   4.193
 9517SOL     OW29449   0.507   5.517   2.110
 9517SOL    HW129450   0.510   5.417   2.110
 9517SOL    HW229451   0.561   5.551   2.187
 9518SOL     OW29452   0.892   2.574   5.893
 9518SOL    HW129453   0.939   2.513   5.957
 9518SOL    HW229454   0.827   2.630   5.943
 9519SOL     OW29455   3.546   3.397   2.985
 9519SOL    HW129456   3.482   3.323   3.007
 9519SOL    HW229457   3.528   3.430   2.892
 9520SOL     OW29458   6.032   0.725   5.655
 9520SOL    HW129459   6.081   0.673   5.585
 9520SOL    HW229460   6.098   0.763   5.720
 9521SOL     OW29461   3.954   0.340   1.221
 9521SOL    HW129462   3.889   0.277   1.265
 9521SOL    HW229463   4.038   0.291   1.200
 9522SOL     OW29464   3.798   6.432   2.415
 9522SOL    HW129465   3.797   6.381   2.501
 9522SOL    HW229466   3.728   6.394   2.354
 9523SOL     OW29467   2.887   4.790   3.815
 9523SOL    HW129468   2.876   4.702   3.861
 9523SOL    HW229469   2.797   4.825   3.789
 9524SOL     OW29470   2.344   3.794   1.139
 9524SOL    HW129471   2.437   3.760   1.126
 9524SOL    HW229472   2.338   3.888   1.105
 9525SOL     OW29473   1.864   3.401   5.200
 9525SOL    HW129474   1.816   3.315   5.186
 9525SOL    HW229475   1.944   3.405   5.139
 9526SOL     OW29476   4.982   5.163   0.134
 9526SOL    HW129477   5.014   5.183   0.042
 9526SOL    HW229478   4.889   5.199   0.146
 9527SOL     OW29479   4.028   0.131   3.171
 9527SOL    HW129480   4.086   0.049   3.169
 9527SOL    HW229481   3.971   0.129   3.253
 9528SOL     OW29482   5.731   2.209   1.419
 9528SOL    HW129483   5.783   2.253   1.345
 9528SOL    HW229484   5.640   2.250   1.425
 9529SOL     OW29485   6.459   0.928   1.621
 9529SOL    HW129486   6.443   0.830   1.637
 9529SOL    HW229487   6.378   0.968   1.580
 9530SOL     OW29488   1.024   5.541   4.253
 9530SOL    HW129489   0.978   5.526   4.166
 9530SOL    HW229490   1.104   5.482   4.259
 9531SOL     OW29491   3.804   5.395   2.579
 9531SOL    HW129492   3.765   5.487   2.593
 9531SOL    HW229493   3.840   5.361   2.666
 9532SOL     OW29494   6.605   5.317   2.987
 9532SOL    HW129495   6.543   5.394   2.997
 9532SOL    HW229496   6.645   5.317   2.895
 9533SOL     OW29497   2.192   3.837   3.220
 9533SOL    HW129498   2.136   3.917   3.200
 9533SOL    HW229499   2.219   3.793   3.134
 9534SOL     OW29500   5.451   4.435   4.587
 9534SOL    HW129501   5.425   4.492   4.665
 9534SOL    HW229502   5.509   4.360   4.617
 9535SOL     OW29503   1.088   1.145   5.487
 9535SOL    HW129504   1.086   1.053   5.447
 9535SOL    HW229505   1.021   1.203   5.441
 9536SOL     OW29506   4.035   3.679   5.151
 9536SOL    HW129507   3.953   3.681   5.209
 9536SOL    HW229508   4.086   3.595   5.169
 9537SOL     OW29509   0.914   1.240   3.665
 9537SOL    HW129510   0.997   1.236   3.720
 9537SOL    HW229511   0.838   1.199   3.717
 9538SOL     OW29512   4.502   0.753   5.161
 9538SOL    HW129513   4.484   0.657   5.138
 9538SOL    HW229514   4.423   0.791   5.209
 9539SOL     OW29515   3.741   3.250   2.451
 9539SOL    HW129516   3.798   3.172   2.427
 9539SOL    HW229517   3.646   3.231   2.425
 9540SOL     OW29518   4.916   4.845   3.815
 9540SOL    HW129519   4.851   4.769   3.809
 9540SOL    HW229520   4.979   4.841   3.738
 9541SOL     OW29521   2.229   5.623   5.410
 9541SOL    HW129522   2.254   5.558   5.338
 9541SOL    HW229523   2.190   5.573   5.487
 9542SOL     OW29524   6.144   4.325   4.242
 9542SOL    HW129525   6.048   4.330   4.214
 9542SOL    HW229526   6.151   4.281   4.332
 9543SOL     OW29527   2.187   0.183   5.781
 9543SOL    HW129528   2.135   0.234   5.849
 9543SOL    HW229529   2.275   0.157   5.821
 9544SOL     OW29530   5.729   3.626   4.018
 9544SOL    HW129531   5.638   3.640   4.059
 9544SOL    HW229532   5.755   3.708   3.967
 9545SOL     OW29533   1.371   4.427   1.498
 9545SOL    HW129534   1.298   4.363   1.520
 9545SOL    HW229535   1.460   4.381   1.508
 9546SOL     OW29536   2.533   2.309   6.547
 9546SOL    HW129537   2.534   2.259   6.633
 9546SOL    HW229538   2.601   2.271   6.485
 9547SOL     OW29539   4.133   6.053   4.351
 9547SOL    HW129540   4.121   5.991   4.273
 9547SOL    HW229541   4.044   6.088   4.379
 9548SOL     OW29542   0.912   4.891   6.925
 9548SOL    HW129543   0.875   4.818   6.866
 9548SOL    HW229544   0.857   4.898   7.008
 9549SOL     OW29545   4.705   3.019   1.282
 9549SOL    HW129546   4.664   2.966   1.208
 9549SOL    HW229547   4.704   3.116   1.259
 9550SOL     OW29548   5.406   3.067   1.442
 9550SOL    HW129549   5.420   3.069   1.541
 9550SOL    HW229550   5.372   2.977   1.415
 9551SOL     OW29551   6.544   2.442   6.720
 9551SOL    HW129552   6.454   2.462   6.680
 9551SOL    HW229553   6.575   2.352   6.690
 9552SOL     OW29554   2.998   2.275   6.688
 9552SOL    HW129555   2.969   2.333   6.612
 9552SOL    HW229556   3.098   2.277   6.696
 9553SOL     OW29557   5.333   1.758   6.782
 9553SOL    HW129558   5.378   1.840   6.815
 9553SOL    HW229559   5.384   1.721   6.704
 9554SOL     OW29560   2.497   6.462   3.620
 9554SOL    HW129561   2.476   6.403   3.542
 9554SOL    HW229562   2.583   6.433   3.661
 9555SOL     OW29563   6.400   0.684   3.735
 9555SOL    HW129564   6.378   0.613   3.668
 9555SOL    HW229565   6.459   0.645   3.806
 9556SOL     OW29566   2.090   4.612   0.221
 9556SOL    HW129567   2.061   4.658   0.305
 9556SOL    HW229568   2.114   4.517   0.241
 9557SOL     OW29569   5.000   0.255   1.495
 9557SOL    HW129570   5.037   0.342   1.527
 9557SOL    HW229571   4.917   0.233   1.547
 9558SOL     OW29572   4.790   6.453   6.280
 9558SOL    HW129573   4.824   6.510   6.205
 9558SOL    HW229574   4.836   6.479   6.365
 9559SOL     OW29575   1.615   4.408   0.102
 9559SOL    HW129576   1.691   4.364   0.150
 9559SOL    HW229577   1.603   4.501   0.137
 9560SOL     OW29578   3.506   0.027   2.240
 9560SOL    HW129579   3.465   0.002   2.153
 9560SOL    HW229580   3.496   0.125   2.256
 9561SOL     OW29581   0.740   1.183   0.666
 9561SOL    HW129582   0.794   1.265   0.650
 9561SOL    HW229583   0.710   1.145   0.579
 9562SOL     OW29584   3.247   5.825   3.657
 9562SOL    HW129585   3.162   5.803   3.706
 9562SOL    HW229586   3.260   5.758   3.583
 9563SOL     OW29587   0.823   5.953   1.181
 9563SOL    HW129588   0.798   6.024   1.115
 9563SOL    HW229589   0.782   5.975   1.270
 9564SOL     OW29590   1.205   0.150   0.095
 9564SOL    HW129591   1.227   0.245   0.070
 9564SOL    HW229592   1.177   0.100   0.012
 9565SOL     OW29593   3.002   1.713   3.839
 9565SOL    HW129594   3.038   1.662   3.917
 9565SOL    HW229595   2.968   1.649   3.770
 9566SOL     OW29596   2.503   0.320   0.553
 9566SOL    HW129597   2.521   0.290   0.647
 9566SOL    HW229598   2.424   0.381   0.553
 9567SOL     OW29599   6.541   4.054   1.123
 9567SOL    HW129600   6.583   3.970   1.156
 9567SOL    HW229601   6.514   4.111   1.201
 9568SOL     OW29602   4.853   1.400   6.987
 9568SOL    HW129603   4.838   1.487   0.012
 9568SOL    HW229604   4.883   1.416   6.893
 9569SOL     OW29605   5.183   0.995   2.465
 9569SOL    HW129606   5.276   0.976   2.496
 9569SOL    HW229607   5.133   0.909   2.455
 9570SOL     OW29608   0.290   3.370   1.191
 9570SOL    HW129609   0.358   3.425   1.143
 9570SOL    HW229610   0.330   3.329   1.272
 9571SOL     OW29611   3.160   1.886   6.690
 9571SOL    HW129612   3.122   1.940   6.766
 9571SOL    HW229613   3.134   1.790   6.702
 9572SOL     OW29614   2.148   3.989   3.916
 9572SOL    HW129615   2.126   3.897   3.883
 9572SOL    HW229616   2.166   3.987   4.014
 9573SOL     OW29617   6.138   1.267   4.732
 9573SOL    HW129618   6.190   1.191   4.693
 9573SOL    HW229619   6.169   1.353   4.693
 9574SOL     OW29620   3.475   3.344   1.415
 9574SOL    HW129621   3.480   3.282   1.337
 9574SOL    HW229622   3.483   3.439   1.383
 9575SOL     OW29623   6.367   6.495   1.616
 9575SOL    HW129624   6.399   6.409   1.656
 9575SOL    HW229625   6.269   6.506   1.636
 9576SOL     OW29626   0.803   6.917   0.014
 9576SOL    HW129627   0.885   6.867   7.008
 9576SOL    HW229628   0.793   6.913   0.114
 9577SOL     OW29629   6.345   5.285   1.848
 9577SOL    HW129630   6.258   5.310   1.806
 9577SOL    HW229631   6.345   5.314   1.943
 9578SOL     OW29632   1.775   2.722   2.833
 9578SOL    HW129633   1.684   2.725   2.876
 9578SOL    HW229634   1.812   2.815   2.828
 9579SOL     OW29635   5.819   6.060   2.170
 9579SOL    HW129636   5.843   6.018   2.083
 9579SOL    HW229637   5.895   6.048   2.235
 9580SOL     OW29638   4.833   5.050   2.793
 9580SOL    HW129639   4.838   4.984   2.868
 9580SOL    HW229640   4.896   5.126   2.812
 9581SOL     OW29641   6.235   1.295   0.019
 9581SOL    HW129642   6.301   1.343   6.983
 9581SOL    HW229643   6.251   1.197   0.014
 9582SOL     OW29644   4.941   6.291   4.284
 9582SOL    HW129645   4.902   6.257   4.370
 9582SOL    HW229646   4.902   6.380   4.262
 9583SOL     OW29647   3.461   4.506   1.615
 9583SOL    HW129648   3.523   4.549   1.681
 9583SOL    HW229649   3.447   4.568   1.537
 9584SOL     OW29650   2.330   4.625   4.764
 9584SOL    HW129651   2.317   4.695   4.693
 9584SOL    HW229652   2.338   4.670   4.853
 9585SOL     OW29653   4.685   5.436   1.693
 9585SOL    HW129654   4.715   5.394   1.608
 9585SOL    HW229655   4.587   5.457   1.687
 9586SOL     OW29656   4.696   4.969   2.181
 9586SOL    HW129657   4.640   4.898   2.139
 9586SOL    HW229658   4.638   5.028   2.237
 9587SOL     OW29659   2.662   6.307   1.885
 9587SOL    HW129660   2.567   6.301   1.915
 9587SOL    HW229661   2.711   6.224   1.912
 9588SOL     OW29662   6.566   5.682   0.599
 9588SOL    HW129663   6.473   5.669   0.633
 9588SOL    HW229664   6.565   5.689   0.499
 9589SOL     OW29665   1.699   3.803   6.425
 9589SOL    HW129666   1.795   3.795   6.450
 9589SOL    HW229667   1.679   3.898   6.402
 9590SOL     OW29668   5.145   1.756   2.434
 9590SOL    HW129669   5.081   1.683   2.410
 9590SOL    HW229670   5.234   1.739   2.391
 9591SOL     OW29671   3.496   0.284   6.189
 9591SOL    HW129672   3.575   0.235   6.226
 9591SOL    HW229673   3.495   0.377   6.226
 9592SOL     OW29674   2.489   4.963   6.108
 9592SOL    HW129675   2.478   5.028   6.033
 9592SOL    HW229676   2.556   4.893   6.081
 9593SOL     OW29677   1.654   1.691   4.745
 9593SOL    HW129678   1.673   1.745   4.663
 9593SOL    HW229679   1.731   1.698   4.809
 9594SOL     OW29680   0.450   6.060   3.859
 9594SOL    HW129681   0.462   6.158   3.841
 9594SOL    HW229682   0.353   6.036   3.851
 9595SOL     OW29683   0.207   3.155   3.830
 9595SOL    HW129684   0.154   3.078   3.867
 9595SOL    HW229685   0.170   3.241   3.866
 9596SOL     OW29686   0.358   6.651   0.458
 9596SOL    HW129687   0.411   6.649   0.543
 9596SOL    HW229688   0.396   6.584   0.394
 9597SOL     OW29689   0.621   4.181   2.650
 9597SOL    HW129690   0.677   4.099   2.638
 9597SOL    HW229691   0.604   4.224   2.561
 9598SOL     OW29692   1.384   3.976   3.022
 9598SOL    HW129693   1.338   3.953   3.108
 9598SOL    HW229694   1.328   3.945   2.945
 9599SOL     OW29695   3.319   6.830   3.644
 9599SOL    HW129696   3.330   6.734   3.668
 9599SOL    HW229697   3.401   6.880   3.670
 9600SOL     OW29698   3.257   0.487   1.351
 9600SOL    HW129699   3.206   0.460   1.269
 9600SOL    HW229700   3.261   0.411   1.415
 9601SOL     OW29701   6.621   4.185   1.351
 9601SOL    HW129702   6.621   4.280   1.381
 9601SOL    HW229703   6.609   4.125   1.429
 9602SOL     OW29704   4.840   3.979   5.400
 9602SOL    HW129705   4.846   3.910   5.472
 9602SOL    HW229706   4.882   3.944   5.316
 9603SOL     OW29707   5.662   5.662   5.481
 9603SOL    HW129708   5.578   5.682   5.431
 9603SOL    HW229709   5.740   5.703   5.434
 9604SOL     OW29710   5.334   0.246   0.651
 9604SOL    HW129711   5.423   0.258   0.697
 9604SOL    HW229712   5.349   0.222   0.556
 9605SOL     OW29713   6.434   6.473   3.404
 9605SOL    HW129714   6.514   6.471   3.464
 9605SOL    HW229715   6.443   6.401   3.335
 9606SOL     OW29716   1.419   1.567   6.485
 9606SOL    HW129717   1.449   1.508   6.560
 9606SOL    HW229718   1.336   1.528   6.444
 9607SOL     OW29719   3.236   3.076   6.289
 9607SOL    HW129720   3.161   3.015   6.263
 9607SOL    HW229721   3.209   3.171   6.274
 9608SOL     OW29722   6.567   4.105   3.252
 9608SOL    HW129723   6.509   4.070   3.178
 9608SOL    HW229724   6.533   4.193   3.283
 9609SOL     OW29725   4.046   2.526   6.006
 9609SOL    HW129726   4.015   2.435   6.033
 9609SOL    HW229727   4.145   2.523   5.990
 9610SOL     OW29728   1.609   3.933   2.675
 9610SOL    HW129729   1.604   3.948   2.774
 9610SOL    HW229730   1.703   3.948   2.644
 9611SOL     OW29731   1.522   0.526   0.663
 9611SOL    HW129732   1.543   0.622   0.678
 9611SOL    HW229733   1.570   0.494   0.581
 9612SOL     OW29734   0.814   2.913   2.789
 9612SOL    HW129735   0.862   2.995   2.821
 9612SOL    HW229736   0.720   2.915   2.822
 9613SOL     OW29737   5.964   5.484   3.390
 9613SOL    HW129738   6.012   5.518   3.471
 9613SOL    HW229739   6.019   5.414   3.345
 9614SOL     OW29740   5.039   1.727   3.094
 9614SOL    HW129741   5.086   1.693   3.176
 9614SOL    HW229742   5.101   1.722   3.016
 9615SOL     OW29743   2.367   2.755   1.301
 9615SOL    HW129744   2.450   2.701   1.312
 9615SOL    HW229745   2.390   2.852   1.302
 9616SOL     OW29746   3.198   2.795   6.727
 9616SOL    HW129747   3.183   2.885   6.766
 9616SOL    HW229748   3.132   2.730   6.766
 9617SOL     OW29749   2.420   2.543   4.157
 9617SOL    HW129750   2.462   2.527   4.246
 9617SOL    HW229751   2.391   2.639   4.150
 9618SOL     OW29752   3.265   0.759   0.635
 9618SOL    HW129753   3.313   0.720   0.714
 9618SOL    HW229754   3.226   0.686   0.580
 9619SOL     OW29755   2.411   1.223   5.111
 9619SOL    HW129756   2.360   1.184   5.034
 9619SOL    HW229757   2.467   1.151   5.153
 9620SOL     OW29758   5.835   6.874   5.087
 9620SOL    HW129759   5.757   6.929   5.117
 9620SOL    HW229760   5.907   6.877   5.156
 9621SOL     OW29761   1.856   2.760   2.494
 9621SOL    HW129762   1.924   2.706   2.542
 9621SOL    HW229763   1.808   2.819   2.559
 9622SOL     OW29764   5.794   0.864   1.137
 9622SOL    HW129765   5.873   0.905   1.090
 9622SOL    HW229766   5.759   0.788   1.082
 9623SOL     OW29767   3.628   3.468   6.410
 9623SOL    HW129768   3.615   3.377   6.449
 9623SOL    HW229769   3.550   3.491   6.352
 9624SOL     OW29770   6.199   3.239   3.213
 9624SOL    HW129771   6.229   3.145   3.196
 9624SOL    HW229772   6.121   3.238   3.275
 9625SOL     OW29773   6.277   6.155   0.517
 9625SOL    HW129774   6.349   6.087   0.506
 9625SOL    HW229775   6.191   6.110   0.540
 9626SOL     OW29776   3.622   6.138   6.602
 9626SOL    HW129777   3.673   6.136   6.516
 9626SOL    HW229778   3.540   6.081   6.593
 9627SOL     OW29779   1.401   6.456   6.338
 9627SOL    HW129780   1.328   6.418   6.280
 9627SOL    HW229781   1.470   6.499   6.280
 9628SOL     OW29782   4.378   5.915   1.291
 9628SOL    HW129783   4.458   5.930   1.349
 9628SOL    HW229784   4.373   5.986   1.221
 9629SOL     OW29785   3.170   6.536   1.611
 9629SOL    HW129786   3.129   6.626   1.624
 9629SOL    HW229787   3.262   6.547   1.571
 9630SOL     OW29788   6.638   0.781   5.730
 9630SOL    HW129789   6.550   0.736   5.741
 9630SOL    HW229790   6.706   0.715   5.697
 9631SOL     OW29791   6.312   6.233   6.631
 9631SOL    HW129792   6.346   6.287   6.554
 9631SOL    HW229793   6.350   6.269   6.717
 9632SOL     OW29794   1.504   6.587   1.807
 9632SOL    HW129795   1.421   6.584   1.862
 9632SOL    HW229796   1.584   6.574   1.866
 9633SOL     OW29797   6.434   5.408   5.985
 9633SOL    HW129798   6.463   5.501   5.965
 9633SOL    HW229799   6.342   5.409   6.023
 9634SOL     OW29800   0.811   6.460   4.605
 9634SOL    HW129801   0.722   6.422   4.630
 9634SOL    HW229802   0.853   6.501   4.686
 9635SOL     OW29803   2.526   5.260   4.930
 9635SOL    HW129804   2.454   5.272   4.861
 9635SOL    HW229805   2.615   5.276   4.888
 9636SOL     OW29806   4.273   1.067   5.452
 9636SOL    HW129807   4.305   1.161   5.461
 9636SOL    HW229808   4.254   1.030   5.543
 9637SOL     OW29809   2.287   1.650   6.800
 9637SOL    HW129810   2.273   1.560   6.842
 9637SOL    HW229811   2.313   1.716   6.871
 9638SOL     OW29812   6.376   2.500   4.986
 9638SOL    HW129813   6.386   2.476   4.890
 9638SOL    HW229814   6.466   2.502   5.030
 9639SOL     OW29815   4.004   1.298   2.470
 9639SOL    HW129816   4.086   1.337   2.429
 9639SOL    HW229817   3.931   1.366   2.470
 9640SOL     OW29818   2.157   2.203   2.611
 9640SOL    HW129819   2.125   2.297   2.613
 9640SOL    HW229820   2.224   2.189   2.684
 9641SOL     OW29821   6.299   5.928   0.230
 9641SOL    HW129822   6.257   5.977   0.153
 9641SOL    HW229823   6.246   5.846   0.249
 9642SOL     OW29824   3.073   0.604   4.776
 9642SOL    HW129825   3.107   0.694   4.804
 9642SOL    HW229826   3.137   0.564   4.710
 9643SOL     OW29827   4.699   4.633   3.851
 9643SOL    HW129828   4.602   4.608   3.852
 9643SOL    HW229829   4.753   4.559   3.891
 9644SOL     OW29830   1.816   2.282   6.362
 9644SOL    HW129831   1.788   2.225   6.285
 9644SOL    HW229832   1.743   2.283   6.431
 9645SOL     OW29833   3.129   5.113   4.834
 9645SOL    HW129834   3.168   5.077   4.919
 9645SOL    HW229835   3.146   5.047   4.760
 9646SOL     OW29836   3.875   4.817   2.807
 9646SOL    HW129837   3.867   4.754   2.730
 9646SOL    HW229838   3.784   4.849   2.833
 9647SOL     OW29839   6.291   3.265   0.633
 9647SOL    HW129840   6.379   3.312   0.628
 9647SOL    HW229841   6.257   3.247   0.540
 9648SOL     OW29842   4.857   3.041   0.923
 9648SOL    HW129843   4.760   3.039   0.947
 9648SOL    HW229844   4.887   3.136   0.913
 9649SOL     OW29845   2.191   5.902   0.733
 9649SOL    HW129846   2.122   5.831   0.725
 9649SOL    HW229847   2.163   5.969   0.802
 9650SOL     OW29848   6.872   6.386   1.897
 9650SOL    HW129849   6.929   6.431   1.966
 9650SOL    HW229850   6.902   6.291   1.886
 9651SOL     OW29851   0.404   1.311   6.212
 9651SOL    HW129852   0.342   1.388   6.211
 9651SOL    HW229853   0.478   1.325   6.146
 9652SOL     OW29854   0.634   5.524   2.873
 9652SOL    HW129855   0.683   5.603   2.837
 9652SOL    HW229856   0.700   5.454   2.902
 9653SOL     OW29857   5.545   5.110   4.402
 9653SOL    HW129858   5.642   5.102   4.383
 9653SOL    HW229859   5.528   5.098   4.500
 9654SOL     OW29860   2.291   2.779   2.002
 9654SOL    HW129861   2.207   2.744   2.042
 9654SOL    HW229862   2.274   2.868   1.960
 9655SOL     OW29863   6.557   2.306   0.048
 9655SOL    HW129864   6.479   2.258   0.007
 9655SOL    HW229865   6.527   2.352   0.132
 9656SOL     OW29866   3.339   0.886   2.730
 9656SOL    HW129867   3.390   0.970   2.714
 9656SOL    HW229868   3.402   0.811   2.748
 9657SOL     OW29869   6.689   0.391   4.506
 9657SOL    HW129870   6.761   0.440   4.555
 9657SOL    HW229871   6.666   0.307   4.555
 9658SOL     OW29872   6.498   2.589   2.629
 9658SOL    HW129873   6.417   2.544   2.591
 9658SOL    HW229874   6.565   2.519   2.656
 9659SOL     OW29875   0.603   4.582   6.946
 9659SOL    HW129876   0.697   4.569   6.975
 9659SOL    HW229877   0.547   4.505   6.977
 9660SOL     OW29878   0.540   4.998   0.237
 9660SOL    HW129879   0.605   4.930   0.272
 9660SOL    HW229880   0.516   4.975   0.142
 9661SOL     OW29881   4.260   6.746   1.217
 9661SOL    HW129882   4.349   6.723   1.177
 9661SOL    HW229883   4.273   6.792   1.305
 9662SOL     OW29884   6.265   0.740   4.552
 9662SOL    HW129885   6.275   0.647   4.588
 9662SOL    HW229886   6.169   0.767   4.555
 9663SOL     OW29887   2.574   5.553   2.320
 9663SOL    HW129888   2.532   5.553   2.230
 9663SOL    HW229889   2.673   5.537   2.311
 9664SOL     OW29890   3.316   6.262   2.015
 9664SOL    HW129891   3.320   6.164   2.034
 9664SOL    HW229892   3.224   6.286   1.981
 9665SOL     OW29893   5.779   4.228   4.423
 9665SOL    HW129894   5.718   4.232   4.502
 9665SOL    HW229895   5.865   4.184   4.450
 9666SOL     OW29896   5.640   4.435   3.857
 9666SOL    HW129897   5.620   4.429   3.759
 9666SOL    HW229898   5.588   4.364   3.905
 9667SOL     OW29899   3.990   3.183   4.040
 9667SOL    HW129900   4.026   3.183   3.947
 9667SOL    HW229901   3.953   3.274   4.062
 9668SOL     OW29902   0.667   0.742   5.704
 9668SOL    HW129903   0.693   0.750   5.608
 9668SOL    HW229904   0.628   0.829   5.735
 9669SOL     OW29905   1.391   5.763   0.700
 9669SOL    HW129906   1.406   5.858   0.675
 9669SOL    HW229907   1.297   5.737   0.675
 9670SOL     OW29908   5.456   5.294   0.131
 9670SOL    HW129909   5.373   5.260   0.174
 9670SOL    HW229910   5.467   5.252   0.041
 9671SOL     OW29911   6.808   6.461   5.699
 9671SOL    HW129912   6.783   6.496   5.790
 9671SOL    HW229913   6.791   6.363   5.695
 9672SOL     OW29914   0.459   6.453   4.553
 9672SOL    HW129915   0.481   6.417   4.643
 9672SOL    HW229916   0.401   6.387   4.504
 9673SOL     OW29917   3.001   3.621   6.365
 9673SOL    HW129918   2.914   3.645   6.407
 9673SOL    HW229919   3.072   3.620   6.435
 9674SOL     OW29920   3.402   6.614   2.577
 9674SOL    HW129921   3.425   6.524   2.614
 9674SOL    HW229922   3.486   6.660   2.547
 9675SOL     OW29923   6.626   2.721   2.137
 9675SOL    HW129924   6.602   2.794   2.201
 9675SOL    HW229925   6.720   2.733   2.105
 9676SOL     OW29926   6.733   3.475   4.524
 9676SOL    HW129927   6.711   3.538   4.450
 9676SOL    HW229928   6.825   3.439   4.512
 9677SOL     OW29929   1.673   3.525   5.779
 9677SOL    HW129930   1.632   3.456   5.719
 9677SOL    HW229931   1.611   3.545   5.855
 9678SOL     OW29932   3.142   3.436   3.194
 9678SOL    HW129933   3.198   3.366   3.239
 9678SOL    HW229934   3.137   3.417   3.096
 9679SOL     OW29935   0.879   3.476   2.016
 9679SOL    HW129936   0.973   3.447   2.032
 9679SOL    HW229937   0.835   3.497   2.104
 9680SOL     OW29938   5.799   5.782   3.552
 9680SOL    HW129939   5.735   5.745   3.619
 9680SOL    HW229940   5.892   5.779   3.589
 9681SOL     OW29941   1.736   0.903   3.012
 9681SOL    HW129942   1.759   0.831   2.947
 9681SOL    HW229943   1.793   0.895   3.094
 9682SOL     OW29944   6.179   4.107   2.930
 9682SOL    HW129945   6.196   4.202   2.905
 9682SOL    HW229946   6.235   4.047   2.873
 9683SOL     OW29947   4.787   5.830   6.961
 9683SOL    HW129948   4.852   5.779   6.904
 9683SOL    HW229949   4.838   5.880   0.011
 9684SOL     OW29950   1.232   3.436   4.411
 9684SOL    HW129951   1.138   3.452   4.441
 9684SOL    HW229952   1.247   3.338   4.400
 9685SOL     OW29953   1.889   2.555   0.065
 9685SOL    HW129954   1.818   2.577   0.132
 9685SOL    HW229955   1.872   2.607   7.002
 9686SOL     OW29956   5.890   0.928   1.503
 9686SOL    HW129957   5.821   0.963   1.440
 9686SOL    HW229958   5.855   0.933   1.597
 9687SOL     OW29959   3.361   0.259   3.570
 9687SOL    HW129960   3.276   0.211   3.546
 9687SOL    HW229961   3.341   0.328   3.640
 9688SOL     OW29962   0.260   1.343   2.779
 9688SOL    HW129963   0.314   1.375   2.856
 9688SOL    HW229964   0.320   1.308   2.707
 9689SOL     OW29965   2.162   6.157   6.199
 9689SOL    HW129966   2.183   6.065   6.231
 9689SOL    HW229967   2.154   6.157   6.100
 9690SOL     OW29968   6.087   4.632   1.279
 9690SOL    HW129969   6.112   4.586   1.365
 9690SOL    HW229970   6.086   4.565   1.205
 9691SOL     OW29971   1.924   4.131   2.014
 9691SOL    HW129972   2.007   4.177   2.045
 9691SOL    HW229973   1.854   4.198   1.993
 9692SOL     OW29974   2.563   5.661   1.298
 9692SOL    HW129975   2.608   5.738   1.252
 9692SOL    HW229976   2.615   5.636   1.379
 9693SOL     OW29977   6.349   5.943   1.499
 9693SOL    HW129978   6.254   5.914   1.488
 9693SOL    HW229979   6.410   5.870   1.467
 9694SOL     OW29980   1.987   2.294   0.152
 9694SOL    HW129981   2.077   2.281   0.111
 9694SOL    HW229982   1.949   2.382   0.122
 9695SOL     OW29983   6.201   4.208   1.307
 9695SOL    HW129984   6.106   4.185   1.284
 9695SOL    HW229985   6.202   4.293   1.359
 9696SOL     OW29986   3.815   3.182   1.446
 9696SOL    HW129987   3.778   3.097   1.484
 9696SOL    HW229988   3.755   3.258   1.470
 9697SOL     OW29989   0.947   5.832   0.476
 9697SOL    HW129990   0.866   5.826   0.419
 9697SOL    HW229991   0.994   5.919   0.458
 9698SOL     OW29992   6.022   1.797   4.940
 9698SOL    HW129993   6.017   1.878   4.883
 9698SOL    HW229994   6.023   1.715   4.882
 9699SOL     OW29995   1.897   3.407   7.003
 9699SOL    HW129996   1.908   3.374   0.076
 9699SOL    HW229997   1.839   3.343   6.953
 9700SOL     OW29998   3.336   4.079   4.792
 9700SOL    HW129999   3.408   4.108   4.854
 9700SOL    HW230000   3.347   3.982   4.769
 9701SOL     OW30001   5.535   4.681   5.000
 9701SOL    HW130002   5.498   4.764   4.957
 9701SOL    HW230003   5.475   4.653   5.075
 9702SOL     OW30004   4.383   0.663   1.075
 9702SOL    HW130005   4.284   0.664   1.091
 9702SOL    HW230006   4.401   0.680   0.978
 9703SOL     OW30007   2.958   6.494   3.832
 9703SOL    HW130008   3.006   6.525   3.750
 9703SOL    HW230009   2.999   6.408   3.863
 9704SOL     OW30010   3.035   0.551   3.596
 9704SOL    HW130011   2.988   0.632   3.563
 9704SOL    HW230012   3.083   0.507   3.520
 9705SOL     OW30013   3.593   3.654   0.421
 9705SOL    HW130014   3.508   3.683   0.377
 9705SOL    HW230015   3.669   3.670   0.358
 9706SOL     OW30016   5.179   3.160   2.895
 9706SOL    HW130017   5.149   3.139   2.801
 9706SOL    HW230018   5.149   3.087   2.956
 9707SOL     OW30019   2.490   5.378   2.578
 9707SOL    HW130020   2.403   5.334   2.599
 9707SOL    HW230021   2.503   5.379   2.478
 9708SOL     OW30022   2.428   1.757   2.720
 9708SOL    HW130023   2.368   1.680   2.740
 9708SOL    HW230024   2.462   1.749   2.626
 9709SOL     OW30025   1.936   5.676   2.724
 9709SOL    HW130026   1.920   5.769   2.758
 9709SOL    HW230027   1.858   5.618   2.745
 9710SOL     OW30028   0.490   0.667   2.996
 9710SOL    HW130029   0.560   0.642   2.930
 9710SOL    HW230030   0.483   0.595   3.066
 9711SOL     OW30031   1.062   4.099   5.245
 9711SOL    HW130032   0.993   4.172   5.251
 9711SOL    HW230033   1.042   4.040   5.166
 9712SOL     OW30034   5.266   1.983   4.076
 9712SOL    HW130035   5.229   2.005   3.986
 9712SOL    HW230036   5.328   1.906   4.069
 9713SOL     OW30037   6.623   5.039   2.770
 9713SOL    HW130038   6.532   5.025   2.731
 9713SOL    HW230039   6.670   5.111   2.720
 9714SOL     OW30040   1.641   2.299   1.667
 9714SOL    HW130041   1.642   2.391   1.628
 9714SOL    HW230042   1.603   2.235   1.600
 9715SOL     OW30043   4.815   5.510   5.223
 9715SOL    HW130044   4.800   5.587   5.161
 9715SOL    HW230045   4.827   5.544   5.316
 9716SOL     OW30046   4.086   2.003   6.420
 9716SOL    HW130047   4.123   1.913   6.443
 9716SOL    HW230048   4.141   2.045   6.348
 9717SOL     OW30049   5.636   5.246   3.679
 9717SOL    HW130050   5.542   5.233   3.647
 9717SOL    HW230051   5.685   5.305   3.615
 9718SOL     OW30052   4.670   3.183   1.626
 9718SOL    HW130053   4.623   3.126   1.693
 9718SOL    HW230054   4.663   3.142   1.535
 9719SOL     OW30055   0.615   1.504   0.090
 9719SOL    HW130056   0.628   1.603   0.079
 9719SOL    HW230057   0.627   1.479   0.186
 9720SOL     OW30058   6.922   0.124   2.004
 9720SOL    HW130059   6.998   0.145   1.942
 9720SOL    HW230060   6.902   0.204   2.061
 9721SOL     OW30061   6.647   4.015   2.695
 9721SOL    HW130062   6.742   3.987   2.685
 9721SOL    HW230063   6.636   4.109   2.663
 9722SOL     OW30064   0.881   0.084   3.998
 9722SOL    HW130065   0.859   7.016   4.039
 9722SOL    HW230066   0.798   0.138   3.989
 9723SOL     OW30067   7.020   1.061   3.437
 9723SOL    HW130068   0.082   1.116   3.453
 9723SOL    HW230069   6.968   1.054   3.522
 9724SOL     OW30070   3.492   2.705   1.449
 9724SOL    HW130071   3.569   2.760   1.415
 9724SOL    HW230072   3.517   2.664   1.536
 9725SOL     OW30073   4.339   3.297   5.719
 9725SOL    HW130074   4.259   3.343   5.758
 9725SOL    HW230075   4.400   3.267   5.792
 9726SOL     OW30076   5.074   6.718   5.039
 9726SOL    HW130077   5.104   6.790   5.102
 9726SOL    HW230078   5.153   6.683   4.989
 9727SOL     OW30079   1.520   2.616   5.779
 9727SOL    HW130080   1.534   2.603   5.877
 9727SOL    HW230081   1.565   2.700   5.750
 9728SOL     OW30082   3.083   5.475   0.136
 9728SOL    HW130083   3.170   5.473   0.087
 9728SOL    HW230084   3.082   5.553   0.199
 9729SOL     OW30085   2.899   5.192   2.652
 9729SOL    HW130086   2.936   5.168   2.562
 9729SOL    HW230087   2.969   5.178   2.722
 9730SOL     OW30088   6.441   3.167   2.513
 9730SOL    HW130089   6.373   3.166   2.585
 9730SOL    HW230090   6.529   3.136   2.550
 9731SOL     OW30091   4.143   4.912   1.083
 9731SOL    HW130092   4.070   4.945   1.022
 9731SOL    HW230093   4.203   4.850   1.032
 9732SOL     OW30094   6.547   6.441   2.467
 9732SOL    HW130095   6.494   6.469   2.387
 9732SOL    HW230096   6.493   6.456   2.550
 9733SOL     OW30097   5.459   4.359   6.425
 9733SOL    HW130098   5.412   4.302   6.492
 9733SOL    HW230099   5.498   4.300   6.353
 9734SOL     OW30100   5.155   2.632   4.828
 9734SOL    HW130101   5.151   2.573   4.909
 9734SOL    HW230102   5.244   2.622   4.784
 9735SOL     OW30103   1.289   4.324   0.845
 9735SOL    HW130104   1.371   4.268   0.853
 9735SOL    HW230105   1.275   4.350   0.749
 9736SOL     OW30106   3.495   1.321   0.671
 9736SOL    HW130107   3.443   1.402   0.697
 9736SOL    HW230108   3.582   1.319   0.722
 9737SOL     OW30109   4.101   2.245   5.246
 9737SOL    HW130110   4.166   2.306   5.200
 9737SOL    HW230111   4.074   2.285   5.333
 9738SOL     OW30112   1.403   0.413   2.433
 9738SOL    HW130113   1.412   0.486   2.366
 9738SOL    HW230114   1.482   0.412   2.494
 9739SOL     OW30115   5.250   4.735   1.542
 9739SOL    HW130116   5.256   4.834   1.552
 9739SOL    HW230117   5.327   4.692   1.590
 9740SOL     OW30118   6.765   4.480   3.224
 9740SOL    HW130119   6.793   4.461   3.318
 9740SOL    HW230120   6.833   4.540   3.181
 9741SOL     OW30121   4.507   2.115   1.963
 9741SOL    HW130122   4.550   2.199   1.928
 9741SOL    HW230123   4.513   2.113   2.062
 9742SOL     OW30124   5.112   1.921   4.298
 9742SOL    HW130125   5.015   1.912   4.275
 9742SOL    HW230126   5.164   1.938   4.215
 9743SOL     OW30127   1.697   2.809   5.725
 9743SOL    HW130128   1.779   2.754   5.743
 9743SOL    HW230129   1.705   2.897   5.773
 9744SOL     OW30130   1.640   0.517   1.783
 9744SOL    HW130131   1.564   0.531   1.846
 9744SOL    HW230132   1.653   0.599   1.727
 9745SOL     OW30133   0.033   2.412   5.179
 9745SOL    HW130134   0.083   2.445   5.259
 9745SOL    HW230135   6.957   2.433   5.190
 9746SOL     OW30136   5.915   1.187   4.867
 9746SOL    HW130137   5.936   1.096   4.903
 9746SOL    HW230138   5.990   1.217   4.809
 9747SOL     OW30139   0.551   6.914   6.561
 9747SOL    HW130140   0.579   6.983   6.627
 9747SOL    HW230141   0.549   6.824   6.604
 9748SOL     OW30142   0.074   5.932   4.072
 9748SOL    HW130143   0.017   5.852   4.052
 9748SOL    HW230144   0.122   5.918   4.158
 9749SOL     OW30145   0.663   4.814   4.091
 9749SOL    HW130146   0.663   4.717   4.112
 9749SOL    HW230147   0.572   4.852   4.105
 9750SOL     OW30148   4.190   4.739   3.494
 9750SOL    HW130149   4.188   4.806   3.420
 9750SOL    HW230150   4.279   4.694   3.496
 9751SOL     OW30151   2.014   2.533   0.696
 9751SOL    HW130152   1.949   2.508   0.767
 9751SOL    HW230153   2.000   2.475   0.616
 9752SOL     OW30154   3.728   1.468   5.730
 9752SOL    HW130155   3.646   1.431   5.774
 9752SOL    HW230156   3.788   1.393   5.703
 9753SOL     OW30157   0.038   5.779   5.349
 9753SOL    HW130158   0.091   5.826   5.420
 9753SOL    HW230159   6.990   5.722   5.392
 9754SOL     OW30160   0.752   1.822   6.308
 9754SOL    HW130161   0.803   1.793   6.388
 9754SOL    HW230162   0.723   1.918   6.319
 9755SOL     OW30163   3.959   4.719   5.244
 9755SOL    HW130164   3.934   4.770   5.162
 9755SOL    HW230165   3.999   4.782   5.311
 9756SOL     OW30166   6.253   2.892   6.462
 9756SOL    HW130167   6.343   2.852   6.482
 9756SOL    HW230168   6.184   2.819   6.459
 9757SOL     OW30169   5.998   2.306   3.712
 9757SOL    HW130170   5.960   2.348   3.630
 9757SOL    HW230171   5.924   2.285   3.776
 9758SOL     OW30172   2.733   0.231   6.644
 9758SOL    HW130173   2.813   0.288   6.660
 9758SOL    HW230174   2.753   0.164   6.572
 9759SOL     OW30175   3.607   5.640   1.027
 9759SOL    HW130176   3.518   5.672   0.993
 9759SOL    HW230177   3.594   5.556   1.079
 9760SOL     OW30178   5.613   4.341   5.987
 9760SOL    HW130179   5.583   4.302   6.074
 9760SOL    HW230180   5.534   4.376   5.937
 9761SOL     OW30181   5.731   5.647   2.016
 9761SOL    HW130182   5.790   5.727   2.021
 9761SOL    HW230183   5.635   5.676   2.019
 9762SOL     OW30184   2.348   1.635   4.708
 9762SOL    HW130185   2.376   1.629   4.612
 9762SOL    HW230186   2.315   1.546   4.739
 9763SOL     OW30187   2.385   1.593   1.399
 9763SOL    HW130188   2.297   1.574   1.443
 9763SOL    HW230189   2.459   1.570   1.462
 9764SOL     OW30190   1.444   2.278   2.307
 9764SOL    HW130191   1.520   2.214   2.297
 9764SOL    HW230192   1.474   2.369   2.280
 9765SOL     OW30193   0.137   1.362   5.580
 9765SOL    HW130194   0.162   1.431   5.513
 9765SOL    HW230195   0.182   1.382   5.667
 9766SOL     OW30196   2.807   0.775   2.484
 9766SOL    HW130197   2.792   0.744   2.578
 9766SOL    HW230198   2.727   0.826   2.452
 9767SOL     OW30199   4.848   0.354   5.349
 9767SOL    HW130200   4.824   0.309   5.263
 9767SOL    HW230201   4.943   0.382   5.346
 9768SOL     OW30202   4.549   2.547   2.635
 9768SOL    HW130203   4.510   2.634   2.666
 9768SOL    HW230204   4.531   2.476   2.704
 9769SOL     OW30205   0.558   1.862   1.503
 9769SOL    HW130206   0.550   1.843   1.405
 9769SOL    HW230207   0.552   1.960   1.518
 9770SOL     OW30208   5.823   4.696   5.926
 9770SOL    HW130209   5.791   4.626   5.862
 9770SOL    HW230210   5.807   4.665   6.020
 9771SOL     OW30211   3.872   6.237   5.795
 9771SOL    HW130212   3.929   6.295   5.737
 9771SOL    HW230213   3.797   6.200   5.740
 9772SOL     OW30214   6.573   0.346   1.479
 9772SOL    HW130215   6.500   0.281   1.502
 9772SOL    HW230216   6.659   0.317   1.522
 9773SOL     OW30217   5.773   5.636   3.242
 9773SOL    HW130218   5.693   5.650   3.301
 9773SOL    HW230219   5.839   5.577   3.289
 9774SOL     OW30220   0.503   5.260   3.261
 9774SOL    HW130221   0.536   5.337   3.316
 9774SOL    HW230222   0.426   5.290   3.204
 9775SOL     OW30223   2.476   2.604   4.412
 9775SOL    HW130224   2.414   2.619   4.489
 9775SOL    HW230225   2.484   2.689   4.358
 9776SOL     OW30226   0.384   5.335   4.576
 9776SOL    HW130227   0.390   5.431   4.600
 9776SOL    HW230228   0.393   5.325   4.477
 9777SOL     OW30229   5.528   5.001   6.661
 9777SOL    HW130230   5.559   5.031   6.571
 9777SOL    HW230231   5.537   5.076   6.726
 9778SOL     OW30232   4.104   0.937   2.880
 9778SOL    HW130233   4.088   0.889   2.966
 9778SOL    HW230234   4.029   0.920   2.817
 9779SOL     OW30235   2.688   1.884   6.174
 9779SOL    HW130236   2.626   1.809   6.196
 9779SOL    HW230237   2.712   1.879   6.077
 9780SOL     OW30238   3.440   4.566   0.127
 9780SOL    HW130239   3.500   4.589   0.204
 9780SOL    HW230240   3.373   4.640   0.114
 9781SOL     OW30241   1.745   4.950   4.363
 9781SOL    HW130242   1.656   4.985   4.393
 9781SOL    HW230243   1.809   4.950   4.440
 9782SOL     OW30244   6.680   0.418   1.054
 9782SOL    HW130245   6.774   0.451   1.064
 9782SOL    HW230246   6.681   0.320   1.036
 9783SOL     OW30247   4.955   1.280   2.780
 9783SOL    HW130248   4.965   1.301   2.682
 9783SOL    HW230249   5.045   1.263   2.820
 9784SOL     OW30250   4.832   1.103   4.149
 9784SOL    HW130251   4.884   1.070   4.228
 9784SOL    HW230252   4.748   1.147   4.179
 9785SOL     OW30253   0.694   2.995   1.801
 9785SOL    HW130254   0.717   3.092   1.795
 9785SOL    HW230255   0.757   2.943   1.744
 9786SOL     OW30256   2.812   6.828   4.642
 9786SOL    HW130257   2.882   6.793   4.705
 9786SOL    HW230258   2.779   6.916   4.675
 9787SOL     OW30259   5.594   4.230   1.804
 9787SOL    HW130260   5.600   4.330   1.799
 9787SOL    HW230261   5.645   4.198   1.884
 9788SOL     OW30262   0.513   0.912   5.290
 9788SOL    HW130263   0.535   0.893   5.194
 9788SOL    HW230264   0.456   0.838   5.326
 9789SOL     OW30265   2.151   6.001   4.678
 9789SOL    HW130266   2.117   5.908   4.693
 9789SOL    HW230267   2.097   6.046   4.607
 9790SOL     OW30268   6.489   1.915   4.413
 9790SOL    HW130269   6.465   1.901   4.509
 9790SOL    HW230270   6.459   2.005   4.383
 9791SOL     OW30271   1.126   2.638   1.042
 9791SOL    HW130272   1.201   2.592   1.090
 9791SOL    HW230273   1.094   2.581   0.967
 9792SOL     OW30274   4.501   5.522   2.111
 9792SOL    HW130275   4.499   5.438   2.057
 9792SOL    HW230276   4.597   5.549   2.126
 9793SOL     OW30277   4.649   5.978   2.562
 9793SOL    HW130278   4.736   5.994   2.516
 9793SOL    HW230279   4.649   6.025   2.651
 9794SOL     OW30280   3.658   2.902   6.765
 9794SOL    HW130281   3.748   2.869   6.795
 9794SOL    HW230282   3.589   2.832   6.784
 9795SOL     OW30283   2.106   3.742   4.486
 9795SOL    HW130284   2.135   3.825   4.533
 9795SOL    HW230285   2.012   3.720   4.512
 9796SOL     OW30286   3.512   5.539   0.106
 9796SOL    HW130287   3.603   5.501   0.118
 9796SOL    HW230288   3.517   5.638   0.101
 9797SOL     OW30289   4.864   3.047   5.256
 9797SOL    HW130290   4.865   3.144   5.284
 9797SOL    HW230291   4.778   3.005   5.285
 9798SOL     OW30292   1.627   2.286   1.934
 9798SOL    HW130293   1.719   2.316   1.961
 9798SOL    HW230294   1.616   2.298   1.836
 9799SOL     OW30295   3.004   3.881   2.080
 9799SOL    HW130296   2.939   3.806   2.092
 9799SOL    HW230297   3.050   3.899   2.167
 9800SOL     OW30298   4.062   5.563   6.528
 9800SOL    HW130299   3.992   5.515   6.477
 9800SOL    HW230300   4.145   5.571   6.472
 9801SOL     OW30301   4.557   4.974   0.034
 9801SOL    HW130302   4.645   5.015   0.009
 9801SOL    HW230303   4.485   5.010   6.996
 9802SOL     OW30304   0.117   3.963   1.243
 9802SOL    HW130305   0.045   3.944   1.176
 9802SOL    HW230306   0.103   4.053   1.283
 9803SOL     OW30307   6.007   0.964   6.466
 9803SOL    HW130308   5.981   1.061   6.465
 9803SOL    HW230309   5.944   0.912   6.409
 9804SOL     OW30310   5.164   5.312   4.327
 9804SOL    HW130311   5.085   5.254   4.349
 9804SOL    HW230312   5.132   5.393   4.278
 9805SOL     OW30313   3.375   4.357   0.334
 9805SOL    HW130314   3.349   4.429   0.399
 9805SOL    HW230315   3.395   4.398   0.245
 9806SOL     OW30316   6.223   2.143   2.766
 9806SOL    HW130317   6.302   2.128   2.825
 9806SOL    HW230318   6.254   2.162   2.673
 9807SOL     OW30319   3.542   2.510   0.494
 9807SOL    HW130320   3.515   2.532   0.400
 9807SOL    HW230321   3.604   2.581   0.529
 9808SOL     OW30322   1.064   1.531   5.027
 9808SOL    HW130323   1.072   1.563   5.121
 9808SOL    HW230324   0.997   1.457   5.023
 9809SOL     OW30325   1.218   0.684   4.781
 9809SOL    HW130326   1.207   0.585   4.775
 9809SOL    HW230327   1.287   0.706   4.850
 9810SOL     OW30328   3.889   1.201   3.981
 9810SOL    HW130329   3.936   1.144   3.913
 9810SOL    HW230330   3.879   1.293   3.944
 9811SOL     OW30331   1.281   6.647   2.668
 9811SOL    HW130332   1.238   6.642   2.758
 9811SOL    HW230333   1.214   6.625   2.597
 9812SOL     OW30334   4.957   2.717   5.456
 9812SOL    HW130335   4.970   2.765   5.543
 9812SOL    HW230336   5.022   2.753   5.389
 9813SOL     OW30337   6.480   4.806   0.438
 9813SOL    HW130338   6.446   4.725   0.485
 9813SOL    HW230339   6.421   4.884   0.460
 9814SOL     OW30340   6.896   0.408   5.389
 9814SOL    HW130341   6.927   0.357   5.309
 9814SOL    HW230342   6.971   0.464   5.424
 9815SOL     OW30343   6.521   3.879   3.081
 9815SOL    HW130344   6.606   3.848   3.123
 9815SOL    HW230345   6.443   3.851   3.138
 9816SOL     OW30346   6.943   0.398   5.988
 9816SOL    HW130347   6.859   0.413   5.935
 9816SOL    HW230348   7.020   0.443   5.943
 9817SOL     OW30349   2.719   0.018   0.038
 9817SOL    HW130350   2.796   6.976   0.042
 9817SOL    HW230351   2.682   0.020   6.966
 9818SOL     OW30352   0.922   6.710   3.318
 9818SOL    HW130353   0.907   6.615   3.289
 9818SOL    HW230354   0.838   6.762   3.305
 9819SOL     OW30355   6.745   2.940   4.462
 9819SOL    HW130356   6.716   2.845   4.476
 9819SOL    HW230357   6.666   2.994   4.432
 9820SOL     OW30358   3.930   2.175   5.878
 9820SOL    HW130359   3.854   2.113   5.899
 9820SOL    HW230360   3.966   2.214   5.962
 9821SOL     OW30361   3.667   2.972   1.583
 9821SOL    HW130362   3.706   2.919   1.508
 9821SOL    HW230363   3.694   2.931   1.670
 9822SOL     OW30364   3.494   6.568   5.192
 9822SOL    HW130365   3.518   6.659   5.228
 9822SOL    HW230366   3.397   6.567   5.167
 9823SOL     OW30367   2.696   6.885   2.968
 9823SOL    HW130368   2.688   6.946   2.890
 9823SOL    HW230369   2.774   6.823   2.954
 9824SOL     OW30370   1.142   6.107   5.420
 9824SOL    HW130371   1.092   6.034   5.466
 9824SOL    HW230372   1.087   6.191   5.420
 9825SOL     OW30373   6.072   6.563   4.929
 9825SOL    HW130374   5.983   6.603   4.909
 9825SOL    HW230375   6.065   6.463   4.926
 9826SOL     OW30376   2.412   5.517   4.941
 9826SOL    HW130377   2.506   5.543   4.918
 9826SOL    HW230378   2.391   5.429   4.899
 9827SOL     OW30379   1.955   4.804   2.142
 9827SOL    HW130380   1.936   4.878   2.078
 9827SOL    HW230381   2.054   4.790   2.147
 9828SOL     OW30382   4.851   2.083   4.775
 9828SOL    HW130383   4.836   2.035   4.862
 9828SOL    HW230384   4.781   2.056   4.709
 9829SOL     OW30385   4.412   5.497   5.840
 9829SOL    HW130386   4.449   5.459   5.755
 9829SOL    HW230387   4.339   5.562   5.817
 9830SOL     OW30388   5.543   1.593   3.284
 9830SOL    HW130389   5.628   1.548   3.256
 9830SOL    HW230390   5.565   1.679   3.330
 9831SOL     OW30391   0.630   4.513   2.570
 9831SOL    HW130392   0.724   4.520   2.537
 9831SOL    HW230393   0.630   4.512   2.670
 9832SOL     OW30394   4.489   5.491   4.507
 9832SOL    HW130395   4.506   5.571   4.450
 9832SOL    HW230396   4.465   5.521   4.599
 9833SOL     OW30397   4.008   3.669   3.887
 9833SOL    HW130398   3.928   3.622   3.850
 9833SOL    HW230399   3.984   3.714   3.973
 9834SOL     OW30400   2.682   6.449   5.486
 9834SOL    HW130401   2.730   6.533   5.460
 9834SOL    HW230402   2.743   6.392   5.541
 9835SOL     OW30403   4.103   3.765   4.469
 9835SOL    HW130404   4.107   3.783   4.567
 9835SOL    HW230405   4.072   3.848   4.421
 9836SOL     OW30406   0.043   3.852   5.881
 9836SOL    HW130407   0.010   3.770   5.927
 9836SOL    HW230408   0.132   3.879   5.919
 9837SOL     OW30409   5.749   1.961   3.334
 9837SOL    HW130410   5.700   1.906   3.402
 9837SOL    HW230411   5.788   1.901   3.265
 9838SOL     OW30412   1.906   6.763   1.453
 9838SOL    HW130413   1.850   6.715   1.520
 9838SOL    HW230414   1.914   6.860   1.480
 9839SOL     OW30415   4.789   0.011   3.916
 9839SOL    HW130416   4.798   0.088   3.853
 9839SOL    HW230417   4.879   7.006   3.951
 9840SOL     OW30418   6.354   1.562   6.572
 9840SOL    HW130419   6.271   1.521   6.534
 9840SOL    HW230420   6.330   1.643   6.625
 9841SOL     OW30421   6.652   6.492   3.003
 9841SOL    HW130422   6.661   6.573   3.061
 9841SOL    HW230423   6.556   6.464   3.000
 9842SOL     OW30424   3.753   0.657   6.548
 9842SOL    HW130425   3.779   0.731   6.610
 9842SOL    HW230426   3.680   0.602   6.589
 9843SOL     OW30427   0.556   0.456   1.419
 9843SOL    HW130428   0.604   0.544   1.426
 9843SOL    HW230429   0.512   0.449   1.330
 9844SOL     OW30430   4.720   0.296   4.390
 9844SOL    HW130431   4.801   0.278   4.334
 9844SOL    HW230432   4.737   0.374   4.450
 9845SOL     OW30433   1.729   3.584   2.380
 9845SOL    HW130434   1.802   3.519   2.358
 9845SOL    HW230435   1.769   3.671   2.410
 9846SOL     OW30436   6.112   2.453   1.356
 9846SOL    HW130437   6.197   2.420   1.315
 9846SOL    HW230438   6.122   2.548   1.383
 9847SOL     OW30439   3.957   3.841   6.730
 9847SOL    HW130440   3.913   3.930   6.722
 9847SOL    HW230441   3.890   3.769   6.714
 9848SOL     OW30442   3.610   3.930   5.694
 9848SOL    HW130443   3.678   3.861   5.718
 9848SOL    HW230444   3.619   4.009   5.754
 9849SOL     OW30445   0.618   2.592   4.388
 9849SOL    HW130446   0.524   2.624   4.376
 9849SOL    HW230447   0.619   2.510   4.445
 9850SOL     OW30448   1.875   0.079   4.271
 9850SOL    HW130449   1.943   0.149   4.293
 9850SOL    HW230450   1.922   7.018   4.237
 9851SOL     OW30451   3.676   5.534   4.254
 9851SOL    HW130452   3.744   5.599   4.288
 9851SOL    HW230453   3.716   5.443   4.250
 9852SOL     OW30454   2.082   6.876   0.391
 9852SOL    HW130455   2.179   6.900   0.397
 9852SOL    HW230456   2.072   6.777   0.388
 9853SOL     OW30457   0.124   4.429   3.505
 9853SOL    HW130458   0.194   4.425   3.577
 9853SOL    HW230459   0.127   4.346   3.451
 9854SOL     OW30460   0.596   4.288   6.438
 9854SOL    HW130461   0.695   4.282   6.432
 9854SOL    HW230462   0.564   4.369   6.388
 9855SOL     OW30463   0.898   5.030   0.430
 9855SOL    HW130464   0.972   5.059   0.490
 9855SOL    HW230465   0.864   5.108   0.377
 9856SOL     OW30466   5.720   3.637   3.030
 9856SOL    HW130467   5.700   3.629   2.932
 9856SOL    HW230468   5.818   3.625   3.045
 9857SOL     OW30469   4.698   0.627   5.771
 9857SOL    HW130470   4.757   0.586   5.701
 9857SOL    HW230471   4.604   0.632   5.737
 9858SOL     OW30472   6.612   5.747   1.963
 9858SOL    HW130473   6.546   5.791   2.023
 9858SOL    HW230474   6.668   5.818   1.918
 9859SOL     OW30475   0.001   5.524   3.234
 9859SOL    HW130476   6.942   5.584   3.225
 9859SOL    HW230477   6.999   5.447   3.294
 9860SOL     OW30478   1.480   3.039   4.913
 9860SOL    HW130479   1.404   3.014   4.972
 9860SOL    HW230480   1.495   3.138   4.916
 9861SOL     OW30481   3.351   2.051   2.707
 9861SOL    HW130482   3.270   2.109   2.698
 9861SOL    HW230483   3.388   2.032   2.616
 9862SOL     OW30484   1.050   3.842   6.747
 9862SOL    HW130485   1.118   3.897   6.699
 9862SOL    HW230486   1.064   3.745   6.725
 9863SOL     OW30487   4.334   6.565   1.520
 9863SOL    HW130488   4.247   6.614   1.513
 9863SOL    HW230489   4.317   6.470   1.545
 9864SOL     OW30490   2.601   5.525   5.513
 9864SOL    HW130491   2.550   5.443   5.538
 9864SOL    HW230492   2.537   5.600   5.494
 9865SOL     OW30493   1.419   5.223   5.783
 9865SOL    HW130494   1.333   5.188   5.747
 9865SOL    HW230495   1.402   5.270   5.870
 9866SOL     OW30496   6.785   5.694   5.397
 9866SOL    HW130497   6.769   5.792   5.382
 9866SOL    HW230498   6.714   5.642   5.349
 9867SOL     OW30499   3.635   1.813   2.286
 9867SOL    HW130500   3.724   1.781   2.319
 9867SOL    HW230501   3.579   1.839   2.365
 9868SOL     OW30502   2.346   4.389   3.664
 9868SOL    HW130503   2.302   4.305   3.698
 9868SOL    HW230504   2.367   4.378   3.567
 9869SOL     OW30505   6.772   2.683   0.805
 9869SOL    HW130506   6.692   2.676   0.745
 9869SOL    HW230507   6.774   2.773   0.848
 9870SOL     OW30508   2.462   2.341   2.512
 9870SOL    HW130509   2.415   2.429   2.498
 9870SOL    HW230510   2.452   2.313   2.607
 9871SOL     OW30511   5.543   5.578   3.379
 9871SOL    HW130512   5.477   5.524   3.432
 9871SOL    HW230513   5.502   5.605   3.292
 9872SOL     OW30514   0.742   4.792   5.786
 9872SOL    HW130515   0.814   4.851   5.750
 9872SOL    HW230516   0.663   4.848   5.812
 9873SOL     OW30517   1.469   1.063   5.408
 9873SOL    HW130518   1.387   1.057   5.352
 9873SOL    HW230519   1.542   1.107   5.356
 9874SOL     OW30520   0.081   2.525   4.728
 9874SOL    HW130521   0.042   2.605   4.683
 9874SOL    HW230522   0.170   2.548   4.767
 9875SOL     OW30523   6.336   6.142   0.859
 9875SOL    HW130524   6.308   6.166   0.952
 9875SOL    HW230525   6.343   6.225   0.803
 9876SOL     OW30526   0.781   6.448   3.304
 9876SOL    HW130527   0.783   6.366   3.363
 9876SOL    HW230528   0.686   6.472   3.284
 9877SOL     OW30529   0.993   5.481   5.393
 9877SOL    HW130530   0.920   5.504   5.457
 9877SOL    HW230531   1.064   5.551   5.396
 9878SOL     OW30532   3.297   2.522   6.518
 9878SOL    HW130533   3.266   2.442   6.466
 9878SOL    HW230534   3.219   2.580   6.541
 9879SOL     OW30535   6.803   5.640   5.868
 9879SOL    HW130536   6.812   5.725   5.817
 9879SOL    HW230537   6.710   5.633   5.905
 9880SOL     OW30538   3.055   1.049   1.107
 9880SOL    HW130539   3.035   1.102   1.025
 9880SOL    HW230540   2.985   0.979   1.119
 9881SOL     OW30541   6.181   1.682   3.818
 9881SOL    HW130542   6.150   1.765   3.771
 9881SOL    HW230543   6.259   1.704   3.876
 9882SOL     OW30544   3.381   3.226   4.833
 9882SOL    HW130545   3.361   3.133   4.801
 9882SOL    HW230546   3.417   3.222   4.926
 9883SOL     OW30547   1.824   0.026   2.266
 9883SOL    HW130548   1.780   0.110   2.234
 9883SOL    HW230549   1.915   0.048   2.303
 9884SOL     OW30550   3.016   2.651   5.562
 9884SOL    HW130551   3.020   2.748   5.538
 9884SOL    HW230552   3.108   2.616   5.575
 9885SOL     OW30553   5.007   2.894   5.671
 9885SOL    HW130554   5.089   2.945   5.695
 9885SOL    HW230555   4.979   2.837   5.748
 9886SOL     OW30556   3.362   5.585   1.508
 9886SOL    HW130557   3.356   5.619   1.602
 9886SOL    HW230558   3.363   5.662   1.444
 9887SOL     OW30559   3.345   1.872   6.488
 9887SOL    HW130560   3.395   1.786   6.475
 9887SOL    HW230561   3.293   1.868   6.574
 9888SOL     OW30562   6.468   6.769   3.370
 9888SOL    HW130563   6.402   6.828   3.417
 9888SOL    HW230564   6.498   6.697   3.433
 9889SOL     OW30565   6.656   5.906   2.809
 9889SOL    HW130566   6.606   5.984   2.772
 9889SOL    HW230567   6.639   5.826   2.752
 9890SOL     OW30568   0.602   3.632   2.613
 9890SOL    HW130569   0.679   3.623   2.675
 9890SOL    HW230570   0.568   3.540   2.590
 9891SOL     OW30571   5.630   5.805   1.731
 9891SOL    HW130572   5.566   5.756   1.790
 9891SOL    HW230573   5.629   5.766   1.639
 9892SOL     OW30574   1.439   5.423   4.000
 9892SOL    HW130575   1.374   5.495   4.026
 9892SOL    HW230576   1.503   5.407   4.075
 9893SOL     OW30577   5.588   5.152   4.687
 9893SOL    HW130578   5.629   5.118   4.772
 9893SOL    HW230579   5.522   5.224   4.710
 9894SOL     OW30580   4.568   2.983   5.519
 9894SOL    HW130581   4.606   2.900   5.478
 9894SOL    HW230582   4.472   2.968   5.541
 9895SOL     OW30583   5.860   2.104   0.048
 9895SOL    HW130584   5.811   2.051   0.117
 9895SOL    HW230585   5.802   2.114   6.988
 9896SOL     OW30586   4.306   3.089   0.204
 9896SOL    HW130587   4.281   2.993   0.190
 9896SOL    HW230588   4.227   3.139   0.240
 9897SOL     OW30589   6.481   1.680   3.423
 9897SOL    HW130590   6.425   1.617   3.477
 9897SOL    HW230591   6.429   1.763   3.404
 9898SOL     OW30592   1.679   4.918   6.003
 9898SOL    HW130593   1.592   4.915   6.052
 9898SOL    HW230594   1.719   5.009   6.012
 9899SOL     OW30595   4.923   4.834   2.373
 9899SOL    HW130596   4.874   4.801   2.454
 9899SOL    HW230597   4.858   4.878   2.311
 9900SOL     OW30598   1.238   4.040   3.535
 9900SOL    HW130599   1.210   3.947   3.511
 9900SOL    HW230600   1.213   4.059   3.630
 9901SOL     OW30601   2.561   2.004   5.924
 9901SOL    HW130602   2.562   1.995   5.825
 9901SOL    HW230603   2.513   1.925   5.964
 9902SOL     OW30604   4.652   3.879   0.497
 9902SOL    HW130605   4.717   3.909   0.427
 9902SOL    HW230606   4.612   3.792   0.469
 9903SOL     OW30607   3.746   0.682   1.707
 9903SOL    HW130608   3.781   0.743   1.778
 9903SOL    HW230609   3.655   0.712   1.678
 9904SOL     OW30610   0.323   0.103   2.017
 9904SOL    HW130611   0.415   0.068   2.005
 9904SOL    HW230612   0.270   0.090   1.933
 9905SOL     OW30613   1.604   6.253   6.184
 9905SOL    HW130614   1.617   6.276   6.281
 9905SOL    HW230615   1.693   6.230   6.144
 9906SOL     OW30616   3.826   3.940   6.094
 9906SOL    HW130617   3.823   3.875   6.019
 9906SOL    HW230618   3.920   3.972   6.106
 9907SOL     OW30619   1.170   6.155   2.841
 9907SOL    HW130620   1.179   6.255   2.844
 9907SOL    HW230621   1.260   6.113   2.839
 9908SOL     OW30622   0.494   3.392   4.947
 9908SOL    HW130623   0.550   3.322   4.992
 9908SOL    HW230624   0.494   3.377   4.849
 9909SOL     OW30625   3.320   0.421   2.665
 9909SOL    HW130626   3.409   0.406   2.622
 9909SOL    HW230627   3.271   0.335   2.672
 9910SOL     OW30628   1.068   4.523   1.325
 9910SOL    HW130629   0.988   4.483   1.370
 9910SOL    HW230630   1.113   4.586   1.387
 9911SOL     OW30631   3.867   4.866   3.240
 9911SOL    HW130632   3.875   4.966   3.240
 9911SOL    HW230633   3.866   4.832   3.334
 9912SOL     OW30634   3.841   6.887   1.264
 9912SOL    HW130635   3.764   6.823   1.254
 9912SOL    HW230636   3.909   6.868   1.194
 9913SOL     OW30637   4.298   2.286   2.528
 9913SOL    HW130638   4.245   2.227   2.589
 9913SOL    HW230639   4.242   2.362   2.497
 9914SOL     OW30640   2.392   5.467   5.212
 9914SOL    HW130641   2.391   5.465   5.112
 9914SOL    HW230642   2.485   5.481   5.244
 9915SOL     OW30643   5.832   3.796   3.825
 9915SOL    HW130644   5.912   3.760   3.872
 9915SOL    HW230645   5.861   3.854   3.748
 9916SOL     OW30646   2.562   3.113   0.762
 9916SOL    HW130647   2.630   3.048   0.796
 9916SOL    HW230648   2.606   3.201   0.746
 9917SOL     OW30649   1.795   2.582   4.914
 9917SOL    HW130650   1.837   2.661   4.870
 9917SOL    HW230651   1.857   2.545   4.984
 9918SOL     OW30652   2.265   0.989   4.469
 9918SOL    HW130653   2.307   1.012   4.381
 9918SOL    HW230654   2.316   0.915   4.512
 9919SOL     OW30655   0.202   5.633   2.731
 9919SOL    HW130656   0.231   5.642   2.636
 9919SOL    HW230657   0.281   5.642   2.791
 9920SOL     OW30658   4.295   6.403   2.678
 9920SOL    HW130659   4.364   6.458   2.632
 9920SOL    HW230660   4.282   6.317   2.627
 9921SOL     OW30661   4.753   0.173   3.345
 9921SOL    HW130662   4.699   0.239   3.397
 9921SOL    HW230663   4.762   0.206   3.251
 9922SOL     OW30664   5.258   3.309   1.749
 9922SOL    HW130665   5.211   3.302   1.838
 9922SOL    HW230666   5.191   3.307   1.676
 9923SOL     OW30667   6.473   0.783   6.216
 9923SOL    HW130668   6.418   0.843   6.158
 9923SOL    HW230669   6.447   0.688   6.200
 9924SOL     OW30670   5.012   1.013   3.141
 9924SOL    HW130671   4.994   1.105   3.175
 9924SOL    HW230672   5.110   0.999   3.131
 9925SOL     OW30673   3.401   2.130   4.718
 9925SOL    HW130674   3.395   2.123   4.817
 9925SOL    HW230675   3.482   2.183   4.693
 9926SOL     OW30676   1.693   0.849   6.542
 9926SOL    HW130677   1.725   0.902   6.464
 9926SOL    HW230678   1.595   0.833   6.535
 9927SOL     OW30679   0.987   2.447   2.041
 9927SOL    HW130680   1.060   2.434   2.108
 9927SOL    HW230681   0.930   2.365   2.038
 9928SOL     OW30682   6.978   3.365   2.640
 9928SOL    HW130683   6.997   3.301   2.715
 9928SOL    HW230684   6.881   3.388   2.640
 9929SOL     OW30685   1.720   4.277   5.625
 9929SOL    HW130686   1.699   4.290   5.528
 9929SOL    HW230687   1.728   4.179   5.644
 9930SOL     OW30688   0.568   5.261   0.208
 9930SOL    HW130689   0.556   5.162   0.213
 9930SOL    HW230690   0.480   5.304   0.186
 9931SOL     OW30691   2.936   5.004   6.894
 9931SOL    HW130692   3.013   4.949   6.926
 9931SOL    HW230693   2.962   5.101   6.895
 9932SOL     OW30694   1.969   2.179   1.072
 9932SOL    HW130695   2.067   2.173   1.055
 9932SOL    HW230696   1.952   2.164   1.170
 9933SOL     OW30697   0.473   1.378   2.166
 9933SOL    HW130698   0.475   1.477   2.178
 9933SOL    HW230699   0.490   1.334   2.255
 9934SOL     OW30700   4.984   1.183   0.096
 9934SOL    HW130701   5.036   1.130   0.029
 9934SOL    HW230702   4.939   1.260   0.050
 9935SOL     OW30703   2.712   2.160   0.990
 9935SOL    HW130704   2.765   2.214   0.925
 9935SOL    HW230705   2.761   2.074   1.009
 9936SOL     OW30706   5.563   6.454   5.676
 9936SOL    HW130707   5.504   6.534   5.672
 9936SOL    HW230708   5.524   6.387   5.739
 9937SOL     OW30709   1.440   0.280   3.206
 9937SOL    HW130710   1.520   0.280   3.267
 9937SOL    HW230711   1.358   0.304   3.259
 9938SOL     OW30712   6.637   1.056   3.694
 9938SOL    HW130713   6.577   1.008   3.758
 9938SOL    HW230714   6.682   1.132   3.741
 9939SOL     OW30715   2.822   4.051   1.138
 9939SOL    HW130716   2.743   4.054   1.200
 9939SOL    HW230717   2.907   4.052   1.192
 9940SOL     OW30718   0.117   0.791   3.402
 9940SOL    HW130719   0.106   0.890   3.404
 9940SOL    HW230720   0.131   0.761   3.307
 9941SOL     OW30721   5.600   4.909   0.726
 9941SOL    HW130722   5.529   4.848   0.760
 9941SOL    HW230723   5.578   4.936   0.632
 9942SOL     OW30724   5.572   5.734   2.829
 9942SOL    HW130725   5.586   5.823   2.873
 9942SOL    HW230726   5.653   5.711   2.775
 9943SOL     OW30727   1.242   3.853   5.580
 9943SOL    HW130728   1.319   3.908   5.613
 9943SOL    HW230729   1.161   3.874   5.635
 9944SOL     OW30730   1.424   5.710   6.119
 9944SOL    HW130731   1.388   5.650   6.190
 9944SOL    HW230732   1.482   5.658   6.057
 9945SOL     OW30733   6.830   3.674   7.006
 9945SOL    HW130734   6.884   3.725   0.053
 9945SOL    HW230735   6.809   3.734   6.929
 9946SOL     OW30736   4.978   2.209   1.328
 9946SOL    HW130737   5.044   2.283   1.345
 9946SOL    HW230738   4.957   2.163   1.414
 9947SOL     OW30739   0.455   1.462   2.922
 9947SOL    HW130740   0.435   1.554   2.889
 9947SOL    HW230741   0.545   1.434   2.890
 9948SOL     OW30742   5.672   0.603   4.544
 9948SOL    HW130743   5.748   0.551   4.582
 9948SOL    HW230744   5.693   0.630   4.450
 9949SOL     OW30745   6.509   4.433   3.274
 9949SOL    HW130746   6.512   4.435   3.374
 9949SOL    HW230747   6.602   4.432   3.238
 9950SOL     OW30748   4.642   4.157   5.413
 9950SOL    HW130749   4.558   4.106   5.427
 9950SOL    HW230750   4.719   4.093   5.408
 9951SOL     OW30751   6.931   1.975   2.986
 9951SOL    HW130752   7.003   1.989   3.053
 9951SOL    HW230753   6.935   2.047   2.917
 9952SOL     OW30754   1.526   4.623   1.982
 9952SOL    HW130755   1.532   4.638   1.883
 9952SOL    HW230756   1.616   4.637   2.024
 9953SOL     OW30757   6.009   3.899   3.632
 9953SOL    HW130758   6.037   3.987   3.670
 9953SOL    HW230759   6.056   3.883   3.546
 9954SOL     OW30760   3.542   0.521   1.475
 9954SOL    HW130761   3.608   0.482   1.539
 9954SOL    HW230762   3.497   0.600   1.518
 9955SOL     OW30763   5.545   4.865   1.593
 9955SOL    HW130764   5.455   4.900   1.620
 9955SOL    HW230765   5.543   4.765   1.596
 9956SOL     OW30766   2.011   2.859   3.638
 9956SOL    HW130767   1.948   2.900   3.704
 9956SOL    HW230768   1.965   2.784   3.591
 9957SOL     OW30769   5.509   0.650   0.753
 9957SOL    HW130770   5.502   0.655   0.853
 9957SOL    HW230771   5.557   0.565   0.729
 9958SOL     OW30772   5.981   5.388   6.861
 9958SOL    HW130773   5.977   5.317   6.931
 9958SOL    HW230774   5.891   5.396   6.817
 9959SOL     OW30775   5.452   5.650   0.720
 9959SOL    HW130776   5.522   5.695   0.663
 9959SOL    HW230777   5.478   5.555   0.734
 9960SOL     OW30778   6.709   0.151   0.088
 9960SOL    HW130779   6.645   0.107   0.025
 9960SOL    HW230780   6.671   0.150   0.181
 9961SOL     OW30781   3.410   5.820   0.789
 9961SOL    HW130782   3.343   5.792   0.858
 9961SOL    HW230783   3.432   5.917   0.802
 9962SOL     OW30784   3.303   0.319   1.557
 9962SOL    HW130785   3.369   0.313   1.632
 9962SOL    HW230786   3.244   0.238   1.559
 9963SOL     OW30787   1.042   0.485   6.022
 9963SOL    HW130788   1.018   0.569   6.071
 9963SOL    HW230789   0.987   0.477   5.939
 9964SOL     OW30790   4.240   4.721   6.269
 9964SOL    HW130791   4.283   4.637   6.304
 9964SOL    HW230792   4.148   4.729   6.307
 9965SOL     OW30793   3.105   5.247   3.814
 9965SOL    HW130794   3.197   5.207   3.810
 9965SOL    HW230795   3.092   5.291   3.903
 9966SOL     OW30796   3.670   5.009   3.121
 9966SOL    HW130797   3.602   4.986   3.190
 9966SOL    HW230798   3.732   4.932   3.107
 9967SOL     OW30799   0.159   0.294   3.149
 9967SOL    HW130800   0.104   0.270   3.070
 9967SOL    HW230801   0.151   0.223   3.219
 9968SOL     OW30802   4.164   6.326   0.048
 9968SOL    HW130803   4.116   6.359   0.130
 9968SOL    HW230804   4.263   6.332   0.063
 9969SOL     OW30805   0.134   5.605   3.768
 9969SOL    HW130806   0.166   5.541   3.698
 9969SOL    HW230807   0.114   5.693   3.726
 9970SOL     OW30808   6.639   3.428   2.254
 9970SOL    HW130809   6.692   3.361   2.306
 9970SOL    HW230810   6.559   3.455   2.308
 9971SOL     OW30811   0.104   5.208   4.673
 9971SOL    HW130812   0.111   5.131   4.735
 9971SOL    HW230813   0.191   5.223   4.627
 9972SOL     OW30814   3.352   4.246   6.115
 9972SOL    HW130815   3.406   4.162   6.118
 9972SOL    HW230816   3.275   4.238   6.179
 9973SOL     OW30817   2.181   2.260   3.563
 9973SOL    HW130818   2.276   2.258   3.532
 9973SOL    HW230819   2.139   2.170   3.547
 9974SOL     OW30820   1.409   2.365   3.211
 9974SOL    HW130821   1.392   2.272   3.180
 9974SOL    HW230822   1.507   2.385   3.208
 9975SOL     OW30823   2.331   4.690   6.728
 9975SOL    HW130824   2.309   4.675   6.632
 9975SOL    HW230825   2.299   4.613   6.782
 9976SOL     OW30826   3.952   5.178   5.880
 9976SOL    HW130827   3.897   5.122   5.942
 9976SOL    HW230828   3.892   5.230   5.820
 9977SOL     OW30829   4.564   0.417   5.913
 9977SOL    HW130830   4.597   0.484   5.846
 9977SOL    HW230831   4.472   0.386   5.886
 9978SOL     OW30832   1.143   3.054   0.014
 9978SOL    HW130833   1.091   3.046   6.950
 9978SOL    HW230834   1.080   3.049   0.092
 9979SOL     OW30835   3.360   3.675   5.257
 9979SOL    HW130836   3.330   3.770   5.265
 9979SOL    HW230837   3.382   3.656   5.161
 9980SOL     OW30838   1.540   1.765   1.567
 9980SOL    HW130839   1.555   1.677   1.524
 9980SOL    HW230840   1.544   1.838   1.498
 9981SOL     OW30841   6.158   1.814   0.033
 9981SOL    HW130842   6.135   1.894   0.088
 9981SOL    HW230843   6.190   1.843   6.964
 9982SOL     OW30844   1.683   2.175   4.544
 9982SOL    HW130845   1.718   2.195   4.453
 9982SOL    HW230846   1.691   2.257   4.601
 9983SOL     OW30847   1.110   3.940   2.483
 9983SOL    HW130848   1.208   3.952   2.502
 9983SOL    HW230849   1.098   3.921   2.385
 9984SOL     OW30850   0.366   5.066   0.909
 9984SOL    HW130851   0.369   5.062   1.009
 9984SOL    HW230852   0.425   4.994   0.872
 9985SOL     OW30853   5.024   4.438   0.134
 9985SOL    HW130854   5.099   4.445   0.068
 9985SOL    HW230855   4.962   4.516   0.121
 9986SOL     OW30856   5.568   5.761   0.004
 9986SOL    HW130857   5.635   5.828   6.995
 9986SOL    HW230858   5.613   5.690   0.058
 9987SOL     OW30859   5.837   2.582   1.489
 9987SOL    HW130860   5.878   2.631   1.412
 9987SOL    HW230861   5.906   2.569   1.560
 9988SOL     OW30862   5.673   0.136   3.601
 9988SOL    HW130863   5.591   0.162   3.651
 9988SOL    HW230864   5.664   0.042   3.568
 9989SOL     OW30865   0.238   6.123   2.693
 9989SOL    HW130866   0.310   6.174   2.645
 9989SOL    HW230867   0.149   6.162   2.668
 9990SOL     OW30868   0.181   6.879   3.012
 9990SOL    HW130869   0.175   6.841   2.920
 9990SOL    HW230870   0.097   6.930   3.032
 9991SOL     OW30871   2.160   4.846   3.017
 9991SOL    HW130872   2.130   4.752   3.037
 9991SOL    HW230873   2.082   4.901   2.990
 9992SOL     OW30874   2.364   5.182   0.471
 9992SOL    HW130875   2.315   5.266   0.450
 9992SOL    HW230876   2.335   5.147   0.560
 9993SOL     OW30877   3.894   0.441   4.643
 9993SOL    HW130878   3.944   0.483   4.568
 9993SOL    HW230879   3.898   0.500   4.723
 9994SOL     OW30880   6.007   5.159   4.802
 9994SOL    HW130881   6.041   5.217   4.877
 9994SOL    HW230882   5.998   5.214   4.719
 9995SOL     OW30883   3.586   1.647   6.171
 9995SOL    HW130884   3.524   1.646   6.093
 9995SOL    HW230885   3.595   1.554   6.207
 9996SOL     OW30886   3.059   3.744   0.338
 9996SOL    HW130887   3.027   3.833   0.307
 9996SOL    HW230888   3.104   3.753   0.427
 9997SOL     OW30889   6.432   2.559   3.628
 9997SOL    HW130890   6.345   2.602   3.604
 9997SOL    HW230891   6.457   2.492   3.559
 9998SOL     OW30892   4.801   4.067   2.494
 9998SOL    HW130893   4.730   4.086   2.426
 9998SOL    HW230894   4.875   4.134   2.484
 9999SOL     OW30895   0.443   6.438   4.093
 9999SOL    HW130896   0.449   6.482   4.182
 9999SOL    HW230897   0.532   6.400   4.068
10000SOL     OW30898   4.616   2.718   1.061
10000SOL    HW130899   4.688   2.656   1.030
10000SOL    HW230900   4.551   2.667   1.117
10001SOL     OW30901   3.936   6.213   1.921
10001SOL    HW130902   4.028   6.218   1.881
10001SOL    HW230903   3.915   6.299   1.967
10002SOL     OW30904   2.377   1.090   2.041
10002SOL    HW130905   2.298   1.046   1.998
10002SOL    HW230906   2.441   1.120   1.970
10003SOL     OW30907   1.263   0.526   3.233
10003SOL    HW130908   1.164   0.523   3.221
10003SOL    HW230909   1.302   0.601   3.180
10004SOL     OW30910   6.553   4.958   4.372
10004SOL    HW130911   6.454   4.972   4.378
10004SOL    HW230912   6.585   4.987   4.282
10005SOL     OW30913   2.455   5.120   3.643
10005SOL    HW130914   2.468   5.208   3.596
10005SOL    HW230915   2.418   5.053   3.580
10006SOL     OW30916   5.957   0.668   5.315
10006SOL    HW130917   5.881   0.719   5.356
10006SOL    HW230918   5.935   0.645   5.221
10007SOL     OW30919   1.028   4.925   4.353
10007SOL    HW130920   1.013   4.871   4.270
10007SOL    HW230921   1.019   4.865   4.433
10008SOL     OW30922   3.633   1.733   5.810
10008SOL    HW130923   3.640   1.658   5.744
10008SOL    HW230924   3.537   1.744   5.838
10009SOL     OW30925   1.162   3.935   2.206
10009SOL    HW130926   1.158   3.850   2.153
10009SOL    HW230927   1.194   4.010   2.148
10010SOL     OW30928   2.359   3.768   0.244
10010SOL    HW130929   2.286   3.751   0.310
10010SOL    HW230930   2.426   3.831   0.284
10011SOL     OW30931   2.004   2.970   0.240
10011SOL    HW130932   2.095   2.995   0.274
10011SOL    HW230933   2.009   2.956   0.141
10012SOL     OW30934   5.955   2.542   2.966
10012SOL    HW130935   5.902   2.626   2.966
10012SOL    HW230936   6.039   2.554   3.018
10013SOL     OW30937   0.504   5.813   5.327
10013SOL    HW130938   0.431   5.756   5.289
10013SOL    HW230939   0.543   5.870   5.254
10014SOL     OW30940   0.605   0.921   3.031
10014SOL    HW130941   0.553   0.838   3.011
10014SOL    HW230942   0.649   0.954   2.948
10015SOL     OW30943   3.939   5.820   6.021
10015SOL    HW130944   3.917   5.808   5.924
10015SOL    HW230945   3.998   5.746   6.051
10016SOL     OW30946   2.167   0.480   3.970
10016SOL    HW130947   2.240   0.421   4.004
10016SOL    HW230948   2.078   0.440   3.992
10017SOL     OW30949   2.822   2.307   2.969
10017SOL    HW130950   2.777   2.369   3.034
10017SOL    HW230951   2.859   2.228   3.017
10018SOL     OW30952   6.543   3.444   5.287
10018SOL    HW130953   6.548   3.504   5.367
10018SOL    HW230954   6.533   3.349   5.318
10019SOL     OW30955   0.560   2.167   1.944
10019SOL    HW130956   0.646   2.174   1.894
10019SOL    HW230957   0.518   2.078   1.927
10020SOL     OW30958   6.057   1.130   1.968
10020SOL    HW130959   6.071   1.164   2.061
10020SOL    HW230960   5.961   1.142   1.943
10021SOL     OW30961   0.924   3.305   2.492
10021SOL    HW130962   0.853   3.241   2.522
10021SOL    HW230963   1.007   3.254   2.469
10022SOL     OW30964   2.289   4.937   6.293
10022SOL    HW130965   2.358   4.927   6.221
10022SOL    HW230966   2.198   4.936   6.253
10023SOL     OW30967   0.837   0.967   6.146
10023SOL    HW130968   0.920   1.022   6.149
10023SOL    HW230969   0.789   0.984   6.060
10024SOL     OW30970   1.736   4.968   2.810
10024SOL    HW130971   1.694   5.034   2.748
10024SOL    HW230972   1.818   5.008   2.851
10025SOL     OW30973   0.927   4.444   0.873
10025SOL    HW130974   0.961   4.360   0.914
10025SOL    HW230975   0.897   4.507   0.945
10026SOL     OW30976   5.086   1.816   4.615
10026SOL    HW130977   5.113   1.897   4.667
10026SOL    HW230978   5.139   1.811   4.531
10027SOL     OW30979   2.656   1.771   5.055
10027SOL    HW130980   2.573   1.788   5.003
10027SOL    HW230981   2.716   1.711   5.003
10028SOL     OW30982   4.331   6.941   1.415
10028SOL    HW130983   4.375   6.980   1.334
10028SOL    HW230984   4.339   7.005   1.492
10029SOL     OW30985   0.437   4.273   4.486
10029SOL    HW130986   0.352   4.248   4.533
10029SOL    HW230987   0.415   4.323   4.402
10030SOL     OW30988   2.417   6.960   4.415
10030SOL    HW130989   2.489   7.004   4.362
10030SOL    HW230990   2.380   0.004   4.482
10031SOL     OW30991   2.644   4.897   3.676
10031SOL    HW130992   2.577   4.962   3.640
10031SOL    HW230993   2.677   4.838   3.602
10032SOL     OW30994   3.243   6.553   5.085
10032SOL    HW130995   3.263   6.470   5.032
10032SOL    HW230996   3.249   6.633   5.025
10033SOL     OW30997   3.074   0.641   4.331
10033SOL    HW130998   3.086   0.709   4.260
10033SOL    HW230999   2.977   0.630   4.352
10034SOL     OW31000   2.106   1.197   4.031
10034SOL    HW131001   2.194   1.173   3.989
10034SOL    HW231002   2.058   1.113   4.056
10035SOL     OW31003   6.171   2.586   2.260
10035SOL    HW131004   6.123   2.507   2.223
10035SOL    HW231005   6.219   2.559   2.343
10036SOL     OW31006   0.202   0.421   6.666
10036SOL    HW131007   0.148   0.337   6.679
10036SOL    HW231008   0.282   0.418   6.726
10037SOL     OW31009   6.093   6.717   6.975
10037SOL    HW131010   6.192   6.727   6.984
10037SOL    HW231011   6.048   6.797   7.013
10038SOL     OW31012   4.324   6.552   6.579
10038SOL    HW131013   4.319   6.650   6.560
10038SOL    HW231014   4.398   6.511   6.524
10039SOL     OW31015   0.018   5.819   2.570
10039SOL    HW131016   7.003   5.907   2.600
10039SOL    HW231017   0.092   5.791   2.632
10040SOL     OW31018   3.449   6.676   1.122
10040SOL    HW131019   3.355   6.696   1.097
10040SOL    HW231020   3.495   6.628   1.047
10041SOL     OW31021   6.542   5.330   5.117
10041SOL    HW131022   6.485   5.281   5.183
10041SOL    HW231023   6.579   5.266   5.050
10042SOL     OW31024   0.305   0.294   4.776
10042SOL    HW131025   0.241   0.330   4.844
10042SOL    HW231026   0.346   0.210   4.810
10043SOL     OW31027   0.466   0.712   3.920
10043SOL    HW131028   0.533   0.710   3.994
10043SOL    HW231029   0.506   0.758   3.840
10044SOL     OW31030   3.071   1.605   6.706
10044SOL    HW131031   3.016   1.616   6.624
10044SOL    HW231032   3.022   1.550   6.773
10045SOL     OW31033   3.579   0.058   5.080
10045SOL    HW131034   3.634   0.060   4.996
10045SOL    HW231035   3.485   0.085   5.059
10046SOL     OW31036   0.352   2.578   2.019
10046SOL    HW131037   0.346   2.599   1.922
10046SOL    HW231038   0.264   2.541   2.051
10047SOL     OW31039   0.150   1.956   3.445
10047SOL    HW131040   0.243   1.956   3.481
10047SOL    HW231041   0.105   2.043   3.467
10048SOL     OW31042   3.578   2.370   1.337
10048SOL    HW131043   3.546   2.435   1.268
10048SOL    HW231044   3.604   2.284   1.292
10049SOL     OW31045   1.490   6.905   5.119
10049SOL    HW131046   1.497   6.841   5.195
10049SOL    HW231047   1.582   6.927   5.085
10050SOL     OW31048   5.007   2.716   3.712
10050SOL    HW131049   5.053   2.756   3.633
10050SOL    HW231050   4.945   2.643   3.681
10051SOL     OW31051   5.977   2.780   5.461
10051SOL    HW131052   5.949   2.717   5.532
10051SOL    HW231053   5.903   2.790   5.394
10052SOL     OW31054   0.831   3.693   1.583
10052SOL    HW131055   0.778   3.673   1.666
10052SOL    HW231056   0.769   3.717   1.509
10053SOL     OW31057   3.330   5.727   3.389
10053SOL    HW131058   3.308   5.645   3.336
10053SOL    HW231059   3.363   5.799   3.327
10054SOL     OW31060   3.694   5.641   4.649
10054SOL    HW131061   3.777   5.694   4.638
10054SOL    HW231062   3.710   5.547   4.617
10055SOL     OW31063   6.092   2.988   5.591
10055SOL    HW131064   6.111   2.966   5.687
10055SOL    HW231065   6.049   2.910   5.546
10056SOL     OW31066   6.502   4.901   1.602
10056SOL    HW131067   6.519   4.981   1.660
10056SOL    HW231068   6.461   4.930   1.516
10057SOL     OW31069   3.225   1.856   3.949
10057SOL    HW131070   3.235   1.948   3.913
10057SOL    HW231071   3.178   1.798   3.882
10058SOL     OW31072   1.195   5.543   3.972
10058SOL    HW131073   1.191   5.589   3.884
10058SOL    HW231074   1.146   5.456   3.967
10059SOL     OW31075   5.975   0.335   0.743
10059SOL    HW131076   5.913   0.268   0.701
10059SOL    HW231077   5.921   0.410   0.782
10060SOL     OW31078   2.531   2.825   1.646
10060SOL    HW131079   2.621   2.808   1.608
10060SOL    HW231080   2.486   2.738   1.665
10061SOL     OW31081   6.107   1.810   4.432
10061SOL    HW131082   6.132   1.905   4.410
10061SOL    HW231083   6.022   1.786   4.386
10062SOL     OW31084   6.244   6.141   2.826
10062SOL    HW131085   6.192   6.157   2.742
10062SOL    HW231086   6.203   6.193   2.901
10063SOL     OW31087   1.647   3.125   3.091
10063SOL    HW131088   1.725   3.063   3.080
10063SOL    HW231089   1.588   3.091   3.165
10064SOL     OW31090   5.557   6.872   4.543
10064SOL    HW131091   5.534   6.839   4.451
10064SOL    HW231092   5.614   6.954   4.535
10065SOL     OW31093   1.086   6.369   3.156
10065SOL    HW131094   1.139   6.435   3.210
10065SOL    HW231095   0.989   6.381   3.176
10066SOL     OW31096   0.805   0.138   3.373
10066SOL    HW131097   0.771   0.062   3.429
10066SOL    HW231098   0.802   0.223   3.427
10067SOL     OW31099   4.008   4.903   3.880
10067SOL    HW131100   3.928   4.954   3.849
10067SOL    HW231101   3.987   4.858   3.967
10068SOL     OW31102   4.976   3.482   5.191
10068SOL    HW131103   4.927   3.402   5.227
10068SOL    HW231104   4.922   3.525   5.119
10069SOL     OW31105   3.280   0.847   3.272
10069SOL    HW131106   3.313   0.899   3.193
10069SOL    HW231107   3.326   0.758   3.275
10070SOL     OW31108   0.377   6.906   4.563
10070SOL    HW131109   0.325   6.868   4.486
10070SOL    HW231110   0.382   7.006   4.553
10071SOL     OW31111   5.289   5.745   5.129
10071SOL    HW131112   5.287   5.775   5.225
10071SOL    HW231113   5.196   5.739   5.094
10072SOL     OW31114   0.863   6.463   2.836
10072SOL    HW131115   0.823   6.512   2.914
10072SOL    HW231116   0.887   6.370   2.864
10073SOL     OW31117   6.917   4.893   6.397
10073SOL    HW131118   6.894   4.885   6.494
10073SOL    HW231119   6.993   4.957   6.385
10074SOL     OW31120   2.530   0.336   5.916
10074SOL    HW131121   2.542   0.385   5.830
10074SOL    HW231122   2.474   0.254   5.901
10075SOL     OW31123   1.182   2.512   3.766
10075SOL    HW131124   1.179   2.591   3.827
10075SOL    HW231125   1.104   2.515   3.704
10076SOL     OW31126   5.386   6.995   4.772
10076SOL    HW131127   5.449   6.943   4.714
10076SOL    HW231128   5.362   6.940   4.852
10077SOL     OW31129   3.866   1.397   6.238
10077SOL    HW131130   3.782   1.357   6.201
10077SOL    HW231131   3.943   1.337   6.217
10078SOL     OW31132   5.409   0.032   5.827
10078SOL    HW131133   5.398   0.044   5.728
10078SOL    HW231134   5.487   0.085   5.858
10079SOL     OW31135   0.142   3.381   0.688
10079SOL    HW131136   0.215   3.376   0.620
10079SOL    HW231137   0.159   3.314   0.761
10080SOL     OW31138   1.747   3.246   6.826
10080SOL    HW131139   1.810   3.224   6.751
10080SOL    HW231140   1.665   3.290   6.789
10081SOL     OW31141   0.088   0.555   6.433
10081SOL    HW131142   7.016   0.518   6.433
10081SOL    HW231143   0.141   0.511   6.505
10082SOL     OW31144   6.152   1.194   1.700
10082SOL    HW131145   6.180   1.289   1.715
10082SOL    HW231146   6.100   1.162   1.779
10083SOL     OW31147   4.488   0.435   4.305
10083SOL    HW131148   4.459   0.430   4.209
10083SOL    HW231149   4.569   0.379   4.319
10084SOL     OW31150   2.602   1.325   5.791
10084SOL    HW131151   2.600   1.258   5.716
10084SOL    HW231152   2.693   1.365   5.798
10085SOL     OW31153   0.744   5.435   2.610
10085SOL    HW131154   0.761   5.338   2.588
10085SOL    HW231155   0.829   5.478   2.639
10086SOL     OW31156   6.299   3.733   2.165
10086SOL    HW131157   6.248   3.797   2.107
10086SOL    HW231158   6.268   3.640   2.148
10087SOL     OW31159   1.268   0.126   4.024
10087SOL    HW131160   1.189   0.187   4.017
10087SOL    HW231161   1.259   0.053   3.956
10088SOL     OW31162   0.179   0.155   4.222
10088SOL    HW131163   0.161   0.252   4.243
10088SOL    HW231164   0.277   0.142   4.210
10089SOL     OW31165   1.211   3.357   2.313
10089SOL    HW131166   1.212   3.456   2.329
10089SOL    HW231167   1.303   3.321   2.325
10090SOL     OW31168   0.930   4.736   0.345
10090SOL    HW131169   0.913   4.805   0.415
10090SOL    HW231170   1.012   4.684   0.368
10091SOL     OW31171   0.389   2.683   4.770
10091SOL    HW131172   0.415   2.596   4.730
10091SOL    HW231173   0.458   2.712   4.836
10092SOL     OW31174   2.126   4.188   5.734
10092SOL    HW131175   2.109   4.185   5.636
10092SOL    HW231176   2.224   4.177   5.751
10093SOL     OW31177   6.082   5.122   6.208
10093SOL    HW131178   6.048   5.178   6.133
10093SOL    HW231179   6.041   5.153   6.294
10094SOL     OW31180   1.451   1.539   1.931
10094SOL    HW131181   1.443   1.484   1.849
10094SOL    HW231182   1.476   1.481   2.009
10095SOL     OW31183   6.913   0.887   5.849
10095SOL    HW131184   6.886   0.933   5.764
10095SOL    HW231185   7.012   0.878   5.852
10096SOL     OW31186   0.715   5.796   2.759
10096SOL    HW131187   0.699   5.894   2.753
10096SOL    HW231188   0.814   5.778   2.756
10097SOL     OW31189   1.413   0.592   0.257
10097SOL    HW131190   1.409   0.493   0.244
10097SOL    HW231191   1.389   0.614   0.351
10098SOL     OW31192   2.550   4.891   6.545
10098SOL    HW131193   2.483   4.818   6.536
10098SOL    HW231194   2.504   4.977   6.567
10099SOL     OW31195   6.764   4.464   4.709
10099SOL    HW131196   6.819   4.516   4.644
10099SOL    HW231197   6.819   4.442   4.790
10100SOL     OW31198   5.457   0.836   4.642
10100SOL    HW131199   5.460   0.750   4.692
10100SOL    HW231200   5.538   0.891   4.666
10101SOL     OW31201   6.979   4.711   2.508
10101SOL    HW131202   0.008   4.788   2.548
10101SOL    HW231203   0.013   4.628   2.515
10102SOL     OW31204   2.550   1.496   2.313
10102SOL    HW131205   2.525   1.512   2.218
10102SOL    HW231206   2.514   1.407   2.342
10103SOL     OW31207   2.654   2.171   6.310
10103SOL    HW131208   2.679   2.232   6.235
10103SOL    HW231209   2.610   2.089   6.273
10104SOL     OW31210   1.123   6.046   5.156
10104SOL    HW131211   1.167   6.082   5.238
10104SOL    HW231212   1.119   5.947   5.160
10105SOL     OW31213   2.087   0.310   6.526
10105SOL    HW131214   2.125   0.254   6.453
10105SOL    HW231215   2.154   0.317   6.601
10106SOL     OW31216   5.496   6.131   0.188
10106SOL    HW131217   5.436   6.140   0.268
10106SOL    HW231218   5.575   6.074   0.212
10107SOL     OW31219   5.467   1.504   6.208
10107SOL    HW131220   5.508   1.414   6.220
10107SOL    HW231221   5.375   1.505   6.247
10108SOL     OW31222   6.435   6.774   0.467
10108SOL    HW131223   6.513   6.828   0.436
10108SOL    HW231224   6.458   6.727   0.552
10109SOL     OW31225   4.543   5.241   3.666
10109SOL    HW131226   4.540   5.149   3.706
10109SOL    HW231227   4.601   5.300   3.723
10110SOL     OW31228   3.919   0.480   5.848
10110SOL    HW131229   3.842   0.535   5.817
10110SOL    HW231230   3.912   0.388   5.810
10111SOL     OW31231   0.571   2.662   2.769
10111SOL    HW131232   0.601   2.670   2.864
10111SOL    HW231233   0.635   2.605   2.718
10112SOL     OW31234   4.514   4.422   5.496
10112SOL    HW131235   4.466   4.352   5.442
10112SOL    HW231236   4.449   4.488   5.531
10113SOL     OW31237   3.890   6.614   6.959
10113SOL    HW131238   3.970   6.650   6.911
10113SOL    HW231239   3.909   6.612   0.037
10114SOL     OW31240   4.771   0.635   1.466
10114SOL    HW131241   4.727   0.724   1.454
10114SOL    HW231242   4.845   0.625   1.398
10115SOL     OW31243   1.818   2.203   3.888
10115SOL    HW131244   1.753   2.276   3.909
10115SOL    HW231245   1.874   2.230   3.809
10116SOL     OW31246   1.001   1.051   1.206
10116SOL    HW131247   1.094   1.027   1.233
10116SOL    HW231248   0.943   1.060   1.287
10117SOL     OW31249   5.624   0.592   5.871
10117SOL    HW131250   5.703   0.562   5.819
10117SOL    HW231251   5.546   0.532   5.851
10118SOL     OW31252   0.153   5.241   2.068
10118SOL    HW131253   0.243   5.209   2.040
10118SOL    HW231254   0.083   5.179   2.032
10119SOL     OW31255   2.071   1.251   5.375
10119SOL    HW131256   2.080   1.348   5.354
10119SOL    HW231257   2.150   1.221   5.428
10120SOL     OW31258   0.096   2.924   3.982
10120SOL    HW131259   0.112   2.864   3.904
10120SOL    HW231260   7.020   2.919   4.009
10121SOL     OW31261   6.418   4.522   5.095
10121SOL    HW131262   6.431   4.467   5.177
10121SOL    HW231263   6.502   4.520   5.040
10122SOL     OW31264   5.307   3.405   0.465
10122SOL    HW131265   5.229   3.402   0.402
10122SOL    HW231266   5.388   3.369   0.418
10123SOL     OW31267   0.102   5.972   0.326
10123SOL    HW131268   0.116   5.941   0.232
10123SOL    HW231269   0.012   6.013   0.335
10124SOL     OW31270   3.310   4.094   0.100
10124SOL    HW131271   3.403   4.112   0.132
10124SOL    HW231272   3.298   3.995   0.087
10125SOL     OW31273   1.315   0.572   1.783
10125SOL    HW131274   1.317   0.489   1.727
10125SOL    HW231275   1.368   0.556   1.867
10126SOL     OW31276   6.415   5.157   0.677
10126SOL    HW131277   6.405   5.197   0.768
10126SOL    HW231278   6.459   5.223   0.615
10127SOL     OW31279   3.727   5.530   5.442
10127SOL    HW131280   3.673   5.614   5.432
10127SOL    HW231281   3.667   5.451   5.438
10128SOL     OW31282   0.036   2.500   1.256
10128SOL    HW131283   7.004   2.566   1.202
10128SOL    HW231284   6.996   2.433   1.296
10129SOL     OW31285   6.196   2.537   3.135
10129SOL    HW131286   6.220   2.444   3.165
10129SOL    HW231287   6.267   2.572   3.074
10130SOL     OW31288   6.473   5.406   1.280
10130SOL    HW131289   6.490   5.410   1.378
10130SOL    HW231290   6.488   5.313   1.248
10131SOL     OW31291   0.319   0.745   1.268
10131SOL    HW131292   0.247   0.814   1.266
10131SOL    HW231293   0.348   0.724   1.175
10132SOL     OW31294   3.190   6.773   2.651
10132SOL    HW131295   3.114   6.724   2.608
10132SOL    HW231296   3.276   6.744   2.608
10133SOL     OW31297   4.701   5.745   3.459
10133SOL    HW131298   4.796   5.718   3.478
10133SOL    HW231299   4.699   5.841   3.433
10134SOL     OW31300   0.016   1.627   3.096
10134SOL    HW131301   0.045   1.651   3.189
10134SOL    HW231302   6.937   1.633   3.090
10135SOL     OW31303   4.300   5.001   3.006
10135SOL    HW131304   4.256   5.089   2.991
10135SOL    HW231305   4.230   4.933   3.031
10136SOL     OW31306   5.993   6.951   3.559
10136SOL    HW131307   6.058   6.970   3.632
10136SOL    HW231308   5.924   6.887   3.592
10137SOL     OW31309   6.266   5.073   4.095
10137SOL    HW131310   6.178   5.026   4.104
10137SOL    HW231311   6.339   5.006   4.089
10138SOL     OW31312   5.746   2.521   6.700
10138SOL    HW131313   5.789   2.496   6.787
10138SOL    HW231314   5.703   2.611   6.709
10139SOL     OW31315   3.833   2.921   2.975
10139SOL    HW131316   3.742   2.904   2.938
10139SOL    HW231317   3.896   2.851   2.943
10140SOL     OW31318   6.848   5.185   6.719
10140SOL    HW131319   6.905   5.242   6.660
10140SOL    HW231320   6.765   5.157   6.670
10141SOL     OW31321   1.353   0.669   3.979
10141SOL    HW131322   1.432   0.675   4.039
10141SOL    HW231323   1.374   0.713   3.891
10142SOL     OW31324   4.287   5.840   4.738
10142SOL    HW131325   4.236   5.798   4.663
10142SOL    HW231326   4.350   5.908   4.702
10143SOL     OW31327   4.608   0.123   1.311
10143SOL    HW131328   4.679   0.064   1.349
10143SOL    HW231329   4.549   0.069   1.250
10144SOL     OW31330   3.021   5.982   4.494
10144SOL    HW131331   3.002   6.079   4.478
10144SOL    HW231332   3.118   5.964   4.478
10145SOL     OW31333   3.099   6.170   5.589
10145SOL    HW131334   3.166   6.172   5.664
10145SOL    HW231335   3.121   6.096   5.526
10146SOL     OW31336   4.171   5.723   4.525
10146SOL    HW131337   4.257   5.740   4.477
10146SOL    HW231338   4.095   5.765   4.475
10147SOL     OW31339   4.604   4.563   4.565
10147SOL    HW131340   4.585   4.504   4.487
10147SOL    HW231341   4.524   4.565   4.626
10148SOL     OW31342   5.588   5.805   0.547
10148SOL    HW131343   5.582   5.891   0.599
10148SOL    HW231344   5.578   5.825   0.450
10149SOL     OW31345   3.931   2.556   1.204
10149SOL    HW131346   3.967   2.612   1.129
10149SOL    HW231347   3.934   2.459   1.177
10150SOL     OW31348   5.107   4.357   0.907
10150SOL    HW131349   5.205   4.337   0.914
10150SOL    HW231350   5.083   4.372   0.811
10151SOL     OW31351   1.833   6.806   5.723
10151SOL    HW131352   1.761   6.752   5.768
10151SOL    HW231353   1.901   6.745   5.684
10152SOL     OW31354   0.258   5.541   3.316
10152SOL    HW131355   0.168   5.583   3.330
10152SOL    HW231356   0.256   5.487   3.232
10153SOL     OW31357   5.443   6.318   4.487
10153SOL    HW131358   5.355   6.281   4.459
10153SOL    HW231359   5.503   6.242   4.514
10154SOL     OW31360   6.405   5.660   5.789
10154SOL    HW131361   6.441   5.724   5.721
10154SOL    HW231362   6.436   5.567   5.767
10155SOL     OW31363   3.884   0.845   5.859
10155SOL    HW131364   3.931   0.829   5.946
10155SOL    HW231365   3.916   0.932   5.819
10156SOL     OW31366   5.426   0.773   2.548
10156SOL    HW131367   5.366   0.723   2.486
10156SOL    HW231368   5.515   0.728   2.553
10157SOL     OW31369   5.843   1.206   6.374
10157SOL    HW131370   5.830   1.292   6.424
10157SOL    HW231371   5.910   1.220   6.302
10158SOL     OW31372   4.500   3.290   0.237
10158SOL    HW131373   4.581   3.267   0.291
10158SOL    HW231374   4.442   3.210   0.228
10159SOL     OW31375   1.789   2.129   6.085
10159SOL    HW131376   1.746   2.109   5.997
10159SOL    HW231377   1.821   2.044   6.126
10160SOL     OW31378   0.581   5.479   4.023
10160SOL    HW131379   0.559   5.567   3.981
10160SOL    HW231380   0.496   5.432   4.048
10161SOL     OW31381   3.560   5.462   6.422
10161SOL    HW131382   3.467   5.442   6.453
10161SOL    HW231383   3.618   5.481   6.501
10162SOL     OW31384   2.968   2.485   6.518
10162SOL    HW131385   2.930   2.522   6.603
10162SOL    HW231386   3.010   2.559   6.465
10163SOL     OW31387   6.530   3.626   6.024
10163SOL    HW131388   6.512   3.706   5.967
10163SOL    HW231389   6.596   3.566   5.978
10164SOL     OW31390   6.616   2.724   5.329
10164SOL    HW131391   6.621   2.797   5.261
10164SOL    HW231392   6.614   2.764   5.421
10165SOL     OW31393   0.602   2.021   4.558
10165SOL    HW131394   0.633   2.066   4.474
10165SOL    HW231395   0.648   1.933   4.567
10166SOL     OW31396   2.151   1.319   2.055
10166SOL    HW131397   2.204   1.251   2.004
10166SOL    HW231398   2.137   1.400   1.998
10167SOL     OW31399   4.936   0.276   6.815
10167SOL    HW131400   4.952   0.272   6.913
10167SOL    HW231401   4.838   0.275   6.796
10168SOL     OW31402   6.921   4.263   3.952
10168SOL    HW131403   6.828   4.250   3.988
10168SOL    HW231404   6.983   4.197   3.994
10169SOL     OW31405   6.705   4.037   3.678
10169SOL    HW131406   6.609   4.064   3.673
10169SOL    HW231407   6.715   3.941   3.654
10170SOL     OW31408   1.548   4.290   5.051
10170SOL    HW131409   1.577   4.375   5.005
10170SOL    HW231410   1.627   4.231   5.064
10171SOL     OW31411   6.864   4.096   5.592
10171SOL    HW131412   6.849   4.093   5.691
10171SOL    HW231413   6.881   4.003   5.559
10172SOL     OW31414   4.684   0.560   2.631
10172SOL    HW131415   4.740   0.520   2.703
10172SOL    HW231416   4.689   0.660   2.637
10173SOL     OW31417   1.763   1.982   2.079
10173SOL    HW131418   1.764   2.056   2.012
10173SOL    HW231419   1.857   1.957   2.102
10174SOL     OW31420   6.456   4.733   2.598
10174SOL    HW131421   6.405   4.819   2.604
10174SOL    HW231422   6.540   4.748   2.546
10175SOL     OW31423   6.336   2.257   5.584
10175SOL    HW131424   6.303   2.172   5.626
10175SOL    HW231425   6.260   2.302   5.536
10176SOL     OW31426   1.960   3.890   6.880
10176SOL    HW131427   1.927   3.887   6.975
10176SOL    HW231428   1.933   3.978   6.839
10177SOL     OW31429   2.954   6.506   0.240
10177SOL    HW131430   2.881   6.538   0.179
10177SOL    HW231431   2.967   6.573   0.313
10178SOL     OW31432   6.086   2.688   4.730
10178SOL    HW131433   6.037   2.671   4.816
10178SOL    HW231434   6.182   2.708   4.750
10179SOL     OW31435   1.348   2.637   6.190
10179SOL    HW131436   1.309   2.654   6.280
10179SOL    HW231437   1.295   2.566   6.144
10180SOL     OW31438   2.886   5.724   5.686
10180SOL    HW131439   2.979   5.692   5.700
10180SOL    HW231440   2.863   5.719   5.589
10181SOL     OW31441   5.907   3.040   1.038
10181SOL    HW131442   5.881   3.104   1.110
10181SOL    HW231443   5.906   3.086   0.950
10182SOL     OW31444   5.431   1.152   1.442
10182SOL    HW131445   5.526   1.140   1.472
10182SOL    HW231446   5.409   1.250   1.440
10183SOL     OW31447   1.611   1.709   6.294
10183SOL    HW131448   1.573   1.676   6.380
10183SOL    HW231449   1.654   1.634   6.245
10184SOL     OW31450   4.445   1.281   6.469
10184SOL    HW131451   4.461   1.364   6.415
10184SOL    HW231452   4.398   1.213   6.412
10185SOL     OW31453   4.637   6.981   0.947
10185SOL    HW131454   4.586   6.941   0.870
10185SOL    HW231455   4.578   0.024   0.996
10186SOL     OW31456   4.867   2.615   3.120
10186SOL    HW131457   4.922   2.681   3.172
10186SOL    HW231458   4.864   2.642   3.024
10187SOL     OW31459   0.757   2.342   1.820
10187SOL    HW131460   0.802   2.253   1.809
10187SOL    HW231461   0.806   2.395   1.889
10188SOL     OW31462   4.509   6.242   0.809
10188SOL    HW131463   4.436   6.286   0.861
10188SOL    HW231464   4.513   6.280   0.716
10189SOL     OW31465   2.090   6.397   5.320
10189SOL    HW131466   2.087   6.298   5.312
10189SOL    HW231467   1.999   6.431   5.347
10190SOL     OW31468   4.284   2.561   6.812
10190SOL    HW131469   4.345   2.510   6.872
10190SOL    HW231470   4.303   2.659   6.820
10191SOL     OW31471   5.180   4.759   6.955
10191SOL    HW131472   5.192   4.660   6.948
10191SOL    HW231473   5.230   4.793   0.013
10192SOL     OW31474   3.521   1.293   5.808
10192SOL    HW131475   3.427   1.265   5.791
10192SOL    HW231476   3.583   1.216   5.792
10193SOL     OW31477   4.912   4.179   0.552
10193SOL    HW131478   4.965   4.255   0.591
10193SOL    HW231479   4.845   4.148   0.619
10194SOL     OW31480   5.641   4.128   5.628
10194SOL    HW131481   5.721   4.186   5.615
10194SOL    HW231482   5.561   4.186   5.648
10195SOL     OW31483   6.697   4.416   1.452
10195SOL    HW131484   6.727   4.394   1.545
10195SOL    HW231485   6.760   4.482   1.411
10196SOL     OW31486   0.073   1.398   4.734
10196SOL    HW131487   0.071   1.301   4.756
10196SOL    HW231488   0.094   1.450   4.817
10197SOL     OW31489   6.399   0.565   5.811
10197SOL    HW131490   6.317   0.511   5.795
10197SOL    HW231491   6.454   0.523   5.882
10198SOL     OW31492   3.908   0.122   2.679
10198SOL    HW131493   3.910   0.180   2.597
10198SOL    HW231494   3.975   0.049   2.670
10199SOL     OW31495   1.272   2.764   5.950
10199SOL    HW131496   1.328   2.757   6.033
10199SOL    HW231497   1.286   2.682   5.894
10200SOL     OW31498   6.182   3.058   1.060
10200SOL    HW131499   6.214   2.963   1.060
10200SOL    HW231500   6.083   3.060   1.066
10201SOL     OW31501   1.231   3.943   0.893
10201SOL    HW131502   1.208   4.005   0.967
10201SOL    HW231503   1.328   3.918   0.898
10202SOL     OW31504   3.987   0.918   5.491
10202SOL    HW131505   3.890   0.931   5.472
10202SOL    HW231506   4.041   0.973   5.426
10203SOL     OW31507   6.146   2.774   5.135
10203SOL    HW131508   6.144   2.674   5.143
10203SOL    HW231509   6.163   2.800   5.040
10204SOL     OW31510   5.305   6.587   6.269
10204SOL    HW131511   5.238   6.661   6.272
10204SOL    HW231512   5.397   6.626   6.259
10205SOL     OW31513   1.169   0.547   6.506
10205SOL    HW131514   1.151   0.508   6.416
10205SOL    HW231515   1.236   0.621   6.497
10206SOL     OW31516   1.078   0.577   5.696
10206SOL    HW131517   0.986   0.567   5.732
10206SOL    HW231518   1.120   0.660   5.732
10207SOL     OW31519   1.318   1.377   5.477
10207SOL    HW131520   1.289   1.467   5.444
10207SOL    HW231521   1.256   1.307   5.442
10208SOL     OW31522   6.377   4.828   5.237
10208SOL    HW131523   6.301   4.763   5.246
10208SOL    HW231524   6.461   4.786   5.272
10209SOL     OW31525   6.871   6.673   6.554
10209SOL    HW131526   6.943   6.604   6.546
10209SOL    HW231527   6.782   6.630   6.540
10210SOL     OW31528   4.330   5.652   1.927
10210SOL    HW131529   4.250   5.699   1.964
10210SOL    HW231530   4.373   5.596   1.998
10211SOL     OW31531   4.452   5.976   5.546
10211SOL    HW131532   4.384   5.996   5.616
10211SOL    HW231533   4.513   5.904   5.579
10212SOL     OW31534   0.685   0.178   6.119
10212SOL    HW131535   0.600   0.143   6.080
10212SOL    HW231536   0.748   0.202   6.046
10213SOL     OW31537   5.300   1.527   0.684
10213SOL    HW131538   5.315   1.580   0.601
10213SOL    HW231539   5.337   1.576   0.763
10214SOL     OW31540   0.363   2.563   0.928
10214SOL    HW131541   0.417   2.632   0.880
10214SOL    HW231542   0.359   2.586   1.025
10215SOL     OW31543   3.557   3.423   2.705
10215SOL    HW131544   3.571   3.324   2.697
10215SOL    HW231545   3.466   3.446   2.668
10216SOL     OW31546   6.710   6.751   2.298
10216SOL    HW131547   6.787   6.790   2.348
10216SOL    HW231548   6.635   6.818   2.294
10217SOL     OW31549   3.111   1.351   3.514
10217SOL    HW131550   3.080   1.327   3.422
10217SOL    HW231551   3.080   1.282   3.579
10218SOL     OW31552   1.476   2.582   2.688
10218SOL    HW131553   1.416   2.661   2.703
10218SOL    HW231554   1.436   2.501   2.730
10219SOL     OW31555   0.126   0.988   2.136
10219SOL    HW131556   0.160   1.077   2.168
10219SOL    HW231557   0.037   1.000   2.093
10220SOL     OW31558   3.400   2.841   1.853
10220SOL    HW131559   3.403   2.764   1.790
10220SOL    HW231560   3.474   2.905   1.832
10221SOL     OW31561   1.202   6.109   3.131
10221SOL    HW131562   1.152   6.196   3.136
10221SOL    HW231563   1.200   6.074   3.038
10222SOL     OW31564   3.273   4.071   4.524
10222SOL    HW131565   3.360   4.023   4.524
10222SOL    HW231566   3.273   4.141   4.596
10223SOL     OW31567   0.905   5.771   1.576
10223SOL    HW131568   0.937   5.745   1.485
10223SOL    HW231569   0.982   5.770   1.640
10224SOL     OW31570   5.936   3.998   3.285
10224SOL    HW131571   6.021   4.036   3.321
10224SOL    HW231572   5.913   3.915   3.335
10225SOL     OW31573   2.294   3.431   6.165
10225SOL    HW131574   2.325   3.526   6.164
10225SOL    HW231575   2.365   3.373   6.124
10226SOL     OW31576   4.783   2.550   6.963
10226SOL    HW131577   4.725   2.579   0.017
10226SOL    HW231578   4.771   2.452   6.946
10227SOL     OW31579   4.981   3.471   1.129
10227SOL    HW131580   5.048   3.400   1.149
10227SOL    HW231581   5.013   3.558   1.167
10228SOL     OW31582   5.354   0.658   0.985
10228SOL    HW131583   5.276   0.601   0.961
10228SOL    HW231584   5.322   0.745   1.022
10229SOL     OW31585   6.681   3.671   4.336
10229SOL    HW131586   6.744   3.740   4.302
10229SOL    HW231587   6.650   3.696   4.428
10230SOL     OW31588   0.084   6.232   2.184
10230SOL    HW131589   0.149   6.305   2.202
10230SOL    HW231590   0.078   6.173   2.265
10231SOL     OW31591   1.563   5.584   3.236
10231SOL    HW131592   1.497   5.563   3.308
10231SOL    HW231593   1.590   5.680   3.243
10232SOL     OW31594   5.044   5.561   3.878
10232SOL    HW131595   5.133   5.602   3.895
10232SOL    HW231596   4.984   5.579   3.956
10233SOL     OW31597   3.781   4.559   6.369
10233SOL    HW131598   3.715   4.601   6.307
10233SOL    HW231599   3.733   4.500   6.434
10234SOL     OW31600   6.956   1.233   1.785
10234SOL    HW131601   6.972   1.219   1.688
10234SOL    HW231602   6.914   1.323   1.800
10235SOL     OW31603   1.486   1.023   2.947
10235SOL    HW131604   1.554   0.958   2.982
10235SOL    HW231605   1.446   1.073   3.023
10236SOL     OW31606   2.796   0.057   1.409
10236SOL    HW131607   2.840   6.988   1.418
10236SOL    HW231608   2.777   0.093   1.500
10237SOL     OW31609   0.345   3.673   6.078
10237SOL    HW131610   0.285   3.728   6.136
10237SOL    HW231611   0.416   3.731   6.038
10238SOL     OW31612   3.412   6.059   1.167
10238SOL    HW131613   3.349   5.981   1.160
10238SOL    HW231614   3.461   6.053   1.253
10239SOL     OW31615   1.358   2.694   4.446
10239SOL    HW131616   1.394   2.698   4.539
10239SOL    HW231617   1.272   2.642   4.447
10240SOL     OW31618   2.433   6.389   1.124
10240SOL    HW131619   2.363   6.433   1.068
10240SOL    HW231620   2.524   6.417   1.092
10241SOL     OW31621   3.731   2.369   1.556
10241SOL    HW131622   3.691   2.376   1.648
10241SOL    HW231623   3.660   2.381   1.487
10242SOL     OW31624   0.152   2.671   0.011
10242SOL    HW131625   0.243   2.650   6.997
10242SOL    HW231626   0.151   2.657   0.110
10243SOL     OW31627   2.603   5.196   0.873
10243SOL    HW131628   2.639   5.262   0.807
10243SOL    HW231629   2.560   5.120   0.824
10244SOL     OW31630   2.756   4.700   1.314
10244SOL    HW131631   2.691   4.712   1.239
10244SOL    HW231632   2.742   4.611   1.357
10245SOL     OW31633   4.071   3.805   0.707
10245SOL    HW131634   3.995   3.862   0.741
10245SOL    HW231635   4.040   3.711   0.698
10246SOL     OW31636   2.936   3.798   4.402
10246SOL    HW131637   2.896   3.706   4.404
10246SOL    HW231638   2.938   3.835   4.495
10247SOL     OW31639   0.413   2.267   4.929
10247SOL    HW131640   0.429   2.302   4.837
10247SOL    HW231641   0.315   2.273   4.950
10248SOL     OW31642   1.069   0.170   3.234
10248SOL    HW131643   1.051   0.262   3.200
10248SOL    HW231644   0.983   0.123   3.251
10249SOL     OW31645   2.942   5.024   6.379
10249SOL    HW131646   3.003   5.074   6.318
10249SOL    HW231647   2.993   4.951   6.425
10250SOL     OW31648   4.310   2.234   0.275
10250SOL    HW131649   4.228   2.292   0.274
10250SOL    HW231650   4.387   2.285   0.314
10251SOL     OW31651   2.282   6.981   4.021
10251SOL    HW131652   2.360   6.919   4.028
10251SOL    HW231653   2.209   6.950   4.082
10252SOL     OW31654   5.619   4.026   5.966
10252SOL    HW131655   5.681   3.971   5.910
10252SOL    HW231656   5.659   4.116   5.980
10253SOL     OW31657   4.086   6.376   6.354
10253SOL    HW131658   4.123   6.426   6.276
10253SOL    HW231659   4.128   6.408   6.438
10254SOL     OW31660   5.400   1.136   4.613
10254SOL    HW131661   5.415   1.042   4.582
10254SOL    HW231662   5.303   1.157   4.611
10255SOL     OW31663   3.717   5.129   1.999
10255SOL    HW131664   3.718   5.229   1.998
10255SOL    HW231665   3.686   5.095   1.910
10256SOL     OW31666   4.464   1.120   2.887
10256SOL    HW131667   4.531   1.133   2.813
10256SOL    HW231668   4.414   1.206   2.901
10257SOL     OW31669   3.479   5.547   2.776
10257SOL    HW131670   3.440   5.455   2.783
10257SOL    HW231671   3.406   5.611   2.751
10258SOL     OW31672   1.465   1.396   1.696
10258SOL    HW131673   1.395   1.369   1.630
10258SOL    HW231674   1.556   1.370   1.662
10259SOL     OW31675   1.296   4.367   3.185
10259SOL    HW131676   1.232   4.316   3.243
10259SOL    HW231677   1.339   4.440   3.239
10260SOL     OW31678   0.968   0.662   3.558
10260SOL    HW131679   1.003   0.569   3.543
10260SOL    HW231680   0.896   0.681   3.492
10261SOL     OW31681   6.488   3.569   1.003
10261SOL    HW131682   6.465   3.597   0.910
10261SOL    HW231683   6.587   3.554   1.009
10262SOL     OW31684   3.921   1.251   0.208
10262SOL    HW131685   3.889   1.181   0.144
10262SOL    HW231686   3.936   1.337   0.159
10263SOL     OW31687   6.055   0.709   1.482
10263SOL    HW131688   5.996   0.789   1.483
10263SOL    HW231689   6.107   0.706   1.397
10264SOL     OW31690   0.116   5.739   6.162
10264SOL    HW131691   0.154   5.678   6.092
10264SOL    HW231692   0.064   5.685   6.229
10265SOL     OW31693   2.095   1.896   0.435
10265SOL    HW131694   2.030   1.895   0.360
10265SOL    HW231695   2.050   1.867   0.519
10266SOL     OW31696   2.881   3.663   2.167
10266SOL    HW131697   2.928   3.643   2.253
10266SOL    HW231698   2.782   3.656   2.181
10267SOL     OW31699   5.479   1.117   1.114
10267SOL    HW131700   5.386   1.144   1.141
10267SOL    HW231701   5.480   1.020   1.089
10268SOL     OW31702   4.181   0.139   1.234
10268SOL    HW131703   4.237   0.220   1.250
10268SOL    HW231704   4.148   0.140   1.139
10269SOL     OW31705   2.867   2.189   0.507
10269SOL    HW131706   2.767   2.196   0.516
10269SOL    HW231707   2.892   2.193   0.410
10270SOL     OW31708   2.880   6.924   2.333
10270SOL    HW131709   2.802   6.896   2.277
10270SOL    HW231710   2.947   6.850   2.338
10271SOL     OW31711   1.479   2.193   0.023
10271SOL    HW131712   1.389   2.153   0.010
10271SOL    HW231713   1.469   2.287   0.058
10272SOL     OW31714   6.548   0.398   5.043
10272SOL    HW131715   6.480   0.338   5.002
10272SOL    HW231716   6.506   0.450   5.118
10273SOL     OW31717   2.422   4.896   3.133
10273SOL    HW131718   2.475   4.814   3.109
10273SOL    HW231719   2.329   4.886   3.099
10274SOL     OW31720   0.160   5.280   5.420
10274SOL    HW131721   0.125   5.347   5.354
10274SOL    HW231722   0.090   5.262   5.489
10275SOL     OW31723   0.187   0.589   2.906
10275SOL    HW131724   0.190   0.643   2.822
10275SOL    HW231725   0.177   0.492   2.882
10276SOL     OW31726   3.338   5.857   6.083
10276SOL    HW131727   3.408   5.915   6.042
10276SOL    HW231728   3.373   5.816   6.167
10277SOL     OW31729   0.372   6.868   4.240
10277SOL    HW131730   0.392   6.783   4.288
10277SOL    HW231731   0.299   6.852   4.173
10278SOL     OW31732   6.712   0.621   5.455
10278SOL    HW131733   6.780   0.548   5.439
10278SOL    HW231734   6.634   0.582   5.504
10279SOL     OW31735   2.045   5.934   4.006
10279SOL    HW131736   2.056   5.851   3.952
10279SOL    HW231737   1.967   5.923   4.069
10280SOL     OW31738   5.531   4.124   0.534
10280SOL    HW131739   5.443   4.165   0.556
10280SOL    HW231740   5.602   4.166   0.590
10281SOL     OW31741   6.912   2.105   3.976
10281SOL    HW131742   6.815   2.104   4.001
10281SOL    HW231743   6.966   2.135   4.054
10282SOL     OW31744   5.284   3.225   3.267
10282SOL    HW131745   5.256   3.265   3.354
10282SOL    HW231746   5.379   3.197   3.272
10283SOL     OW31747   0.532   3.390   1.032
10283SOL    HW131748   0.572   3.299   1.022
10283SOL    HW231749   0.511   3.428   0.942
10284SOL     OW31750   0.470   3.105   3.751
10284SOL    HW131751   0.376   3.109   3.786
10284SOL    HW231752   0.469   3.109   3.651
10285SOL     OW31753   5.631   6.188   4.973
10285SOL    HW131754   5.568   6.156   5.044
10285SOL    HW231755   5.675   6.109   4.930
10286SOL     OW31756   2.858   1.591   4.334
10286SOL    HW131757   2.792   1.636   4.393
10286SOL    HW231758   2.818   1.508   4.296
10287SOL     OW31759   2.671   5.701   2.646
10287SOL    HW131760   2.725   5.715   2.730
10287SOL    HW231761   2.574   5.713   2.666
10288SOL     OW31762   3.476   6.926   5.523
10288SOL    HW131763   3.533   6.926   5.605
10288SOL    HW231764   3.399   6.988   5.536
10289SOL     OW31765   2.914   6.073   6.520
10289SOL    HW131766   2.977   6.088   6.596
10289SOL    HW231767   2.962   6.083   6.433
10290SOL     OW31768   2.974   3.258   2.350
10290SOL    HW131769   2.968   3.247   2.251
10290SOL    HW231770   3.070   3.266   2.377
10291SOL     OW31771   2.147   1.536   2.450
10291SOL    HW131772   2.213   1.601   2.489
10291SOL    HW231773   2.063   1.585   2.427
10292SOL     OW31774   6.353   6.439   6.852
10292SOL    HW131775   6.343   6.538   6.864
10292SOL    HW231776   6.277   6.393   6.898
10293SOL     OW31777   1.252   4.116   4.383
10293SOL    HW131778   1.332   4.177   4.385
10293SOL    HW231779   1.182   4.151   4.445
10294SOL     OW31780   3.537   1.499   2.121
10294SOL    HW131781   3.596   1.470   2.196
10294SOL    HW231782   3.592   1.543   2.050
10295SOL     OW31783   1.207   2.124   6.929
10295SOL    HW131784   1.184   2.119   0.005
10295SOL    HW231785   1.182   2.214   6.894
10296SOL     OW31786   5.649   1.238   5.870
10296SOL    HW131787   5.573   1.243   5.805
10296SOL    HW231788   5.626   1.290   5.952
10297SOL     OW31789   3.354   1.386   6.898
10297SOL    HW131790   3.382   1.389   6.803
10297SOL    HW231791   3.320   1.475   6.926
10298SOL     OW31792   0.715   2.364   2.818
10298SOL    HW131793   0.639   2.299   2.814
10298SOL    HW231794   0.753   2.376   2.726
10299SOL     OW31795   3.962   6.230   2.912
10299SOL    HW131796   3.992   6.158   2.849
10299SOL    HW231797   4.041   6.285   2.940
10300SOL     OW31798   0.717   3.638   1.841
10300SOL    HW131799   0.792   3.583   1.880
10300SOL    HW231800   0.630   3.591   1.855
10301SOL     OW31801   4.132   0.546   6.313
10301SOL    HW131802   4.067   0.532   6.238
10301SOL    HW231803   4.092   0.512   6.399
10302SOL     OW31804   2.841   6.024   4.773
10302SOL    HW131805   2.931   6.064   4.755
10302SOL    HW231806   2.796   6.006   4.686
10303SOL     OW31807   0.935   6.187   5.023
10303SOL    HW131808   0.865   6.228   5.080
10303SOL    HW231809   0.998   6.134   5.079
10304SOL     OW31810   6.423   6.629   0.235
10304SOL    HW131811   6.427   6.663   0.329
10304SOL    HW231812   6.480   6.547   0.226
10305SOL     OW31813   2.407   4.094   5.914
10305SOL    HW131814   2.501   4.082   5.946
10305SOL    HW231815   2.362   4.005   5.907
10306SOL     OW31816   5.054   0.142   1.247
10306SOL    HW131817   4.990   0.102   1.181
10306SOL    HW231818   5.003   0.188   1.320
10307SOL     OW31819   2.379   0.070   4.983
10307SOL    HW131820   2.357   0.120   5.067
10307SOL    HW231821   2.389   0.134   4.907
10308SOL     OW31822   2.638   4.838   2.842
10308SOL    HW131823   2.642   4.934   2.817
10308SOL    HW231824   2.651   4.781   2.761
10309SOL     OW31825   6.003   0.947   5.006
10309SOL    HW131826   6.080   0.888   5.027
10309SOL    HW231827   5.991   1.015   5.079
10310SOL     OW31828   2.817   3.057   5.758
10310SOL    HW131829   2.793   3.140   5.807
10310SOL    HW231830   2.910   3.066   5.721
10311SOL     OW31831   5.241   6.240   0.291
10311SOL    HW131832   5.295   6.320   0.315
10311SOL    HW231833   5.207   6.249   0.197
10312SOL     OW31834   4.482   0.150   1.976
10312SOL    HW131835   4.399   0.101   1.953
10312SOL    HW231836   4.464   0.213   2.051
10313SOL     OW31837   4.674   6.357   3.071
10313SOL    HW131838   4.738   6.286   3.042
10313SOL    HW231839   4.724   6.430   3.117
10314SOL     OW31840   0.598   0.168   1.102
10314SOL    HW131841   0.686   0.151   1.145
10314SOL    HW231842   0.529   0.108   1.141
10315SOL     OW31843   5.486   6.484   3.744
10315SOL    HW131844   5.510   6.459   3.837
10315SOL    HW231845   5.565   6.472   3.684
10316SOL     OW31846   0.647   2.331   0.150
10316SOL    HW131847   0.548   2.340   0.165
10316SOL    HW231848   0.695   2.406   0.195
10317SOL     OW31849   3.546   6.017   5.975
10317SOL    HW131850   3.634   6.053   6.007
10317SOL    HW231851   3.537   6.033   5.877
10318SOL     OW31852   6.146   6.444   0.360
10318SOL    HW131853   6.119   6.529   0.315
10318SOL    HW231854   6.238   6.417   0.330
10319SOL     OW31855   0.345   4.533   4.409
10319SOL    HW131856   0.327   4.630   4.395
10319SOL    HW231857   0.315   4.482   4.328
10320SOL     OW31858   0.597   6.913   3.909
10320SOL    HW131859   0.617   6.856   3.988
10320SOL    HW231860   0.667   6.899   3.838
10321SOL     OW31861   5.159   2.235   2.113
10321SOL    HW131862   5.144   2.238   2.212
10321SOL    HW231863   5.107   2.308   2.069
10322SOL     OW31864   4.615   4.409   4.895
10322SOL    HW131865   4.606   4.336   4.828
10322SOL    HW231866   4.525   4.428   4.936
10323SOL     OW31867   0.281   4.429   5.313
10323SOL    HW131868   0.363   4.409   5.259
10323SOL    HW231869   0.300   4.414   5.410
10324SOL     OW31870   3.271   3.185   2.328
10324SOL    HW131871   3.205   3.116   2.300
10324SOL    HW231872   3.253   3.270   2.278
10325SOL     OW31873   0.192   5.908   3.182
10325SOL    HW131874   0.207   5.813   3.158
10325SOL    HW231875   0.234   5.967   3.113
10326SOL     OW31876   5.545   3.240   6.536
10326SOL    HW131877   5.512   3.290   6.456
10326SOL    HW231878   5.592   3.303   6.597
10327SOL     OW31879   2.403   3.798   0.819
10327SOL    HW131880   2.479   3.862   0.815
10327SOL    HW231881   2.436   3.705   0.801
10328SOL     OW31882   6.704   3.041   1.560
10328SOL    HW131883   6.783   2.994   1.598
10328SOL    HW231884   6.620   3.005   1.602
10329SOL     OW31885   3.447   1.347   2.872
10329SOL    HW131886   3.474   1.253   2.849
10329SOL    HW231887   3.407   1.348   2.963
10330SOL     OW31888   4.569   0.657   1.734
10330SOL    HW131889   4.520   0.610   1.807
10330SOL    HW231890   4.651   0.701   1.771
10331SOL     OW31891   6.502   5.651   0.331
10331SOL    HW131892   6.580   5.591   0.312
10331SOL    HW231893   6.500   5.726   0.265
10332SOL     OW31894   1.149   0.868   6.954
10332SOL    HW131895   1.074   0.904   7.010
10332SOL    HW231896   1.118   0.786   6.906
10333SOL     OW31897   1.024   5.628   4.844
10333SOL    HW131898   0.996   5.565   4.917
10333SOL    HW231899   0.970   5.713   4.851
10334SOL     OW31900   3.186   0.056   4.019
10334SOL    HW131901   3.137   0.010   3.945
10334SOL    HW231902   3.157   0.018   4.107
10335SOL     OW31903   0.716   2.769   5.977
10335SOL    HW131904   0.620   2.783   5.954
10335SOL    HW231905   0.759   2.858   5.996
10336SOL     OW31906   5.370   0.351   2.988
10336SOL    HW131907   5.312   0.328   2.910
10336SOL    HW231908   5.457   0.389   2.955
10337SOL     OW31909   6.511   5.314   6.924
10337SOL    HW131910   6.487   5.382   6.855
10337SOL    HW231911   6.468   5.227   6.901
10338SOL     OW31912   2.149   6.448   1.879
10338SOL    HW131913   2.212   6.397   1.937
10338SOL    HW231914   2.068   6.474   1.932
10339SOL     OW31915   6.603   2.309   5.850
10339SOL    HW131916   6.618   2.320   5.752
10339SOL    HW231917   6.543   2.382   5.883
10340SOL     OW31918   1.959   3.826   6.520
10340SOL    HW131919   2.034   3.806   6.457
10340SOL    HW231920   1.992   3.821   6.614
10341SOL     OW31921   2.412   2.540   2.814
10341SOL    HW131922   2.429   2.610   2.883
10341SOL    HW231923   2.411   2.582   2.723
10342SOL     OW31924   0.943   0.716   2.958
10342SOL    HW131925   1.031   0.756   2.982
10342SOL    HW231926   0.882   0.720   3.037
10343SOL     OW31927   2.043   5.618   0.926
10343SOL    HW131928   2.108   5.681   0.969
10343SOL    HW231929   2.091   5.558   0.862
10344SOL     OW31930   3.991   4.710   6.376
10344SOL    HW131931   4.002   4.733   6.473
10344SOL    HW231932   3.906   4.660   6.363
10345SOL     OW31933   1.038   3.447   4.791
10345SOL    HW131934   1.115   3.436   4.729
10345SOL    HW231935   1.025   3.543   4.813
10346SOL     OW31936   0.140   5.326   1.398
10346SOL    HW131937   0.186   5.414   1.388
10346SOL    HW231938   0.186   5.257   1.342
10347SOL     OW31939   4.566   1.522   3.615
10347SOL    HW131940   4.610   1.580   3.547
10347SOL    HW231941   4.495   1.574   3.663
10348SOL     OW31942   6.088   4.064   0.424
10348SOL    HW131943   6.067   4.131   0.352
10348SOL    HW231944   6.175   4.088   0.467
10349SOL     OW31945   0.373   6.334   6.673
10349SOL    HW131946   0.389   6.295   6.764
10349SOL    HW231947   0.301   6.403   6.679
10350SOL     OW31948   2.896   0.372   5.761
10350SOL    HW131949   2.872   0.382   5.858
10350SOL    HW231950   2.866   0.282   5.729
10351SOL     OW31951   4.591   5.244   5.428
10351SOL    HW131952   4.527   5.209   5.496
10351SOL    HW231953   4.660   5.300   5.473
10352SOL     OW31954   3.871   2.978   6.091
10352SOL    HW131955   3.801   2.932   6.036
10352SOL    HW231956   3.920   2.910   6.146
10353SOL     OW31957   6.739   2.593   4.938
10353SOL    HW131958   6.704   2.684   4.915
10353SOL    HW231959   6.754   2.541   4.854
10354SOL     OW31960   5.426   1.600   2.307
10354SOL    HW131961   5.358   1.592   2.234
10354SOL    HW231962   5.409   1.530   2.376
10355SOL     OW31963   2.293   5.693   1.921
10355SOL    HW131964   2.334   5.784   1.920
10355SOL    HW231965   2.289   5.659   2.015
10356SOL     OW31966   0.074   3.749   5.123
10356SOL    HW131967   0.029   3.807   5.191
10356SOL    HW231968   0.173   3.762   5.128
10357SOL     OW31969   2.467   1.624   0.055
10357SOL    HW131970   2.417   1.671   0.127
10357SOL    HW231971   2.454   1.525   0.064
10358SOL     OW31972   0.105   1.806   1.603
10358SOL    HW131973   0.051   1.744   1.547
10358SOL    HW231974   0.053   1.832   1.684
10359SOL     OW31975   0.141   0.814   1.573
10359SOL    HW131976   0.221   0.763   1.602
10359SOL    HW231977   0.157   0.852   1.482
10360SOL     OW31978   5.715   6.404   3.583
10360SOL    HW131979   5.801   6.455   3.574
10360SOL    HW231980   5.674   6.391   3.492
10361SOL     OW31981   2.505   4.763   1.194
10361SOL    HW131982   2.410   4.733   1.202
10361SOL    HW231983   2.525   4.828   1.268
10362SOL     OW31984   2.143   4.417   4.790
10362SOL    HW131985   2.159   4.365   4.874
10362SOL    HW231986   2.214   4.486   4.779
10363SOL     OW31987   4.882   0.870   3.957
10363SOL    HW131988   4.862   0.947   4.017
10363SOL    HW231989   4.955   0.896   3.893
10364SOL     OW31990   1.822   4.182   1.430
10364SOL    HW131991   1.872   4.203   1.514
10364SOL    HW231992   1.801   4.084   1.428
10365SOL     OW31993   4.963   5.535   0.135
10365SOL    HW131994   4.993   5.462   0.197
10365SOL    HW231995   4.887   5.502   0.079
10366SOL     OW31996   3.115   6.441   3.366
10366SOL    HW131997   3.176   6.427   3.288
10366SOL    HW231998   3.130   6.369   3.434
10367SOL     OW31999   6.809   2.269   3.608
10367SOL    HW132000   6.788   2.323   3.689
10367SOL    HW232001   6.832   2.331   3.532
10368SOL     OW32002   2.087   0.440   1.450
10368SOL    HW132003   2.071   0.538   1.447
10368SOL    HW232004   2.006   0.392   1.418
10369SOL     OW32005   4.197   2.871   0.076
10369SOL    HW132006   4.224   2.846   7.003
10369SOL    HW232007   4.098   2.867   0.084
10370SOL     OW32008   3.056   0.765   5.415
10370SOL    HW132009   3.154   0.744   5.411
10370SOL    HW232010   3.005   0.681   5.436
10371SOL     OW32011   5.245   6.479   5.675
10371SOL    HW132012   5.252   6.398   5.732
10371SOL    HW232013   5.318   6.543   5.699
10372SOL     OW32014   1.233   0.746   2.816
10372SOL    HW132015   1.255   0.789   2.904
10372SOL    HW232016   1.240   0.647   2.825
10373SOL     OW32017   0.863   6.115   4.756
10373SOL    HW132018   0.862   6.164   4.843
10373SOL    HW232019   0.793   6.044   4.757
10374SOL     OW32020   3.157   2.162   3.367
10374SOL    HW132021   3.088   2.228   3.339
10374SOL    HW232022   3.237   2.171   3.308
10375SOL     OW32023   6.147   2.129   0.570
10375SOL    HW132024   6.067   2.094   0.618
10375SOL    HW232025   6.186   2.206   0.622
10376SOL     OW32026   0.483   1.030   3.959
10376SOL    HW132027   0.435   0.993   3.880
10376SOL    HW232028   0.449   1.122   3.979
10377SOL     OW32029   0.949   6.838   4.682
10377SOL    HW132030   1.000   6.851   4.597
10377SOL    HW232031   0.859   6.882   4.673
10378SOL     OW32032   0.246   6.984   6.556
10378SOL    HW132033   0.214   0.053   6.528
10378SOL    HW232034   0.345   6.988   6.571
10379SOL     OW32035   5.272   1.737   4.413
10379SOL    HW132036   5.348   1.786   4.455
10379SOL    HW232037   5.204   1.802   4.379
10380SOL     OW32038   5.475   0.482   2.255
10380SOL    HW132039   5.501   0.409   2.319
10380SOL    HW232040   5.558   0.525   2.219
10381SOL     OW32041   4.789   5.254   5.190
10381SOL    HW132042   4.809   5.352   5.184
10381SOL    HW232043   4.749   5.234   5.279
10382SOL     OW32044   2.168   5.423   0.236
10382SOL    HW132045   2.258   5.435   0.277
10382SOL    HW232046   2.177   5.377   0.148
10383SOL     OW32047   0.069   2.147   0.176
10383SOL    HW132048   0.169   2.149   0.175
10383SOL    HW232049   0.034   2.237   0.198
10384SOL     OW32050   6.229   6.967   0.225
10384SOL    HW132051   6.311   6.936   0.178
10384SOL    HW232052   6.253   0.017   0.292
10385SOL     OW32053   5.814   1.896   6.696
10385SOL    HW132054   5.764   1.937   6.772
10385SOL    HW232055   5.865   1.966   6.648
10386SOL     OW32056   5.979   2.983   6.059
10386SOL    HW132057   5.942   2.901   6.103
10386SOL    HW232058   6.036   3.033   6.124
10387SOL     OW32059   2.334   2.767   3.339
10387SOL    HW132060   2.409   2.767   3.405
10387SOL    HW232061   2.295   2.675   3.333
10388SOL     OW32062   1.592   4.614   2.993
10388SOL    HW132063   1.538   4.531   3.006
10388SOL    HW232064   1.686   4.589   2.972
10389SOL     OW32065   0.933   5.414   3.380
10389SOL    HW132066   0.946   5.317   3.399
10389SOL    HW232067   0.845   5.444   3.416
10390SOL     OW32068   1.591   3.290   3.502
10390SOL    HW132069   1.625   3.254   3.589
10390SOL    HW232070   1.495   3.315   3.511
10391SOL     OW32071   3.047   6.886   5.907
10391SOL    HW132072   3.082   6.977   5.933
10391SOL    HW232073   2.947   6.888   5.906
10392SOL     OW32074   6.578   5.094   6.581
10392SOL    HW132075   6.501   5.157   6.593
10392SOL    HW232076   6.542   5.001   6.571
10393SOL     OW32077   1.170   1.273   3.862
10393SOL    HW132078   1.165   1.367   3.829
10393SOL    HW232079   1.228   1.269   3.944
10394SOL     OW32080   2.138   6.715   0.022
10394SOL    HW132081   2.153   6.723   6.945
10394SOL    HW232082   2.118   6.620   0.045
10395SOL     OW32083   1.197   1.426   4.391
10395SOL    HW132084   1.280   1.387   4.352
10395SOL    HW232085   1.210   1.524   4.405
10396SOL     OW32086   0.370   0.051   4.869
10396SOL    HW132087   0.455   0.020   4.912
10396SOL    HW232088   0.320   6.993   4.832
10397SOL     OW32089   4.246   1.913   2.516
10397SOL    HW132090   4.238   1.970   2.434
10397SOL    HW232091   4.289   1.965   2.589
10398SOL     OW32092   6.889   2.726   2.687
10398SOL    HW132093   6.966   2.694   2.632
10398SOL    HW232094   6.831   2.786   2.631
10399SOL     OW32095   5.979   1.676   5.433
10399SOL    HW132096   6.016   1.594   5.477
10399SOL    HW232097   5.955   1.744   5.502
10400SOL     OW32098   2.371   4.218   1.293
10400SOL    HW132099   2.308   4.217   1.215
10400SOL    HW232100   2.347   4.144   1.356
10401SOL     OW32101   0.698   6.369   1.111
10401SOL    HW132102   0.692   6.372   1.210
10401SOL    HW232103   0.632   6.433   1.072
10402SOL     OW32104   0.432   3.089   4.224
10402SOL    HW132105   0.339   3.052   4.218
10402SOL    HW232106   0.481   3.069   4.140
10403SOL     OW32107   5.198   1.462   2.204
10403SOL    HW132108   5.156   1.382   2.247
10403SOL    HW232109   5.129   1.534   2.194
10404SOL     OW32110   0.459   6.597   3.675
10404SOL    HW132111   0.522   6.671   3.703
10404SOL    HW232112   0.371   6.637   3.649
10405SOL     OW32113   1.988   6.782   6.434
10405SOL    HW132114   1.904   6.728   6.436
10405SOL    HW232115   2.036   6.766   6.347
10406SOL     OW32116   2.677   5.207   5.983
10406SOL    HW132117   2.654   5.276   6.051
10406SOL    HW232118   2.755   5.154   6.014
10407SOL     OW32119   1.087   1.088   6.772
10407SOL    HW132120   1.129   1.177   6.791
10407SOL    HW232121   1.119   1.022   6.840
10408SOL     OW32122   4.189   5.304   3.323
10408SOL    HW132123   4.282   5.289   3.358
10408SOL    HW232124   4.194   5.343   3.231
10409SOL     OW32125   6.142   4.699   2.309
10409SOL    HW132126   6.097   4.699   2.398
10409SOL    HW232127   6.225   4.754   2.314
10410SOL     OW32128   6.228   6.769   1.119
10410SOL    HW132129   6.173   6.845   1.153
10410SOL    HW232130   6.265   6.792   1.029
10411SOL     OW32131   1.923   4.647   2.628
10411SOL    HW132132   1.947   4.550   2.614
10411SOL    HW232133   1.929   4.695   2.540
10412SOL     OW32134   0.655   1.766   0.123
10412SOL    HW132135   0.585   1.837   0.117
10412SOL    HW232136   0.681   1.752   0.218
10413SOL     OW32137   0.090   2.015   6.445
10413SOL    HW132138   0.084   2.050   6.352
10413SOL    HW232139   0.129   2.085   6.505
10414SOL     OW32140   5.854   0.316   5.185
10414SOL    HW132141   5.887   0.378   5.256
10414SOL    HW232142   5.757   0.295   5.201
10415SOL     OW32143   0.673   6.052   3.682
10415SOL    HW132144   0.593   6.056   3.741
10415SOL    HW232145   0.751   6.017   3.734
10416SOL     OW32146   5.108   0.254   6.604
10416SOL    HW132147   5.047   0.295   6.536
10416SOL    HW232148   5.068   0.265   6.695
10417SOL     OW32149   3.646   4.999   4.597
10417SOL    HW132150   3.575   4.952   4.545
10417SOL    HW232151   3.712   5.041   4.535
10418SOL     OW32152   6.454   3.620   6.747
10418SOL    HW132153   6.378   3.567   6.786
10418SOL    HW232154   6.469   3.591   6.653
10419SOL     OW32155   2.411   1.627   4.450
10419SOL    HW132156   2.375   1.627   4.356
10419SOL    HW232157   2.500   1.672   4.451
10420SOL     OW32158   5.494   3.041   3.277
10420SOL    HW132159   5.582   3.078   3.246
10420SOL    HW232160   5.455   2.984   3.205
10421SOL     OW32161   0.844   5.146   3.701
10421SOL    HW132162   0.896   5.121   3.618
10421SOL    HW232163   0.826   5.063   3.754
10422SOL     OW32164   6.079   3.630   5.134
10422SOL    HW132165   6.168   3.593   5.160
10422SOL    HW232166   6.033   3.567   5.071
10423SOL     OW32167   2.424   4.946   4.051
10423SOL    HW132168   2.491   4.891   4.000
10423SOL    HW232169   2.340   4.893   4.064
10424SOL     OW32170   3.336   1.362   0.347
10424SOL    HW132171   3.307   1.286   0.288
10424SOL    HW232172   3.268   1.435   0.343
10425SOL     OW32173   1.732   2.919   1.164
10425SOL    HW132174   1.818   2.941   1.119
10425SOL    HW232175   1.656   2.964   1.116
10426SOL     OW32176   6.292   1.874   6.331
10426SOL    HW132177   6.252   1.850   6.419
10426SOL    HW232178   6.230   1.845   6.257
10427SOL     OW32179   5.345   1.353   4.294
10427SOL    HW132180   5.338   1.393   4.385
10427SOL    HW232181   5.391   1.264   4.300
10428SOL     OW32182   1.784   0.201   4.744
10428SOL    HW132183   1.814   0.106   4.742
10428SOL    HW232184   1.760   0.227   4.837
10429SOL     OW32185   1.338   3.165   1.039
10429SOL    HW132186   1.346   3.066   1.049
10429SOL    HW232187   1.242   3.191   1.032
10430SOL     OW32188   2.881   0.186   3.980
10430SOL    HW132189   2.901   0.126   3.903
10430SOL    HW232190   2.917   0.278   3.962
10431SOL     OW32191   3.826   0.641   3.158
10431SOL    HW132192   3.729   0.633   3.134
10431SOL    HW232193   3.880   0.585   3.094
10432SOL     OW32194   0.987   5.840   6.270
10432SOL    HW132195   0.969   5.840   6.172
10432SOL    HW232196   1.044   5.920   6.294
10433SOL     OW32197   3.241   6.777   3.232
10433SOL    HW132198   3.336   6.746   3.232
10433SOL    HW232199   3.229   6.849   3.301
10434SOL     OW32200   4.964   0.810   6.029
10434SOL    HW132201   4.865   0.814   6.014
10434SOL    HW232202   4.982   0.812   6.127
10435SOL     OW32203   2.394   1.816   0.460
10435SOL    HW132204   2.485   1.825   0.420
10435SOL    HW232205   2.325   1.835   0.390
10436SOL     OW32206   0.128   3.809   4.835
10436SOL    HW132207   0.209   3.865   4.816
10436SOL    HW232208   0.104   3.817   4.932
10437SOL     OW32209   5.991   6.420   4.437
10437SOL    HW132210   6.036   6.334   4.460
10437SOL    HW232211   5.921   6.440   4.506
10438SOL     OW32212   6.920   5.782   6.772
10438SOL    HW132213   6.842   5.812   6.716
10438SOL    HW232214   7.005   5.806   6.725
10439SOL     OW32215   6.150   5.410   4.537
10439SOL    HW132216   6.102   5.484   4.489
10439SOL    HW232217   6.189   5.347   4.470
10440SOL     OW32218   6.145   2.780   0.938
10440SOL    HW132219   6.190   2.697   0.906
10440SOL    HW232220   6.087   2.817   0.865
10441SOL     OW32221   4.752   1.660   0.007
10441SOL    HW132222   4.828   1.694   6.971
10441SOL    HW232223   4.694   1.737   0.033
10442SOL     OW32224   1.667   1.371   4.893
10442SOL    HW132225   1.692   1.382   4.989
10442SOL    HW232226   1.682   1.458   4.845
10443SOL     OW32227   0.981   1.256   1.040
10443SOL    HW132228   0.986   1.173   1.096
10443SOL    HW232229   1.003   1.234   0.945
10444SOL     OW32230   3.800   4.992   4.339
10444SOL    HW132231   3.886   4.954   4.373
10444SOL    HW232232   3.783   4.959   4.246
10445SOL     OW32233   1.196   3.528   3.586
10445SOL    HW132234   1.211   3.431   3.569
10445SOL    HW232235   1.172   3.542   3.683
10446SOL     OW32236   2.433   4.867   5.750
10446SOL    HW132237   2.430   4.948   5.809
10446SOL    HW232238   2.414   4.894   5.656
10447SOL     OW32239   0.607   2.176   2.428
10447SOL    HW132240   0.564   2.137   2.510
10447SOL    HW232241   0.697   2.135   2.416
10448SOL     OW32242   2.404   6.495   2.069
10448SOL    HW132243   2.406   6.550   1.985
10448SOL    HW232244   2.337   6.535   2.133
10449SOL     OW32245   3.698   4.964   4.866
10449SOL    HW132246   3.608   4.936   4.899
10449SOL    HW232247   3.704   4.950   4.767
10450SOL     OW32248   6.863   0.910   4.897
10450SOL    HW132249   6.764   0.896   4.904
10450SOL    HW232250   6.910   0.823   4.909
10451SOL     OW32251   3.349   1.694   3.646
10451SOL    HW132252   3.439   1.686   3.689
10451SOL    HW232253   3.322   1.605   3.608
10452SOL     OW32254   6.121   2.978   4.686
10452SOL    HW132255   6.029   3.018   4.691
10452SOL    HW232256   6.114   2.880   4.669
10453SOL     OW32257   4.641   6.259   4.103
10453SOL    HW132258   4.552   6.227   4.136
10453SOL    HW232259   4.709   6.188   4.118
10454SOL     OW32260   6.425   1.210   6.620
10454SOL    HW132261   6.510   1.247   6.657
10454SOL    HW232262   6.413   1.116   6.652
10455SOL     OW32263   0.557   6.107   3.350
10455SOL    HW132264   0.567   6.011   3.373
10455SOL    HW232265   0.639   6.139   3.303
10456SOL     OW32266   1.445   5.562   6.497
10456SOL    HW132267   1.429   5.650   6.544
10456SOL    HW232268   1.405   5.488   6.552
10457SOL     OW32269   3.827   1.935   6.475
10457SOL    HW132270   3.919   1.934   6.436
10457SOL    HW232271   3.824   1.876   6.556
10458SOL     OW32272   0.810   5.929   0.038
10458SOL    HW132273   0.893   5.910   7.006
10458SOL    HW232274   0.752   5.848   0.040
10459SOL     OW32275   6.153   5.154   1.443
10459SOL    HW132276   6.248   5.124   1.436
10459SOL    HW232277   6.151   5.247   1.479
10460SOL     OW32278   6.799   0.443   0.698
10460SOL    HW132279   6.861   0.521   0.702
10460SOL    HW232280   6.832   0.377   0.630
10461SOL     OW32281   0.011   4.693   6.623
10461SOL    HW132282   0.110   4.686   6.611
10461SOL    HW232283   7.006   4.789   6.636
10462SOL     OW32284   4.221   3.134   6.272
10462SOL    HW132285   4.275   3.187   6.337
10462SOL    HW232286   4.132   3.178   6.260
10463SOL     OW32287   5.056   2.157   6.502
10463SOL    HW132288   5.154   2.156   6.485
10463SOL    HW232289   5.009   2.104   6.432
10464SOL     OW32290   6.418   4.395   2.571
10464SOL    HW132291   6.417   4.446   2.658
10464SOL    HW232292   6.378   4.453   2.499
10465SOL     OW32293   5.168   4.648   1.275
10465SOL    HW132294   5.188   4.686   1.365
10465SOL    HW232295   5.192   4.551   1.275
10466SOL     OW32296   6.776   4.273   6.081
10466SOL    HW132297   6.807   4.226   5.998
10466SOL    HW232298   6.776   4.371   6.066
10467SOL     OW32299   0.666   3.273   6.845
10467SOL    HW132300   0.723   3.355   6.850
10467SOL    HW232301   0.580   3.289   6.894
10468SOL     OW32302   1.561   4.417   3.465
10468SOL    HW132303   1.540   4.322   3.490
10468SOL    HW232304   1.507   4.479   3.522
10469SOL     OW32305   0.404   1.297   3.934
10469SOL    HW132306   0.368   1.281   3.842
10469SOL    HW232307   0.331   1.285   4.001
10470SOL     OW32308   2.085   3.126   3.134
10470SOL    HW132309   2.116   3.216   3.105
10470SOL    HW232310   2.144   3.093   3.208
10471SOL     OW32311   2.772   6.484   6.818
10471SOL    HW132312   2.781   6.387   6.837
10471SOL    HW232313   2.863   6.527   6.822
10472SOL     OW32314   3.868   4.976   6.837
10472SOL    HW132315   3.770   4.956   6.832
10472SOL    HW232316   3.884   5.072   6.818
10473SOL     OW32317   5.760   4.842   1.069
10473SOL    HW132318   5.805   4.768   1.018
10473SOL    HW232319   5.692   4.803   1.131
10474SOL     OW32320   5.691   0.923   4.786
10474SOL    HW132321   5.739   0.836   4.794
10474SOL    HW232322   5.706   0.978   4.868
10475SOL     OW32323   1.093   5.131   1.113
10475SOL    HW132324   1.034   5.210   1.130
10475SOL    HW232325   1.167   5.156   1.051
10476SOL     OW32326   4.736   6.669   1.195
10476SOL    HW132327   4.778   6.611   1.125
10476SOL    HW232328   4.791   6.668   1.278
10477SOL     OW32329   0.436   5.767   3.241
10477SOL    HW132330   0.488   5.820   3.307
10477SOL    HW232331   0.371   5.708   3.289
10478SOL     OW32332   6.644   0.755   6.960
10478SOL    HW132333   6.730   0.762   7.011
10478SOL    HW232334   6.645   0.821   6.885
10479SOL     OW32335   0.755   3.129   2.091
10479SOL    HW132336   0.837   3.074   2.106
10479SOL    HW232337   0.769   3.188   2.011
10480SOL     OW32338   2.429   0.710   3.569
10480SOL    HW132339   2.447   0.624   3.521
10480SOL    HW232340   2.346   0.701   3.623
10481SOL     OW32341   0.003   1.206   1.522
10481SOL    HW132342   6.976   1.218   1.435
10481SOL    HW232343   0.102   1.214   1.507
10482SOL     OW32344   5.512   2.836   4.164
10482SOL    HW132345   5.477   2.920   4.122
10482SOL    HW232346   5.588   2.859   4.225
10483SOL     OW32347   6.623   6.233   0.428
10483SOL    HW132348   6.674   6.253   0.512
10483SOL    HW232349   6.606   6.135   0.422
10484SOL     OW32350   6.426   1.201   2.716
10484SOL    HW132351   6.382   1.261   2.650
10484SOL    HW232352   6.493   1.252   2.769
10485SOL     OW32353   5.224   3.543   5.490
10485SOL    HW132354   5.164   3.463   5.482
10485SOL    HW232355   5.204   3.592   5.574
10486SOL     OW32356   5.547   3.242   2.007
10486SOL    HW132357   5.633   3.249   1.957
10486SOL    HW232358   5.478   3.301   1.965
10487SOL     OW32359   5.812   6.805   1.596
10487SOL    HW132360   5.790   6.802   1.498
10487SOL    HW232361   5.876   6.880   1.613
10488SOL     OW32362   2.165   2.538   0.083
10488SOL    HW132363   2.067   2.528   0.066
10488SOL    HW232364   2.190   2.485   0.165
10489SOL     OW32365   1.542   5.361   5.170
10489SOL    HW132366   1.450   5.400   5.173
10489SOL    HW232367   1.535   5.261   5.170
10490SOL     OW32368   0.011   0.368   3.967
10490SOL    HW132369   0.013   0.453   3.915
10490SOL    HW232370   6.952   0.314   3.940
10491SOL     OW32371   0.788   4.572   5.581
10491SOL    HW132372   0.705   4.581   5.525
10491SOL    HW232373   0.792   4.480   5.619
10492SOL     OW32374   3.971   4.107   5.738
10492SOL    HW132375   4.044   4.143   5.795
10492SOL    HW232376   3.987   4.009   5.721
10493SOL     OW32377   3.645   1.143   0.972
10493SOL    HW132378   3.711   1.068   0.961
10493SOL    HW232379   3.602   1.136   1.061
10494SOL     OW32380   5.670   2.643   4.538
10494SOL    HW132381   5.641   2.586   4.614
10494SOL    HW232382   5.608   2.629   4.460
10495SOL     OW32383   1.463   7.007   0.055
10495SOL    HW132384   1.491   0.021   0.144
10495SOL    HW232385   1.441   0.062   7.015
10496SOL     OW32386   6.403   0.357   5.382
10496SOL    HW132387   6.398   0.415   5.301
10496SOL    HW232388   6.363   0.267   5.362
10497SOL     OW32389   1.258   1.343   0.767
10497SOL    HW132390   1.285   1.258   0.811
10497SOL    HW232391   1.255   1.416   0.836
10498SOL     OW32392   2.954   5.500   6.182
10498SOL    HW132393   2.947   5.490   6.083
10498SOL    HW232394   2.924   5.415   6.226
10499SOL     OW32395   3.530   5.299   3.256
10499SOL    HW132396   3.569   5.309   3.165
10499SOL    HW232397   3.456   5.233   3.255
10500SOL     OW32398   1.408   2.176   6.701
10500SOL    HW132399   1.402   2.133   6.791
10500SOL    HW232400   1.396   2.106   6.631
10501SOL     OW32401   1.552   2.705   2.999
10501SOL    HW132402   1.582   2.684   3.092
10501SOL    HW232403   1.468   2.757   3.002
10502SOL     OW32404   3.182   6.721   5.705
10502SOL    HW132405   3.139   6.632   5.719
10502SOL    HW232406   3.161   6.781   5.782
10503SOL     OW32407   2.335   3.212   5.754
10503SOL    HW132408   2.427   3.180   5.733
10503SOL    HW232409   2.269   3.140   5.733
10504SOL     OW32410   2.987   2.838   0.865
10504SOL    HW132411   3.037   2.916   0.825
10504SOL    HW232412   3.026   2.753   0.831
10505SOL     OW32413   0.295   6.759   1.225
10505SOL    HW132414   0.201   6.740   1.198
10505SOL    HW232415   0.308   6.857   1.235
10506SOL     OW32416   0.219   4.031   5.564
10506SOL    HW132417   0.155   4.107   5.556
10506SOL    HW232418   0.311   4.066   5.580
10507SOL     OW32419   0.595   0.431   4.974
10507SOL    HW132420   0.589   0.481   4.888
10507SOL    HW232421   0.663   0.357   4.966
10508SOL     OW32422   5.297   4.398   2.942
10508SOL    HW132423   5.225   4.467   2.953
10508SOL    HW232424   5.264   4.310   2.977
10509SOL     OW32425   1.996   0.209   5.598
10509SOL    HW132426   2.079   0.198   5.653
10509SOL    HW232427   1.926   0.258   5.651
10510SOL     OW32428   6.673   5.917   0.288
10510SOL    HW132429   6.646   5.912   0.192
10510SOL    HW232430   6.765   5.880   0.299
10511SOL     OW32431   5.980   2.336   0.176
10511SOL    HW132432   5.940   2.335   0.267
10511SOL    HW232433   5.932   2.270   0.118
10512SOL     OW32434   3.454   6.545   6.805
10512SOL    HW132435   3.426   6.579   6.895
10512SOL    HW232436   3.478   6.623   6.747
10513SOL     OW32437   6.451   2.484   0.228
10513SOL    HW132438   6.369   2.448   0.274
10513SOL    HW232439   6.484   2.565   0.277
10514SOL     OW32440   6.872   3.738   1.433
10514SOL    HW132441   6.876   3.743   1.533
10514SOL    HW232442   6.889   3.828   1.395
10515SOL     OW32443   6.389   2.201   4.396
10515SOL    HW132444   6.480   2.208   4.438
10515SOL    HW232445   6.367   2.289   4.352
10516SOL     OW32446   4.049   0.085   6.606
10516SOL    HW132447   4.087   0.128   6.524
10516SOL    HW232448   4.106   0.107   6.684
10517SOL     OW32449   0.821   1.640   3.148
10517SOL    HW132450   0.789   1.731   3.120
10517SOL    HW232451   0.921   1.639   3.149
10518SOL     OW32452   0.672   6.646   1.027
10518SOL    HW132453   0.575   6.622   1.025
10518SOL    HW232454   0.684   6.731   1.078
10519SOL     OW32455   3.480   3.181   5.920
10519SOL    HW132456   3.493   3.227   5.832
10519SOL    HW232457   3.418   3.103   5.908
10520SOL     OW32458   4.076   3.365   6.737
10520SOL    HW132459   4.060   3.304   6.815
10520SOL    HW232460   3.997   3.361   6.676
10521SOL     OW32461   6.523   5.402   1.558
10521SOL    HW132462   6.557   5.457   1.634
10521SOL    HW232463   6.532   5.305   1.580
10522SOL     OW32464   6.179   0.733   1.734
10522SOL    HW132465   6.127   0.721   1.649
10522SOL    HW232466   6.198   0.643   1.774
10523SOL     OW32467   0.161   5.739   6.542
10523SOL    HW132468   0.259   5.738   6.522
10523SOL    HW232469   0.114   5.797   6.475
10524SOL     OW32470   3.483   0.995   4.435
10524SOL    HW132471   3.573   0.954   4.419
10524SOL    HW232472   3.487   1.050   4.519
10525SOL     OW32473   2.637   6.224   4.571
10525SOL    HW132474   2.653   6.227   4.473
10525SOL    HW232475   2.704   6.280   4.618
10526SOL     OW32476   5.589   6.850   2.411
10526SOL    HW132477   5.608   6.898   2.325
10526SOL    HW232478   5.623   6.756   2.405
10527SOL     OW32479   1.444   2.344   4.745
10527SOL    HW132480   1.398   2.305   4.665
10527SOL    HW232481   1.428   2.286   4.824
10528SOL     OW32482   6.517   5.248   5.426
10528SOL    HW132483   6.455   5.317   5.465
10528SOL    HW232484   6.473   5.159   5.429
10529SOL     OW32485   6.238   6.266   3.530
10529SOL    HW132486   6.251   6.344   3.470
10529SOL    HW232487   6.166   6.206   3.492
10530SOL     OW32488   1.935   1.937   5.883
10530SOL    HW132489   2.009   1.993   5.845
10530SOL    HW232490   1.965   1.897   5.970
10531SOL     OW32491   1.927   2.785   5.322
10531SOL    HW132492   1.971   2.875   5.321
10531SOL    HW232493   1.958   2.734   5.402
10532SOL     OW32494   3.314   2.900   5.512
10532SOL    HW132495   3.380   2.878   5.584
10532SOL    HW232496   3.323   2.833   5.438
10533SOL     OW32497   2.801   1.074   6.113
10533SOL    HW132498   2.742   1.034   6.044
10533SOL    HW232499   2.833   1.003   6.175
10534SOL     OW32500   5.918   5.658   1.160
10534SOL    HW132501   5.890   5.614   1.245
10534SOL    HW232502   6.001   5.711   1.176
10535SOL     OW32503   0.183   1.083   2.459
10535SOL    HW132504   0.261   1.095   2.522
10535SOL    HW232505   0.205   1.125   2.371
10536SOL     OW32506   4.292   0.296   3.168
10536SOL    HW132507   4.195   0.300   3.193
10536SOL    HW232508   4.324   0.201   3.177
10537SOL     OW32509   0.866   4.769   1.160
10537SOL    HW132510   0.961   4.788   1.135
10537SOL    HW232511   0.858   4.766   1.259
10538SOL     OW32512   5.070   3.488   0.309
10538SOL    HW132513   5.031   3.511   0.220
10538SOL    HW232514   4.996   3.476   0.376
10539SOL     OW32515   0.775   2.749   5.661
10539SOL    HW132516   0.802   2.713   5.750
10539SOL    HW232517   0.727   2.678   5.609
10540SOL     OW32518   2.623   0.493   6.612
10540SOL    HW132519   2.544   0.491   6.550
10540SOL    HW232520   2.659   0.400   6.623
10541SOL     OW32521   3.777   2.686   0.641
10541SOL    HW132522   3.765   2.771   0.591
10541SOL    HW232523   3.705   2.677   0.710
10542SOL     OW32524   0.798   2.557   0.233
10542SOL    HW132525   0.890   2.578   0.201
10542SOL    HW232526   0.743   2.641   0.235
10543SOL     OW32527   1.807   1.428   5.407
10543SOL    HW132528   1.853   1.340   5.424
10543SOL    HW232529   1.872   1.502   5.423
10544SOL     OW32530   0.747   2.411   2.271
10544SOL    HW132531   0.665   2.404   2.214
10544SOL    HW232532   0.809   2.335   2.249
10545SOL     OW32533   5.625   0.285   2.340
10545SOL    HW132534   5.721   0.313   2.335
10545SOL    HW232535   5.607   0.241   2.428
10546SOL     OW32536   3.287   0.866   4.296
10546SOL    HW132537   3.207   0.877   4.355
10546SOL    HW232538   3.367   0.908   4.339
10547SOL     OW32539   4.213   1.257   0.962
10547SOL    HW132540   4.303   1.275   0.922
10547SOL    HW232541   4.201   1.158   0.973
10548SOL     OW32542   4.856   4.351   5.023
10548SOL    HW132543   4.841   4.324   5.118
10548SOL    HW232544   4.768   4.374   4.981
10549SOL     OW32545   1.094   0.866   1.930
10549SOL    HW132546   1.130   0.871   1.836
10549SOL    HW232547   1.011   0.921   1.937
10550SOL     OW32548   5.023   0.013   4.896
10550SOL    HW132549   4.992   0.008   4.801
10550SOL    HW232550   5.045   6.942   4.929
10551SOL     OW32551   1.384   2.564   5.550
10551SOL    HW132552   1.380   2.635   5.479
10551SOL    HW232553   1.436   2.598   5.628
10552SOL     OW32554   2.979   2.073   5.130
10552SOL    HW132555   2.952   2.058   5.035
10552SOL    HW232556   3.046   2.147   5.135
10553SOL     OW32557   2.866   4.642   6.855
10553SOL    HW132558   2.893   4.569   6.792
10553SOL    HW232559   2.820   4.715   6.804
10554SOL     OW32560   6.530   4.504   5.789
10554SOL    HW132561   6.628   4.525   5.786
10554SOL    HW232562   6.480   4.586   5.818
10555SOL     OW32563   3.282   2.190   1.089
10555SOL    HW132564   3.363   2.239   1.055
10555SOL    HW232565   3.255   2.228   1.177
10556SOL     OW32566   2.006   3.235   4.373
10556SOL    HW132567   1.920   3.287   4.374
10556SOL    HW232568   2.066   3.270   4.445
10557SOL     OW32569   6.146   2.309   3.928
10557SOL    HW132570   6.100   2.390   3.963
10557SOL    HW232571   6.101   2.279   3.843
10558SOL     OW32572   5.150   6.388   5.220
10558SOL    HW132573   5.063   6.397   5.172
10558SOL    HW232574   5.153   6.453   5.295
10559SOL     OW32575   4.081   2.402   0.317
10559SOL    HW132576   4.032   2.477   0.275
10559SOL    HW232577   4.041   2.381   0.407
10560SOL     OW32578   0.369   2.847   4.543
10560SOL    HW132579   0.396   2.796   4.625
10560SOL    HW232580   0.357   2.784   4.467
10561SOL     OW32581   2.890   4.003   6.869
10561SOL    HW132582   2.966   4.062   6.895
10561SOL    HW232583   2.847   4.040   6.786
10562SOL     OW32584   3.467   1.058   0.341
10562SOL    HW132585   3.457   1.030   0.246
10562SOL    HW232586   3.491   0.979   0.397
10563SOL     OW32587   1.529   1.620   4.363
10563SOL    HW132588   1.447   1.677   4.362
10563SOL    HW232589   1.569   1.616   4.271
10564SOL     OW32590   6.435   2.069   2.124
10564SOL    HW132591   6.430   2.146   2.188
10564SOL    HW232592   6.519   2.018   2.139
10565SOL     OW32593   5.649   1.754   5.014
10565SOL    HW132594   5.652   1.831   5.078
10565SOL    HW232595   5.575   1.768   4.948
10566SOL     OW32596   3.916   4.649   0.022
10566SOL    HW132597   3.927   4.565   0.076
10566SOL    HW232598   3.842   4.704   0.061
10567SOL     OW32599   1.652   4.790   4.131
10567SOL    HW132600   1.718   4.719   4.157
10567SOL    HW232601   1.660   4.867   4.194
10568SOL     OW32602   4.047   1.383   3.201
10568SOL    HW132603   4.044   1.348   3.107
10568SOL    HW232604   3.976   1.453   3.212
10569SOL     OW32605   6.042   3.012   3.873
10569SOL    HW132606   6.037   2.996   3.971
10569SOL    HW232607   6.122   2.965   3.836
10570SOL     OW32608   1.487   4.271   2.578
10570SOL    HW132609   1.550   4.282   2.500
10570SOL    HW232610   1.393   4.270   2.544
10571SOL     OW32611   5.800   0.346   4.212
10571SOL    HW132612   5.720   0.404   4.222
10571SOL    HW232613   5.817   0.296   4.297
10572SOL     OW32614   6.529   3.423   1.995
10572SOL    HW132615   6.578   3.364   1.931
10572SOL    HW232616   6.579   3.428   2.082
10573SOL     OW32617   6.065   4.435   5.778
10573SOL    HW132618   5.966   4.425   5.787
10573SOL    HW232619   6.089   4.443   5.681
10574SOL     OW32620   0.405   1.815   2.662
10574SOL    HW132621   0.446   1.725   2.648
10574SOL    HW232622   0.367   1.820   2.755
10575SOL     OW32623   1.073   0.130   5.474
10575SOL    HW132624   1.027   0.170   5.395
10575SOL    HW232625   1.164   0.099   5.448
10576SOL     OW32626   1.818   4.813   3.430
10576SOL    HW132627   1.795   4.741   3.496
10576SOL    HW232628   1.835   4.772   3.341
10577SOL     OW32629   0.938   2.289   5.271
10577SOL    HW132630   0.988   2.235   5.339
10577SOL    HW232631   0.998   2.311   5.194
10578SOL     OW32632   6.210   0.859   5.782
10578SOL    HW132633   6.236   0.955   5.772
10578SOL    HW232634   6.261   0.818   5.857
10579SOL     OW32635   4.628   0.859   0.620
10579SOL    HW132636   4.632   0.856   0.520
10579SOL    HW232637   4.721   0.869   0.656
10580SOL     OW32638   6.893   6.092   0.410
10580SOL    HW132639   6.803   6.114   0.372
10580SOL    HW232640   6.883   6.030   0.487
10581SOL     OW32641   4.724   1.256   3.933
10581SOL    HW132642   4.763   1.340   3.896
10581SOL    HW232643   4.796   1.203   3.979
10582SOL     OW32644   3.653   4.630   6.862
10582SOL    HW132645   3.674   4.550   6.917
10582SOL    HW232646   3.639   4.709   6.922
10583SOL     OW32647   4.625   1.882   0.992
10583SOL    HW132648   4.530   1.883   1.024
10583SOL    HW232649   4.679   1.946   1.046
10584SOL     OW32650   6.217   0.447   1.732
10584SOL    HW132651   6.186   0.424   1.640
10584SOL    HW232652   6.195   0.371   1.794
10585SOL     OW32653   1.440   4.127   6.504
10585SOL    HW132654   1.368   4.182   6.463
10585SOL    HW232655   1.496   4.184   6.564
10586SOL     OW32656   3.710   0.777   0.266
10586SOL    HW132657   3.748   0.684   0.274
10586SOL    HW232658   3.742   0.833   0.342
10587SOL     OW32659   6.171   3.730   1.401
10587SOL    HW132660   6.088   3.696   1.357
10587SOL    HW232661   6.251   3.694   1.354
10588SOL     OW32662   0.178   5.381   2.817
10588SOL    HW132663   0.186   5.470   2.774
10588SOL    HW232664   0.101   5.381   2.880
10589SOL     OW32665   6.431   1.713   3.941
10589SOL    HW132666   6.457   1.797   3.893
10589SOL    HW232667   6.510   1.679   3.992
10590SOL     OW32668   1.193   0.659   4.189
10590SOL    HW132669   1.251   0.663   4.107
10590SOL    HW232670   1.190   0.749   4.232
10591SOL     OW32671   1.152   2.880   0.790
10591SOL    HW132672   1.176   2.791   0.751
10591SOL    HW232673   1.066   2.872   0.840
10592SOL     OW32674   6.484   1.686   6.919
10592SOL    HW132675   6.428   1.674   7.001
10592SOL    HW232676   6.528   1.776   6.922
10593SOL     OW32677   2.047   4.644   0.699
10593SOL    HW132678   1.999   4.683   0.621
10593SOL    HW232679   2.083   4.717   0.757
10594SOL     OW32680   0.887   2.296   4.362
10594SOL    HW132681   0.963   2.261   4.417
10594SOL    HW232682   0.836   2.219   4.322
10595SOL     OW32683   3.040   6.134   6.003
10595SOL    HW132684   3.014   6.069   5.931
10595SOL    HW232685   3.139   6.149   6.000
10596SOL     OW32686   3.562   1.220   1.215
10596SOL    HW132687   3.549   1.307   1.262
10596SOL    HW232688   3.522   1.146   1.269
10597SOL     OW32689   1.445   6.983   4.448
10597SOL    HW132690   1.408   0.026   4.381
10597SOL    HW232691   1.375   6.961   4.516
10598SOL     OW32692   1.897   1.863   6.981
10598SOL    HW132693   1.983   1.855   6.932
10598SOL    HW232694   1.863   1.957   6.973
10599SOL     OW32695   5.124   1.035   6.926
10599SOL    HW132696   5.114   0.970   6.850
10599SOL    HW232697   5.215   1.076   6.922
10600SOL     OW32698   1.981   2.954   6.126
10600SOL    HW132699   1.982   2.856   6.108
10600SOL    HW232700   2.056   2.997   6.075
10601SOL     OW32701   3.441   6.603   5.702
10601SOL    HW132702   3.347   6.636   5.698
10601SOL    HW232703   3.492   6.654   5.772
10602SOL     OW32704   4.605   1.174   2.078
10602SOL    HW132705   4.689   1.202   2.031
10602SOL    HW232706   4.628   1.116   2.156
10603SOL     OW32707   1.628   5.612   4.716
10603SOL    HW132708   1.663   5.581   4.804
10603SOL    HW232709   1.532   5.585   4.706
10604SOL     OW32710   0.036   4.652   5.222
10604SOL    HW132711   6.960   4.675   5.222
10604SOL    HW232712   0.054   4.583   5.151
10605SOL     OW32713   1.912   4.878   6.768
10605SOL    HW132714   1.832   4.860   6.711
10605SOL    HW232715   1.883   4.920   6.854
10606SOL     OW32716   0.660   0.781   2.635
10606SOL    HW132717   0.729   0.712   2.659
10606SOL    HW232718   0.574   0.736   2.613
10607SOL     OW32719   5.707   5.216   0.229
10607SOL    HW132720   5.616   5.257   0.216
10607SOL    HW232721   5.735   5.228   0.324
10608SOL     OW32722   6.036   1.446   3.295
10608SOL    HW132723   6.111   1.433   3.360
10608SOL    HW232724   6.072   1.445   3.202
10609SOL     OW32725   4.180   6.258   1.873
10609SOL    HW132726   4.201   6.348   1.836
10609SOL    HW232727   4.265   6.207   1.886
10610SOL     OW32728   1.354   3.199   5.411
10610SOL    HW132729   1.292   3.183   5.488
10610SOL    HW232730   1.428   3.260   5.441
10611SOL     OW32731   4.870   2.309   6.650
10611SOL    HW132732   4.777   2.279   6.629
10611SOL    HW232733   4.935   2.259   6.593
10612SOL     OW32734   1.666   6.751   0.887
10612SOL    HW132735   1.567   6.749   0.902
10612SOL    HW232736   1.705   6.663   0.913
10613SOL     OW32737   0.470   6.819   6.182
10613SOL    HW132738   0.459   6.913   6.148
10613SOL    HW232739   0.538   6.818   6.255
10614SOL     OW32740   6.488   1.231   4.715
10614SOL    HW132741   6.494   1.139   4.676
10614SOL    HW232742   6.554   1.240   4.790
10615SOL     OW32743   6.358   5.761   4.967
10615SOL    HW132744   6.393   5.667   4.965
10615SOL    HW232745   6.429   5.822   5.001
10616SOL     OW32746   3.005   5.927   0.324
10616SOL    HW132747   2.932   5.983   0.286
10616SOL    HW232748   3.073   5.986   0.368
10617SOL     OW32749   0.996   2.283   6.809
10617SOL    HW132750   0.949   2.211   6.861
10617SOL    HW232751   0.983   2.266   6.711
10618SOL     OW32752   5.961   3.622   1.205
10618SOL    HW132753   6.026   3.591   1.136
10618SOL    HW232754   5.936   3.546   1.264
10619SOL     OW32755   1.471   4.280   4.052
10619SOL    HW132756   1.525   4.249   3.973
10619SOL    HW232757   1.517   4.357   4.096
10620SOL     OW32758   1.736   5.863   4.705
10620SOL    HW132759   1.698   5.771   4.716
10620SOL    HW232760   1.665   5.930   4.725
10621SOL     OW32761   2.925   6.312   1.207
10621SOL    HW132762   2.978   6.293   1.289
10621SOL    HW232763   2.979   6.285   1.126
10622SOL     OW32764   4.087   1.170   1.493
10622SOL    HW132765   4.160   1.162   1.560
10622SOL    HW232766   4.126   1.178   1.402
10623SOL     OW32767   6.934   1.511   3.585
10623SOL    HW132768   6.944   1.461   3.499
10623SOL    HW232769   6.960   1.452   3.662
10624SOL     OW32770   2.346   1.011   4.204
10624SOL    HW132771   2.331   1.109   4.193
10624SOL    HW232772   2.285   0.960   4.143
10625SOL     OW32773   0.037   3.352   0.019
10625SOL    HW132774   6.984   3.307   6.989
10625SOL    HW232775   0.062   3.438   6.994
10626SOL     OW32776   0.197   2.129   1.594
10626SOL    HW132777   0.227   2.178   1.512
10626SOL    HW232778   0.264   2.060   1.618
10627SOL     OW32779   6.029   5.501   4.146
10627SOL    HW132780   6.015   5.418   4.200
10627SOL    HW232781   6.055   5.576   4.207
10628SOL     OW32782   6.022   5.806   6.055
10628SOL    HW132783   6.011   5.905   6.056
10628SOL    HW232784   5.997   5.769   6.144
10629SOL     OW32785   2.900   5.759   6.289
10629SOL    HW132786   2.899   5.660   6.271
10629SOL    HW232787   2.974   5.801   6.236
10630SOL     OW32788   6.829   1.459   2.866
10630SOL    HW132789   6.747   1.411   2.899
10630SOL    HW232790   6.845   1.539   2.924
10631SOL     OW32791   0.753   6.988   4.597
10631SOL    HW132792   0.665   6.940   4.606
10631SOL    HW232793   0.753   0.020   4.512
10632SOL     OW32794   0.165   2.663   5.127
10632SOL    HW132795   0.088   2.690   5.069
10632SOL    HW232796   0.147   2.572   5.166
10633SOL     OW32797   1.321   4.819   0.947
10633SOL    HW132798   1.364   4.730   0.964
10633SOL    HW232799   1.352   4.855   0.859
10634SOL     OW32800   3.753   6.992   1.977
10634SOL    HW132801   3.849   6.972   1.998
10634SOL    HW232802   3.697   6.970   2.057
10635SOL     OW32803   2.271   1.013   1.231
10635SOL    HW132804   2.299   0.969   1.146
10635SOL    HW232805   2.291   1.111   1.226
10636SOL     OW32806   0.098   2.114   1.921
10636SOL    HW132807   0.110   2.079   1.829
10636SOL    HW232808   0.005   2.094   1.952
10637SOL     OW32809   3.794   4.537   5.328
10637SOL    HW132810   3.857   4.605   5.290
10637SOL    HW232811   3.815   4.447   5.290
10638SOL     OW32812   6.681   0.005   5.255
10638SOL    HW132813   6.733   0.048   5.328
10638SOL    HW232814   6.708   0.045   5.167
10639SOL     OW32815   2.759   1.169   4.857
10639SOL    HW132816   2.707   1.229   4.796
10639SOL    HW232817   2.763   1.209   4.948
10640SOL     OW32818   3.667   6.933   0.454
10640SOL    HW132819   3.764   6.908   0.455
10640SOL    HW232820   3.646   6.992   0.531
10641SOL     OW32821   4.442   0.740   6.613
10641SOL    HW132822   4.427   0.642   6.602
10641SOL    HW232823   4.506   0.755   6.689
10642SOL     OW32824   6.759   3.514   1.020
10642SOL    HW132825   6.791   3.430   1.062
10642SOL    HW232826   6.821   3.539   0.945
10643SOL     OW32827   4.006   3.902   5.500
10643SOL    HW132828   4.069   3.863   5.433
10643SOL    HW232829   3.987   3.997   5.476
10644SOL     OW32830   3.900   1.299   4.720
10644SOL    HW132831   3.880   1.396   4.708
10644SOL    HW232832   3.924   1.258   4.632
10645SOL     OW32833   2.294   0.237   5.180
10645SOL    HW132834   2.294   0.301   5.103
10645SOL    HW232835   2.200   0.223   5.211
10646SOL     OW32836   0.548   4.025   6.865
10646SOL    HW132837   0.505   4.035   6.954
10646SOL    HW232838   0.490   3.967   6.807
10647SOL     OW32839   6.982   4.979   0.381
10647SOL    HW132840   6.894   4.933   0.390
10647SOL    HW232841   7.019   4.997   0.473
10648SOL     OW32842   4.709   4.073   6.574
10648SOL    HW132843   4.663   4.073   6.485
10648SOL    HW232844   4.642   4.073   6.647
10649SOL     OW32845   0.266   4.581   5.910
10649SOL    HW132846   0.360   4.607   5.890
10649SOL    HW232847   0.245   4.494   5.866
10650SOL     OW32848   2.900   6.997   3.775
10650SOL    HW132849   2.963   6.932   3.817
10650SOL    HW232850   2.915   6.999   3.676
10651SOL     OW32851   3.562   6.744   5.903
10651SOL    HW132852   3.595   6.819   5.846
10651SOL    HW232853   3.635   6.715   5.965
10652SOL     OW32854   3.481   0.543   6.990
10652SOL    HW132855   3.392   0.589   6.977
10652SOL    HW232856   3.478   0.454   6.945
10653SOL     OW32857   5.824   3.094   3.740
10653SOL    HW132858   5.754   3.033   3.778
10653SOL    HW232859   5.914   3.066   3.772
10654SOL     OW32860   4.509   0.921   1.301
10654SOL    HW132861   4.424   0.874   1.277
10654SOL    HW232862   4.523   0.915   1.400
10655SOL     OW32863   3.350   5.664   1.764
10655SOL    HW132864   3.271   5.685   1.821
10655SOL    HW232865   3.408   5.598   1.812
10656SOL     OW32866   6.461   3.126   5.970
10656SOL    HW132867   6.446   3.030   5.994
10656SOL    HW232868   6.540   3.160   6.020
10657SOL     OW32869   5.641   0.749   1.540
10657SOL    HW132870   5.710   0.789   1.600
10657SOL    HW232871   5.623   0.810   1.464
10658SOL     OW32872   0.686   5.914   4.869
10658SOL    HW132873   0.757   5.874   4.926
10658SOL    HW232874   0.604   5.856   4.874
10659SOL     OW32875   5.592   0.905   0.903
10659SOL    HW132876   5.643   0.896   0.818
10659SOL    HW232877   5.586   0.816   0.948
10660SOL     OW32878   4.709   5.170   5.793
10660SOL    HW132879   4.654   5.087   5.789
10660SOL    HW232880   4.793   5.151   5.843
10661SOL     OW32881   0.182   0.362   2.460
10661SOL    HW132882   0.132   0.431   2.408
10661SOL    HW232883   0.241   0.407   2.527
10662SOL     OW32884   5.960   1.414   0.513
10662SOL    HW132885   6.001   1.324   0.528
10662SOL    HW232886   5.948   1.460   0.601
10663SOL     OW32887   0.326   0.667   0.094
10663SOL    HW132888   0.267   0.712   0.027
10663SOL    HW232889   0.413   0.717   0.101
10664SOL     OW32890   2.017   4.525   6.914
10664SOL    HW132891   1.940   4.468   6.944
10664SOL    HW232892   1.995   4.567   6.826
10665SOL     OW32893   6.222   0.769   0.102
10665SOL    HW132894   6.262   0.730   0.185
10665SOL    HW232895   6.215   0.697   0.032
10666SOL     OW32896   1.094   7.016   0.291
10666SOL    HW132897   0.997   7.017   0.265
10666SOL    HW232898   1.144   0.061   0.235
10667SOL     OW32899   3.352   2.096   4.979
10667SOL    HW132900   3.432   2.133   5.025
10667SOL    HW232901   3.269   2.131   5.023
10668SOL     OW32902   2.247   1.329   5.960
10668SOL    HW132903   2.202   1.413   5.929
10668SOL    HW232904   2.220   1.253   5.901
10669SOL     OW32905   0.935   6.871   6.503
10669SOL    HW132906   0.969   6.811   6.575
10669SOL    HW232907   0.956   6.832   6.413
10670SOL     OW32908   6.779   5.206   5.417
10670SOL    HW132909   6.683   5.201   5.390
10670SOL    HW232910   6.836   5.196   5.335
10671SOL     OW32911   1.364   1.432   2.845
10671SOL    HW132912   1.397   1.338   2.829
10671SOL    HW232913   1.364   1.450   2.943
10672SOL     OW32914   0.159   2.771   0.860
10672SOL    HW132915   0.066   2.806   0.869
10672SOL    HW232916   0.189   2.778   0.765
10673SOL     OW32917   3.358   3.575   5.016
10673SOL    HW132918   3.435   3.516   4.991
10673SOL    HW232919   3.327   3.625   4.935
10674SOL     OW32920   4.100   1.830   2.265
10674SOL    HW132921   4.021   1.852   2.323
10674SOL    HW232922   4.101   1.890   2.185
10675SOL     OW32923   0.257   1.095   6.365
10675SOL    HW132924   0.224   1.038   6.441
10675SOL    HW232925   0.350   1.126   6.384
10676SOL     OW32926   0.009   0.605   6.789
10676SOL    HW132927   0.068   0.539   6.742
10676SOL    HW232928   6.935   0.571   6.788
10677SOL     OW32929   0.008   0.981   6.997
10677SOL    HW132930   0.016   1.057   0.041
10677SOL    HW232931   6.976   0.907   0.017
10678SOL     OW32932   2.507   6.137   3.437
10678SOL    HW132933   2.541   6.201   3.369
10678SOL    HW232934   2.548   6.047   3.422
10679SOL     OW32935   5.336   4.946   3.792
10679SOL    HW132936   5.268   4.902   3.851
10679SOL    HW232937   5.313   5.042   3.781
10680SOL     OW32938   1.664   2.397   3.515
10680SOL    HW132939   1.757   2.400   3.552
10680SOL    HW232940   1.635   2.302   3.504
10681SOL     OW32941   0.709   1.641   6.105
10681SOL    HW132942   0.792   1.670   6.056
10681SOL    HW232943   0.690   1.705   6.179
10682SOL     OW32944   6.485   1.784   2.990
10682SOL    HW132945   6.472   1.869   2.939
10682SOL    HW232946   6.567   1.792   3.047
10683SOL     OW32947   1.775   1.240   3.854
10683SOL    HW132948   1.827   1.274   3.932
10683SOL    HW232949   1.679   1.267   3.863
10684SOL     OW32950   6.018   6.062   0.562
10684SOL    HW132951   5.996   5.972   0.526
10684SOL    HW232952   5.963   6.132   0.515
10685SOL     OW32953   6.659   1.972   1.894
10685SOL    HW132954   6.604   1.931   1.967
10685SOL    HW232955   6.601   2.032   1.839
10686SOL     OW32956   4.029   4.115   1.068
10686SOL    HW132957   4.088   4.100   1.147
10686SOL    HW232958   3.965   4.038   1.060
10687SOL     OW32959   0.519   4.763   1.951
10687SOL    HW132960   0.524   4.751   2.051
10687SOL    HW232961   0.612   4.768   1.914
10688SOL     OW32962   6.739   5.951   1.849
10688SOL    HW132963   6.771   6.011   1.776
10688SOL    HW232964   6.763   5.991   1.938
10689SOL     OW32965   0.566   0.396   1.958
10689SOL    HW132966   0.550   0.425   1.864
10689SOL    HW232967   0.653   0.434   1.991
10690SOL     OW32968   4.674   6.019   2.001
10690SOL    HW132969   4.581   6.026   1.964
10690SOL    HW232970   4.703   5.923   1.999
10691SOL     OW32971   6.474   1.286   1.323
10691SOL    HW132972   6.519   1.225   1.388
10691SOL    HW232973   6.436   1.365   1.372
10692SOL     OW32974   5.024   6.025   4.877
10692SOL    HW132975   5.058   6.001   4.969
10692SOL    HW232976   4.926   6.045   4.883
10693SOL     OW32977   4.956   2.337   3.344
10693SOL    HW132978   5.006   2.339   3.258
10693SOL    HW232979   4.997   2.403   3.408
10694SOL     OW32980   4.030   5.907   1.031
10694SOL    HW132981   3.937   5.878   1.008
10694SOL    HW232982   4.081   5.829   1.066
10695SOL     OW32983   6.378   3.113   4.911
10695SOL    HW132984   6.369   3.211   4.898
10695SOL    HW232985   6.289   3.074   4.937
10696SOL     OW32986   6.040   7.018   1.681
10696SOL    HW132987   6.109   7.015   1.609
10696SOL    HW232988   5.972   0.067   1.658
10697SOL     OW32989   2.240   5.820   3.276
10697SOL    HW132990   2.263   5.916   3.259
10697SOL    HW232991   2.195   5.782   3.195
10698SOL     OW32992   2.500   0.800   3.324
10698SOL    HW132993   2.417   0.786   3.271
10698SOL    HW232994   2.491   0.757   3.413
10699SOL     OW32995   1.957   2.489   2.864
10699SOL    HW132996   1.921   2.409   2.817
10699SOL    HW232997   1.895   2.566   2.851
10700SOL     OW32998   6.761   0.588   1.694
10700SOL    HW132999   6.771   0.488   1.693
10700SOL    HW233000   6.666   0.612   1.717
10701SOL     OW33001   3.798   6.332   1.342
10701SOL    HW133002   3.725   6.359   1.404
10701SOL    HW233003   3.836   6.244   1.371
10702SOL     OW33004   5.734   3.428   0.894
10702SOL    HW133005   5.685   3.468   0.817
10702SOL    HW233006   5.701   3.468   0.979
10703SOL     OW33007   3.648   2.920   4.222
10703SOL    HW133008   3.556   2.958   4.220
10703SOL    HW233009   3.701   2.954   4.145
10704SOL     OW33010   5.627   6.477   2.133
10704SOL    HW133011   5.541   6.485   2.082
10704SOL    HW233012   5.702   6.460   2.070
10705SOL     OW33013   1.586   3.405   6.652
10705SOL    HW133014   1.672   3.421   6.603
10705SOL    HW233015   1.576   3.473   6.725
10706SOL     OW33016   3.815   2.091   1.528
10706SOL    HW133017   3.806   2.190   1.529
10706SOL    HW233018   3.723   2.050   1.530
10707SOL     OW33019   6.488   0.137   6.046
10707SOL    HW133020   6.417   0.108   5.982
10707SOL    HW233021   6.459   0.116   6.139
10708SOL     OW33022   4.687   1.205   1.697
10708SOL    HW133023   4.733   1.293   1.709
10708SOL    HW233024   4.731   1.155   1.622
10709SOL     OW33025   0.779   6.861   5.972
10709SOL    HW133026   0.818   6.935   6.028
10709SOL    HW233027   0.798   6.773   6.016
10710SOL     OW33028   6.617   5.431   3.330
10710SOL    HW133029   6.608   5.460   3.235
10710SOL    HW233030   6.680   5.352   3.334
10711SOL     OW33031   2.554   6.073   5.035
10711SOL    HW133032   2.639   6.126   5.028
10711SOL    HW233033   2.476   6.132   5.017
10712SOL     OW33034   4.545   1.567   4.902
10712SOL    HW133035   4.565   1.484   4.851
10712SOL    HW233036   4.630   1.613   4.925
10713SOL     OW33037   1.845   6.206   1.146
10713SOL    HW133038   1.826   6.198   1.049
10713SOL    HW233039   1.761   6.229   1.195
10714SOL     OW33040   6.270   5.698   6.019
10714SOL    HW133041   6.309   5.696   5.928
10714SOL    HW233042   6.193   5.762   6.021
10715SOL     OW33043   5.941   1.171   3.711
10715SOL    HW133044   5.958   1.083   3.666
10715SOL    HW233045   5.879   1.157   3.788
10716SOL     OW33046   6.584   1.051   2.560
10716SOL    HW133047   6.665   1.105   2.580
10716SOL    HW233048   6.505   1.087   2.610
10717SOL     OW33049   6.349   6.529   2.243
10717SOL    HW133050   6.380   6.595   2.175
10717SOL    HW233051   6.257   6.554   2.273
10718SOL     OW33052   1.020   3.831   5.746
10718SOL    HW133053   1.039   3.732   5.745
10718SOL    HW233054   0.936   3.849   5.696
10719SOL     OW33055   3.610   0.413   2.521
10719SOL    HW133056   3.573   0.336   2.572
10719SOL    HW233057   3.704   0.430   2.550
10720SOL     OW33058   0.367   3.081   6.789
10720SOL    HW133059   0.298   3.031   6.841
10720SOL    HW233060   0.428   3.016   6.745
10721SOL     OW33061   4.806   2.955   4.650
10721SOL    HW133062   4.791   2.925   4.555
10721SOL    HW233063   4.896   2.926   4.680
10722SOL     OW33064   0.232   4.308   0.562
10722SOL    HW133065   0.169   4.296   0.485
10722SOL    HW233066   0.245   4.406   0.578
10723SOL     OW33067   6.027   4.990   0.481
10723SOL    HW133068   6.117   5.019   0.447
10723SOL    HW233069   6.036   4.962   0.577
10724SOL     OW33070   3.676   6.917   5.729
10724SOL    HW133071   3.684   6.972   5.812
10724SOL    HW233072   3.767   6.896   5.694
10725SOL     OW33073   6.779   0.163   5.049
10725SOL    HW133074   6.772   0.100   4.972
10725SOL    HW233075   6.706   0.231   5.044
10726SOL     OW33076   5.874   1.495   4.540
10726SOL    HW133077   5.943   1.431   4.507
10726SOL    HW233078   5.833   1.460   4.623
10727SOL     OW33079   2.551   6.510   6.994
10727SOL    HW133080   2.513   6.599   6.969
10727SOL    HW233081   2.637   6.495   6.946
10728SOL     OW33082   5.779   6.154   3.693
10728SOL    HW133083   5.827   6.184   3.776
10728SOL    HW233084   5.742   6.234   3.645
10729SOL     OW33085   5.868   3.079   4.669
10729SOL    HW133086   5.856   3.173   4.638
10729SOL    HW233087   5.789   3.052   4.725
10730SOL     OW33088   1.857   5.465   3.930
10730SOL    HW133089   1.891   5.433   4.018
10730SOL    HW233090   1.850   5.388   3.867
10731SOL     OW33091   4.783   5.970   6.655
10731SOL    HW133092   4.862   5.951   6.714
10731SOL    HW233093   4.780   6.067   6.634
10732SOL     OW33094   6.111   5.951   2.976
10732SOL    HW133095   6.137   5.971   3.071
10732SOL    HW233096   6.180   5.990   2.914
10733SOL     OW33097   0.600   1.408   6.033
10733SOL    HW133098   0.629   1.502   6.049
10733SOL    HW233099   0.602   1.389   5.934
10734SOL     OW33100   1.602   0.208   4.539
10734SOL    HW133101   1.673   0.197   4.609
10734SOL    HW233102   1.565   0.118   4.516
10735SOL     OW33103   7.001   6.607   2.057
10735SOL    HW133104   0.078   6.620   2.046
10735SOL    HW233105   6.959   6.693   2.084
10736SOL     OW33106   5.115   6.121   3.384
10736SOL    HW133107   5.025   6.165   3.392
10736SOL    HW233108   5.160   6.120   3.473
10737SOL     OW33109   6.141   1.088   1.442
10737SOL    HW133110   6.142   1.139   1.529
10737SOL    HW233111   6.057   1.035   1.436
10738SOL     OW33112   3.357   0.203   0.770
10738SOL    HW133113   3.416   0.224   0.848
10738SOL    HW233114   3.336   0.287   0.720
10739SOL     OW33115   5.634   3.112   4.010
10739SOL    HW133116   5.691   3.164   3.947
10739SOL    HW233117   5.672   3.118   4.102
10740SOL     OW33118   3.078   0.505   6.048
10740SOL    HW133119   3.059   0.598   6.017
10740SOL    HW233120   3.025   0.440   5.993
10741SOL     OW33121   1.557   2.160   3.441
10741SOL    HW133122   1.520   2.073   3.471
10741SOL    HW233123   1.561   2.163   3.341
10742SOL     OW33124   6.504   6.954   2.260
10742SOL    HW133125   6.434   6.905   2.208
10742SOL    HW233126   6.466   6.985   2.347
10743SOL     OW33127   3.224   1.656   5.549
10743SOL    HW133128   3.240   1.569   5.503
10743SOL    HW233129   3.217   1.729   5.482
10744SOL     OW33130   2.647   1.109   0.735
10744SOL    HW133131   2.632   1.167   0.654
10744SOL    HW233132   2.741   1.122   0.768
10745SOL     OW33133   2.372   4.475   1.391
10745SOL    HW133134   2.373   4.387   1.343
10745SOL    HW233135   2.350   4.548   1.327
10746SOL     OW33136   2.500   5.833   6.542
10746SOL    HW133137   2.514   5.837   6.443
10746SOL    HW233138   2.411   5.873   6.564
10747SOL     OW33139   6.853   1.478   4.627
10747SOL    HW133140   6.946   1.456   4.655
10747SOL    HW233141   6.854   1.521   4.537
10748SOL     OW33142   3.258   6.826   1.855
10748SOL    HW133143   3.164   6.849   1.881
10748SOL    HW233144   3.271   6.848   1.758
10749SOL     OW33145   5.953   4.333   1.706
10749SOL    HW133146   5.914   4.255   1.755
10749SOL    HW233147   6.051   4.338   1.726
10750SOL     OW33148   4.145   2.260   4.606
10750SOL    HW133149   4.230   2.303   4.634
10750SOL    HW233150   4.160   2.206   4.523
10751SOL     OW33151   0.113   5.574   4.196
10751SOL    HW133152   0.124   5.482   4.235
10751SOL    HW233153   0.201   5.620   4.193
10752SOL     OW33154   6.718   6.240   0.676
10752SOL    HW133155   6.678   6.263   0.764
10752SOL    HW233156   6.747   6.144   0.675
10753SOL     OW33157   4.810   0.522   4.551
10753SOL    HW133158   4.904   0.495   4.570
10753SOL    HW233159   4.809   0.596   4.483
10754SOL     OW33160   0.985   4.935   2.249
10754SOL    HW133161   1.007   4.890   2.162
10754SOL    HW233162   0.985   4.867   2.323
10755SOL     OW33163   0.317   2.697   1.209
10755SOL    HW133164   0.396   2.664   1.260
10755SOL    HW233165   0.236   2.644   1.236
10756SOL     OW33166   1.622   0.868   0.390
10756SOL    HW133167   1.710   0.915   0.398
10756SOL    HW233168   1.566   0.887   0.470
10757SOL     OW33169   0.789   2.678   2.294
10757SOL    HW133170   0.795   2.578   2.290
10757SOL    HW233171   0.737   2.712   2.216
10758SOL     OW33172   0.635   0.529   0.074
10758SOL    HW133173   0.589   0.443   0.050
10758SOL    HW233174   0.733   0.520   0.054
10759SOL     OW33175   2.925   3.025   5.383
10759SOL    HW133176   2.976   3.001   5.300
10759SOL    HW233177   2.973   2.990   5.463
10760SOL     OW33178   1.015   4.398   6.693
10760SOL    HW133179   0.920   4.406   6.662
10760SOL    HW233180   1.018   4.400   6.793
10761SOL     OW33181   1.111   1.658   5.676
10761SOL    HW133182   1.099   1.751   5.709
10761SOL    HW233183   1.173   1.608   5.737
10762SOL     OW33184   2.813   6.430   6.429
10762SOL    HW133185   2.764   6.498   6.485
10762SOL    HW233186   2.813   6.342   6.477
10763SOL     OW33187   4.753   0.751   3.071
10763SOL    HW133188   4.689   0.788   3.004
10763SOL    HW233189   4.839   0.727   3.025
10764SOL     OW33190   5.563   6.551   4.685
10764SOL    HW133191   5.589   6.489   4.612
10764SOL    HW233192   5.484   6.605   4.656
10765SOL     OW33193   0.669   1.370   1.470
10765SOL    HW133194   0.729   1.373   1.390
10765SOL    HW233195   0.581   1.411   1.445
10766SOL     OW33196   2.497   5.228   6.865
10766SOL    HW133197   2.592   5.219   6.832
10766SOL    HW233198   2.474   5.325   6.874
10767SOL     OW33199   1.649   5.291   6.873
10767SOL    HW133200   1.713   5.268   6.947
10767SOL    HW233201   1.565   5.237   6.884
10768SOL     OW33202   5.171   6.345   6.868
10768SOL    HW133203   5.124   6.421   6.913
10768SOL    HW233204   5.105   6.273   6.846
10769SOL     OW33205   2.895   3.393   4.632
10769SOL    HW133206   2.939   3.306   4.655
10769SOL    HW233207   2.921   3.462   4.699
10770SOL     OW33208   5.610   6.902   3.467
10770SOL    HW133209   5.553   6.910   3.385
10770SOL    HW233210   5.602   6.810   3.505
10771SOL     OW33211   4.739   5.727   5.861
10771SOL    HW133212   4.767   5.784   5.939
10771SOL    HW233213   4.643   5.745   5.839
10772SOL     OW33214   6.071   4.966   2.244
10772SOL    HW133215   6.068   4.869   2.221
10772SOL    HW233216   6.063   5.021   2.160
10773SOL     OW33217   0.363   4.152   1.622
10773SOL    HW133218   0.451   4.147   1.669
10773SOL    HW233219   0.358   4.235   1.568
10774SOL     OW33220   1.028   3.437   0.712
10774SOL    HW133221   1.117   3.431   0.758
10774SOL    HW233222   0.956   3.421   0.779
10775SOL     OW33223   1.684   3.995   0.459
10775SOL    HW133224   1.601   3.940   0.474
10775SOL    HW233225   1.763   3.945   0.493
10776SOL     OW33226   0.468   2.765   3.745
10776SOL    HW133227   0.525   2.688   3.773
10776SOL    HW233228   0.516   2.819   3.677
10777SOL     OW33229   1.835   0.357   1.076
10777SOL    HW133230   1.753   0.376   1.023
10777SOL    HW233231   1.892   0.291   1.028
10778SOL     OW33232   4.749   0.525   3.225
10778SOL    HW133233   4.831   0.469   3.213
10778SOL    HW233234   4.764   0.616   3.184
10779SOL     OW33235   5.696   3.129   5.967
10779SOL    HW133236   5.680   3.049   5.909
10779SOL    HW233237   5.791   3.158   5.957
10780SOL     OW33238   2.234   5.183   4.553
10780SOL    HW133239   2.174   5.151   4.480
10780SOL    HW233240   2.246   5.282   4.547
10781SOL     OW33241   5.696   2.247   4.639
10781SOL    HW133242   5.601   2.269   4.660
10781SOL    HW233243   5.711   2.254   4.540
10782SOL     OW33244   0.908   1.738   5.952
10782SOL    HW133245   0.997   1.769   5.985
10782SOL    HW233246   0.882   1.792   5.871
10783SOL     OW33247   0.915   2.507   3.667
10783SOL    HW133248   0.907   2.473   3.574
10783SOL    HW233249   0.852   2.458   3.726
10784SOL     OW33250   4.142   5.830   3.414
10784SOL    HW133251   4.084   5.750   3.399
10784SOL    HW233252   4.103   5.908   3.365
10785SOL     OW33253   1.904   5.288   1.964
10785SOL    HW133254   1.909   5.362   2.031
10785SOL    HW233255   1.984   5.293   1.904
10786SOL     OW33256   4.486   2.071   2.236
10786SOL    HW133257   4.466   1.973   2.237
10786SOL    HW233258   4.570   2.088   2.288
10787SOL     OW33259   3.799   2.036   3.541
10787SOL    HW133260   3.720   2.082   3.498
10787SOL    HW233261   3.868   2.104   3.565
10788SOL     OW33262   1.592   4.236   0.552
10788SOL    HW133263   1.639   4.152   0.528
10788SOL    HW233264   1.501   4.237   0.511
10789SOL     OW33265   6.337   1.384   2.475
10789SOL    HW133266   6.246   1.425   2.480
10789SOL    HW233267   6.337   1.313   2.405
10790SOL     OW33268   0.072   1.742   5.694
10790SOL    HW133269   0.121   1.708   5.774
10790SOL    HW233270   0.124   1.816   5.651
10791SOL     OW33271   1.960   2.484   3.285
10791SOL    HW133272   1.982   2.534   3.369
10791SOL    HW233273   1.919   2.396   3.309
10792SOL     OW33274   3.349   1.729   2.203
10792SOL    HW133275   3.432   1.777   2.232
10792SOL    HW233276   3.372   1.664   2.131
10793SOL     OW33277   3.957   1.942   4.548
10793SOL    HW133278   3.998   1.887   4.475
10793SOL    HW233279   4.007   1.927   4.633
10794SOL     OW33280   5.479   1.962   0.665
10794SOL    HW133281   5.394   1.969   0.717
10794SOL    HW233282   5.552   1.930   0.725
10795SOL     OW33283   0.171   3.517   3.165
10795SOL    HW133284   0.191   3.576   3.087
10795SOL    HW233285   0.075   3.527   3.191
10796SOL     OW33286   7.009   0.192   6.184
10796SOL    HW133287   7.000   0.280   6.136
10796SOL    HW233288   6.979   0.118   6.123
10797SOL     OW33289   4.223   4.617   0.466
10797SOL    HW133290   4.272   4.546   0.416
10797SOL    HW233291   4.169   4.576   0.539
10798SOL     OW33292   2.191   6.204   6.646
10798SOL    HW133293   2.111   6.229   6.701
10798SOL    HW233294   2.209   6.276   6.579
10799SOL     OW33295   2.828   1.283   2.767
10799SOL    HW133296   2.791   1.323   2.684
10799SOL    HW233297   2.766   1.212   2.801
10800SOL     OW33298   2.419   0.107   5.570
10800SOL    HW133299   2.324   0.116   5.598
10800SOL    HW233300   2.430   0.024   5.515
10801SOL     OW33301   3.110   6.431   5.927
10801SOL    HW133302   3.064   6.351   5.966
10801SOL    HW233303   3.183   6.460   5.989
10802SOL     OW33304   0.476   5.378   4.330
10802SOL    HW133305   0.495   5.288   4.290
10802SOL    HW233306   0.561   5.426   4.346
10803SOL     OW33307   0.171   4.469   4.635
10803SOL    HW133308   0.085   4.507   4.601
10803SOL    HW233309   0.234   4.454   4.558
10804SOL     OW33310   5.088   4.820   0.918
10804SOL    HW133311   5.010   4.768   0.953
10804SOL    HW233312   5.173   4.774   0.945
10805SOL     OW33313   3.867   6.564   0.448
10805SOL    HW133314   3.883   6.593   0.353
10805SOL    HW233315   3.909   6.475   0.463
10806SOL     OW33316   5.980   4.558   6.324
10806SOL    HW133317   6.019   4.568   6.233
10806SOL    HW233318   5.923   4.638   6.345
10807SOL     OW33319   3.968   1.523   4.452
10807SOL    HW133320   3.887   1.577   4.430
10807SOL    HW233321   4.004   1.550   4.541
10808SOL     OW33322   6.761   2.137   6.994
10808SOL    HW133323   6.714   2.214   0.016
10808SOL    HW233324   6.811   2.085   0.043
10809SOL     OW33325   2.709   1.442   1.972
10809SOL    HW133326   2.778   1.436   1.900
10809SOL    HW233327   2.753   1.465   2.059
10810SOL     OW33328   1.911   1.472   6.445
10810SOL    HW133329   1.847   1.403   6.477
10810SOL    HW233330   1.921   1.464   6.345
10811SOL     OW33331   4.858   4.832   6.517
10811SOL    HW133332   4.781   4.896   6.519
10811SOL    HW233333   4.846   4.768   6.441
10812SOL     OW33334   6.606   2.540   1.920
10812SOL    HW133335   6.613   2.564   2.017
10812SOL    HW233336   6.534   2.595   1.878
10813SOL     OW33337   3.349   5.867   2.331
10813SOL    HW133338   3.377   5.937   2.397
10813SOL    HW233339   3.379   5.777   2.363
10814SOL     OW33340   2.088   5.736   4.696
10814SOL    HW133341   1.989   5.732   4.711
10814SOL    HW233342   2.132   5.667   4.753
10815SOL     OW33343   4.865   2.307   4.089
10815SOL    HW133344   4.902   2.325   4.180
10815SOL    HW233345   4.782   2.253   4.096
10816SOL     OW33346   2.179   2.408   2.060
10816SOL    HW133347   2.202   2.404   1.962
10816SOL    HW233348   2.262   2.401   2.114
10817SOL     OW33349   4.384   0.413   2.162
10817SOL    HW133350   4.448   0.470   2.214
10817SOL    HW233351   4.309   0.386   2.221
10818SOL     OW33352   4.611   2.841   6.951
10818SOL    HW133353   4.661   2.762   6.916
10818SOL    HW233354   4.658   2.879   0.009
10819SOL     OW33355   0.674   3.752   5.720
10819SOL    HW133356   0.713   3.798   5.640
10819SOL    HW233357   0.726   3.668   5.738
10820SOL     OW33358   6.938   0.236   4.384
10820SOL    HW133359   6.931   0.199   4.476
10820SOL    HW233360   6.969   0.330   4.388
10821SOL     OW33361   6.974   6.940   0.762
10821SOL    HW133362   6.968   6.841   0.762
10821SOL    HW233363   0.047   6.968   0.783
10822SOL     OW33364   0.033   4.129   0.258
10822SOL    HW133365   0.117   4.170   0.223
10822SOL    HW233366   0.024   4.035   0.224
10823SOL     OW33367   1.980   2.142   1.359
10823SOL    HW133368   1.940   2.210   1.420
10823SOL    HW233369   2.072   2.120   1.389
10824SOL     OW33370   5.484   0.774   3.271
10824SOL    HW133371   5.385   0.768   3.278
10824SOL    HW233372   5.523   0.681   3.270
10825SOL     OW33373   3.715   0.839   1.932
10825SOL    HW133374   3.735   0.935   1.950
10825SOL    HW233375   3.727   0.786   2.016
10826SOL     OW33376   6.467   2.865   1.166
10826SOL    HW133377   6.559   2.834   1.191
10826SOL    HW233378   6.458   2.962   1.186
10827SOL     OW33379   1.241   3.172   4.057
10827SOL    HW133380   1.142   3.180   4.063
10827SOL    HW233381   1.267   3.075   4.062
10828SOL     OW33382   1.027   5.675   0.208
10828SOL    HW133383   0.964   5.604   0.176
10828SOL    HW233384   0.976   5.749   0.251
10829SOL     OW33385   2.161   3.615   1.664
10829SOL    HW133386   2.137   3.610   1.761
10829SOL    HW233387   2.258   3.593   1.653
10830SOL     OW33388   4.835   1.496   3.253
10830SOL    HW133389   4.828   1.504   3.154
10830SOL    HW233390   4.882   1.410   3.276
10831SOL     OW33391   5.858   3.276   2.246
10831SOL    HW133392   5.861   3.368   2.207
10831SOL    HW233393   5.793   3.274   2.322
10832SOL     OW33394   0.227   3.321   2.964
10832SOL    HW133395   0.193   3.374   3.041
10832SOL    HW233396   0.150   3.285   2.911
10833SOL     OW33397   2.613   6.968   3.843
10833SOL    HW133398   2.594   0.035   3.886
10833SOL    HW233399   2.710   6.964   3.818
10834SOL     OW33400   6.880   1.032   5.574
10834SOL    HW133401   6.881   0.991   5.483
10834SOL    HW233402   6.798   1.088   5.584
10835SOL     OW33403   6.953   2.966   1.666
10835SOL    HW133404   6.982   2.910   1.588
10835SOL    HW233405   6.981   3.061   1.651
10836SOL     OW33406   2.037   3.151   0.833
10836SOL    HW133407   2.104   3.079   0.812
10836SOL    HW233408   2.062   3.196   0.918
10837SOL     OW33409   1.425   5.847   1.090
10837SOL    HW133410   1.337   5.847   1.043
10837SOL    HW233411   1.448   5.754   1.117
10838SOL     OW33412   6.473   6.891   0.105
10838SOL    HW133413   6.478   6.801   0.147
10838SOL    HW233414   6.516   6.959   0.164
10839SOL     OW33415   1.922   1.598   0.044
10839SOL    HW133416   1.918   1.693   0.013
10839SOL    HW233417   1.980   1.545   7.004
10840SOL     OW33418   3.301   6.451   2.347
10840SOL    HW133419   3.374   6.444   2.280
10840SOL    HW233420   3.325   6.518   2.417
10841SOL     OW33421   5.086   2.789   6.645
10841SOL    HW133422   5.002   2.735   6.647
10841SOL    HW233423   5.077   2.861   6.577
10842SOL     OW33424   6.019   2.936   1.466
10842SOL    HW133425   6.106   2.973   1.433
10842SOL    HW233426   5.974   2.886   1.391
10843SOL     OW33427   6.980   1.538   1.594
10843SOL    HW133428   6.943   1.567   1.506
10843SOL    HW233429   0.036   1.476   1.579
10844SOL     OW33430   3.618   0.203   3.450
10844SOL    HW133431   3.550   0.225   3.519
10844SOL    HW233432   3.586   0.126   3.394
10845SOL     OW33433   2.407   3.071   1.002
10845SOL    HW133434   2.472   3.072   0.926
10845SOL    HW233435   2.458   3.066   1.088
10846SOL     OW33436   4.001   1.805   1.769
10846SOL    HW133437   3.968   1.711   1.765
10846SOL    HW233438   3.923   1.867   1.776
10847SOL     OW33439   4.593   2.821   5.916
10847SOL    HW133440   4.642   2.809   5.830
10847SOL    HW233441   4.658   2.817   5.992
10848SOL     OW33442   1.404   0.836   6.811
10848SOL    HW133443   1.320   0.835   6.865
10848SOL    HW233444   1.478   0.793   6.862
10849SOL     OW33445   2.141   5.382   3.768
10849SOL    HW133446   2.175   5.445   3.838
10849SOL    HW233447   2.066   5.425   3.718
10850SOL     OW33448   5.704   0.633   2.282
10850SOL    HW133449   5.731   0.700   2.212
10850SOL    HW233450   5.782   0.573   2.301
10851SOL     OW33451   4.296   1.737   6.745
10851SOL    HW133452   4.395   1.737   6.732
10851SOL    HW233453   4.251   1.737   6.655
10852SOL     OW33454   0.197   0.484   5.665
10852SOL    HW133455   0.234   0.484   5.757
10852SOL    HW233456   0.216   0.397   5.620
10853SOL     OW33457   2.355   0.804   4.663
10853SOL    HW133458   2.294   0.726   4.654
10853SOL    HW233459   2.449   0.772   4.674
10854SOL     OW33460   6.948   6.117   0.987
10854SOL    HW133461   6.857   6.091   0.956
10854SOL    HW233462   6.943   6.158   1.078
10855SOL     OW33463   0.928   5.306   1.369
10855SOL    HW133464   0.876   5.370   1.426
10855SOL    HW233465   1.006   5.270   1.421
10856SOL     OW33466   6.031   0.360   6.787
10856SOL    HW133467   5.983   0.338   6.702
10856SOL    HW233468   6.042   0.276   6.841
10857SOL     OW33469   6.578   0.570   4.844
10857SOL    HW133470   6.561   0.516   4.927
10857SOL    HW233471   6.674   0.563   4.818
10858SOL     OW33472   1.999   2.308   0.461
10858SOL    HW133473   1.913   2.326   0.510
10858SOL    HW233474   1.979   2.297   0.364
10859SOL     OW33475   1.600   5.692   2.068
10859SOL    HW133476   1.628   5.765   2.005
10859SOL    HW233477   1.658   5.695   2.149
10860SOL     OW33478   6.434   2.953   1.619
10860SOL    HW133479   6.364   3.007   1.665
10860SOL    HW233480   6.402   2.858   1.610
10861SOL     OW33481   2.782   3.781   1.275
10861SOL    HW133482   2.720   3.739   1.208
10861SOL    HW233483   2.876   3.752   1.256
10862SOL     OW33484   3.526   4.229   5.236
10862SOL    HW133485   3.460   4.155   5.221
10862SOL    HW233486   3.483   4.300   5.292
10863SOL     OW33487   2.009   0.614   3.531
10863SOL    HW133488   2.023   0.656   3.442
10863SOL    HW233489   1.958   0.678   3.590
10864SOL     OW33490   3.193   4.243   1.730
10864SOL    HW133491   3.209   4.342   1.737
10864SOL    HW233492   3.195   4.216   1.634
10865SOL     OW33493   3.719   1.434   2.344
10865SOL    HW133494   3.769   1.437   2.258
10865SOL    HW233495   3.768   1.486   2.414
10866SOL     OW33496   0.704   3.512   3.617
10866SOL    HW133497   0.651   3.480   3.696
10866SOL    HW233498   0.715   3.611   3.622
10867SOL     OW33499   4.324   2.594   0.173
10867SOL    HW133500   4.267   2.672   0.198
10867SOL    HW233501   4.288   2.551   0.091
10868SOL     OW33502   1.337   0.104   5.160
10868SOL    HW133503   1.377   0.015   5.140
10868SOL    HW233504   1.292   0.139   5.078
10869NA      NA33505   6.883   1.068   6.213
10870NA      NA33506   4.383   4.643   5.179
10871NA      NA33507   1.556   4.838   2.943
10872NA      NA33508   5.532   3.837   2.847
10873NA      NA33509   3.571   2.480   5.477
10874NA      NA33510   2.493   5.022   0.058
10875NA      NA33511   1.847   5.431   6.559
10876NA      NA33512   4.074   4.525   1.398
10877NA      NA33513   4.951   4.757   0.355
10878NA      NA33514   3.534   1.278   0.440
10879NA      NA33515   5.297   6.899   1.751
10880NA      NA33516   2.431   6.693   5.057
10881NA      NA33517   4.294   4.905   2.264
10882NA      NA33518   4.193   3.834   6.808
   7.02098   7.02098   7.02098
