Generated by trjconv : CNT in water t= 106.00000
33518
    1C        C    1   2.846   2.771   4.746
    1C        C    2   2.898   2.718   4.867
    1C        C    3   2.835   2.771   4.981
    1C        C    4   2.854   2.777   4.259
    1C        C    5   2.899   2.725   4.382
    1C        C    6   2.844   2.768   4.505
    1C        C    7   3.014   2.640   4.623
    1C        C    8   2.893   2.714   4.626
    1C        C    9   3.078   2.602   4.743
    1C        C   10   3.008   2.630   4.862
    1C        C   11   3.177   2.485   4.975
    1C        C   12   3.061   2.563   4.974
    1C        C   13   2.852   2.770   3.773
    1C        C   14   2.905   2.724   3.895
    1C        C   15   2.855   2.779   4.015
    1C        C   16   3.017   2.642   4.135
    1C        C   17   2.902   2.724   4.137
    1C        C   18   3.078   2.609   4.258
    1C        C   19   3.015   2.644   4.379
    1C        C   20   3.205   2.551   4.502
    1C        C   21   3.074   2.604   4.501
    1C        C   22   3.278   2.526   4.621
    1C        C   23   3.207   2.542   4.742
    1C        C   24   3.408   2.480   4.865
    1C        C   25   3.266   2.498   4.864
    1C        C   26   3.487   2.476   4.981
    1C        C   27   2.850   2.767   3.280
    1C        C   28   2.904   2.723   3.403
    1C        C   29   2.853   2.771   3.525
    1C        C   30   3.017   2.641   3.646
    1C        C   31   2.903   2.725   3.649
    1C        C   32   3.077   2.602   3.768
    1C        C   33   3.015   2.635   3.891
    1C        C   34   3.205   2.543   4.015
    1C        C   35   3.075   2.599   4.013
    1C        C   36   3.274   2.528   4.137
    1C        C   37   3.209   2.557   4.258
    1C        C   38   3.414   2.506   4.380
    1C        C   39   3.275   2.531   4.381
    1C        C   40   3.486   2.499   4.501
    1C        C   41   3.416   2.497   4.624
    1C        C   42   3.627   2.479   4.744
    1C        C   43   3.485   2.477   4.746
    1C        C   44   3.704   2.485   4.863
    1C        C   45   3.626   2.469   4.978
    1C        C   46   2.843   2.756   2.792
    1C        C   47   2.899   2.712   2.914
    1C        C   48   2.844   2.761   3.034
    1C        C   49   3.017   2.640   3.159
    1C        C   50   2.899   2.718   3.157
    1C        C   51   3.082   2.605   3.280
    1C        C   52   3.018   2.639   3.402
    1C        C   53   3.208   2.547   3.526
    1C        C   54   3.077   2.602   3.524
    1C        C   55   3.277   2.530   3.648
    1C        C   56   3.209   2.551   3.770
    1C        C   57   3.413   2.495   3.893
    1C        C   58   3.275   2.527   3.893
    1C        C   59   3.484   2.495   4.015
    1C        C   60   3.413   2.501   4.137
    1C        C   61   3.626   2.493   4.257
    1C        C   62   3.485   2.496   4.258
    1C        C   63   3.698   2.498   4.379
    1C        C   64   3.628   2.496   4.502
    1C        C   65   3.835   2.536   4.622
    1C        C   66   3.699   2.497   4.624
    1C        C   67   3.904   2.555   4.743
    1C        C   68   3.839   2.523   4.865
    1C        C   69   4.055   2.579   4.977
    1C        C   70   3.924   2.529   4.976
    1C        C   71   2.827   2.736   2.307
    1C        C   72   2.884   2.694   2.429
    1C        C   73   2.829   2.743   2.549
    1C        C   74   3.004   2.619   2.672
    1C        C   75   2.892   2.705   2.669
    1C        C   76   3.070   2.587   2.794
    1C        C   77   3.014   2.630   2.916
    1C        C   78   3.206   2.541   3.035
    1C        C   79   3.078   2.599   3.038
    1C        C   80   3.273   2.522   3.158
    1C        C   81   3.210   2.547   3.282
    1C        C   82   3.413   2.491   3.400
    1C        C   83   3.275   2.522   3.405
    1C        C   84   3.482   2.490   3.523
    1C        C   85   3.415   2.500   3.647
    1C        C   86   3.624   2.495   3.768
    1C        C   87   3.483   2.489   3.770
    1C        C   88   3.694   2.503   3.891
    1C        C   89   3.626   2.502   4.014
    1C        C   90   3.834   2.541   4.135
    1C        C   91   3.697   2.508   4.136
    1C        C   92   3.903   2.563   4.256
    1C        C   93   3.834   2.535   4.377
    1C        C   94   4.021   2.634   4.500
    1C        C   95   3.899   2.563   4.499
    1C        C   96   4.089   2.666   4.620
    1C        C   97   4.028   2.624   4.740
    1C        C   98   4.188   2.762   4.859
    1C        C   99   4.100   2.650   4.860
    1C        C  100   4.213   2.840   4.973
    1C        C  101   2.824   2.732   2.069
    1C        C  102   2.989   2.589   2.190
    1C        C  103   2.878   2.680   2.187
    1C        C  104   3.064   2.573   2.310
    1C        C  105   3.006   2.621   2.429
    1C        C  106   3.200   2.535   2.547
    1C        C  107   3.069   2.588   2.551
    1C        C  108   3.267   2.509   2.669
    1C        C  109   3.199   2.530   2.790
    1C        C  110   3.410   2.490   2.910
    1C        C  111   3.271   2.516   2.911
    1C        C  112   3.481   2.488   3.032
    1C        C  113   3.412   2.499   3.155
    1C        C  114   3.624   2.493   3.275
    1C        C  115   3.483   2.485   3.277
    1C        C  116   3.691   2.503   3.399
    1C        C  117   3.624   2.494   3.523
    1C        C  118   3.831   2.537   3.642
    1C        C  119   3.694   2.503   3.645
    1C        C  120   3.896   2.562   3.765
    1C        C  121   3.830   2.539   3.888
    1C        C  122   4.021   2.632   4.011
    1C        C  123   3.897   2.563   4.010
    1C        C  124   4.083   2.671   4.132
    1C        C  125   4.025   2.634   4.256
    1C        C  126   4.191   2.764   4.375
    1C        C  127   4.081   2.675   4.379
    1C        C  128   4.239   2.819   4.495
    1C        C  129   4.190   2.764   4.616
    1C        C  130   4.320   2.934   4.737
    1C        C  131   4.237   2.818   4.738
    1C        C  132   4.349   3.004   4.856
    1C        C  133   4.280   2.961   4.970
    1C        C  134   3.169   2.463   2.079
    1C        C  135   3.037   2.510   2.081
    1C        C  136   3.258   2.468   2.188
    1C        C  137   3.192   2.512   2.305
    1C        C  138   3.403   2.476   2.423
    1C        C  139   3.264   2.502   2.426
    1C        C  140   3.475   2.476   2.544
    1C        C  141   3.406   2.485   2.667
    1C        C  142   3.621   2.480   2.785
    1C        C  143   3.480   2.482   2.788
    1C        C  144   3.691   2.490   2.908
    1C        C  145   3.622   2.491   3.031
    1C        C  146   3.832   2.530   3.152
    1C        C  147   3.694   2.500   3.153
    1C        C  148   3.898   2.553   3.274
    1C        C  149   3.829   2.535   3.396
    1C        C  150   4.020   2.626   3.521
    1C        C  151   3.896   2.559   3.518
    1C        C  152   4.078   2.666   3.643
    1C        C  153   4.019   2.630   3.767
    1C        C  154   4.188   2.760   3.885
    1C        C  155   4.076   2.674   3.888
    1C        C  156   4.237   2.810   4.007
    1C        C  157   4.189   2.764   4.132
    1C        C  158   4.333   2.922   4.250
    1C        C  159   4.244   2.812   4.253
    1C        C  160   4.371   2.984   4.371
    1C        C  161   4.323   2.933   4.494
    1C        C  162   4.430   3.116   4.615
    1C        C  163   4.358   2.994   4.616
    1C        C  164   4.462   3.184   4.734
    1C        C  165   4.424   3.124   4.856
    1C        C  166   4.509   3.321   4.974
    1C        C  167   4.473   3.187   4.971
    1C        C  168   3.474   2.430   2.067
    1C        C  169   3.398   2.448   2.183
    1C        C  170   3.616   2.458   2.301
    1C        C  171   3.474   2.459   2.302
    1C        C  172   3.687   2.485   2.420
    1C        C  173   3.616   2.481   2.542
    1C        C  174   3.826   2.531   2.662
    1C        C  175   3.689   2.494   2.663
    1C        C  176   3.893   2.552   2.785
    1C        C  177   3.828   2.525   2.907
    1C        C  178   4.019   2.622   3.029
    1C        C  179   3.897   2.552   3.028
    1C        C  180   4.082   2.658   3.150
    1C        C  181   4.022   2.620   3.273
    1C        C  182   4.190   2.745   3.397
    1C        C  183   4.078   2.659   3.396
    1C        C  184   4.241   2.798   3.518
    1C        C  185   4.189   2.753   3.642
    1C        C  186   4.329   2.917   3.763
    1C        C  187   4.239   2.808   3.762
    1C        C  188   4.367   2.979   3.884
    1C        C  189   4.324   2.921   4.006
    1C        C  190   4.436   3.105   4.129
    1C        C  191   4.369   2.980   4.127
    1C        C  192   4.464   3.173   4.249
    1C        C  193   4.438   3.109   4.372
    1C        C  194   4.505   3.313   4.489
    1C        C  195   4.461   3.179   4.492
    1C        C  196   4.525   3.384   4.610
    1C        C  197   4.509   3.318   4.734
    1C        C  198   4.549   3.533   4.848
    1C        C  199   4.529   3.391   4.854
    1C        C  200   4.579   3.616   4.961
    1C        C  201   3.613   2.415   2.069
    1C        C  202   3.827   2.502   2.180
    1C        C  203   3.694   2.450   2.182
    1C        C  204   3.896   2.537   2.299
    1C        C  205   3.823   2.522   2.419
    1C        C  206   4.019   2.614   2.541
    1C        C  207   3.892   2.552   2.539
    1C        C  208   4.080   2.653   2.662
    1C        C  209   4.016   2.621   2.784
    1C        C  210   4.191   2.744   2.902
    1C        C  211   4.074   2.664   2.905
    1C        C  212   4.243   2.792   3.024
    1C        C  213   4.189   2.750   3.148
    1C        C  214   4.324   2.906   3.272
    1C        C  215   4.237   2.794   3.273
    1C        C  216   4.358   2.969   3.393
    1C        C  217   4.325   2.911   3.518
    1C        C  218   4.430   3.099   3.633
    1C        C  219   4.368   2.971   3.638
    1C        C  220   4.456   3.164   3.755
    1C        C  221   4.429   3.105   3.881
    1C        C  222   4.488   3.305   4.000
    1C        C  223   4.461   3.167   4.004
    1C        C  224   4.507   3.377   4.120
    1C        C  225   4.504   3.309   4.244
    1C        C  226   4.516   3.522   4.363
    1C        C  227   4.516   3.380   4.365
    1C        C  228   4.514   3.595   4.484
    1C        C  229   4.523   3.525   4.607
    1C        C  230   4.502   3.740   4.724
    1C        C  231   4.534   3.602   4.725
    1C        C  232   4.497   3.817   4.842
    1C        C  233   4.546   3.752   4.956
    1C        C  234   4.014   2.604   2.059
    1C        C  235   3.894   2.533   2.061
    1C        C  236   4.080   2.646   2.175
    1C        C  237   4.021   2.605   2.296
    1C        C  238   4.194   2.731   2.419
    1C        C  239   4.082   2.643   2.418
    1C        C  240   4.245   2.784   2.539
    1C        C  241   4.189   2.743   2.662
    1C        C  242   4.337   2.901   2.782
    1C        C  243   4.244   2.794   2.781
    1C        C  244   4.377   2.959   2.905
    1C        C  245   4.332   2.902   3.026
    1C        C  246   4.431   3.088   3.147
    1C        C  247   4.366   2.962   3.149
    1C        C  248   4.454   3.158   3.267
    1C        C  249   4.425   3.094   3.390
    1C        C  250   4.493   3.299   3.513
    1C        C  251   4.450   3.165   3.510
    1C        C  252   4.505   3.371   3.634
    1C        C  253   4.490   3.302   3.757
    1C        C  254   4.517   3.514   3.874
    1C        C  255   4.505   3.374   3.877
    1C        C  256   4.508   3.585   3.995
    1C        C  257   4.516   3.518   4.119
    1C        C  258   4.490   3.730   4.239
    1C        C  259   4.511   3.591   4.240
    1C        C  260   4.470   3.802   4.359
    1C        C  261   4.482   3.732   4.482
    1C        C  262   4.428   3.939   4.601
    1C        C  263   4.474   3.806   4.602
    1C        C  264   4.399   4.010   4.720
    1C        C  265   4.437   3.945   4.840
    1C        C  266   4.318   4.128   4.955
    1C        C  267   4.388   4.008   4.955
    1C        C  268   4.256   2.771   2.057
    1C        C  269   4.190   2.735   2.176
    1C        C  270   4.341   2.887   2.294
    1C        C  271   4.243   2.784   2.297
    1C        C  272   4.374   2.953   2.414
    1C        C  273   4.336   2.892   2.536
    1C        C  274   4.438   3.080   2.659
    1C        C  275   4.375   2.954   2.657
    1C        C  276   4.458   3.150   2.780
    1C        C  277   4.431   3.089   2.904
    1C        C  278   4.496   3.292   3.022
    1C        C  279   4.455   3.157   3.026
    1C        C  280   4.503   3.363   3.145
    1C        C  281   4.486   3.295   3.268
    1C        C  282   4.511   3.507   3.387
    1C        C  283   4.501   3.366   3.389
    1C        C  284   4.510   3.579   3.509
    1C        C  285   4.512   3.512   3.633
    1C        C  286   4.490   3.726   3.750
    1C        C  287   4.517   3.587   3.753
    1C        C  288   4.470   3.792   3.872
    1C        C  289   4.482   3.724   3.996
    1C        C  290   4.426   3.931   4.115
    1C        C  291   4.474   3.798   4.116
    1C        C  292   4.395   3.998   4.235
    1C        C  293   4.421   3.934   4.359
    1C        C  294   4.320   4.121   4.476
    1C        C  295   4.399   4.004   4.479
    1C        C  296   4.276   4.183   4.595
    1C        C  297   4.323   4.130   4.717
    1C        C  298   4.197   4.310   4.834
    1C        C  299   4.281   4.194   4.837
    1C        C  300   4.169   4.400   4.942
    1C        C  301   4.338   2.883   2.058
    1C        C  302   4.466   3.064   2.174
    1C        C  303   4.392   2.941   2.173
    1C        C  304   4.476   3.141   2.293
    1C        C  305   4.442   3.078   2.415
    1C        C  306   4.507   3.280   2.536
    1C        C  307   4.469   3.144   2.537
    1C        C  308   4.518   3.355   2.655
    1C        C  309   4.498   3.286   2.777
    1C        C  310   4.519   3.497   2.895
    1C        C  311   4.517   3.356   2.898
    1C        C  312   4.515   3.570   3.016
    1C        C  313   4.514   3.503   3.141
    1C        C  314   4.484   3.714   3.259
    1C        C  315   4.510   3.575   3.263
    1C        C  316   4.473   3.784   3.382
    1C        C  317   4.490   3.719   3.506
    1C        C  318   4.422   3.924   3.623
    1C        C  319   4.472   3.792   3.626
    1C        C  320   4.390   3.986   3.746
    1C        C  321   4.423   3.926   3.870
    1C        C  322   4.316   4.110   3.987
    1C        C  323   4.391   3.990   3.991
    1C        C  324   4.272   4.166   4.108
    1C        C  325   4.323   4.119   4.232
    1C        C  326   4.186   4.282   4.350
    1C        C  327   4.286   4.182   4.353
    1C        C  328   4.133   4.337   4.468
    1C        C  329   4.186   4.292   4.591
    1C        C  330   4.024   4.434   4.709
    1C        C  331   4.136   4.345   4.711
    1C        C  332   3.969   4.488   4.827
    1C        C  333   4.049   4.473   4.941
    1C        C  334   4.551   3.264   2.057
    1C        C  335   4.523   3.127   2.058
    1C        C  336   4.534   3.345   2.171
    1C        C  337   4.506   3.279   2.293
    1C        C  338   4.522   3.492   2.408
    1C        C  339   4.515   3.351   2.414
    1C        C  340   4.519   3.566   2.529
    1C        C  341   4.522   3.496   2.652
    1C        C  342   4.492   3.707   2.772
    1C        C  343   4.515   3.568   2.773
    1C        C  344   4.484   3.780   2.893
    1C        C  345   4.500   3.710   3.015
    1C        C  346   4.425   3.913   3.136
    1C        C  347   4.473   3.780   3.135
    1C        C  348   4.397   3.982   3.255
    1C        C  349   4.425   3.917   3.378
    1C        C  350   4.315   4.101   3.501
    1C        C  351   4.391   3.982   3.498
    1C        C  352   4.275   4.167   3.620
    1C        C  353   4.316   4.106   3.741
    1C        C  354   4.174   4.264   3.863
    1C        C  355   4.270   4.160   3.863
    1C        C  356   4.121   4.312   3.984
    1C        C  357   4.168   4.262   4.108
    1C        C  358   4.009   4.402   4.230
    1C        C  359   4.123   4.318   4.229
    1C        C  360   3.948   4.448   4.349
    1C        C  361   4.016   4.417   4.469
    1C        C  362   3.823   4.510   4.589
    1C        C  363   3.954   4.457   4.589
    1C        C  364   3.759   4.546   4.709
    1C        C  365   3.837   4.540   4.826
    1C        C  366   3.630   4.584   4.946
    1C        C  367   3.768   4.570   4.944
    1C        C  368   4.507   3.563   2.054
    1C        C  369   4.521   3.485   2.169
    1C        C  370   4.504   3.704   2.285
    1C        C  371   4.520   3.564   2.287
    1C        C  372   4.486   3.777   2.404
    1C        C  373   4.507   3.706   2.525
    1C        C  374   4.426   3.903   2.648
    1C        C  375   4.477   3.771   2.647
    1C        C  376   4.395   3.970   2.768
    1C        C  377   4.429   3.910   2.891
    1C        C  378   4.316   4.091   3.010
    1C        C  379   4.397   3.975   3.012
    1C        C  380   4.272   4.150   3.130
    1C        C  381   4.315   4.097   3.254
    1C        C  382   4.175   4.254   3.373
    1C        C  383   4.272   4.152   3.377
    1C        C  384   4.120   4.304   3.493
    1C        C  385   4.173   4.264   3.618
    1C        C  386   4.002   4.389   3.740
    1C        C  387   4.118   4.308   3.741
    1C        C  388   3.939   4.421   3.862
    1C        C  389   4.002   4.389   3.984
    1C        C  390   3.816   4.486   4.104
    1C        C  391   3.946   4.430   4.107
    1C        C  392   3.749   4.519   4.224
    1C        C  393   3.817   4.499   4.346
    1C        C  394   3.612   4.554   4.470
    1C        C  395   3.751   4.528   4.468
    1C        C  396   3.543   4.561   4.593
    1C        C  397   3.619   4.564   4.712
    1C        C  398   3.408   4.546   4.836
    1C        C  399   3.547   4.570   4.834
    1C        C  400   3.341   4.511   4.954
    1C        C  401   4.496   3.701   2.048
    1C        C  402   4.453   3.915   2.165
    1C        C  403   4.489   3.778   2.165
    1C        C  404   4.415   3.979   2.285
    1C        C  405   4.440   3.911   2.406
    1C        C  406   4.323   4.090   2.522
    1C        C  407   4.401   3.972   2.527
    1C        C  408   4.273   4.144   2.642
    1C        C  409   4.313   4.086   2.765
    1C        C  410   4.172   4.245   2.886
    1C        C  411   4.269   4.142   2.887
    1C        C  412   4.116   4.291   3.007
    1C        C  413   4.169   4.247   3.130
    1C        C  414   3.994   4.366   3.249
    1C        C  415   4.116   4.296   3.251
    1C        C  416   3.936   4.405   3.372
    1C        C  417   4.001   4.380   3.495
    1C        C  418   3.811   4.475   3.615
    1C        C  419   3.941   4.420   3.616
    1C        C  420   3.744   4.502   3.736
    1C        C  421   3.810   4.477   3.859
    1C        C  422   3.607   4.530   3.984
    1C        C  423   3.746   4.505   3.982
    1C        C  424   3.538   4.544   4.106
    1C        C  425   3.610   4.541   4.228
    1C        C  426   3.398   4.544   4.353
    1C        C  427   3.539   4.555   4.349
    1C        C  428   3.328   4.544   4.475
    1C        C  429   3.402   4.554   4.595
    1C        C  430   3.192   4.518   4.721
    1C        C  431   3.332   4.542   4.717
    1C        C  432   3.120   4.491   4.841
    1C        C  433   3.204   4.486   4.953
    1C        C  434   4.385   4.122   2.050
    1C        C  435   4.447   3.997   2.051
    1C        C  436   4.301   4.163   2.159
    1C        C  437   4.336   4.097   2.280
    1C        C  438   4.182   4.249   2.399
    1C        C  439   4.282   4.149   2.400
    1C        C  440   4.123   4.295   2.518
    1C        C  441   4.177   4.247   2.640
    1C        C  442   4.001   4.366   2.763
    1C        C  443   4.120   4.289   2.762
    1C        C  444   3.938   4.405   2.883
    1C        C  445   3.998   4.369   3.006
    1C        C  446   3.808   4.469   3.129
    1C        C  447   3.934   4.404   3.127
    1C        C  448   3.744   4.497   3.251
    1C        C  449   3.812   4.473   3.373
    1C        C  450   3.604   4.526   3.493
    1C        C  451   3.743   4.499   3.493
    1C        C  452   3.535   4.537   3.616
    1C        C  453   3.607   4.535   3.738
    1C        C  454   3.397   4.546   3.864
    1C        C  455   3.538   4.545   3.862
    1C        C  456   3.326   4.535   3.985
    1C        C  457   3.397   4.541   4.107
    1C        C  458   3.190   4.505   4.233
    1C        C  459   3.328   4.532   4.231
    1C        C  460   3.125   4.484   4.357
    1C        C  461   3.190   4.514   4.478
    1C        C  462   2.996   4.431   4.600
    1C        C  463   3.121   4.498   4.601
    1C        C  464   2.927   4.397   4.718
    1C        C  465   2.987   4.438   4.840
    1C        C  466   2.804   4.334   4.960
    1C        C  467   2.910   4.426   4.960
    1C        C  468   4.117   4.280   2.041
    1C        C  469   4.187   4.249   2.158
    1C        C  470   4.007   4.371   2.276
    1C        C  471   4.130   4.300   2.278
    1C        C  472   3.940   4.402   2.397
    1C        C  473   4.002   4.369   2.519
    1C        C  474   3.812   4.464   2.641
    1C        C  475   3.939   4.401   2.641
    1C        C  476   3.744   4.494   2.761
    1C        C  477   3.811   4.467   2.883
    1C        C  478   3.605   4.518   3.007
    1C        C  479   3.743   4.489   3.005
    1C        C  480   3.535   4.527   3.129
    1C        C  481   3.605   4.522   3.251
    1C        C  482   3.391   4.531   3.374
    1C        C  483   3.532   4.533   3.372
    1C        C  484   3.324   4.532   3.499
    1C        C  485   3.394   4.540   3.621
    1C        C  486   3.188   4.495   3.743
    1C        C  487   3.324   4.532   3.743
    1C        C  488   3.122   4.475   3.867
    1C        C  489   3.188   4.502   3.988
    1C        C  490   3.001   4.409   4.112
    1C        C  491   3.123   4.480   4.111
    1C        C  492   2.940   4.379   4.235
    1C        C  493   2.999   4.420   4.357
    1C        C  494   2.826   4.300   4.482
    1C        C  495   2.935   4.390   4.480
    1C        C  496   2.773   4.255   4.604
    1C        C  497   2.812   4.313   4.727
    1C        C  498   2.662   4.161   4.844
    1C        C  499   2.750   4.271   4.847
    1C        C  500   2.590   4.116   4.955
    1C        C  501   3.999   4.354   2.038
    1C        C  502   3.816   4.468   2.154
    1C        C  503   3.941   4.402   2.155
    1C        C  504   3.743   4.479   2.275
    1C        C  505   3.808   4.452   2.397
    1C        C  506   3.604   4.508   2.516
    1C        C  507   3.743   4.481   2.519
    1C        C  508   3.534   4.519   2.638
    1C        C  509   3.605   4.518   2.760
    1C        C  510   3.396   4.529   2.882
    1C        C  511   3.537   4.524   2.883
    1C        C  512   3.323   4.519   3.003
    1C        C  513   3.393   4.524   3.126
    1C        C  514   3.188   4.486   3.253
    1C        C  515   3.325   4.522   3.249
    1C        C  516   3.122   4.463   3.376
    1C        C  517   3.187   4.496   3.496
    1C        C  518   2.998   4.405   3.621
    1C        C  519   3.124   4.470   3.620
    1C        C  520   2.944   4.364   3.745
    1C        C  521   3.002   4.400   3.868
    1C        C  522   2.828   4.282   3.995
    1C        C  523   2.943   4.364   3.991
    1C        C  524   2.776   4.236   4.119
    1C        C  525   2.829   4.291   4.238
    1C        C  526   2.695   4.130   4.364
    1C        C  527   2.782   4.241   4.361
    1C        C  528   2.651   4.075   4.487
    1C        C  529   2.683   4.146   4.605
    1C        C  530   2.581   3.957   4.730
    1C        C  531   2.637   4.088   4.725
    1C        C  532   2.538   3.901   4.854
    1C        C  533   2.520   3.994   4.961
    1C        C  534   3.616   4.553   2.036
    1C        C  535   3.752   4.518   2.040
    1C        C  536   3.537   4.526   2.152
    1C        C  537   3.605   4.511   2.276
    1C        C  538   3.390   4.514   2.398
    1C        C  539   3.531   4.518   2.396
    1C        C  540   3.320   4.506   2.521
    1C        C  541   3.393   4.511   2.641
    1C        C  542   3.185   4.481   2.764
    1C        C  543   3.321   4.517   2.763
    1C        C  544   3.121   4.457   2.887
    1C        C  545   3.188   4.480   3.010
    1C        C  546   2.995   4.394   3.133
    1C        C  547   3.121   4.460   3.132
    1C        C  548   2.936   4.359   3.257
    1C        C  549   2.996   4.398   3.378
    1C        C  550   2.829   4.270   3.505
    1C        C  551   2.939   4.359   3.501
    1C        C  552   2.775   4.227   3.629
    1C        C  553   2.830   4.280   3.748
    1C        C  554   2.701   4.116   3.873
    1C        C  555   2.782   4.232   3.872
    1C        C  556   2.661   4.060   3.996
    1C        C  557   2.695   4.121   4.119
    1C        C  558   2.594   3.940   4.244
    1C        C  559   2.661   4.064   4.244
    1C        C  560   2.566   3.878   4.368
    1C        C  561   2.589   3.948   4.489
    1C        C  562   2.533   3.745   4.615
    1C        C  563   2.564   3.883   4.612
    1C        C  564   2.522   3.677   4.738
    1C        C  565   2.525   3.758   4.855
    1C        C  566   2.522   3.543   4.976
    1C        C  567   2.522   3.682   4.973
    1C        C  568   3.325   4.476   2.038
    1C        C  569   3.397   4.504   2.155
    1C        C  570   3.181   4.476   2.278
    1C        C  571   3.321   4.502   2.275
    1C        C  572   3.114   4.454   2.400
    1C        C  573   3.182   4.473   2.522
    1C        C  574   2.986   4.394   2.646
    1C        C  575   3.113   4.455   2.644
    1C        C  576   2.931   4.354   2.769
    1C        C  577   2.994   4.394   2.889
    1C        C  578   2.824   4.268   3.014
    1C        C  579   2.935   4.355   3.012
    1C        C  580   2.775   4.219   3.136
    1C        C  581   2.828   4.268   3.257
    1C        C  582   2.693   4.110   3.382
    1C        C  583   2.782   4.220   3.382
    1C        C  584   2.656   4.053   3.506
    1C        C  585   2.693   4.113   3.629
    1C        C  586   2.589   3.931   3.754
    1C        C  587   2.659   4.054   3.753
    1C        C  588   2.566   3.867   3.878
    1C        C  589   2.600   3.933   3.999
    1C        C  590   2.529   3.736   4.127
    1C        C  591   2.569   3.872   4.122
    1C        C  592   2.520   3.670   4.252
    1C        C  593   2.529   3.742   4.373
    1C        C  594   2.508   3.532   4.497
    1C        C  595   2.516   3.673   4.495
    1C        C  596   2.510   3.460   4.619
    1C        C  597   2.514   3.535   4.738
    1C        C  598   2.525   3.324   4.862
    1C        C  599   2.522   3.465   4.860
    1C        C  600   2.527   3.245   4.978
    1C        C  601   3.195   4.428   2.042
    1C        C  602   2.982   4.390   2.159
    1C        C  603   3.116   4.440   2.157
    1C        C  604   2.924   4.352   2.283
    1C        C  605   2.989   4.389   2.402
    1C        C  606   2.816   4.268   2.528
    1C        C  607   2.924   4.358   2.524
    1C        C  608   2.767   4.216   2.650
    1C        C  609   2.817   4.269   2.770
    1C        C  610   2.682   4.108   2.892
    1C        C  611   2.770   4.219   2.893
    1C        C  612   2.648   4.049   3.016
    1C        C  613   2.688   4.107   3.139
    1C        C  614   2.580   3.927   3.264
    1C        C  615   2.646   4.052   3.262
    1C        C  616   2.563   3.862   3.388
    1C        C  617   2.596   3.926   3.510
    1C        C  618   2.527   3.727   3.637
    1C        C  619   2.566   3.863   3.633
    1C        C  620   2.510   3.661   3.760
    1C        C  621   2.524   3.732   3.881
    1C        C  622   2.504   3.525   4.009
    1C        C  623   2.518   3.666   4.006
    1C        C  624   2.506   3.457   4.133
    1C        C  625   2.511   3.529   4.254
    1C        C  626   2.537   3.319   4.379
    1C        C  627   2.512   3.458   4.377
    1C        C  628   2.556   3.249   4.500
    1C        C  629   2.527   3.320   4.619
    1C        C  630   2.593   3.118   4.741
    1C        C  631   2.545   3.252   4.742
    1C        C  632   2.616   3.049   4.863
    1C        C  633   2.559   3.109   4.980
    1C        C  634   2.780   4.302   2.052
    1C        C  635   2.891   4.388   2.048
    1C        C  636   2.749   4.227   2.166
    1C        C  637   2.810   4.266   2.287
    1C        C  638   2.671   4.108   2.408
    1C        C  639   2.759   4.218   2.409
    1C        C  640   2.637   4.044   2.529
    1C        C  641   2.686   4.100   2.649
    1C        C  642   2.582   3.917   2.776
    1C        C  643   2.645   4.044   2.772
    1C        C  644   2.557   3.852   2.899
    1C        C  645   2.585   3.923   3.018
    1C        C  646   2.528   3.722   3.145
    1C        C  647   2.559   3.859   3.142
    1C        C  648   2.513   3.655   3.269
    1C        C  649   2.527   3.726   3.391
    1C        C  650   2.503   3.517   3.516
    1C        C  651   2.514   3.658   3.514
    1C        C  652   2.506   3.449   3.640
    1C        C  653   2.500   3.520   3.762
    1C        C  654   2.532   3.316   3.891
    1C        C  655   2.502   3.454   3.887
    1C        C  656   2.547   3.248   4.014
    1C        C  657   2.532   3.318   4.136
    1C        C  658   2.609   3.120   4.254
    1C        C  659   2.550   3.248   4.257
    1C        C  660   2.638   3.054   4.376
    1C        C  661   2.609   3.118   4.499
    1C        C  662   2.715   2.938   4.623
    1C        C  663   2.636   3.055   4.622
    1C        C  664   2.758   2.882   4.745
    1C        C  665   2.700   2.933   4.865
    1C        C  666   2.738   2.870   4.984
    1C        C  667   2.672   4.024   2.050
    1C        C  668   2.681   4.103   2.165
    1C        C  669   2.589   3.910   2.291
    1C        C  670   2.644   4.041   2.286
    1C        C  671   2.553   3.847   2.412
    1C        C  672   2.573   3.918   2.532
    1C        C  673   2.514   3.715   2.657
    1C        C  674   2.553   3.851   2.655
    1C        C  675   2.504   3.646   2.780
    1C        C  676   2.521   3.715   2.902
    1C        C  677   2.493   3.508   3.027
    1C        C  678   2.510   3.648   3.026
    1C        C  679   2.503   3.441   3.152
    1C        C  680   2.502   3.515   3.272
    1C        C  681   2.530   3.305   3.400
    1C        C  682   2.506   3.444   3.395
    1C        C  683   2.548   3.239   3.524
    1C        C  684   2.529   3.310   3.644
    1C        C  685   2.606   3.117   3.767
    1C        C  686   2.552   3.248   3.769
    1C        C  687   2.636   3.055   3.890
    1C        C  688   2.597   3.116   4.011
    1C        C  689   2.714   2.936   4.135
    1C        C  690   2.634   3.053   4.132
    1C        C  691   2.759   2.882   4.257
    1C        C  692   2.715   2.936   4.380
    1C        C  693   2.755   2.877   4.502
    1C        C  694   2.623   3.893   2.057
    1C        C  695   2.518   3.703   2.172
    1C        C  696   2.570   3.834   2.173
    1C        C  697   2.500   3.636   2.295
    1C        C  698   2.512   3.712   2.413
    1C        C  699   2.483   3.504   2.540
    1C        C  700   2.493   3.645   2.536
    1C        C  701   2.495   3.435   2.662
    1C        C  702   2.488   3.506   2.784
    1C        C  703   2.520   3.296   2.909
    1C        C  704   2.493   3.435   2.906
    1C        C  705   2.541   3.232   3.033
    1C        C  706   2.529   3.302   3.155
    1C        C  707   2.604   3.105   3.278
    1C        C  708   2.549   3.235   3.278
    1C        C  709   2.635   3.046   3.403
    1C        C  710   2.601   3.108   3.525
    1C        C  711   2.716   2.931   3.648
    1C        C  712   2.635   3.047   3.647
    1C        C  713   2.763   2.879   3.771
    1C        C  714   2.718   2.940   3.890
    1C        C  715   2.763   2.885   4.013
    1C        C  716   2.445   3.496   2.061
    1C        C  717   2.487   3.630   2.056
    1C        C  718   2.456   3.419   2.181
    1C        C  719   2.481   3.495   2.298
    1C        C  720   2.510   3.288   2.424
    1C        C  721   2.481   3.426   2.422
    1C        C  722   2.533   3.222   2.546
    1C        C  723   2.524   3.296   2.666
    1C        C  724   2.592   3.095   2.790
    1C        C  725   2.542   3.228   2.788
    1C        C  726   2.624   3.035   2.914
    1C        C  727   2.594   3.101   3.036
    1C        C  728   2.707   2.921   3.157
    1C        C  729   2.626   3.036   3.157
    1C        C  730   2.754   2.870   3.280
    1C        C  731   2.711   2.927   3.402
    1C        C  732   2.753   2.871   3.525
    1C        C  733   2.487   3.196   2.069
    1C        C  734   2.483   3.279   2.183
    1C        C  735   2.577   3.083   2.304
    1C        C  736   2.522   3.215   2.303
    1C        C  737   2.610   3.020   2.426
    1C        C  738   2.585   3.090   2.546
    1C        C  739   2.698   2.912   2.669
    1C        C  740   2.620   3.030   2.668
    1C        C  741   2.747   2.860   2.791
    1C        C  742   2.698   2.915   2.911
    1C        C  743   2.747   2.864   3.034
    1C        C  744   2.544   3.070   2.071
    1C        C  745   2.685   2.897   2.186
    1C        C  746   2.605   3.014   2.184
    1C        C  747   2.731   2.841   2.307
    1C        C  748   2.687   2.902   2.427
    1C        C  749   2.735   2.849   2.549
    1C        C  750   2.740   2.843   2.069
    1C        C  751   3.668   2.326   1.964
    1C        O  752   3.677   2.203   1.990
    1C        O  753   3.659   2.366   1.830
    1C        C  754   4.624   3.052   1.981
    1C        O  755   4.599   3.036   1.858
    1C        O  756   4.729   2.980   2.039
    1C        C  757   4.451   4.225   1.965
    1C        O  758   4.552   4.282   2.014
    1C        O  759   4.422   4.242   1.829
    1C        C  760   3.600   4.673   1.951
    1C        O  761   3.592   4.788   2.002
    1C        O  762   3.577   4.656   1.814
    1C        C  763   2.875   4.514   1.972
    1C        O  764   2.910   4.530   1.852
    1C        O  765   2.765   4.597   1.995
    1C        C  766   2.336   3.480   1.962
    1C        O  767   2.356   3.419   1.853
    1C        O  768   2.207   3.456   2.011
    1C        C  769   4.692   3.598   5.056
    1C        O  770   4.675   3.630   5.177
    1C        O  771   4.830   3.595   5.036
    1C        C  772   4.277   4.444   5.033
    1C        O  773   4.301   4.388   5.144
    1C        O  774   4.349   4.561   5.010
    1C        C  775   4.138   2.540   5.092
    1C        O  776   4.170   2.419   5.109
    1C        O  777   4.109   2.611   5.209
    1C        C  778   2.869   4.540   5.044
    1C        O  779   2.791   4.622   4.989
    1C        O  780   2.851   4.518   5.181
    1C        C  781   2.464   3.044   5.074
    1C        O  782   2.351   3.008   5.033
    1C        O  783   2.487   3.021   5.209
    1C        C  784   2.405   3.999   5.054
    1C        O  785   2.289   4.009   5.006
    1C        O  786   2.409   3.940   5.181
    1C        C  787   2.946   2.426   2.000
    1C        O  788   2.948   2.433   1.874
    1C        O  789   2.922   2.296   2.042
    1C        C  790   3.161   2.355   5.044
    1C        O  791   3.069   2.277   5.007
    1C        O  792   3.180   2.349   5.183
    1C        H  793   4.253   3.032   5.046
    1C        H  794   4.196   2.800   5.071
    1C        H  795   4.531   3.126   5.038
    1C        H  796   4.540   3.365   5.066
    1C        H  797   4.564   3.814   5.041
    1C        H  798   4.433   3.985   5.049
    1C        H  799   4.335   4.188   5.042
    1C        H  800   4.022   4.525   5.030
    1C        H  801   3.820   4.633   5.014
    1C        H  802   3.596   4.653   5.021
    1C        H  803   3.384   4.527   5.051
    1C        H  804   3.172   4.420   5.031
    1C        H  805   3.877   2.519   5.072
    1C        H  806   3.673   2.459   5.074
    1C        H  807   3.010   2.577   5.067
    1C        H  808   3.443   2.479   5.078
    1C        H  809   2.828   2.702   5.062
    1C        H  810   2.698   2.890   5.082
    1C        H  811   2.482   3.289   5.064
    1C        H  812   2.531   3.495   5.072
    1C        H  813   2.547   3.733   5.064
    1C        H  814   2.565   4.190   5.028
    1C        H  815   2.735   4.339   5.042
    1C        H  816   2.764   2.918   1.997
    1C        H  817   2.862   2.703   1.973
    1C        H  818   3.195   2.396   2.000
    1C        H  819   3.428   2.463   1.976
    1C        H  820   3.873   2.474   1.974
    1C        H  821   4.052   2.626   1.961
    1C        H  822   4.296   2.690   2.001
    1C        H  823   4.316   2.955   1.982
    1C        H  824   4.632   3.290   1.993
    1C        H  825   4.531   3.518   1.960
    1C        H  826   4.546   3.747   1.966
    1C        H  827   3.802   4.523   1.946
    1C        H  828   3.943   4.365   1.947
    1C        H  829   4.131   4.217   1.955
    1C        H  830   4.520   3.980   1.974
    1C        H  831   2.644   3.828   1.974
    1C        H  832   2.712   4.059   1.957
    1C        H  833   2.702   4.316   1.980
    1C        H  834   3.368   4.499   1.943
    1C        H  835   3.171   4.347   1.976
    1C        H  836   2.503   2.999   2.002
    1C        H  837   2.444   3.221   1.974
    1C        H  838   2.533   3.654   1.963
    2V3OU   H29  839   2.793   3.552   1.509
    2V3OU   C27  840   2.778   3.498   1.605
    2V3OU   H27  841   2.724   3.568   1.674
    2V3OU   H28  842   2.731   3.399   1.585
    2V3OU   O11  843   2.907   3.473   1.662
    2V3OU   C15  844   2.919   3.399   1.778
    2V3OU   C13  845   3.048   3.376   1.830
    2V3OU   C14  846   3.074   3.269   1.916
    2V3OU   C16  847   2.968   3.188   1.957
    2V3OU    H6  848   2.986   3.099   2.019
    2V3OU   C12  849   3.213   3.222   1.933
    2V3OU    O2  850   3.235   3.124   2.008
    2V3OU   C10  851   3.326   3.303   1.885
    2V3OU    C8  852   3.457   3.263   1.909
    2V3OU   O10  853   3.492   3.158   1.988
    2V3OU   H26  854   3.409   3.112   2.005
    2V3OU    C6  855   3.567   3.344   1.867
    2V3OU    C5  856   3.537   3.460   1.798
    2V3OU    C4  857   3.706   3.289   1.868
    2V3OU    H4  858   3.722   3.226   1.959
    2V3OU    H5  859   3.714   3.223   1.776
    2V3OU    C2  860   3.814   3.398   1.871
    2V3OU    O6  861   3.808   3.478   1.989
    2V3OU   H21  862   3.762   3.557   1.957
    2V3OU    C3  863   3.779   3.492   1.755
    2V3OU    H2  864   3.861   3.568   1.746
    2V3OU    H3  865   3.783   3.431   1.662
    2V3OU   C25  866   3.949   3.330   1.849
    2V3OU    O7  867   3.994   3.299   1.739
    2V3OU   C26  868   4.025   3.289   1.974
    2V3OU   H22  869   4.064   3.384   2.019
    2V3OU   H23  870   4.114   3.226   1.947
    2V3OU    O8  871   3.954   3.208   2.065
    2V3OU   H24  872   3.927   3.259   2.143
    2V3OU    C1  873   3.644   3.561   1.767
    2V3OU    H1  874   3.625   3.618   1.671
    2V3OU    O3  875   3.654   3.650   1.879
    2V3OU   C19  876   3.618   3.788   1.877
    2V3OU    H9  877   3.518   3.793   1.824
    2V3OU    O4  878   3.715   3.842   1.789
    2V3OU   C20  879   3.844   3.868   1.845
    2V3OU   H10  880   3.887   3.763   1.846
    2V3OU   C24  881   3.610   3.850   2.016
    2V3OU   H16  882   3.537   3.793   2.078
    2V3OU   H17  883   3.568   3.953   1.999
    2V3OU   C23  884   3.749   3.870   2.079
    2V3OU   H15  885   3.788   3.765   2.097
    2V3OU    N1  886   3.728   3.948   2.199
    2V3OU   H19  887   3.806   3.929   2.259
    2V3OU   H20  888   3.640   3.922   2.239
    2V3OU   C21  889   3.846   3.941   1.979
    2V3OU   H11  890   3.951   3.920   2.016
    2V3OU    O5  891   3.826   4.082   1.979
    2V3OU   H18  892   3.781   4.099   2.063
    2V3OU   C22  893   3.907   3.945   1.730
    2V3OU   H12  894   3.851   4.040   1.713
    2V3OU   H13  895   3.897   3.887   1.634
    2V3OU   H14  896   4.016   3.961   1.748
    2V3OU   C11  897   3.158   3.470   1.799
    2V3OU    O1  898   3.134   3.584   1.755
    2V3OU    C9  899   3.297   3.420   1.810
    2V3OU    C7  900   3.403   3.497   1.764
    2V3OU    O9  901   3.385   3.613   1.691
    2V3OU   H25  902   3.289   3.629   1.698
    2V3OU   C17  903   2.814   3.317   1.823
    2V3OU    H7  904   2.715   3.338   1.782
    2V3OU   C18  905   2.840   3.211   1.909
    2V3OU    H8  906   2.757   3.143   1.935
    3SOL     OW  907   1.573   4.013   1.181
    3SOL    HW1  908   1.619   4.010   1.270
    3SOL    HW2  909   1.520   4.097   1.173
    4SOL     OW  910   6.317   0.724   1.841
    4SOL    HW1  911   6.219   0.730   1.821
    4SOL    HW2  912   6.330   0.705   1.938
    5SOL     OW  913   3.945   1.166   0.705
    5SOL    HW1  914   4.027   1.209   0.743
    5SOL    HW2  915   3.880   1.148   0.779
    6SOL     OW  916   3.131   1.839   2.295
    6SOL    HW1  917   3.088   1.836   2.205
    6SOL    HW2  918   3.089   1.770   2.354
    7SOL     OW  919   5.606   1.913   2.334
    7SOL    HW1  920   5.572   1.894   2.242
    7SOL    HW2  921   5.630   1.827   2.380
    8SOL     OW  922   2.586   6.807   4.065
    8SOL    HW1  923   2.650   6.880   4.042
    8SOL    HW2  924   2.609   6.725   4.012
    9SOL     OW  925   1.454   5.086   5.594
    9SOL    HW1  926   1.392   5.047   5.663
    9SOL    HW2  927   1.509   5.012   5.554
   10SOL     OW  928   0.678   4.813   5.714
   10SOL    HW1  929   0.760   4.760   5.690
   10SOL    HW2  930   0.699   4.911   5.709
   11SOL     OW  931   3.853   6.693   0.233
   11SOL    HW1  932   3.847   6.603   0.278
   11SOL    HW2  933   3.767   6.742   0.243
   12SOL     OW  934   5.313   5.657   3.158
   12SOL    HW1  935   5.342   5.570   3.199
   12SOL    HW2  936   5.261   5.639   3.074
   13SOL     OW  937   2.873   6.207   3.793
   13SOL    HW1  938   2.794   6.192   3.734
   13SOL    HW2  939   2.933   6.127   3.789
   14SOL     OW  940   3.580   6.276   0.017
   14SOL    HW1  941   3.593   6.202   0.083
   14SOL    HW2  942   3.590   6.364   0.064
   15SOL     OW  943   1.254   6.326   6.970
   15SOL    HW1  944   1.250   6.418   6.931
   15SOL    HW2  945   1.179   6.314   0.017
   16SOL     OW  946   6.598   2.499   6.155
   16SOL    HW1  947   6.572   2.588   6.191
   16SOL    HW2  948   6.647   2.510   6.069
   17SOL     OW  949   5.315   6.713   4.158
   17SOL    HW1  950   5.410   6.683   4.164
   17SOL    HW2  951   5.310   6.794   4.099
   18SOL     OW  952   2.156   1.852   5.634
   18SOL    HW1  953   2.244   1.880   5.672
   18SOL    HW2  954   2.093   1.929   5.638
   19SOL     OW  955   0.147   0.098   2.832
   19SOL    HW1  956   0.098   0.179   2.865
   19SOL    HW2  957   0.232   0.127   2.787
   20SOL     OW  958   3.150   1.554   3.962
   20SOL    HW1  959   3.152   1.601   3.874
   20SOL    HW2  960   3.244   1.535   3.992
   21SOL     OW  961   2.781   1.628   1.729
   21SOL    HW1  962   2.801   1.549   1.787
   21SOL    HW2  963   2.848   1.700   1.746
   22SOL     OW  964   2.412   6.403   6.114
   22SOL    HW1  965   2.390   6.332   6.180
   22SOL    HW2  966   2.471   6.365   6.043
   23SOL     OW  967   4.347   6.526   3.559
   23SOL    HW1  968   4.313   6.588   3.488
   23SOL    HW2  969   4.446   6.516   3.550
   24SOL     OW  970   5.154   1.171   4.858
   24SOL    HW1  971   5.113   1.090   4.817
   24SOL    HW2  972   5.134   1.173   4.956
   25SOL     OW  973   3.378   5.265   0.460
   25SOL    HW1  974   3.397   5.172   0.492
   25SOL    HW2  975   3.461   5.306   0.424
   26SOL     OW  976   6.246   1.354   1.463
   26SOL    HW1  977   6.324   1.341   1.524
   26SOL    HW2  978   6.248   1.446   1.424
   27SOL     OW  979   6.119   0.166   2.119
   27SOL    HW1  980   6.125   0.264   2.100
   27SOL    HW2  981   6.189   0.140   2.185
   28SOL     OW  982   4.615   0.670   6.911
   28SOL    HW1  983   4.635   0.762   6.876
   28SOL    HW2  984   4.557   0.677   6.992
   29SOL     OW  985   5.007   2.391   1.469
   29SOL    HW1  986   5.023   2.488   1.450
   29SOL    HW2  987   4.915   2.379   1.505
   30SOL     OW  988   3.349   0.134   5.196
   30SOL    HW1  989   3.445   0.152   5.173
   30SOL    HW2  990   3.291   0.157   5.118
   31SOL     OW  991   0.564   1.261   5.311
   31SOL    HW1  992   0.518   1.209   5.238
   31SOL    HW2  993   0.613   1.198   5.370
   32SOL     OW  994   0.956   1.948   2.006
   32SOL    HW1  995   0.902   2.030   2.027
   32SOL    HW2  996   0.974   1.897   2.090
   33SOL     OW  997   1.923   2.356   5.851
   33SOL    HW1  998   1.993   2.289   5.828
   33SOL    HW2  999   1.965   2.435   5.897
   34SOL     OW 1000   1.967   0.227   4.732
   34SOL    HW1 1001   1.903   0.150   4.733
   34SOL    HW2 1002   1.962   0.276   4.819
   35SOL     OW 1003   4.657   1.445   0.279
   35SOL    HW1 1004   4.621   1.352   0.271
   35SOL    HW2 1005   4.663   1.471   0.376
   36SOL     OW 1006   1.403   0.954   6.009
   36SOL    HW1 1007   1.347   1.006   5.943
   36SOL    HW2 1008   1.456   0.884   5.960
   37SOL     OW 1009   2.584   6.543   1.541
   37SOL    HW1 1010   2.500   6.583   1.578
   37SOL    HW2 1011   2.581   6.546   1.441
   38SOL     OW 1012   6.893   6.166   3.200
   38SOL    HW1 1013   6.926   6.175   3.294
   38SOL    HW2 1014   6.794   6.175   3.198
   39SOL     OW 1015   6.618   3.507   5.484
   39SOL    HW1 1016   6.711   3.504   5.447
   39SOL    HW2 1017   6.617   3.469   5.576
   40SOL     OW 1018   6.304   1.198   2.487
   40SOL    HW1 1019   6.223   1.224   2.539
   40SOL    HW2 1020   6.380   1.183   2.550
   41SOL     OW 1021   1.856   6.729   4.670
   41SOL    HW1 1022   1.817   6.675   4.745
   41SOL    HW2 1023   1.826   6.690   4.583
   42SOL     OW 1024   3.547   0.352   6.457
   42SOL    HW1 1025   3.569   0.279   6.392
   42SOL    HW2 1026   3.454   0.339   6.492
   43SOL     OW 1027   5.550   6.612   5.831
   43SOL    HW1 1028   5.614   6.560   5.887
   43SOL    HW2 1029   5.600   6.678   5.775
   44SOL     OW 1030   0.505   2.726   6.311
   44SOL    HW1 1031   0.518   2.692   6.404
   44SOL    HW2 1032   0.455   2.812   6.313
   45SOL     OW 1033   2.935   1.119   2.031
   45SOL    HW1 1034   2.927   1.206   1.983
   45SOL    HW2 1035   2.856   1.106   2.091
   46SOL     OW 1036   1.535   3.739   4.128
   46SOL    HW1 1037   1.487   3.817   4.168
   46SOL    HW2 1038   1.595   3.698   4.197
   47SOL     OW 1039   6.296   4.264   3.022
   47SOL    HW1 1040   6.226   4.259   3.094
   47SOL    HW2 1041   6.269   4.207   2.945
   48SOL     OW 1042   0.118   2.315   4.897
   48SOL    HW1 1043   0.064   2.399   4.900
   48SOL    HW2 1044   0.171   2.306   4.981
   49SOL     OW 1045   4.531   3.893   0.783
   49SOL    HW1 1046   4.577   3.981   0.795
   49SOL    HW2 1047   4.546   3.859   0.690
   50SOL     OW 1048   6.490   3.605   4.887
   50SOL    HW1 1049   6.433   3.686   4.901
   50SOL    HW2 1050   6.557   3.598   4.961
   51SOL     OW 1051   3.477   4.889   2.663
   51SOL    HW1 1052   3.394   4.944   2.670
   51SOL    HW2 1053   3.516   4.874   2.754
   52SOL     OW 1054   3.113   1.749   2.687
   52SOL    HW1 1055   3.145   1.838   2.720
   52SOL    HW2 1056   3.027   1.760   2.637
   53SOL     OW 1057   4.924   6.663   3.963
   53SOL    HW1 1058   4.847   6.602   3.942
   53SOL    HW2 1059   4.895   6.731   4.030
   54SOL     OW 1060   3.028   4.845   5.898
   54SOL    HW1 1061   3.033   4.848   5.798
   54SOL    HW2 1062   2.962   4.913   5.930
   55SOL     OW 1063   3.681   1.384   6.035
   55SOL    HW1 1064   3.761   1.324   6.045
   55SOL    HW2 1065   3.705   1.463   5.978
   56SOL     OW 1066   1.290   0.810   2.375
   56SOL    HW1 1067   1.223   0.811   2.301
   56SOL    HW2 1068   1.285   0.722   2.423
   57SOL     OW 1069   5.045   0.840   0.779
   57SOL    HW1 1070   5.021   0.777   0.853
   57SOL    HW2 1071   5.057   0.788   0.694
   58SOL     OW 1072   0.504   6.843   0.000
   58SOL    HW1 1073   0.467   6.936   7.015
   58SOL    HW2 1074   0.432   6.779   0.027
   59SOL     OW 1075   1.554   0.750   5.902
   59SOL    HW1 1076   1.561   0.701   5.815
   59SOL    HW2 1077   1.646   0.767   5.937
   60SOL     OW 1078   4.360   0.083   5.357
   60SOL    HW1 1079   4.273   0.035   5.349
   60SOL    HW2 1080   4.384   0.093   5.453
   61SOL     OW 1081   4.991   0.148   4.121
   61SOL    HW1 1082   5.039   0.232   4.095
   61SOL    HW2 1083   4.916   0.171   4.184
   62SOL     OW 1084   1.465   0.352   4.035
   62SOL    HW1 1085   1.456   0.393   4.126
   62SOL    HW2 1086   1.382   0.371   3.983
   63SOL     OW 1087   6.657   2.547   3.344
   63SOL    HW1 1088   6.614   2.634   3.320
   63SOL    HW2 1089   6.619   2.474   3.288
   64SOL     OW 1090   6.400   3.551   6.446
   64SOL    HW1 1091   6.455   3.620   6.492
   64SOL    HW2 1092   6.428   3.460   6.476
   65SOL     OW 1093   6.623   4.774   4.858
   65SOL    HW1 1094   6.631   4.767   4.758
   65SOL    HW2 1095   6.534   4.813   4.880
   66SOL     OW 1096   3.389   0.645   6.512
   66SOL    HW1 1097   3.481   0.647   6.472
   66SOL    HW2 1098   3.386   0.578   6.586
   67SOL     OW 1099   5.615   6.095   5.357
   67SOL    HW1 1100   5.562   6.018   5.392
   67SOL    HW2 1101   5.613   6.169   5.425
   68SOL     OW 1102   5.904   1.658   6.455
   68SOL    HW1 1103   5.822   1.606   6.476
   68SOL    HW2 1104   5.891   1.711   6.371
   69SOL     OW 1105   2.579   4.452   5.914
   69SOL    HW1 1106   2.556   4.536   5.866
   69SOL    HW2 1107   2.661   4.467   5.971
   70SOL     OW 1108   0.116   5.649   2.576
   70SOL    HW1 1109   0.210   5.660   2.542
   70SOL    HW2 1110   0.062   5.598   2.508
   71SOL     OW 1111   2.321   2.782   3.145
   71SOL    HW1 1112   2.333   2.744   3.054
   71SOL    HW2 1113   2.393   2.747   3.205
   72SOL     OW 1114   3.008   5.773   4.004
   72SOL    HW1 1115   3.049   5.746   3.917
   72SOL    HW2 1116   2.970   5.692   4.049
   73SOL     OW 1117   3.305   1.652   0.154
   73SOL    HW1 1118   3.235   1.592   0.194
   73SOL    HW2 1119   3.283   1.669   0.058
   74SOL     OW 1120   5.321   6.563   6.654
   74SOL    HW1 1121   5.343   6.643   6.710
   74SOL    HW2 1122   5.401   6.503   6.649
   75SOL     OW 1123   3.528   5.903   5.319
   75SOL    HW1 1124   3.490   5.817   5.285
   75SOL    HW2 1125   3.509   5.911   5.417
   76SOL     OW 1126   2.170   2.562   1.232
   76SOL    HW1 1127   2.192   2.486   1.171
   76SOL    HW2 1128   2.229   2.559   1.312
   77SOL     OW 1129   5.401   5.127   4.996
   77SOL    HW1 1130   5.307   5.161   4.993
   77SOL    HW2 1131   5.405   5.034   4.960
   78SOL     OW 1132   6.320   6.170   5.783
   78SOL    HW1 1133   6.339   6.074   5.764
   78SOL    HW2 1134   6.290   6.180   5.878
   79SOL     OW 1135   3.219   6.992   0.937
   79SOL    HW1 1136   3.224   6.903   0.892
   79SOL    HW2 1137   3.222   0.046   0.868
   80SOL     OW 1138   6.293   1.339   4.938
   80SOL    HW1 1139   6.393   1.340   4.931
   80SOL    HW2 1140   6.254   1.367   4.850
   81SOL     OW 1141   1.920   0.755   2.863
   81SOL    HW1 1142   1.868   0.779   2.945
   81SOL    HW2 1143   2.015   0.785   2.873
   82SOL     OW 1144   6.687   5.140   6.738
   82SOL    HW1 1145   6.659   5.116   6.645
   82SOL    HW2 1146   6.787   5.140   6.744
   83SOL     OW 1147   6.836   6.697   0.603
   83SOL    HW1 1148   6.824   6.685   0.702
   83SOL    HW2 1149   6.753   6.665   0.556
   84SOL     OW 1150   5.228   3.976   2.097
   84SOL    HW1 1151   5.159   3.996   2.028
   84SOL    HW2 1152   5.193   3.907   2.161
   85SOL     OW 1153   0.426   1.727   4.966
   85SOL    HW1 1154   0.435   1.823   4.942
   85SOL    HW2 1155   0.459   1.711   5.059
   86SOL     OW 1156   0.570   0.484   5.891
   86SOL    HW1 1157   0.661   0.505   5.855
   86SOL    HW2 1158   0.578   0.436   5.978
   87SOL     OW 1159   5.027   2.775   0.071
   87SOL    HW1 1160   4.968   2.700   0.041
   87SOL    HW2 1161   5.123   2.745   0.067
   88SOL     OW 1162   4.994   1.444   0.641
   88SOL    HW1 1163   5.021   1.368   0.581
   88SOL    HW2 1164   4.923   1.413   0.704
   89SOL     OW 1165   1.527   2.700   6.592
   89SOL    HW1 1166   1.625   2.715   6.575
   89SOL    HW2 1167   1.512   2.686   6.689
   90SOL     OW 1168   6.274   6.529   3.759
   90SOL    HW1 1169   6.335   6.528   3.679
   90SOL    HW2 1170   6.217   6.612   3.756
   91SOL     OW 1171   5.033   4.610   3.980
   91SOL    HW1 1172   5.029   4.513   4.001
   91SOL    HW2 1173   5.129   4.638   3.969
   92SOL     OW 1174   3.142   4.881   0.901
   92SOL    HW1 1175   3.087   4.798   0.912
   92SOL    HW2 1176   3.202   4.891   0.980
   93SOL     OW 1177   3.241   4.630   5.701
   93SOL    HW1 1178   3.148   4.664   5.688
   93SOL    HW2 1179   3.304   4.707   5.713
   94SOL     OW 1180   3.192   5.552   6.990
   94SOL    HW1 1181   3.235   5.524   0.058
   94SOL    HW2 1182   3.114   5.492   6.972
   95SOL     OW 1183   0.522   0.887   3.762
   95SOL    HW1 1184   0.529   0.880   3.663
   95SOL    HW2 1185   0.603   0.847   3.804
   96SOL     OW 1186   2.620   0.114   5.239
   96SOL    HW1 1187   2.718   0.133   5.253
   96SOL    HW2 1188   2.578   0.092   5.327
   97SOL     OW 1189   5.970   3.866   4.107
   97SOL    HW1 1190   5.889   3.858   4.049
   97SOL    HW2 1191   5.957   3.812   4.190
   98SOL     OW 1192   5.469   2.652   6.413
   98SOL    HW1 1193   5.404   2.594   6.364
   98SOL    HW2 1194   5.478   2.740   6.366
   99SOL     OW 1195   4.054   2.698   1.032
   99SOL    HW1 1196   4.037   2.738   0.942
   99SOL    HW2 1197   4.116   2.757   1.084
  100SOL     OW 1198   0.578   6.711   6.773
  100SOL    HW1 1199   0.521   6.770   6.830
  100SOL    HW2 1200   0.626   6.645   6.830
  101SOL     OW 1201   0.505   6.011   3.559
  101SOL    HW1 1202   0.558   6.037   3.639
  101SOL    HW2 1203   0.566   5.980   3.486
  102SOL     OW 1204   4.308   0.599   3.351
  102SOL    HW1 1205   4.219   0.591   3.306
  102SOL    HW2 1206   4.370   0.651   3.292
  103SOL     OW 1207   4.087   1.921   1.444
  103SOL    HW1 1208   4.075   2.000   1.504
  103SOL    HW2 1209   4.168   1.870   1.472
  104SOL     OW 1210   6.401   5.154   2.705
  104SOL    HW1 1211   6.445   5.172   2.793
  104SOL    HW2 1212   6.303   5.140   2.718
  105SOL     OW 1213   6.807   1.180   6.684
  105SOL    HW1 1214   6.731   1.120   6.657
  105SOL    HW2 1215   6.893   1.144   6.646
  106SOL     OW 1216   2.510   6.167   6.375
  106SOL    HW1 1217   2.411   6.166   6.361
  106SOL    HW2 1218   2.529   6.167   6.473
  107SOL     OW 1219   1.662   2.649   1.294
  107SOL    HW1 1220   1.642   2.706   1.373
  107SOL    HW2 1221   1.759   2.623   1.295
  108SOL     OW 1222   4.812   4.794   6.748
  108SOL    HW1 1223   4.759   4.764   6.828
  108SOL    HW2 1224   4.885   4.855   6.779
  109SOL     OW 1225   0.444   0.318   0.914
  109SOL    HW1 1226   0.453   0.267   1.000
  109SOL    HW2 1227   0.364   0.284   0.863
  110SOL     OW 1228   3.522   5.905   5.605
  110SOL    HW1 1229   3.435   5.857   5.618
  110SOL    HW2 1230   3.541   5.960   5.686
  111SOL     OW 1231   3.791   0.643   3.698
  111SOL    HW1 1232   3.818   0.661   3.793
  111SOL    HW2 1233   3.740   0.557   3.695
  112SOL     OW 1234   5.684   5.898   5.740
  112SOL    HW1 1235   5.706   5.851   5.654
  112SOL    HW2 1236   5.619   5.971   5.722
  113SOL     OW 1237   6.556   4.598   3.672
  113SOL    HW1 1238   6.588   4.676   3.725
  113SOL    HW2 1239   6.626   4.570   3.607
  114SOL     OW 1240   0.548   6.324   0.728
  114SOL    HW1 1241   0.579   6.398   0.669
  114SOL    HW2 1242   0.459   6.348   0.768
  115SOL     OW 1243   5.048   1.304   4.131
  115SOL    HW1 1244   4.951   1.299   4.151
  115SOL    HW2 1245   5.062   1.301   4.033
  116SOL     OW 1246   6.389   4.518   2.404
  116SOL    HW1 1247   6.332   4.540   2.483
  116SOL    HW2 1248   6.482   4.497   2.433
  117SOL     OW 1249   1.035   0.560   6.313
  117SOL    HW1 1250   1.114   0.620   6.327
  117SOL    HW2 1251   1.066   0.470   6.284
  118SOL     OW 1252   0.522   1.396   1.357
  118SOL    HW1 1253   0.465   1.337   1.300
  118SOL    HW2 1254   0.584   1.449   1.299
  119SOL     OW 1255   6.943   2.450   6.514
  119SOL    HW1 1256   6.908   2.414   6.427
  119SOL    HW2 1257   6.892   2.533   6.538
  120SOL     OW 1258   5.986   0.204   0.961
  120SOL    HW1 1259   5.998   0.133   0.892
  120SOL    HW2 1260   6.053   0.277   0.946
  121SOL     OW 1261   2.513   3.309   6.388
  121SOL    HW1 1262   2.501   3.406   6.370
  121SOL    HW2 1263   2.592   3.295   6.448
  122SOL     OW 1264   1.324   3.849   5.091
  122SOL    HW1 1265   1.317   3.887   4.998
  122SOL    HW2 1266   1.248   3.883   5.147
  123SOL     OW 1267   6.923   1.990   1.214
  123SOL    HW1 1268   6.875   1.916   1.260
  123SOL    HW2 1269   6.968   2.048   1.283
  124SOL     OW 1270   4.808   3.571   0.228
  124SOL    HW1 1271   4.711   3.591   0.218
  124SOL    HW2 1272   4.821   3.501   0.298
  125SOL     OW 1273   1.868   1.937   2.206
  125SOL    HW1 1274   1.932   2.007   2.239
  125SOL    HW2 1275   1.788   1.981   2.166
  126SOL     OW 1276   2.479   4.437   0.939
  126SOL    HW1 1277   2.430   4.523   0.931
  126SOL    HW2 1278   2.428   4.375   0.999
  127SOL     OW 1279   6.727   5.003   5.772
  127SOL    HW1 1280   6.704   5.010   5.675
  127SOL    HW2 1281   6.669   4.934   5.815
  128SOL     OW 1282   4.525   3.055   1.594
  128SOL    HW1 1283   4.514   2.964   1.634
  128SOL    HW2 1284   4.557   3.119   1.664
  129SOL     OW 1285   3.446   3.390   6.410
  129SOL    HW1 1286   3.459   3.428   6.502
  129SOL    HW2 1287   3.348   3.379   6.392
  130SOL     OW 1288   1.487   0.893   4.407
  130SOL    HW1 1289   1.495   0.848   4.496
  130SOL    HW2 1290   1.403   0.948   4.405
  131SOL     OW 1291   5.022   1.341   3.465
  131SOL    HW1 1292   5.020   1.406   3.390
  131SOL    HW2 1293   5.073   1.259   3.437
  132SOL     OW 1294   1.466   2.871   1.505
  132SOL    HW1 1295   1.396   2.933   1.467
  132SOL    HW2 1296   1.421   2.799   1.557
  133SOL     OW 1297   5.623   6.430   2.639
  133SOL    HW1 1298   5.648   6.525   2.655
  133SOL    HW2 1299   5.534   6.411   2.679
  134SOL     OW 1300   6.506   2.782   3.330
  134SOL    HW1 1301   6.413   2.748   3.347
  134SOL    HW2 1302   6.531   2.845   3.403
  135SOL     OW 1303   5.117   1.592   3.755
  135SOL    HW1 1304   5.120   1.578   3.854
  135SOL    HW2 1305   5.206   1.567   3.716
  136SOL     OW 1306   5.156   4.291   5.370
  136SOL    HW1 1307   5.109   4.210   5.336
  136SOL    HW2 1308   5.093   4.347   5.423
  137SOL     OW 1309   4.992   6.899   5.258
  137SOL    HW1 1310   5.009   6.825   5.322
  137SOL    HW2 1311   4.962   6.862   5.170
  138SOL     OW 1312   0.478   5.112   4.615
  138SOL    HW1 1313   0.550   5.094   4.683
  138SOL    HW2 1314   0.504   5.072   4.527
  139SOL     OW 1315   2.575   5.404   5.180
  139SOL    HW1 1316   2.609   5.339   5.112
  139SOL    HW2 1317   2.561   5.493   5.136
  140SOL     OW 1318   5.647   5.174   4.143
  140SOL    HW1 1319   5.576   5.230   4.099
  140SOL    HW2 1320   5.607   5.089   4.176
  141SOL     OW 1321   0.820   1.893   5.035
  141SOL    HW1 1322   0.904   1.890   5.089
  141SOL    HW2 1323   0.753   1.950   5.081
  142SOL     OW 1324   1.457   6.135   1.810
  142SOL    HW1 1325   1.446   6.230   1.840
  142SOL    HW2 1326   1.399   6.118   1.731
  143SOL     OW 1327   5.697   4.739   1.978
  143SOL    HW1 1328   5.608   4.768   1.943
  143SOL    HW2 1329   5.684   4.666   2.045
  144SOL     OW 1330   1.168   6.421   6.269
  144SOL    HW1 1331   1.197   6.447   6.177
  144SOL    HW2 1332   1.222   6.344   6.302
  145SOL     OW 1333   0.829   5.640   0.539
  145SOL    HW1 1334   0.912   5.667   0.490
  145SOL    HW2 1335   0.765   5.717   0.542
  146SOL     OW 1336   5.388   6.587   0.229
  146SOL    HW1 1337   5.404   6.546   0.140
  146SOL    HW2 1338   5.363   6.515   0.294
  147SOL     OW 1339   6.602   2.899   0.576
  147SOL    HW1 1340   6.515   2.860   0.546
  147SOL    HW2 1341   6.672   2.827   0.577
  148SOL     OW 1342   0.466   5.209   5.154
  148SOL    HW1 1343   0.471   5.306   5.176
  148SOL    HW2 1344   0.371   5.179   5.151
  149SOL     OW 1345   3.207   1.097   4.073
  149SOL    HW1 1346   3.201   1.003   4.107
  149SOL    HW2 1347   3.237   1.096   3.978
  150SOL     OW 1348   6.807   5.090   6.374
  150SOL    HW1 1349   6.806   5.145   6.290
  150SOL    HW2 1350   6.729   5.115   6.431
  151SOL     OW 1351   3.644   1.248   1.271
  151SOL    HW1 1352   3.583   1.272   1.346
  151SOL    HW2 1353   3.699   1.169   1.297
  152SOL     OW 1354   2.651   0.839   4.571
  152SOL    HW1 1355   2.699   0.776   4.632
  152SOL    HW2 1356   2.556   0.850   4.602
  153SOL     OW 1357   2.517   0.270   2.401
  153SOL    HW1 1358   2.472   0.257   2.313
  153SOL    HW2 1359   2.448   0.274   2.474
  154SOL     OW 1360   0.200   2.488   1.522
  154SOL    HW1 1361   0.201   2.527   1.614
  154SOL    HW2 1362   0.208   2.562   1.455
  155SOL     OW 1363   0.467   1.075   3.354
  155SOL    HW1 1364   0.446   1.104   3.261
  155SOL    HW2 1365   0.397   1.110   3.416
  156SOL     OW 1366   5.903   1.550   1.204
  156SOL    HW1 1367   5.943   1.500   1.280
  156SOL    HW2 1368   5.973   1.609   1.162
  157SOL     OW 1369   6.287   3.046   2.468
  157SOL    HW1 1370   6.201   3.023   2.422
  157SOL    HW2 1371   6.295   3.145   2.477
  158SOL     OW 1372   3.232   0.984   2.726
  158SOL    HW1 1373   3.267   0.908   2.781
  158SOL    HW2 1374   3.235   1.068   2.780
  159SOL     OW 1375   4.766   4.690   1.880
  159SOL    HW1 1376   4.728   4.768   1.831
  159SOL    HW2 1377   4.753   4.607   1.826
  160SOL     OW 1378   6.893   4.759   6.099
  160SOL    HW1 1379   6.845   4.806   6.173
  160SOL    HW2 1380   6.902   4.662   6.121
  161SOL     OW 1381   2.142   4.867   4.897
  161SOL    HW1 1382   2.157   4.787   4.838
  161SOL    HW2 1383   2.086   4.840   4.975
  162SOL     OW 1384   4.478   5.917   0.635
  162SOL    HW1 1385   4.479   5.920   0.535
  162SOL    HW2 1386   4.521   5.832   0.666
  163SOL     OW 1387   4.184   6.516   1.764
  163SOL    HW1 1388   4.191   6.487   1.669
  163SOL    HW2 1389   4.270   6.494   1.812
  164SOL     OW 1390   6.430   3.752   1.204
  164SOL    HW1 1391   6.477   3.828   1.249
  164SOL    HW2 1392   6.445   3.668   1.255
  165SOL     OW 1393   4.882   3.366   6.758
  165SOL    HW1 1394   4.804   3.426   6.736
  165SOL    HW2 1395   4.912   3.384   6.851
  166SOL     OW 1396   0.399   6.321   3.509
  166SOL    HW1 1397   0.386   6.402   3.566
  166SOL    HW2 1398   0.375   6.239   3.562
  167SOL     OW 1399   5.991   2.466   6.793
  167SOL    HW1 1400   5.957   2.464   6.888
  167SOL    HW2 1401   6.085   2.433   6.791
  168SOL     OW 1402   2.219   4.539   1.073
  168SOL    HW1 1403   2.263   4.586   0.997
  168SOL    HW2 1404   2.149   4.598   1.113
  169SOL     OW 1405   2.773   0.609   1.869
  169SOL    HW1 1406   2.805   0.645   1.782
  169SOL    HW2 1407   2.719   0.526   1.852
  170SOL     OW 1408   7.016   1.824   3.866
  170SOL    HW1 1409   0.070   1.881   3.905
  170SOL    HW2 1410   6.944   1.811   3.934
  171SOL     OW 1411   3.737   3.765   0.602
  171SOL    HW1 1412   3.815   3.706   0.624
  171SOL    HW2 1413   3.730   3.837   0.670
  172SOL     OW 1414   6.824   2.120   5.101
  172SOL    HW1 1415   6.729   2.091   5.089
  172SOL    HW2 1416   6.860   2.083   5.186
  173SOL     OW 1417   6.980   6.851   4.517
  173SOL    HW1 1418   6.927   6.927   4.479
  173SOL    HW2 1419   0.045   6.886   4.559
  174SOL     OW 1420   2.574   5.192   3.621
  174SOL    HW1 1421   2.587   5.094   3.638
  174SOL    HW2 1422   2.663   5.236   3.612
  175SOL     OW 1423   1.764   6.510   2.342
  175SOL    HW1 1424   1.778   6.422   2.298
  175SOL    HW2 1425   1.666   6.531   2.346
  176SOL     OW 1426   2.073   4.196   1.303
  176SOL    HW1 1427   2.168   4.213   1.331
  176SOL    HW2 1428   2.055   4.245   1.217
  177SOL     OW 1429   5.397   2.103   3.305
  177SOL    HW1 1430   5.366   2.008   3.315
  177SOL    HW2 1431   5.426   2.118   3.211
  178SOL     OW 1432   4.945   4.208   6.413
  178SOL    HW1 1433   5.018   4.258   6.368
  178SOL    HW2 1434   4.895   4.269   6.475
  179SOL     OW 1435   2.967   0.748   0.647
  179SOL    HW1 1436   3.050   0.793   0.615
  179SOL    HW2 1437   2.985   0.706   0.737
  180SOL     OW 1438   0.736   1.439   0.006
  180SOL    HW1 1439   0.790   1.410   6.945
  180SOL    HW2 1440   0.766   1.388   0.086
  181SOL     OW 1441   3.426   1.783   6.862
  181SOL    HW1 1442   3.475   1.699   6.839
  181SOL    HW2 1443   3.328   1.766   6.863
  182SOL     OW 1444   4.542   2.217   4.074
  182SOL    HW1 1445   4.558   2.154   4.150
  182SOL    HW2 1446   4.473   2.178   4.013
  183SOL     OW 1447   4.384   1.087   1.809
  183SOL    HW1 1448   4.476   1.053   1.829
  183SOL    HW2 1449   4.326   1.012   1.778
  184SOL     OW 1450   1.302   5.388   3.262
  184SOL    HW1 1451   1.299   5.478   3.305
  184SOL    HW2 1452   1.395   5.368   3.232
  185SOL     OW 1453   1.497   3.564   6.470
  185SOL    HW1 1454   1.456   3.608   6.390
  185SOL    HW2 1455   1.466   3.470   6.475
  186SOL     OW 1456   6.252   0.236   3.338
  186SOL    HW1 1457   6.344   0.263   3.310
  186SOL    HW2 1458   6.191   0.315   3.335
  187SOL     OW 1459   5.707   1.230   4.232
  187SOL    HW1 1460   5.663   1.240   4.143
  187SOL    HW2 1461   5.637   1.227   4.304
  188SOL     OW 1462   5.803   2.060   3.331
  188SOL    HW1 1463   5.808   2.132   3.262
  188SOL    HW2 1464   5.833   1.973   3.290
  189SOL     OW 1465   2.369   5.524   2.474
  189SOL    HW1 1466   2.287   5.477   2.507
  189SOL    HW2 1467   2.351   5.622   2.468
  190SOL     OW 1468   3.445   1.264   5.435
  190SOL    HW1 1469   3.477   1.169   5.440
  190SOL    HW2 1470   3.349   1.265   5.406
  191SOL     OW 1471   5.912   5.742   6.280
  191SOL    HW1 1472   5.934   5.658   6.230
  191SOL    HW2 1473   5.988   5.807   6.270
  192SOL     OW 1474   6.437   6.744   2.236
  192SOL    HW1 1475   6.501   6.801   2.184
  192SOL    HW2 1476   6.410   6.793   2.319
  193SOL     OW 1477   4.934   3.030   6.588
  193SOL    HW1 1478   4.913   2.941   6.629
  193SOL    HW2 1479   5.029   3.054   6.610
  194SOL     OW 1480   3.279   0.689   3.111
  194SOL    HW1 1481   3.333   0.608   3.136
  194SOL    HW2 1482   3.295   0.711   3.015
  195SOL     OW 1483   1.762   5.259   3.937
  195SOL    HW1 1484   1.781   5.261   3.839
  195SOL    HW2 1485   1.680   5.204   3.953
  196SOL     OW 1486   1.528   2.087   6.841
  196SOL    HW1 1487   1.475   2.169   6.863
  196SOL    HW2 1488   1.517   2.066   6.744
  197SOL     OW 1489   2.103   1.392   1.263
  197SOL    HW1 1490   2.068   1.478   1.302
  197SOL    HW2 1491   2.090   1.318   1.328
  198SOL     OW 1492   4.261   1.118   3.270
  198SOL    HW1 1493   4.200   1.195   3.248
  198SOL    HW2 1494   4.345   1.153   3.310
  199SOL     OW 1495   1.200   2.571   4.451
  199SOL    HW1 1496   1.210   2.488   4.397
  199SOL    HW2 1497   1.272   2.574   4.521
  200SOL     OW 1498   0.308   2.595   0.796
  200SOL    HW1 1499   0.319   2.509   0.846
  200SOL    HW2 1500   0.295   2.576   0.698
  201SOL     OW 1501   0.814   0.581   5.818
  201SOL    HW1 1502   0.832   0.571   5.720
  201SOL    HW2 1503   0.887   0.637   5.859
  202SOL     OW 1504   4.470   0.182   6.240
  202SOL    HW1 1505   4.521   0.261   6.272
  202SOL    HW2 1506   4.468   0.112   6.312
  203SOL     OW 1507   5.848   2.999   5.311
  203SOL    HW1 1508   5.885   3.022   5.221
  203SOL    HW2 1509   5.751   3.024   5.315
  204SOL     OW 1510   0.465   0.278   5.710
  204SOL    HW1 1511   0.504   0.349   5.768
  204SOL    HW2 1512   0.523   0.196   5.713
  205SOL     OW 1513   1.176   2.511   2.251
  205SOL    HW1 1514   1.189   2.522   2.152
  205SOL    HW2 1515   1.130   2.423   2.268
  206SOL     OW 1516   0.399   3.254   1.064
  206SOL    HW1 1517   0.330   3.319   1.032
  206SOL    HW2 1518   0.353   3.172   1.100
  207SOL     OW 1519   5.038   2.079   3.618
  207SOL    HW1 1520   5.083   1.992   3.637
  207SOL    HW2 1521   5.100   2.155   3.639
  208SOL     OW 1522   1.036   3.955   4.856
  208SOL    HW1 1523   1.132   3.960   4.830
  208SOL    HW2 1524   0.997   3.869   4.824
  209SOL     OW 1525   6.642   4.395   2.464
  209SOL    HW1 1526   6.708   4.467   2.483
  209SOL    HW2 1527   6.680   4.307   2.491
  210SOL     OW 1528   4.257   2.308   0.271
  210SOL    HW1 1529   4.185   2.270   0.329
  210SOL    HW2 1530   4.241   2.406   0.259
  211SOL     OW 1531   1.512   0.438   3.280
  211SOL    HW1 1532   1.583   0.456   3.348
  211SOL    HW2 1533   1.425   0.421   3.327
  212SOL     OW 1534   1.533   3.702   3.247
  212SOL    HW1 1535   1.499   3.779   3.192
  212SOL    HW2 1536   1.488   3.703   3.336
  213SOL     OW 1537   1.564   5.281   1.493
  213SOL    HW1 1538   1.579   5.188   1.525
  213SOL    HW2 1539   1.523   5.279   1.402
  214SOL     OW 1540   4.209   5.575   2.300
  214SOL    HW1 1541   4.140   5.505   2.279
  214SOL    HW2 1542   4.247   5.559   2.391
  215SOL     OW 1543   2.228   4.944   1.919
  215SOL    HW1 1544   2.162   4.958   1.993
  215SOL    HW2 1545   2.270   4.854   1.928
  216SOL     OW 1546   1.626   0.278   2.529
  216SOL    HW1 1547   1.649   0.229   2.445
  216SOL    HW2 1548   1.603   0.212   2.601
  217SOL     OW 1549   1.318   3.566   6.187
  217SOL    HW1 1550   1.238   3.625   6.192
  217SOL    HW2 1551   1.291   3.471   6.197
  218SOL     OW 1552   0.850   2.405   5.358
  218SOL    HW1 1553   0.862   2.433   5.263
  218SOL    HW2 1554   0.929   2.436   5.412
  219SOL     OW 1555   3.784   0.407   0.356
  219SOL    HW1 1556   3.826   0.468   0.423
  219SOL    HW2 1557   3.842   0.326   0.345
  220SOL     OW 1558   3.409   0.251   1.153
  220SOL    HW1 1559   3.358   0.254   1.067
  220SOL    HW2 1560   3.345   0.246   1.229
  221SOL     OW 1561   5.371   5.471   1.100
  221SOL    HW1 1562   5.459   5.436   1.131
  221SOL    HW2 1563   5.300   5.402   1.114
  222SOL     OW 1564   2.025   4.372   6.504
  222SOL    HW1 1565   2.030   4.308   6.427
  222SOL    HW2 1566   2.027   4.320   6.590
  223SOL     OW 1567   6.726   2.668   5.058
  223SOL    HW1 1568   6.748   2.609   5.136
  223SOL    HW2 1569   6.731   2.615   4.973
  224SOL     OW 1570   2.426   1.834   5.880
  224SOL    HW1 1571   2.424   1.893   5.800
  224SOL    HW2 1572   2.478   1.751   5.858
  225SOL     OW 1573   4.695   3.870   6.049
  225SOL    HW1 1574   4.791   3.880   6.025
  225SOL    HW2 1575   4.638   3.898   5.971
  226SOL     OW 1576   1.193   1.752   6.550
  226SOL    HW1 1577   1.097   1.735   6.573
  226SOL    HW2 1578   1.199   1.792   6.459
  227SOL     OW 1579   2.223   3.915   2.150
  227SOL    HW1 1580   2.175   3.972   2.216
  227SOL    HW2 1581   2.230   3.821   2.186
  228SOL     OW 1582   1.611   0.476   2.864
  228SOL    HW1 1583   1.578   0.545   2.800
  228SOL    HW2 1584   1.705   0.497   2.890
  229SOL     OW 1585   5.163   4.754   6.690
  229SOL    HW1 1586   5.243   4.729   6.636
  229SOL    HW2 1587   5.113   4.828   6.646
  230SOL     OW 1588   4.355   5.839   4.547
  230SOL    HW1 1589   4.338   5.885   4.635
  230SOL    HW2 1590   4.364   5.741   4.562
  231SOL     OW 1591   5.318   1.281   6.863
  231SOL    HW1 1592   5.336   1.379   6.860
  231SOL    HW2 1593   5.303   1.253   6.958
  232SOL     OW 1594   0.761   2.443   6.163
  232SOL    HW1 1595   0.762   2.385   6.245
  232SOL    HW2 1596   0.851   2.441   6.120
  233SOL     OW 1597   2.880   1.541   3.652
  233SOL    HW1 1598   2.887   1.445   3.677
  233SOL    HW2 1599   2.942   1.596   3.709
  234SOL     OW 1600   5.613   1.250   6.261
  234SOL    HW1 1601   5.701   1.292   6.282
  234SOL    HW2 1602   5.540   1.304   6.304
  235SOL     OW 1603   4.897   3.475   2.205
  235SOL    HW1 1604   4.874   3.383   2.174
  235SOL    HW2 1605   4.896   3.478   2.304
  236SOL     OW 1606   4.335   3.483   6.406
  236SOL    HW1 1607   4.250   3.500   6.456
  236SOL    HW2 1608   4.315   3.470   6.309
  237SOL     OW 1609   5.928   3.995   2.590
  237SOL    HW1 1610   5.865   3.978   2.665
  237SOL    HW2 1611   5.882   4.049   2.519
  238SOL     OW 1612   5.971   1.760   0.394
  238SOL    HW1 1613   5.962   1.811   0.309
  238SOL    HW2 1614   6.008   1.669   0.374
  239SOL     OW 1615   1.111   4.074   0.646
  239SOL    HW1 1616   1.195   4.036   0.609
  239SOL    HW2 1617   1.054   4.001   0.684
  240SOL     OW 1618   6.483   3.921   3.035
  240SOL    HW1 1619   6.425   3.852   2.992
  240SOL    HW2 1620   6.486   3.905   3.133
  241SOL     OW 1621   2.601   1.741   4.202
  241SOL    HW1 1622   2.543   1.811   4.161
  241SOL    HW2 1623   2.665   1.707   4.133
  242SOL     OW 1624   3.285   4.037   3.539
  242SOL    HW1 1625   3.196   4.013   3.578
  242SOL    HW2 1626   3.353   3.969   3.567
  243SOL     OW 1627   4.615   2.753   6.586
  243SOL    HW1 1628   4.591   2.789   6.676
  243SOL    HW2 1629   4.715   2.754   6.576
  244SOL     OW 1630   6.266   3.268   6.341
  244SOL    HW1 1631   6.199   3.211   6.389
  244SOL    HW2 1632   6.324   3.316   6.408
  245SOL     OW 1633   3.409   1.844   3.349
  245SOL    HW1 1634   3.405   1.750   3.383
  245SOL    HW2 1635   3.414   1.844   3.249
  246SOL     OW 1636   5.875   1.699   3.420
  246SOL    HW1 1637   5.906   1.790   3.447
  246SOL    HW2 1638   5.944   1.631   3.445
  247SOL     OW 1639   2.085   2.179   0.731
  247SOL    HW1 1640   2.087   2.164   0.633
  247SOL    HW2 1641   2.174   2.213   0.763
  248SOL     OW 1642   2.520   1.518   2.478
  248SOL    HW1 1643   2.577   1.488   2.402
  248SOL    HW2 1644   2.513   1.617   2.477
  249SOL     OW 1645   5.472   0.163   4.901
  249SOL    HW1 1646   5.551   0.106   4.923
  249SOL    HW2 1647   5.404   0.156   4.974
  250SOL     OW 1648   3.668   2.859   0.688
  250SOL    HW1 1649   3.644   2.766   0.661
  250SOL    HW2 1650   3.586   2.917   0.686
  251SOL     OW 1651   4.350   3.801   5.574
  251SOL    HW1 1652   4.313   3.746   5.648
  251SOL    HW2 1653   4.360   3.744   5.492
  252SOL     OW 1654   5.881   6.812   5.846
  252SOL    HW1 1655   5.936   6.845   5.770
  252SOL    HW2 1656   5.803   6.874   5.861
  253SOL     OW 1657   4.015   5.209   5.518
  253SOL    HW1 1658   3.991   5.279   5.451
  253SOL    HW2 1659   3.972   5.122   5.492
  254SOL     OW 1660   6.688   2.967   4.057
  254SOL    HW1 1661   6.643   2.914   4.129
  254SOL    HW2 1662   6.774   2.923   4.032
  255SOL     OW 1663   1.583   4.981   5.946
  255SOL    HW1 1664   1.653   5.052   5.956
  255SOL    HW2 1665   1.604   4.923   5.867
  256SOL     OW 1666   4.275   3.195   5.989
  256SOL    HW1 1667   4.362   3.150   6.005
  256SOL    HW2 1668   4.266   3.273   6.052
  257SOL     OW 1669   4.538   6.145   2.653
  257SOL    HW1 1670   4.622   6.159   2.706
  257SOL    HW2 1671   4.497   6.058   2.679
  258SOL     OW 1672   2.409   4.056   5.911
  258SOL    HW1 1673   2.469   4.131   5.883
  258SOL    HW2 1674   2.459   3.970   5.906
  259SOL     OW 1675   4.530   0.415   2.299
  259SOL    HW1 1676   4.489   0.346   2.360
  259SOL    HW2 1677   4.605   0.460   2.347
  260SOL     OW 1678   4.073   4.911   3.250
  260SOL    HW1 1679   4.143   4.919   3.179
  260SOL    HW2 1680   3.982   4.917   3.209
  261SOL     OW 1681   4.927   4.729   0.931
  261SOL    HW1 1682   4.846   4.779   0.901
  261SOL    HW2 1683   4.992   4.722   0.856
  262SOL     OW 1684   1.991   3.451   0.918
  262SOL    HW1 1685   1.915   3.436   0.982
  262SOL    HW2 1686   2.052   3.522   0.954
  263SOL     OW 1687   1.215   0.109   4.397
  263SOL    HW1 1688   1.153   0.070   4.329
  263SOL    HW2 1689   1.309   0.107   4.362
  264SOL     OW 1690   6.994   2.911   0.149
  264SOL    HW1 1691   6.902   2.885   0.177
  264SOL    HW2 1692   0.042   2.849   0.191
  265SOL     OW 1693   5.993   6.823   4.056
  265SOL    HW1 1694   5.934   6.898   4.085
  265SOL    HW2 1695   5.952   6.735   4.082
  266SOL     OW 1696   5.167   2.588   5.837
  266SOL    HW1 1697   5.163   2.573   5.936
  266SOL    HW2 1698   5.143   2.503   5.789
  267SOL     OW 1699   1.125   0.714   5.090
  267SOL    HW1 1700   1.191   0.760   5.150
  267SOL    HW2 1701   1.033   0.727   5.125
  268SOL     OW 1702   4.008   1.185   0.066
  268SOL    HW1 1703   4.057   1.272   0.080
  268SOL    HW2 1704   3.911   1.204   0.050
  269SOL     OW 1705   3.033   1.983   0.261
  269SOL    HW1 1706   2.962   2.042   0.222
  269SOL    HW2 1707   3.082   2.033   0.333
  270SOL     OW 1708   0.646   6.628   0.125
  270SOL    HW1 1709   0.688   6.668   0.206
  270SOL    HW2 1710   0.597   6.699   0.075
  271SOL     OW 1711   0.440   1.780   6.286
  271SOL    HW1 1712   0.497   1.854   6.250
  271SOL    HW2 1713   0.346   1.794   6.257
  272SOL     OW 1714   3.326   5.553   4.146
  272SOL    HW1 1715   3.314   5.489   4.222
  272SOL    HW2 1716   3.284   5.641   4.169
  273SOL     OW 1717   1.667   4.930   5.491
  273SOL    HW1 1718   1.688   4.834   5.507
  273SOL    HW2 1719   1.748   4.986   5.508
  274SOL     OW 1720   3.729   0.792   4.143
  274SOL    HW1 1721   3.773   0.764   4.229
  274SOL    HW2 1722   3.794   0.845   4.089
  275SOL     OW 1723   0.300   6.872   2.783
  275SOL    HW1 1724   0.233   6.946   2.791
  275SOL    HW2 1725   0.254   6.789   2.751
  276SOL     OW 1726   0.596   0.385   4.489
  276SOL    HW1 1727   0.664   0.405   4.418
  276SOL    HW2 1728   0.513   0.438   4.471
  277SOL     OW 1729   2.208   2.939   0.550
  277SOL    HW1 1730   2.231   2.957   0.645
  277SOL    HW2 1731   2.165   3.020   0.510
  278SOL     OW 1732   6.837   2.827   3.373
  278SOL    HW1 1733   6.923   2.848   3.418
  278SOL    HW2 1734   6.855   2.771   3.292
  279SOL     OW 1735   5.488   2.872   4.697
  279SOL    HW1 1736   5.561   2.804   4.705
  279SOL    HW2 1737   5.507   2.932   4.619
  280SOL     OW 1738   1.750   5.003   1.981
  280SOL    HW1 1739   1.650   5.000   1.986
  280SOL    HW2 1740   1.777   5.038   1.891
  281SOL     OW 1741   2.372   3.967   1.211
  281SOL    HW1 1742   2.382   3.985   1.309
  281SOL    HW2 1743   2.333   4.047   1.166
  282SOL     OW 1744   3.352   2.076   6.140
  282SOL    HW1 1745   3.344   2.174   6.158
  282SOL    HW2 1746   3.260   2.038   6.124
  283SOL     OW 1747   5.270   2.717   6.604
  283SOL    HW1 1748   5.353   2.714   6.548
  283SOL    HW2 1749   5.220   2.631   6.594
  284SOL     OW 1750   0.713   3.268   3.665
  284SOL    HW1 1751   0.723   3.366   3.684
  284SOL    HW2 1752   0.799   3.221   3.686
  285SOL     OW 1753   5.664   4.588   3.657
  285SOL    HW1 1754   5.690   4.501   3.617
  285SOL    HW2 1755   5.741   4.651   3.653
  286SOL     OW 1756   3.373   3.814   6.950
  286SOL    HW1 1757   3.304   3.840   7.018
  286SOL    HW2 1758   3.346   3.850   6.861
  287SOL     OW 1759   1.797   3.750   0.565
  287SOL    HW1 1760   1.875   3.696   0.533
  287SOL    HW2 1761   1.796   3.752   0.665
  288SOL     OW 1762   4.576   1.562   0.048
  288SOL    HW1 1763   4.606   1.513   0.130
  288SOL    HW2 1764   4.546   1.497   6.997
  289SOL     OW 1765   2.099   4.714   5.963
  289SOL    HW1 1766   2.067   4.624   5.989
  289SOL    HW2 1767   2.071   4.734   5.869
  290SOL     OW 1768   0.135   2.124   5.473
  290SOL    HW1 1769   0.054   2.066   5.478
  290SOL    HW2 1770   0.186   2.116   5.558
  291SOL     OW 1771   0.266   1.445   2.991
  291SOL    HW1 1772   0.302   1.423   2.900
  291SOL    HW2 1773   0.302   1.533   3.020
  292SOL     OW 1774   2.240   0.560   3.383
  292SOL    HW1 1775   2.163   0.622   3.366
  292SOL    HW2 1776   2.218   0.469   3.350
  293SOL     OW 1777   4.483   5.480   4.277
  293SOL    HW1 1778   4.455   5.384   4.274
  293SOL    HW2 1779   4.402   5.538   4.277
  294SOL     OW 1780   5.691   6.609   6.382
  294SOL    HW1 1781   5.674   6.668   6.303
  294SOL    HW2 1782   5.785   6.620   6.413
  295SOL     OW 1783   5.265   0.482   3.810
  295SOL    HW1 1784   5.192   0.534   3.765
  295SOL    HW2 1785   5.340   0.545   3.834
  296SOL     OW 1786   3.147   1.903   3.049
  296SOL    HW1 1787   3.233   1.855   3.032
  296SOL    HW2 1788   3.076   1.836   3.073
  297SOL     OW 1789   1.432   3.679   3.495
  297SOL    HW1 1790   1.378   3.692   3.578
  297SOL    HW2 1791   1.524   3.717   3.509
  298SOL     OW 1792   6.032   5.471   0.911
  298SOL    HW1 1793   6.006   5.379   0.881
  298SOL    HW2 1794   6.018   5.479   1.010
  299SOL     OW 1795   6.113   2.624   5.039
  299SOL    HW1 1796   6.181   2.640   4.967
  299SOL    HW2 1797   6.160   2.613   5.127
  300SOL     OW 1798   5.929   0.898   3.206
  300SOL    HW1 1799   5.922   0.894   3.306
  300SOL    HW2 1800   6.010   0.949   3.180
  301SOL     OW 1801   5.539   3.468   6.136
  301SOL    HW1 1802   5.598   3.387   6.139
  301SOL    HW2 1803   5.594   3.549   6.158
  302SOL     OW 1804   0.931   0.382   3.869
  302SOL    HW1 1805   0.843   0.334   3.862
  302SOL    HW2 1806   0.945   0.439   3.788
  303SOL     OW 1807   5.214   0.931   3.248
  303SOL    HW1 1808   5.217   0.920   3.148
  303SOL    HW2 1809   5.295   0.887   3.288
  304SOL     OW 1810   2.331   0.076   3.690
  304SOL    HW1 1811   2.418   0.032   3.666
  304SOL    HW2 1812   2.267   0.006   3.723
  305SOL     OW 1813   1.168   3.683   0.426
  305SOL    HW1 1814   1.080   3.695   0.472
  305SOL    HW2 1815   1.209   3.772   0.409
  306SOL     OW 1816   2.167   1.178   4.172
  306SOL    HW1 1817   2.217   1.251   4.126
  306SOL    HW2 1818   2.177   1.188   4.271
  307SOL     OW 1819   4.238   0.072   0.976
  307SOL    HW1 1820   4.290   0.144   1.023
  307SOL    HW2 1821   4.206   0.005   1.042
  308SOL     OW 1822   0.775   5.986   3.422
  308SOL    HW1 1823   0.807   6.048   3.350
  308SOL    HW2 1824   0.818   6.011   3.509
  309SOL     OW 1825   3.475   4.978   5.374
  309SOL    HW1 1826   3.570   4.975   5.406
  309SOL    HW2 1827   3.461   5.059   5.317
  310SOL     OW 1828   0.484   6.288   5.719
  310SOL    HW1 1829   0.466   6.369   5.775
  310SOL    HW2 1830   0.507   6.317   5.626
  311SOL     OW 1831   0.644   6.306   1.544
  311SOL    HW1 1832   0.706   6.275   1.617
  311SOL    HW2 1833   0.557   6.335   1.585
  312SOL     OW 1834   4.699   2.119   5.186
  312SOL    HW1 1835   4.753   2.037   5.203
  312SOL    HW2 1836   4.661   2.115   5.093
  313SOL     OW 1837   1.847   4.190   1.915
  313SOL    HW1 1838   1.807   4.264   1.968
  313SOL    HW2 1839   1.828   4.102   1.959
  314SOL     OW 1840   3.390   6.016   0.334
  314SOL    HW1 1841   3.386   6.112   0.363
  314SOL    HW2 1842   3.324   6.002   0.260
  315SOL     OW 1843   0.702   2.177   3.321
  315SOL    HW1 1844   0.759   2.245   3.275
  315SOL    HW2 1845   0.607   2.209   3.325
  316SOL     OW 1846   2.507   2.515   3.955
  316SOL    HW1 1847   2.443   2.443   3.930
  316SOL    HW2 1848   2.549   2.494   4.043
  317SOL     OW 1849   6.881   1.910   0.141
  317SOL    HW1 1850   6.825   1.848   0.195
  317SOL    HW2 1851   6.968   1.926   0.188
  318SOL     OW 1852   2.057   3.747   0.882
  318SOL    HW1 1853   2.056   3.827   0.822
  318SOL    HW2 1854   2.150   3.733   0.917
  319SOL     OW 1855   1.876   6.271   0.819
  319SOL    HW1 1856   1.811   6.331   0.866
  319SOL    HW2 1857   1.890   6.303   0.726
  320SOL     OW 1858   6.013   3.291   0.380
  320SOL    HW1 1859   6.109   3.265   0.392
  320SOL    HW2 1860   5.972   3.306   0.470
  321SOL     OW 1861   1.883   2.989   1.475
  321SOL    HW1 1862   1.930   2.911   1.434
  321SOL    HW2 1863   1.900   3.071   1.421
  322SOL     OW 1864   3.687   3.207   5.275
  322SOL    HW1 1865   3.734   3.295   5.264
  322SOL    HW2 1866   3.748   3.133   5.249
  323SOL     OW 1867   0.117   4.155   1.451
  323SOL    HW1 1868   0.092   4.228   1.514
  323SOL    HW2 1869   0.119   4.191   1.358
  324SOL     OW 1870   1.100   2.615   4.821
  324SOL    HW1 1871   1.170   2.665   4.770
  324SOL    HW2 1872   1.073   2.534   4.770
  325SOL     OW 1873   2.222   2.917   1.934
  325SOL    HW1 1874   2.229   2.864   1.849
  325SOL    HW2 1875   2.214   3.014   1.912
  326SOL     OW 1876   1.623   5.475   6.310
  326SOL    HW1 1877   1.700   5.436   6.260
  326SOL    HW2 1878   1.540   5.425   6.286
  327SOL     OW 1879   6.436   4.667   5.688
  327SOL    HW1 1880   6.495   4.590   5.712
  327SOL    HW2 1881   6.472   4.715   5.608
  328SOL     OW 1882   4.319   4.958   2.395
  328SOL    HW1 1883   4.231   4.940   2.440
  328SOL    HW2 1884   4.307   4.957   2.296
  329SOL     OW 1885   3.465   3.881   3.650
  329SOL    HW1 1886   3.490   3.803   3.593
  329SOL    HW2 1887   3.528   3.887   3.728
  330SOL     OW 1888   3.566   0.077   2.102
  330SOL    HW1 1889   3.523   0.151   2.051
  330SOL    HW2 1890   3.566   7.012   2.047
  331SOL     OW 1891   5.011   5.083   5.816
  331SOL    HW1 1892   5.039   5.150   5.886
  331SOL    HW2 1893   5.089   5.026   5.792
  332SOL     OW 1894   3.383   2.171   3.006
  332SOL    HW1 1895   3.294   2.207   2.977
  332SOL    HW2 1896   3.397   2.192   3.103
  333SOL     OW 1897   4.188   5.917   6.574
  333SOL    HW1 1898   4.142   5.890   6.488
  333SOL    HW2 1899   4.257   5.987   6.554
  334SOL     OW 1900   4.091   0.149   2.466
  334SOL    HW1 1901   3.997   0.116   2.468
  334SOL    HW2 1902   4.132   0.126   2.377
  335SOL     OW 1903   3.017   6.756   3.408
  335SOL    HW1 1904   3.097   6.766   3.466
  335SOL    HW2 1905   3.044   6.765   3.312
  336SOL     OW 1906   3.306   0.908   3.855
  336SOL    HW1 1907   3.336   0.913   3.950
  336SOL    HW2 1908   3.369   0.851   3.803
  337SOL     OW 1909   6.697   3.908   1.265
  337SOL    HW1 1910   6.781   3.910   1.320
  337SOL    HW2 1911   6.697   3.827   1.207
  338SOL     OW 1912   3.277   2.777   1.537
  338SOL    HW1 1913   3.273   2.707   1.466
  338SOL    HW2 1914   3.253   2.736   1.626
  339SOL     OW 1915   4.571   6.446   2.894
  339SOL    HW1 1916   4.567   6.479   2.988
  339SOL    HW2 1917   4.521   6.359   2.887
  340SOL     OW 1918   4.919   3.986   4.596
  340SOL    HW1 1919   4.889   3.900   4.638
  340SOL    HW2 1920   4.975   4.037   4.661
  341SOL     OW 1921   5.458   5.562   4.647
  341SOL    HW1 1922   5.481   5.548   4.743
  341SOL    HW2 1923   5.371   5.611   4.640
  342SOL     OW 1924   6.160   4.619   0.981
  342SOL    HW1 1925   6.109   4.573   1.054
  342SOL    HW2 1926   6.103   4.691   0.941
  343SOL     OW 1927   3.315   0.463   2.074
  343SOL    HW1 1928   3.258   0.543   2.060
  343SOL    HW2 1929   3.385   0.459   2.003
  344SOL     OW 1930   2.296   5.011   0.605
  344SOL    HW1 1931   2.373   4.948   0.603
  344SOL    HW2 1932   2.258   5.015   0.697
  345SOL     OW 1933   1.038   0.328   4.941
  345SOL    HW1 1934   0.966   0.277   4.987
  345SOL    HW2 1935   1.093   0.266   4.885
  346SOL     OW 1936   1.101   0.283   2.860
  346SOL    HW1 1937   1.171   0.217   2.830
  346SOL    HW2 1938   1.113   0.303   2.957
  347SOL     OW 1939   4.863   6.812   6.476
  347SOL    HW1 1940   4.880   6.762   6.561
  347SOL    HW2 1941   4.835   6.905   6.497
  348SOL     OW 1942   3.703   5.349   1.677
  348SOL    HW1 1943   3.651   5.434   1.682
  348SOL    HW2 1944   3.797   5.369   1.650
  349SOL     OW 1945   0.918   4.506   2.358
  349SOL    HW1 1946   0.906   4.506   2.259
  349SOL    HW2 1947   0.945   4.415   2.389
  350SOL     OW 1948   4.205   3.384   1.165
  350SOL    HW1 1949   4.193   3.317   1.238
  350SOL    HW2 1950   4.118   3.431   1.149
  351SOL     OW 1951   2.972   1.700   0.307
  351SOL    HW1 1952   2.882   1.664   0.283
  351SOL    HW2 1953   2.980   1.795   0.278
  352SOL     OW 1954   2.985   0.716   6.606
  352SOL    HW1 1955   2.933   0.742   6.688
  352SOL    HW2 1956   3.073   0.763   6.607
  353SOL     OW 1957   2.115   6.246   1.003
  353SOL    HW1 1958   2.067   6.201   0.927
  353SOL    HW2 1959   2.081   6.339   1.014
  354SOL     OW 1960   4.501   1.333   0.773
  354SOL    HW1 1961   4.583   1.368   0.818
  354SOL    HW2 1962   4.432   1.405   0.768
  355SOL     OW 1963   0.084   3.057   2.776
  355SOL    HW1 1964   0.064   3.084   2.682
  355SOL    HW2 1965   0.043   2.968   2.795
  356SOL     OW 1966   4.178   5.465   3.260
  356SOL    HW1 1967   4.091   5.487   3.304
  356SOL    HW2 1968   4.169   5.379   3.209
  357SOL     OW 1969   6.900   5.426   4.960
  357SOL    HW1 1970   6.908   5.327   4.965
  357SOL    HW2 1971   6.869   5.461   5.049
  358SOL     OW 1972   5.364   0.398   1.257
  358SOL    HW1 1973   5.460   0.409   1.282
  358SOL    HW2 1974   5.325   0.487   1.232
  359SOL     OW 1975   1.526   1.749   1.821
  359SOL    HW1 1976   1.565   1.840   1.836
  359SOL    HW2 1977   1.454   1.732   1.889
  360SOL     OW 1978   4.143   6.720   0.177
  360SOL    HW1 1979   4.054   6.735   0.221
  360SOL    HW2 1980   4.183   6.808   0.153
  361SOL     OW 1981   4.543   6.671   2.379
  361SOL    HW1 1982   4.591   6.749   2.418
  361SOL    HW2 1983   4.448   6.671   2.410
  362SOL     OW 1984   3.161   3.341   0.908
  362SOL    HW1 1985   3.143   3.440   0.909
  362SOL    HW2 1986   3.137   3.302   0.997
  363SOL     OW 1987   4.561   4.562   4.560
  363SOL    HW1 1988   4.597   4.648   4.523
  363SOL    HW2 1989   4.638   4.504   4.589
  364SOL     OW 1990   0.867   5.545   5.754
  364SOL    HW1 1991   0.876   5.559   5.655
  364SOL    HW2 1992   0.896   5.452   5.777
  365SOL     OW 1993   4.761   6.584   1.789
  365SOL    HW1 1994   4.739   6.585   1.692
  365SOL    HW2 1995   4.804   6.497   1.812
  366SOL     OW 1996   5.755   1.274   6.888
  366SOL    HW1 1997   5.688   1.204   6.863
  366SOL    HW2 1998   5.757   1.344   6.817
  367SOL     OW 1999   5.303   2.701   1.371
  367SOL    HW1 2000   5.248   2.677   1.291
  367SOL    HW2 2001   5.303   2.624   1.436
  368SOL     OW 2002   0.974   5.054   4.942
  368SOL    HW1 2003   0.901   5.121   4.959
  368SOL    HW2 2004   1.058   5.103   4.919
  369SOL     OW 2005   0.901   3.659   1.867
  369SOL    HW1 2006   0.964   3.709   1.926
  369SOL    HW2 2007   0.896   3.703   1.778
  370SOL     OW 2008   3.212   1.562   5.756
  370SOL    HW1 2009   3.145   1.612   5.702
  370SOL    HW2 2010   3.221   1.606   5.846
  371SOL     OW 2011   4.026   2.613   0.260
  371SOL    HW1 2012   3.931   2.582   0.267
  371SOL    HW2 2013   4.028   2.708   0.227
  372SOL     OW 2014   0.257   6.137   6.381
  372SOL    HW1 2015   0.282   6.226   6.343
  372SOL    HW2 2016   0.269   6.066   6.311
  373SOL     OW 2017   0.078   6.882   0.228
  373SOL    HW1 2018   0.014   6.868   0.153
  373SOL    HW2 2019   0.037   6.940   0.298
  374SOL     OW 2020   3.289   0.752   1.655
  374SOL    HW1 2021   3.247   0.764   1.745
  374SOL    HW2 2022   3.262   0.664   1.617
  375SOL     OW 2023   6.915   4.854   3.309
  375SOL    HW1 2024   6.919   4.761   3.273
  375SOL    HW2 2025   6.877   4.853   3.402
  376SOL     OW 2026   2.296   2.799   3.833
  376SOL    HW1 2027   2.361   2.751   3.775
  376SOL    HW2 2028   2.331   2.804   3.926
  377SOL     OW 2029   4.959   1.794   3.671
  377SOL    HW1 2030   4.867   1.770   3.702
  377SOL    HW2 2031   5.023   1.721   3.696
  378SOL     OW 2032   5.052   2.817   5.039
  378SOL    HW1 2033   4.969   2.856   5.080
  378SOL    HW2 2034   5.052   2.838   4.941
  379SOL     OW 2035   6.157   3.737   1.175
  379SOL    HW1 2036   6.256   3.751   1.181
  379SOL    HW2 2037   6.117   3.746   1.266
  380SOL     OW 2038   1.059   1.997   1.164
  380SOL    HW1 2039   1.005   2.078   1.191
  380SOL    HW2 2040   1.155   2.022   1.158
  381SOL     OW 2041   3.893   3.490   1.409
  381SOL    HW1 2042   3.877   3.494   1.310
  381SOL    HW2 2043   3.904   3.395   1.437
  382SOL     OW 2044   2.606   5.833   0.506
  382SOL    HW1 2045   2.594   5.742   0.546
  382SOL    HW2 2046   2.654   5.825   0.419
  383SOL     OW 2047   6.364   2.610   0.359
  383SOL    HW1 2048   6.317   2.528   0.391
  383SOL    HW2 2049   6.372   2.606   0.259
  384SOL     OW 2050   1.680   5.573   5.112
  384SOL    HW1 2051   1.689   5.486   5.064
  384SOL    HW2 2052   1.612   5.565   5.184
  385SOL     OW 2053   4.812   5.896   0.569
  385SOL    HW1 2054   4.782   5.814   0.520
  385SOL    HW2 2055   4.800   5.883   0.667
  386SOL     OW 2056   3.276   6.102   5.873
  386SOL    HW1 2057   3.222   6.183   5.851
  386SOL    HW2 2058   3.373   6.119   5.855
  387SOL     OW 2059   0.265   0.825   5.314
  387SOL    HW1 2060   0.328   0.783   5.380
  387SOL    HW2 2061   0.204   0.755   5.277
  388SOL     OW 2062   6.248   2.539   5.264
  388SOL    HW1 2063   6.185   2.545   5.341
  388SOL    HW2 2064   6.256   2.444   5.234
  389SOL     OW 2065   3.867   4.706   1.482
  389SOL    HW1 2066   3.839   4.793   1.522
  389SOL    HW2 2067   3.837   4.631   1.541
  390SOL     OW 2068   3.353   1.923   0.293
  390SOL    HW1 2069   3.340   1.827   0.272
  390SOL    HW2 2070   3.343   1.977   0.209
  391SOL     OW 2071   3.108   4.431   5.530
  391SOL    HW1 2072   3.057   4.375   5.595
  391SOL    HW2 2073   3.172   4.490   5.579
  392SOL     OW 2074   1.217   3.638   1.788
  392SOL    HW1 2075   1.185   3.617   1.880
  392SOL    HW2 2076   1.317   3.634   1.786
  393SOL     OW 2077   1.017   4.066   1.790
  393SOL    HW1 2078   1.063   4.142   1.835
  393SOL    HW2 2079   1.058   4.052   1.699
  394SOL     OW 2080   0.500   1.032   6.700
  394SOL    HW1 2081   0.469   1.110   6.754
  394SOL    HW2 2082   0.504   0.950   6.758
  395SOL     OW 2083   5.432   4.767   1.424
  395SOL    HW1 2084   5.371   4.697   1.387
  395SOL    HW2 2085   5.430   4.847   1.364
  396SOL     OW 2086   2.110   1.058   1.805
  396SOL    HW1 2087   2.056   1.136   1.772
  396SOL    HW2 2088   2.089   1.042   1.901
  397SOL     OW 2089   4.307   2.077   5.160
  397SOL    HW1 2090   4.298   2.019   5.080
  397SOL    HW2 2091   4.365   2.156   5.138
  398SOL     OW 2092   1.616   1.364   4.375
  398SOL    HW1 2093   1.556   1.303   4.323
  398SOL    HW2 2094   1.569   1.451   4.391
  399SOL     OW 2095   6.025   6.213   3.904
  399SOL    HW1 2096   6.074   6.197   3.989
  399SOL    HW2 2097   5.932   6.243   3.924
  400SOL     OW 2098   6.299   0.721   4.681
  400SOL    HW1 2099   6.232   0.734   4.609
  400SOL    HW2 2100   6.337   0.810   4.708
  401SOL     OW 2101   0.029   4.961   5.956
  401SOL    HW1 2102   6.981   4.893   5.986
  401SOL    HW2 2103   0.003   4.995   5.865
  402SOL     OW 2104   6.331   0.636   2.786
  402SOL    HW1 2105   6.270   0.644   2.866
  402SOL    HW2 2106   6.277   0.611   2.706
  403SOL     OW 2107   2.324   1.127   5.366
  403SOL    HW1 2108   2.369   1.066   5.431
  403SOL    HW2 2109   2.226   1.107   5.362
  404SOL     OW 2110   3.577   5.576   3.735
  404SOL    HW1 2111   3.562   5.509   3.663
  404SOL    HW2 2112   3.550   5.667   3.703
  405SOL     OW 2113   2.206   4.811   4.497
  405SOL    HW1 2114   2.256   4.767   4.423
  405SOL    HW2 2115   2.233   4.907   4.503
  406SOL     OW 2116   0.129   5.653   5.535
  406SOL    HW1 2117   0.121   5.638   5.634
  406SOL    HW2 2118   0.053   5.710   5.504
  407SOL     OW 2119   1.865   3.287   4.370
  407SOL    HW1 2120   1.957   3.299   4.406
  407SOL    HW2 2121   1.823   3.207   4.414
  408SOL     OW 2122   2.610   1.447   3.453
  408SOL    HW1 2123   2.635   1.353   3.477
  408SOL    HW2 2124   2.612   1.504   3.535
  409SOL     OW 2125   0.712   3.575   2.775
  409SOL    HW1 2126   0.784   3.643   2.765
  409SOL    HW2 2127   0.666   3.587   2.863
  410SOL     OW 2128   1.964   1.279   1.753
  410SOL    HW1 2129   1.871   1.298   1.721
  410SOL    HW2 2130   1.989   1.344   1.824
  411SOL     OW 2131   0.670   3.175   1.470
  411SOL    HW1 2132   0.651   3.272   1.456
  411SOL    HW2 2133   0.679   3.156   1.568
  412SOL     OW 2134   1.410   5.469   2.427
  412SOL    HW1 2135   1.317   5.500   2.409
  412SOL    HW2 2136   1.407   5.397   2.497
  413SOL     OW 2137   5.428   5.902   2.595
  413SOL    HW1 2138   5.373   5.904   2.679
  413SOL    HW2 2139   5.376   5.858   2.522
  414SOL     OW 2140   2.011   6.268   3.460
  414SOL    HW1 2141   2.109   6.289   3.463
  414SOL    HW2 2142   1.991   6.211   3.380
  415SOL     OW 2143   6.168   1.151   0.406
  415SOL    HW1 2144   6.221   1.214   0.350
  415SOL    HW2 2145   6.225   1.115   0.480
  416SOL     OW 2146   5.279   3.155   4.908
  416SOL    HW1 2147   5.262   3.057   4.909
  416SOL    HW2 2148   5.373   3.174   4.938
  417SOL     OW 2149   2.047   1.929   5.970
  417SOL    HW1 2150   1.999   1.844   5.949
  417SOL    HW2 2151   2.010   2.003   5.914
  418SOL     OW 2152   4.068   6.730   4.434
  418SOL    HW1 2153   3.999   6.776   4.490
  418SOL    HW2 2154   4.038   6.636   4.414
  419SOL     OW 2155   0.197   0.228   0.818
  419SOL    HW1 2156   0.117   0.253   0.872
  419SOL    HW2 2157   0.186   0.135   0.784
  420SOL     OW 2158   4.644   0.952   6.821
  420SOL    HW1 2159   4.699   0.891   6.763
  420SOL    HW2 2160   4.673   1.046   6.807
  421SOL     OW 2161   5.551   3.516   2.696
  421SOL    HW1 2162   5.545   3.521   2.596
  421SOL    HW2 2163   5.510   3.430   2.727
  422SOL     OW 2164   5.053   3.222   1.760
  422SOL    HW1 2165   5.042   3.249   1.855
  422SOL    HW2 2166   4.963   3.209   1.717
  423SOL     OW 2167   3.466   1.009   6.443
  423SOL    HW1 2168   3.554   0.982   6.482
  423SOL    HW2 2169   3.440   1.099   6.478
  424SOL     OW 2170   0.976   3.609   3.616
  424SOL    HW1 2171   1.045   3.545   3.649
  424SOL    HW2 2172   0.918   3.565   3.548
  425SOL     OW 2173   2.622   0.728   6.228
  425SOL    HW1 2174   2.589   0.698   6.139
  425SOL    HW2 2175   2.634   0.827   6.228
  426SOL     OW 2176   2.591   2.109   4.061
  426SOL    HW1 2177   2.562   2.152   4.147
  426SOL    HW2 2178   2.681   2.143   4.036
  427SOL     OW 2179   3.982   2.115   3.017
  427SOL    HW1 2180   3.942   2.123   3.108
  427SOL    HW2 2181   3.910   2.119   2.948
  428SOL     OW 2182   2.923   2.264   6.068
  428SOL    HW1 2183   2.893   2.173   6.097
  428SOL    HW2 2184   3.002   2.256   6.006
  429SOL     OW 2185   0.552   5.619   4.133
  429SOL    HW1 2186   0.609   5.688   4.088
  429SOL    HW2 2187   0.456   5.638   4.115
  430SOL     OW 2188   1.405   0.091   3.983
  430SOL    HW1 2189   1.489   0.036   3.974
  430SOL    HW2 2190   1.430   0.188   3.991
  431SOL     OW 2191   2.526   1.823   1.333
  431SOL    HW1 2192   2.565   1.865   1.251
  431SOL    HW2 2193   2.599   1.794   1.394
  432SOL     OW 2194   5.117   2.211   2.085
  432SOL    HW1 2195   5.112   2.270   2.166
  432SOL    HW2 2196   5.063   2.252   2.011
  433SOL     OW 2197   1.768   4.904   0.958
  433SOL    HW1 2198   1.835   4.978   0.963
  433SOL    HW2 2199   1.677   4.942   0.942
  434SOL     OW 2200   4.374   6.051   3.733
  434SOL    HW1 2201   4.443   5.981   3.717
  434SOL    HW2 2202   4.385   6.126   3.668
  435SOL     OW 2203   3.519   1.759   5.879
  435SOL    HW1 2204   3.525   1.855   5.853
  435SOL    HW2 2205   3.423   1.731   5.880
  436SOL     OW 2206   4.777   0.277   2.766
  436SOL    HW1 2207   4.874   0.255   2.764
  436SOL    HW2 2208   4.724   0.192   2.777
  437SOL     OW 2209   6.323   0.967   4.945
  437SOL    HW1 2210   6.421   0.946   4.946
  437SOL    HW2 2211   6.292   0.988   5.037
  438SOL     OW 2212   0.200   4.482   2.850
  438SOL    HW1 2213   0.139   4.516   2.922
  438SOL    HW2 2214   0.180   4.386   2.832
  439SOL     OW 2215   0.045   0.895   4.503
  439SOL    HW1 2216   6.981   0.931   4.546
  439SOL    HW2 2217   0.105   0.857   4.574
  440SOL     OW 2218   3.900   1.151   0.432
  440SOL    HW1 2219   3.906   1.133   0.530
  440SOL    HW2 2220   3.969   1.096   0.384
  441SOL     OW 2221   0.146   4.001   2.646
  441SOL    HW1 2222   0.225   3.996   2.585
  441SOL    HW2 2223   0.155   4.081   2.705
  442SOL     OW 2224   5.440   3.282   5.741
  442SOL    HW1 2225   5.466   3.226   5.662
  442SOL    HW2 2226   5.519   3.291   5.802
  443SOL     OW 2227   5.072   3.519   1.771
  443SOL    HW1 2228   5.168   3.547   1.778
  443SOL    HW2 2229   5.050   3.457   1.846
  444SOL     OW 2230   3.873   1.080   1.768
  444SOL    HW1 2231   3.819   1.034   1.838
  444SOL    HW2 2232   3.939   1.015   1.728
  445SOL     OW 2233   1.489   5.764   2.485
  445SOL    HW1 2234   1.425   5.692   2.461
  445SOL    HW2 2235   1.480   5.785   2.583
  446SOL     OW 2236   5.356   7.001   1.645
  446SOL    HW1 2237   5.275   6.982   1.590
  446SOL    HW2 2238   5.423   0.032   1.590
  447SOL     OW 2239   5.977   4.543   1.170
  447SOL    HW1 2240   5.951   4.635   1.199
  447SOL    HW2 2241   5.994   4.486   1.251
  448SOL     OW 2242   2.251   0.279   3.034
  448SOL    HW1 2243   2.305   0.281   2.949
  448SOL    HW2 2244   2.160   0.244   3.014
  449SOL     OW 2245   1.537   4.030   4.477
  449SOL    HW1 2246   1.457   4.073   4.434
  449SOL    HW2 2247   1.608   4.016   4.408
  450SOL     OW 2248   0.630   4.747   3.571
  450SOL    HW1 2249   0.614   4.676   3.641
  450SOL    HW2 2250   0.625   4.837   3.614
  451SOL     OW 2251   0.894   1.881   1.747
  451SOL    HW1 2252   0.813   1.822   1.754
  451SOL    HW2 2253   0.915   1.919   1.838
  452SOL     OW 2254   4.485   5.620   2.182
  452SOL    HW1 2255   4.504   5.566   2.100
  452SOL    HW2 2256   4.404   5.584   2.228
  453SOL     OW 2257   3.120   0.480   6.078
  453SOL    HW1 2258   3.104   0.574   6.107
  453SOL    HW2 2259   3.163   0.429   6.153
  454SOL     OW 2260   6.719   3.342   6.677
  454SOL    HW1 2261   6.787   3.277   6.710
  454SOL    HW2 2262   6.699   3.409   6.748
  455SOL     OW 2263   6.097   4.886   6.030
  455SOL    HW1 2264   6.106   4.837   5.943
  455SOL    HW2 2265   6.170   4.859   6.091
  456SOL     OW 2266   2.729   0.891   2.879
  456SOL    HW1 2267   2.705   0.917   2.786
  456SOL    HW2 2268   2.663   0.931   2.943
  457SOL     OW 2269   2.500   6.731   0.234
  457SOL    HW1 2270   2.595   6.750   0.261
  457SOL    HW2 2271   2.475   6.639   0.263
  458SOL     OW 2272   3.094   1.777   3.480
  458SOL    HW1 2273   3.167   1.799   3.414
  458SOL    HW2 2274   3.005   1.798   3.439
  459SOL     OW 2275   3.860   6.928   3.462
  459SOL    HW1 2276   3.799   6.872   3.517
  459SOL    HW2 2277   3.955   6.914   3.492
  460SOL     OW 2278   0.770   1.473   6.259
  460SOL    HW1 2279   0.782   1.376   6.281
  460SOL    HW2 2280   0.791   1.489   6.163
  461SOL     OW 2281   0.837   5.043   5.358
  461SOL    HW1 2282   0.918   4.985   5.348
  461SOL    HW2 2283   0.759   4.986   5.382
  462SOL     OW 2284   3.886   4.083   4.875
  462SOL    HW1 2285   3.878   4.071   4.974
  462SOL    HW2 2286   3.795   4.092   4.835
  463SOL     OW 2287   5.249   6.538   3.428
  463SOL    HW1 2288   5.295   6.561   3.514
  463SOL    HW2 2289   5.191   6.458   3.442
  464SOL     OW 2290   4.138   5.010   6.446
  464SOL    HW1 2291   4.084   5.013   6.363
  464SOL    HW2 2292   4.232   4.982   6.424
  465SOL     OW 2293   0.747   3.982   1.128
  465SOL    HW1 2294   0.771   4.047   1.057
  465SOL    HW2 2295   0.771   3.889   1.098
  466SOL     OW 2296   3.967   5.639   4.665
  466SOL    HW1 2297   3.923   5.697   4.734
  466SOL    HW2 2298   3.979   5.691   4.580
  467SOL     OW 2299   5.824   6.613   1.594
  467SOL    HW1 2300   5.920   6.593   1.614
  467SOL    HW2 2301   5.808   6.600   1.496
  468SOL     OW 2302   3.034   6.545   6.501
  468SOL    HW1 2303   2.937   6.534   6.526
  468SOL    HW2 2304   3.054   6.489   6.420
  469SOL     OW 2305   3.454   4.985   5.026
  469SOL    HW1 2306   3.472   4.973   4.929
  469SOL    HW2 2307   3.381   4.922   5.055
  470SOL     OW 2308   2.335   4.390   2.627
  470SOL    HW1 2309   2.320   4.314   2.690
  470SOL    HW2 2310   2.336   4.356   2.533
  471SOL     OW 2311   1.621   2.135   4.290
  471SOL    HW1 2312   1.589   2.200   4.359
  471SOL    HW2 2313   1.713   2.161   4.260
  472SOL     OW 2314   5.641   3.710   6.233
  472SOL    HW1 2315   5.578   3.761   6.291
  472SOL    HW2 2316   5.731   3.754   6.236
  473SOL     OW 2317   6.393   2.542   2.068
  473SOL    HW1 2318   6.369   2.567   2.162
  473SOL    HW2 2319   6.437   2.452   2.068
  474SOL     OW 2320   4.702   6.497   3.955
  474SOL    HW1 2321   4.644   6.570   3.993
  474SOL    HW2 2322   4.646   6.438   3.897
  475SOL     OW 2323   5.521   1.796   0.225
  475SOL    HW1 2324   5.427   1.807   0.193
  475SOL    HW2 2325   5.528   1.830   0.319
  476SOL     OW 2326   1.032   4.546   1.314
  476SOL    HW1 2327   1.070   4.472   1.369
  476SOL    HW2 2328   0.963   4.509   1.252
  477SOL     OW 2329   1.138   4.563   3.665
  477SOL    HW1 2330   1.164   4.473   3.629
  477SOL    HW2 2331   1.157   4.566   3.763
  478SOL     OW 2332   4.906   5.721   2.037
  478SOL    HW1 2333   4.923   5.786   2.111
  478SOL    HW2 2334   4.981   5.726   1.971
  479SOL     OW 2335   3.037   3.956   3.577
  479SOL    HW1 2336   2.966   3.901   3.623
  479SOL    HW2 2337   3.017   3.960   3.479
  480SOL     OW 2338   1.157   0.616   2.991
  480SOL    HW1 2339   1.133   0.603   2.895
  480SOL    HW2 2340   1.251   0.587   3.006
  481SOL     OW 2341   0.397   7.008   0.562
  481SOL    HW1 2342   0.407   6.986   0.465
  481SOL    HW2 2343   0.488   0.002   0.602
  482SOL     OW 2344   3.834   5.113   1.584
  482SOL    HW1 2345   3.758   5.107   1.649
  482SOL    HW2 2346   3.798   5.114   1.491
  483SOL     OW 2347   5.814   2.107   4.295
  483SOL    HW1 2348   5.904   2.072   4.266
  483SOL    HW2 2349   5.784   2.178   4.232
  484SOL     OW 2350   2.321   4.290   3.768
  484SOL    HW1 2351   2.393   4.257   3.828
  484SOL    HW2 2352   2.347   4.380   3.731
  485SOL     OW 2353   5.521   3.307   1.306
  485SOL    HW1 2354   5.424   3.334   1.307
  485SOL    HW2 2355   5.559   3.322   1.215
  486SOL     OW 2356   5.747   6.131   6.341
  486SOL    HW1 2357   5.786   6.114   6.251
  486SOL    HW2 2358   5.759   6.051   6.399
  487SOL     OW 2359   0.461   6.506   5.872
  487SOL    HW1 2360   0.413   6.592   5.856
  487SOL    HW2 2361   0.550   6.525   5.914
  488SOL     OW 2362   2.160   5.526   3.422
  488SOL    HW1 2363   2.203   5.437   3.411
  488SOL    HW2 2364   2.155   5.549   3.519
  489SOL     OW 2365   1.594   5.744   6.295
  489SOL    HW1 2366   1.498   5.768   6.281
  489SOL    HW2 2367   1.603   5.644   6.300
  490SOL     OW 2368   0.924   4.010   4.586
  490SOL    HW1 2369   0.974   4.029   4.670
  490SOL    HW2 2370   0.949   3.920   4.551
  491SOL     OW 2371   0.381   2.860   0.747
  491SOL    HW1 2372   0.468   2.883   0.791
  491SOL    HW2 2373   0.357   2.765   0.770
  492SOL     OW 2374   1.066   2.457   5.524
  492SOL    HW1 2375   1.019   2.448   5.612
  492SOL    HW2 2376   1.156   2.412   5.530
  493SOL     OW 2377   2.125   5.775   4.337
  493SOL    HW1 2378   2.047   5.830   4.309
  493SOL    HW2 2379   2.101   5.720   4.417
  494SOL     OW 2380   2.729   6.668   4.560
  494SOL    HW1 2381   2.716   6.587   4.617
  494SOL    HW2 2382   2.716   6.643   4.464
  495SOL     OW 2383   3.633   4.121   6.361
  495SOL    HW1 2384   3.706   4.186   6.341
  495SOL    HW2 2385   3.643   4.041   6.301
  496SOL     OW 2386   4.919   1.488   3.127
  496SOL    HW1 2387   4.932   1.491   3.028
  496SOL    HW2 2388   4.867   1.568   3.156
  497SOL     OW 2389   4.801   1.800   0.370
  497SOL    HW1 2390   4.702   1.795   0.377
  497SOL    HW2 2391   4.834   1.731   0.305
  498SOL     OW 2392   0.141   0.001   1.602
  498SOL    HW1 2393   0.194   6.935   1.597
  498SOL    HW2 2394   0.056   7.003   1.652
  499SOL     OW 2395   2.645   5.629   0.282
  499SOL    HW1 2396   2.558   5.618   0.233
  499SOL    HW2 2397   2.674   5.540   0.318
  500SOL     OW 2398   5.536   2.476   0.141
  500SOL    HW1 2399   5.569   2.419   0.066
  500SOL    HW2 2400   5.582   2.450   0.226
  501SOL     OW 2401   1.205   1.264   4.561
  501SOL    HW1 2402   1.120   1.236   4.606
  501SOL    HW2 2403   1.234   1.353   4.598
  502SOL     OW 2404   2.325   4.892   6.631
  502SOL    HW1 2405   2.279   4.868   6.545
  502SOL    HW2 2406   2.256   4.904   6.703
  503SOL     OW 2407   4.299   4.848   0.779
  503SOL    HW1 2408   4.287   4.897   0.693
  503SOL    HW2 2409   4.302   4.913   0.855
  504SOL     OW 2410   6.225   6.011   2.215
  504SOL    HW1 2411   6.163   5.934   2.224
  504SOL    HW2 2412   6.185   6.079   2.153
  505SOL     OW 2413   5.055   5.999   5.261
  505SOL    HW1 2414   5.140   6.049   5.250
  505SOL    HW2 2415   5.022   5.968   5.171
  506SOL     OW 2416   4.308   5.161   2.034
  506SOL    HW1 2417   4.366   5.198   1.961
  506SOL    HW2 2418   4.212   5.169   2.006
  507SOL     OW 2419   2.900   0.868   1.239
  507SOL    HW1 2420   2.895   0.963   1.271
  507SOL    HW2 2421   2.866   0.807   1.311
  508SOL     OW 2422   0.161   3.845   3.124
  508SOL    HW1 2423   0.211   3.759   3.116
  508SOL    HW2 2424   0.067   3.832   3.094
  509SOL     OW 2425   4.753   0.250   6.040
  509SOL    HW1 2426   4.746   0.315   5.965
  509SOL    HW2 2427   4.719   0.292   6.124
  510SOL     OW 2428   6.466   3.915   6.735
  510SOL    HW1 2429   6.469   3.933   6.833
  510SOL    HW2 2430   6.499   3.995   6.685
  511SOL     OW 2431   0.729   2.083   0.571
  511SOL    HW1 2432   0.661   2.156   0.579
  511SOL    HW2 2433   0.813   2.110   0.617
  512SOL     OW 2434   0.092   1.875   4.455
  512SOL    HW1 2435   0.087   1.799   4.519
  512SOL    HW2 2436   0.051   1.957   4.497
  513SOL     OW 2437   5.017   0.970   2.887
  513SOL    HW1 2438   4.970   1.039   2.942
  513SOL    HW2 2439   5.100   0.939   2.934
  514SOL     OW 2440   6.251   0.414   4.714
  514SOL    HW1 2441   6.311   0.494   4.715
  514SOL    HW2 2442   6.175   0.429   4.776
  515SOL     OW 2443   4.095   0.182   5.564
  515SOL    HW1 2444   4.023   0.176   5.634
  515SOL    HW2 2445   4.068   0.249   5.495
  516SOL     OW 2446   2.481   5.805   2.631
  516SOL    HW1 2447   2.483   5.895   2.587
  516SOL    HW2 2448   2.388   5.768   2.628
  517SOL     OW 2449   3.341   5.797   1.577
  517SOL    HW1 2450   3.320   5.712   1.626
  517SOL    HW2 2451   3.350   5.777   1.479
  518SOL     OW 2452   2.164   3.950   4.170
  518SOL    HW1 2453   2.099   3.874   4.174
  518SOL    HW2 2454   2.235   3.930   4.102
  519SOL     OW 2455   6.841   0.153   2.090
  519SOL    HW1 2456   6.815   0.181   2.182
  519SOL    HW2 2457   6.941   0.152   2.084
  520SOL     OW 2458   1.665   4.150   0.829
  520SOL    HW1 2459   1.581   4.127   0.877
  520SOL    HW2 2460   1.744   4.129   0.887
  521SOL     OW 2461   6.498   6.379   5.085
  521SOL    HW1 2462   6.480   6.315   5.159
  521SOL    HW2 2463   6.559   6.337   5.018
  522SOL     OW 2464   3.835   4.242   1.523
  522SOL    HW1 2465   3.911   4.208   1.467
  522SOL    HW2 2466   3.836   4.342   1.523
  523SOL     OW 2467   0.787   6.988   0.900
  523SOL    HW1 2468   0.762   6.914   0.837
  523SOL    HW2 2469   0.886   7.002   0.897
  524SOL     OW 2470   6.813   2.258   1.327
  524SOL    HW1 2471   6.908   2.255   1.296
  524SOL    HW2 2472   6.752   2.264   1.248
  525SOL     OW 2473   0.566   3.761   5.431
  525SOL    HW1 2474   0.595   3.795   5.342
  525SOL    HW2 2475   0.611   3.673   5.449
  526SOL     OW 2476   3.239   0.334   3.794
  526SOL    HW1 2477   3.241   0.430   3.823
  526SOL    HW2 2478   3.298   0.281   3.854
  527SOL     OW 2479   0.384   0.924   0.477
  527SOL    HW1 2480   0.372   1.023   0.487
  527SOL    HW2 2481   0.435   0.889   0.556
  528SOL     OW 2482   0.126   3.283   4.286
  528SOL    HW1 2483   0.159   3.190   4.269
  528SOL    HW2 2484   0.067   3.312   4.211
  529SOL     OW 2485   1.809   0.461   0.223
  529SOL    HW1 2486   1.801   0.527   0.148
  529SOL    HW2 2487   1.906   0.444   0.242
  530SOL     OW 2488   3.588   4.033   1.172
  530SOL    HW1 2489   3.545   3.996   1.089
  530SOL    HW2 2490   3.624   4.124   1.153
  531SOL     OW 2491   1.130   0.217   0.725
  531SOL    HW1 2492   1.037   0.214   0.687
  531SOL    HW2 2493   1.179   0.296   0.688
  532SOL     OW 2494   1.238   2.190   6.503
  532SOL    HW1 2495   1.207   2.119   6.440
  532SOL    HW2 2496   1.171   2.203   6.575
  533SOL     OW 2497   3.845   0.103   4.476
  533SOL    HW1 2498   3.897   0.172   4.424
  533SOL    HW2 2499   3.760   0.144   4.509
  534SOL     OW 2500   2.019   5.142   1.848
  534SOL    HW1 2501   2.093   5.091   1.891
  534SOL    HW2 2502   2.035   5.240   1.859
  535SOL     OW 2503   5.199   3.518   3.988
  535SOL    HW1 2504   5.153   3.557   3.909
  535SOL    HW2 2505   5.184   3.419   3.989
  536SOL     OW 2506   6.345   0.099   1.969
  536SOL    HW1 2507   6.369   0.192   1.943
  536SOL    HW2 2508   6.269   0.101   2.034
  537SOL     OW 2509   3.900   2.076   3.909
  537SOL    HW1 2510   3.902   2.094   4.008
  537SOL    HW2 2511   3.809   2.096   3.873
  538SOL     OW 2512   3.172   4.686   5.338
  538SOL    HW1 2513   3.142   4.726   5.252
  538SOL    HW2 2514   3.097   4.631   5.377
  539SOL     OW 2515   0.919   6.870   6.996
  539SOL    HW1 2516   1.006   6.904   0.013
  539SOL    HW2 2517   0.847   6.887   0.045
  540SOL     OW 2518   0.679   0.015   4.276
  540SOL    HW1 2519   0.602   0.079   4.266
  540SOL    HW2 2520   0.681   6.971   4.198
  541SOL     OW 2521   4.453   6.205   3.926
  541SOL    HW1 2522   4.431   6.133   3.860
  541SOL    HW2 2523   4.465   6.292   3.877
  542SOL     OW 2524   3.370   0.524   5.612
  542SOL    HW1 2525   3.358   0.433   5.572
  542SOL    HW2 2526   3.348   0.520   5.710
  543SOL     OW 2527   6.087   2.366   3.880
  543SOL    HW1 2528   6.185   2.385   3.875
  543SOL    HW2 2529   6.042   2.435   3.936
  544SOL     OW 2530   1.648   3.750   1.191
  544SOL    HW1 2531   1.646   3.849   1.179
  544SOL    HW2 2532   1.737   3.723   1.228
  545SOL     OW 2533   5.650   0.407   1.288
  545SOL    HW1 2534   5.669   0.344   1.213
  545SOL    HW2 2535   5.649   0.501   1.253
  546SOL     OW 2536   6.783   4.478   2.931
  546SOL    HW1 2537   6.770   4.400   2.992
  546SOL    HW2 2538   6.820   4.447   2.843
  547SOL     OW 2539   5.424   0.678   6.248
  547SOL    HW1 2540   5.343   0.727   6.280
  547SOL    HW2 2541   5.506   0.734   6.262
  548SOL     OW 2542   3.858   2.233   0.088
  548SOL    HW1 2543   3.902   2.310   0.043
  548SOL    HW2 2544   3.916   2.200   0.163
  549SOL     OW 2545   5.529   1.595   1.916
  549SOL    HW1 2546   5.432   1.620   1.912
  549SOL    HW2 2547   5.583   1.675   1.942
  550SOL     OW 2548   0.139   5.873   3.249
  550SOL    HW1 2549   0.220   5.832   3.289
  550SOL    HW2 2550   0.079   5.908   3.322
  551SOL     OW 2551   6.334   1.065   0.578
  551SOL    HW1 2552   6.417   1.031   0.534
  551SOL    HW2 2553   6.303   0.998   0.646
  552SOL     OW 2554   0.047   5.377   5.719
  552SOL    HW1 2555   6.998   5.416   5.656
  552SOL    HW2 2556   0.116   5.446   5.741
  553SOL     OW 2557   2.386   1.123   0.287
  553SOL    HW1 2558   2.347   1.210   0.257
  553SOL    HW2 2559   2.439   1.138   0.370
  554SOL     OW 2560   5.253   6.336   1.533
  554SOL    HW1 2561   5.241   6.358   1.436
  554SOL    HW2 2562   5.169   6.358   1.583
  555SOL     OW 2563   1.180   3.865   5.849
  555SOL    HW1 2564   1.170   3.943   5.787
  555SOL    HW2 2565   1.258   3.881   5.910
  556SOL     OW 2566   5.560   0.264   4.449
  556SOL    HW1 2567   5.635   0.314   4.405
  556SOL    HW2 2568   5.550   0.297   4.543
  557SOL     OW 2569   6.807   4.308   6.655
  557SOL    HW1 2570   6.825   4.354   6.567
  557SOL    HW2 2571   6.760   4.221   6.638
  558SOL     OW 2572   3.089   3.939   2.136
  558SOL    HW1 2573   3.154   3.994   2.084
  558SOL    HW2 2574   3.009   3.994   2.158
  559SOL     OW 2575   6.613   6.343   5.706
  559SOL    HW1 2576   6.538   6.373   5.765
  559SOL    HW2 2577   6.594   6.250   5.673
  560SOL     OW 2578   6.341   3.199   3.942
  560SOL    HW1 2579   6.438   3.183   3.957
  560SOL    HW2 2580   6.301   3.244   4.021
  561SOL     OW 2581   0.720   2.903   0.212
  561SOL    HW1 2582   0.797   2.872   0.267
  561SOL    HW2 2583   0.749   2.917   0.118
  562SOL     OW 2584   4.203   6.855   5.041
  562SOL    HW1 2585   4.225   6.838   4.944
  562SOL    HW2 2586   4.284   6.889   5.088
  563SOL     OW 2587   1.846   1.245   4.466
  563SOL    HW1 2588   1.919   1.310   4.488
  563SOL    HW2 2589   1.774   1.292   4.415
  564SOL     OW 2590   6.757   1.684   5.641
  564SOL    HW1 2591   6.815   1.750   5.689
  564SOL    HW2 2592   6.810   1.642   5.567
  565SOL     OW 2593   3.468   3.468   3.795
  565SOL    HW1 2594   3.425   3.558   3.787
  565SOL    HW2 2595   3.411   3.400   3.749
  566SOL     OW 2596   3.246   0.273   3.194
  566SOL    HW1 2597   3.169   0.280   3.258
  566SOL    HW2 2598   3.270   0.177   3.182
  567SOL     OW 2599   2.330   2.725   5.610
  567SOL    HW1 2600   2.280   2.742   5.695
  567SOL    HW2 2601   2.335   2.809   5.556
  568SOL     OW 2602   0.014   6.533   0.151
  568SOL    HW1 2603   0.010   6.564   0.056
  568SOL    HW2 2604   0.094   6.573   0.196
  569SOL     OW 2605   6.204   2.303   0.496
  569SOL    HW1 2606   6.179   2.308   0.593
  569SOL    HW2 2607   6.122   2.287   0.441
  570SOL     OW 2608   2.580   0.226   6.215
  570SOL    HW1 2609   2.586   0.265   6.123
  570SOL    HW2 2610   2.569   0.299   6.282
  571SOL     OW 2611   2.037   4.963   2.115
  571SOL    HW1 2612   1.963   4.983   2.050
  571SOL    HW2 2613   2.002   4.967   2.208
  572SOL     OW 2614   2.955   0.331   4.254
  572SOL    HW1 2615   2.863   0.317   4.292
  572SOL    HW2 2616   2.961   0.423   4.215
  573SOL     OW 2617   6.951   1.001   5.008
  573SOL    HW1 2618   7.003   0.916   5.018
  573SOL    HW2 2619   6.979   1.047   4.923
  574SOL     OW 2620   2.488   2.493   5.624
  574SOL    HW1 2621   2.447   2.585   5.623
  574SOL    HW2 2622   2.558   2.490   5.695
  575SOL     OW 2623   3.980   2.841   0.149
  575SOL    HW1 2624   3.933   2.871   0.232
  575SOL    HW2 2625   3.946   2.894   0.071
  576SOL     OW 2626   2.198   3.032   3.069
  576SOL    HW1 2627   2.167   3.007   2.977
  576SOL    HW2 2628   2.262   2.964   3.102
  577SOL     OW 2629   0.582   1.531   2.057
  577SOL    HW1 2630   0.578   1.461   2.129
  577SOL    HW2 2631   0.678   1.553   2.037
  578SOL     OW 2632   2.469   6.408   6.691
  578SOL    HW1 2633   2.547   6.349   6.669
  578SOL    HW2 2634   2.431   6.446   6.606
  579SOL     OW 2635   2.186   4.544   1.972
  579SOL    HW1 2636   2.259   4.485   1.936
  579SOL    HW2 2637   2.225   4.617   2.027
  580SOL     OW 2638   4.495   5.557   4.544
  580SOL    HW1 2639   4.500   5.521   4.450
  580SOL    HW2 2640   4.408   5.531   4.585
  581SOL     OW 2641   1.683   2.592   4.409
  581SOL    HW1 2642   1.661   2.666   4.473
  581SOL    HW2 2643   1.768   2.615   4.360
  582SOL     OW 2644   5.542   5.637   3.975
  582SOL    HW1 2645   5.486   5.681   4.045
  582SOL    HW2 2646   5.485   5.618   3.894
  583SOL     OW 2647   4.565   5.663   5.760
  583SOL    HW1 2648   4.660   5.656   5.729
  583SOL    HW2 2649   4.512   5.586   5.726
  584SOL     OW 2650   4.820   0.751   5.167
  584SOL    HW1 2651   4.847   0.831   5.114
  584SOL    HW2 2652   4.721   0.740   5.162
  585SOL     OW 2653   2.996   0.939   1.763
  585SOL    HW1 2654   2.954   1.010   1.706
  585SOL    HW2 2655   3.017   0.977   1.853
  586SOL     OW 2656   4.608   6.708   0.637
  586SOL    HW1 2657   4.550   6.779   0.598
  586SOL    HW2 2658   4.704   6.734   0.628
  587SOL     OW 2659   4.736   1.953   1.644
  587SOL    HW1 2660   4.755   1.920   1.737
  587SOL    HW2 2661   4.686   1.883   1.593
  588SOL     OW 2662   1.871   5.163   3.082
  588SOL    HW1 2663   1.776   5.132   3.095
  588SOL    HW2 2664   1.933   5.091   3.112
  589SOL     OW 2665   2.820   5.996   1.017
  589SOL    HW1 2666   2.908   6.043   1.028
  589SOL    HW2 2667   2.792   5.957   1.105
  590SOL     OW 2668   4.879   2.055   0.479
  590SOL    HW1 2669   4.872   1.962   0.443
  590SOL    HW2 2670   4.788   2.097   0.480
  591SOL     OW 2671   3.114   5.887   4.251
  591SOL    HW1 2672   3.087   5.791   4.245
  591SOL    HW2 2673   3.049   5.943   4.198
  592SOL     OW 2674   3.971   2.182   4.167
  592SOL    HW1 2675   4.019   2.268   4.184
  592SOL    HW2 2676   4.004   2.112   4.230
  593SOL     OW 2677   2.751   1.465   6.723
  593SOL    HW1 2678   2.832   1.438   6.670
  593SOL    HW2 2679   2.704   1.540   6.676
  594SOL     OW 2680   4.877   1.367   1.936
  594SOL    HW1 2681   4.866   1.381   2.035
  594SOL    HW2 2682   4.863   1.271   1.915
  595SOL     OW 2683   5.586   5.727   2.755
  595SOL    HW1 2684   5.657   5.779   2.801
  595SOL    HW2 2685   5.530   5.790   2.700
  596SOL     OW 2686   6.369   5.038   4.256
  596SOL    HW1 2687   6.288   5.087   4.226
  596SOL    HW2 2688   6.343   4.948   4.292
  597SOL     OW 2689   2.629   0.684   6.553
  597SOL    HW1 2690   2.572   0.765   6.539
  597SOL    HW2 2691   2.704   0.707   6.616
  598SOL     OW 2692   3.212   3.349   4.390
  598SOL    HW1 2693   3.249   3.324   4.300
  598SOL    HW2 2694   3.147   3.424   4.379
  599SOL     OW 2695   1.257   4.825   1.712
  599SOL    HW1 2696   1.296   4.913   1.685
  599SOL    HW2 2697   1.165   4.817   1.676
  600SOL     OW 2698   6.726   3.888   5.045
  600SOL    HW1 2699   6.812   3.845   5.017
  600SOL    HW2 2700   6.713   3.973   4.996
  601SOL     OW 2701   2.111   6.760   4.801
  601SOL    HW1 2702   2.128   6.848   4.845
  601SOL    HW2 2703   2.038   6.771   4.733
  602SOL     OW 2704   2.089   6.640   3.707
  602SOL    HW1 2705   2.045   6.582   3.776
  602SOL    HW2 2706   2.186   6.614   3.699
  603SOL     OW 2707   1.306   1.321   5.360
  603SOL    HW1 2708   1.332   1.225   5.373
  603SOL    HW2 2709   1.223   1.326   5.304
  604SOL     OW 2710   6.563   2.280   1.657
  604SOL    HW1 2711   6.659   2.289   1.632
  604SOL    HW2 2712   6.535   2.360   1.710
  605SOL     OW 2713   6.731   6.113   2.117
  605SOL    HW1 2714   6.721   6.191   2.179
  605SOL    HW2 2715   6.790   6.138   2.041
  606SOL     OW 2716   3.567   6.435   4.507
  606SOL    HW1 2717   3.652   6.469   4.548
  606SOL    HW2 2718   3.491   6.454   4.569
  607SOL     OW 2719   1.192   4.465   5.908
  607SOL    HW1 2720   1.162   4.485   6.001
  607SOL    HW2 2721   1.178   4.368   5.888
  608SOL     OW 2722   2.642   1.083   5.628
  608SOL    HW1 2723   2.678   1.146   5.558
  608SOL    HW2 2724   2.565   1.033   5.590
  609SOL     OW 2725   3.354   2.834   1.985
  609SOL    HW1 2726   3.313   2.761   1.931
  609SOL    HW2 2727   3.320   2.828   2.079
  610SOL     OW 2728   5.037   3.728   1.085
  610SOL    HW1 2729   4.978   3.808   1.097
  610SOL    HW2 2730   4.981   3.647   1.073
  611SOL     OW 2731   3.597   0.582   2.463
  611SOL    HW1 2732   3.531   0.604   2.535
  611SOL    HW2 2733   3.551   0.532   2.389
  612SOL     OW 2734   3.928   4.638   5.382
  612SOL    HW1 2735   3.887   4.722   5.345
  612SOL    HW2 2736   3.888   4.618   5.471
  613SOL     OW 2737   4.573   5.025   5.707
  613SOL    HW1 2738   4.564   4.926   5.718
  613SOL    HW2 2739   4.490   5.061   5.663
  614SOL     OW 2740   3.774   5.230   5.748
  614SOL    HW1 2741   3.738   5.323   5.756
  614SOL    HW2 2742   3.873   5.233   5.739
  615SOL     OW 2743   0.668   4.675   2.476
  615SOL    HW1 2744   0.722   4.604   2.430
  615SOL    HW2 2745   0.697   4.765   2.443
  616SOL     OW 2746   6.175   3.484   3.284
  616SOL    HW1 2747   6.187   3.536   3.199
  616SOL    HW2 2748   6.207   3.390   3.270
  617SOL     OW 2749   3.413   5.525   6.415
  617SOL    HW1 2750   3.428   5.443   6.359
  617SOL    HW2 2751   3.471   5.521   6.496
  618SOL     OW 2752   1.535   0.901   2.286
  618SOL    HW1 2753   1.591   0.920   2.367
  618SOL    HW2 2754   1.441   0.881   2.316
  619SOL     OW 2755   0.730   1.121   6.990
  619SOL    HW1 2756   0.733   1.037   0.027
  619SOL    HW2 2757   0.779   1.194   0.020
  620SOL     OW 2758   4.603   3.797   1.076
  620SOL    HW1 2759   4.524   3.857   1.067
  620SOL    HW2 2760   4.574   3.709   1.114
  621SOL     OW 2761   0.291   4.750   1.853
  621SOL    HW1 2762   0.224   4.703   1.910
  621SOL    HW2 2763   0.286   4.848   1.870
  622SOL     OW 2764   1.399   0.392   0.028
  622SOL    HW1 2765   1.459   0.326   7.002
  622SOL    HW2 2766   1.359   0.452   6.978
  623SOL     OW 2767   0.841   4.550   6.611
  623SOL    HW1 2768   0.769   4.482   6.626
  623SOL    HW2 2769   0.922   4.524   6.663
  624SOL     OW 2770   0.388   2.384   2.248
  624SOL    HW1 2771   0.414   2.335   2.165
  624SOL    HW2 2772   0.402   2.482   2.234
  625SOL     OW 2773   2.352   1.354   1.819
  625SOL    HW1 2774   2.286   1.372   1.892
  625SOL    HW2 2775   2.405   1.436   1.800
  626SOL     OW 2776   2.962   6.706   4.315
  626SOL    HW1 2777   2.869   6.669   4.305
  626SOL    HW2 2778   2.992   6.744   4.228
  627SOL     OW 2779   4.939   0.860   0.334
  627SOL    HW1 2780   4.841   0.848   0.347
  627SOL    HW2 2781   4.956   0.950   0.293
  628SOL     OW 2782   5.082   4.050   3.786
  628SOL    HW1 2783   5.072   4.139   3.742
  628SOL    HW2 2784   5.155   4.054   3.854
  629SOL     OW 2785   1.427   6.202   0.648
  629SOL    HW1 2786   1.402   6.290   0.687
  629SOL    HW2 2787   1.517   6.210   0.604
  630SOL     OW 2788   4.002   1.983   1.210
  630SOL    HW1 2789   3.985   2.081   1.202
  630SOL    HW2 2790   4.039   1.963   1.301
  631SOL     OW 2791   2.470   6.754   5.224
  631SOL    HW1 2792   2.527   6.813   5.167
  631SOL    HW2 2793   2.383   6.799   5.243
  632SOL     OW 2794   2.213   1.211   1.074
  632SOL    HW1 2795   2.270   1.268   1.015
  632SOL    HW2 2796   2.168   1.269   1.142
  633SOL     OW 2797   2.477   0.007   6.309
  633SOL    HW1 2798   2.536   6.945   6.294
  633SOL    HW2 2799   2.523   0.089   6.275
  634SOL     OW 2800   3.671   6.055   0.206
  634SOL    HW1 2801   3.719   5.980   0.163
  634SOL    HW2 2802   3.661   6.037   0.304
  635SOL     OW 2803   2.626   0.528   2.631
  635SOL    HW1 2804   2.686   0.448   2.636
  635SOL    HW2 2805   2.652   0.583   2.552
  636SOL     OW 2806   5.271   5.238   6.958
  636SOL    HW1 2807   5.226   5.321   6.989
  636SOL    HW2 2808   5.359   5.228   7.006
  637SOL     OW 2809   4.712   4.484   0.873
  637SOL    HW1 2810   4.621   4.524   0.882
  637SOL    HW2 2811   4.773   4.551   0.830
  638SOL     OW 2812   5.165   1.249   2.660
  638SOL    HW1 2813   5.262   1.225   2.654
  638SOL    HW2 2814   5.130   1.226   2.751
  639SOL     OW 2815   4.425   4.673   1.891
  639SOL    HW1 2816   4.497   4.624   1.942
  639SOL    HW2 2817   4.339   4.668   1.943
  640SOL     OW 2818   2.711   4.274   5.490
  640SOL    HW1 2819   2.659   4.211   5.431
  640SOL    HW2 2820   2.808   4.258   5.477
  641SOL     OW 2821   6.922   6.056   4.595
  641SOL    HW1 2822   6.978   6.117   4.540
  641SOL    HW2 2823   6.918   6.090   4.689
  642SOL     OW 2824   1.435   5.372   5.196
  642SOL    HW1 2825   1.336   5.365   5.207
  642SOL    HW2 2826   1.473   5.433   5.266
  643SOL     OW 2827   5.417   5.995   5.032
  643SOL    HW1 2828   5.445   6.078   5.081
  643SOL    HW2 2829   5.392   5.924   5.098
  644SOL     OW 2830   1.483   6.511   2.342
  644SOL    HW1 2831   1.450   6.463   2.423
  644SOL    HW2 2832   1.412   6.509   2.271
  645SOL     OW 2833   5.790   2.894   3.669
  645SOL    HW1 2834   5.779   2.807   3.717
  645SOL    HW2 2835   5.804   2.967   3.736
  646SOL     OW 2836   1.579   1.825   4.743
  646SOL    HW1 2837   1.488   1.854   4.713
  646SOL    HW2 2838   1.633   1.905   4.768
  647SOL     OW 2839   5.722   3.355   0.507
  647SOL    HW1 2840   5.695   3.275   0.454
  647SOL    HW2 2841   5.641   3.396   0.548
  648SOL     OW 2842   6.028   2.911   1.950
  648SOL    HW1 2843   6.001   2.935   1.857
  648SOL    HW2 2844   6.083   2.827   1.948
  649SOL     OW 2845   4.019   4.806   1.175
  649SOL    HW1 2846   4.058   4.719   1.143
  649SOL    HW2 2847   3.996   4.863   1.096
  650SOL     OW 2848   4.932   4.236   0.642
  650SOL    HW1 2849   4.995   4.159   0.629
  650SOL    HW2 2850   4.940   4.270   0.736
  651SOL     OW 2851   1.153   5.695   6.517
  651SOL    HW1 2852   1.099   5.615   6.543
  651SOL    HW2 2853   1.177   5.689   6.420
  652SOL     OW 2854   4.098   1.258   2.874
  652SOL    HW1 2855   4.028   1.329   2.866
  652SOL    HW2 2856   4.056   1.168   2.863
  653SOL     OW 2857   3.805   5.158   3.546
  653SOL    HW1 2858   3.836   5.224   3.615
  653SOL    HW2 2859   3.819   5.065   3.581
  654SOL     OW 2860   6.052   4.684   0.605
  654SOL    HW1 2861   5.976   4.625   0.632
  654SOL    HW2 2862   6.133   4.660   0.660
  655SOL     OW 2863   0.526   0.706   0.665
  655SOL    HW1 2864   0.567   0.726   0.754
  655SOL    HW2 2865   0.598   0.700   0.596
  656SOL     OW 2866   2.833   6.534   2.381
  656SOL    HW1 2867   2.813   6.627   2.412
  656SOL    HW2 2868   2.774   6.469   2.430
  657SOL     OW 2869   3.202   1.844   6.705
  657SOL    HW1 2870   3.176   1.909   6.776
  657SOL    HW2 2871   3.266   1.888   6.642
  658SOL     OW 2872   3.594   4.680   5.937
  658SOL    HW1 2873   3.582   4.582   5.921
  658SOL    HW2 2874   3.515   4.729   5.899
  659SOL     OW 2875   3.058   0.240   0.102
  659SOL    HW1 2876   3.063   0.337   0.126
  659SOL    HW2 2877   2.966   0.217   0.070
  660SOL     OW 2878   3.759   5.234   3.078
  660SOL    HW1 2879   3.724   5.311   3.025
  660SOL    HW2 2880   3.811   5.268   3.156
  661SOL     OW 2881   5.435   5.386   3.214
  661SOL    HW1 2882   5.517   5.374   3.158
  661SOL    HW2 2883   5.460   5.381   3.311
  662SOL     OW 2884   3.326   1.313   0.269
  662SOL    HW1 2885   3.237   1.354   0.251
  662SOL    HW2 2886   3.371   1.363   0.344
  663SOL     OW 2887   2.361   4.443   4.953
  663SOL    HW1 2888   2.430   4.511   4.929
  663SOL    HW2 2889   2.371   4.419   5.050
  664SOL     OW 2890   6.461   1.172   6.904
  664SOL    HW1 2891   6.440   1.093   6.961
  664SOL    HW2 2892   6.561   1.185   6.902
  665SOL     OW 2893   2.544   5.445   3.031
  665SOL    HW1 2894   2.574   5.523   2.976
  665SOL    HW2 2895   2.625   5.399   3.069
  666SOL     OW 2896   4.045   1.112   2.103
  666SOL    HW1 2897   4.117   1.104   2.172
  666SOL    HW2 2898   4.064   1.191   2.045
  667SOL     OW 2899   1.112   6.822   2.631
  667SOL    HW1 2900   1.074   6.849   2.719
  667SOL    HW2 2901   1.088   6.890   2.562
  668SOL     OW 2902   5.210   3.562   0.311
  668SOL    HW1 2903   5.146   3.548   0.387
  668SOL    HW2 2904   5.239   3.658   0.309
  669SOL     OW 2905   5.090   1.775   3.053
  669SOL    HW1 2906   5.098   1.868   3.018
  669SOL    HW2 2907   4.993   1.748   3.055
  670SOL     OW 2908   2.486   2.161   3.221
  670SOL    HW1 2909   2.418   2.127   3.285
  670SOL    HW2 2910   2.444   2.228   3.160
  671SOL     OW 2911   3.352   6.467   1.814
  671SOL    HW1 2912   3.385   6.378   1.783
  671SOL    HW2 2913   3.338   6.527   1.735
  672SOL     OW 2914   1.363   6.898   2.683
  672SOL    HW1 2915   1.276   6.851   2.667
  672SOL    HW2 2916   1.434   6.857   2.626
  673SOL     OW 2917   5.679   6.804   0.063
  673SOL    HW1 2918   5.773   6.837   0.074
  673SOL    HW2 2919   5.616   6.882   0.061
  674SOL     OW 2920   0.034   1.223   4.117
  674SOL    HW1 2921   0.047   1.180   4.027
  674SOL    HW2 2922   0.038   1.153   4.188
  675SOL     OW 2923   5.829   2.718   2.529
  675SOL    HW1 2924   5.784   2.637   2.491
  675SOL    HW2 2925   5.899   2.690   2.594
  676SOL     OW 2926   1.804   5.852   5.735
  676SOL    HW1 2927   1.735   5.863   5.806
  676SOL    HW2 2928   1.881   5.914   5.753
  677SOL     OW 2929   4.809   1.333   0.798
  677SOL    HW1 2930   4.862   1.341   0.882
  677SOL    HW2 2931   4.802   1.236   0.772
  678SOL     OW 2932   1.987   5.005   4.682
  678SOL    HW1 2933   1.935   4.922   4.661
  678SOL    HW2 2934   2.026   4.998   4.774
  679SOL     OW 2935   5.589   1.664   5.412
  679SOL    HW1 2936   5.516   1.709   5.463
  679SOL    HW2 2937   5.627   1.728   5.345
  680SOL     OW 2938   4.750   0.225   4.265
  680SOL    HW1 2939   4.668   0.176   4.235
  680SOL    HW2 2940   4.809   0.163   4.317
  681SOL     OW 2941   4.592   4.982   2.410
  681SOL    HW1 2942   4.614   4.952   2.317
  681SOL    HW2 2943   4.493   4.977   2.425
  682SOL     OW 2944   0.918   0.967   3.409
  682SOL    HW1 2945   0.910   0.888   3.469
  682SOL    HW2 2946   0.914   1.051   3.463
  683SOL     OW 2947   4.488   3.572   1.164
  683SOL    HW1 2948   4.533   3.483   1.157
  683SOL    HW2 2949   4.394   3.565   1.129
  684SOL     OW 2950   6.802   1.189   6.344
  684SOL    HW1 2951   6.743   1.246   6.402
  684SOL    HW2 2952   6.772   1.094   6.350
  685SOL     OW 2953   3.676   0.548   3.141
  685SOL    HW1 2954   3.755   0.597   3.178
  685SOL    HW2 2955   3.605   0.543   3.211
  686SOL     OW 2956   4.540   0.280   5.260
  686SOL    HW1 2957   4.493   0.368   5.258
  686SOL    HW2 2958   4.479   0.211   5.300
  687SOL     OW 2959   1.105   2.110   4.034
  687SOL    HW1 2960   1.201   2.099   4.062
  687SOL    HW2 2961   1.094   2.075   3.941
  688SOL     OW 2962   6.705   1.472   6.595
  688SOL    HW1 2963   6.717   1.381   6.635
  688SOL    HW2 2964   6.682   1.537   6.667
  689SOL     OW 2965   1.152   5.247   6.068
  689SOL    HW1 2966   1.244   5.281   6.050
  689SOL    HW2 2967   1.157   5.161   6.119
  690SOL     OW 2968   5.785   3.184   2.639
  690SOL    HW1 2969   5.772   3.092   2.678
  690SOL    HW2 2970   5.714   3.245   2.674
  691SOL     OW 2971   5.279   1.426   0.628
  691SOL    HW1 2972   5.310   1.502   0.685
  691SOL    HW2 2973   5.184   1.442   0.600
  692SOL     OW 2974   2.210   0.951   5.086
  692SOL    HW1 2975   2.234   1.048   5.075
  692SOL    HW2 2976   2.112   0.940   5.071
  693SOL     OW 2977   5.321   5.838   4.088
  693SOL    HW1 2978   5.240   5.865   4.141
  693SOL    HW2 2979   5.372   5.919   4.062
  694SOL     OW 2980   4.557   6.269   5.236
  694SOL    HW1 2981   4.579   6.188   5.182
  694SOL    HW2 2982   4.568   6.248   5.333
  695SOL     OW 2983   3.127   0.554   4.203
  695SOL    HW1 2984   3.048   0.579   4.145
  695SOL    HW2 2985   3.188   0.633   4.210
  696SOL     OW 2986   4.969   4.768   3.112
  696SOL    HW1 2987   4.882   4.802   3.075
  696SOL    HW2 2988   4.962   4.758   3.211
  697SOL     OW 2989   0.369   5.597   2.140
  697SOL    HW1 2990   0.452   5.554   2.104
  697SOL    HW2 2991   0.289   5.559   2.094
  698SOL     OW 2992   5.690   6.626   0.297
  698SOL    HW1 2993   5.731   6.705   0.344
  698SOL    HW2 2994   5.650   6.656   0.211
  699SOL     OW 2995   2.374   2.452   0.977
  699SOL    HW1 2996   2.377   2.358   1.011
  699SOL    HW2 2997   2.425   2.512   1.039
  700SOL     OW 2998   3.553   0.478   2.916
  700SOL    HW1 2999   3.571   0.537   2.996
  700SOL    HW2 3000   3.464   0.433   2.927
  701SOL     OW 3001   5.992   5.132   1.294
  701SOL    HW1 3002   5.980   5.227   1.322
  701SOL    HW2 3003   6.005   5.127   1.195
  702SOL     OW 3004   3.350   0.963   4.364
  702SOL    HW1 3005   3.289   1.037   4.391
  702SOL    HW2 3006   3.445   0.996   4.368
  703SOL     OW 3007   2.998   2.496   6.213
  703SOL    HW1 3008   2.952   2.468   6.128
  703SOL    HW2 3009   2.936   2.482   6.290
  704SOL     OW 3010   1.381   2.617   5.662
  704SOL    HW1 3011   1.332   2.662   5.587
  704SOL    HW2 3012   1.409   2.526   5.632
  705SOL     OW 3013   0.078   6.553   4.858
  705SOL    HW1 3014   0.103   6.458   4.840
  705SOL    HW2 3015   0.032   6.560   4.947
  706SOL     OW 3016   4.399   0.720   4.948
  706SOL    HW1 3017   4.375   0.635   4.900
  706SOL    HW2 3018   4.317   0.774   4.964
  707SOL     OW 3019   3.676   5.112   3.855
  707SOL    HW1 3020   3.603   5.059   3.812
  707SOL    HW2 3021   3.759   5.057   3.857
  708SOL     OW 3022   3.467   0.245   3.469
  708SOL    HW1 3023   3.560   0.210   3.466
  708SOL    HW2 3024   3.412   0.199   3.399
  709SOL     OW 3025   2.526   0.202   1.600
  709SOL    HW1 3026   2.556   0.295   1.619
  709SOL    HW2 3027   2.600   0.138   1.621
  710SOL     OW 3028   4.512   2.807   1.737
  710SOL    HW1 3029   4.461   2.758   1.807
  710SOL    HW2 3030   4.576   2.872   1.780
  711SOL     OW 3031   0.200   2.284   6.018
  711SOL    HW1 3032   0.240   2.195   6.041
  711SOL    HW2 3033   0.172   2.331   6.102
  712SOL     OW 3034   5.286   4.248   0.548
  712SOL    HW1 3035   5.379   4.214   0.538
  712SOL    HW2 3036   5.224   4.195   0.491
  713SOL     OW 3037   3.898   2.755   5.306
  713SOL    HW1 3038   3.878   2.719   5.397
  713SOL    HW2 3039   3.981   2.712   5.271
  714SOL     OW 3040   5.021   5.045   3.579
  714SOL    HW1 3041   4.979   4.981   3.515
  714SOL    HW2 3042   4.952   5.074   3.646
  715SOL     OW 3043   6.482   5.488   5.358
  715SOL    HW1 3044   6.481   5.454   5.264
  715SOL    HW2 3045   6.399   5.458   5.405
  716SOL     OW 3046   2.275   1.858   2.600
  716SOL    HW1 3047   2.284   1.935   2.537
  716SOL    HW2 3048   2.241   1.778   2.550
  717SOL     OW 3049   5.166   4.529   4.441
  717SOL    HW1 3050   5.159   4.616   4.393
  717SOL    HW2 3051   5.178   4.455   4.375
  718SOL     OW 3052   5.715   1.838   4.809
  718SOL    HW1 3053   5.676   1.747   4.813
  718SOL    HW2 3054   5.768   1.848   4.725
  719SOL     OW 3055   5.402   0.248   3.291
  719SOL    HW1 3056   5.353   0.178   3.240
  719SOL    HW2 3057   5.486   0.272   3.243
  720SOL     OW 3058   2.662   1.288   0.150
  720SOL    HW1 3059   2.649   1.195   0.114
  720SOL    HW2 3060   2.730   1.285   0.223
  721SOL     OW 3061   0.200   1.809   3.245
  721SOL    HW1 3062   0.125   1.765   3.294
  721SOL    HW2 3063   0.287   1.778   3.285
  722SOL     OW 3064   4.281   6.656   0.383
  722SOL    HW1 3065   4.198   6.650   0.439
  722SOL    HW2 3066   4.256   6.658   0.286
  723SOL     OW 3067   2.426   5.360   3.446
  723SOL    HW1 3068   2.480   5.283   3.479
  723SOL    HW2 3069   2.485   5.424   3.397
  724SOL     OW 3070   0.972   1.341   3.733
  724SOL    HW1 3071   0.946   1.353   3.829
  724SOL    HW2 3072   1.056   1.288   3.728
  725SOL     OW 3073   1.165   3.736   2.451
  725SOL    HW1 3074   1.083   3.732   2.508
  725SOL    HW2 3075   1.246   3.739   2.509
  726SOL     OW 3076   1.756   4.240   0.596
  726SOL    HW1 3077   1.824   4.184   0.549
  726SOL    HW2 3078   1.737   4.200   0.686
  727SOL     OW 3079   4.482   5.654   5.387
  727SOL    HW1 3080   4.452   5.559   5.393
  727SOL    HW2 3081   4.582   5.657   5.378
  728SOL     OW 3082   6.409   3.508   4.209
  728SOL    HW1 3083   6.473   3.471   4.276
  728SOL    HW2 3084   6.456   3.523   4.122
  729SOL     OW 3085   0.307   4.131   1.729
  729SOL    HW1 3086   0.244   4.053   1.726
  729SOL    HW2 3087   0.306   4.171   1.820
  730SOL     OW 3088   4.983   0.563   3.235
  730SOL    HW1 3089   4.931   0.484   3.269
  730SOL    HW2 3090   5.076   0.561   3.272
  731SOL     OW 3091   4.409   4.805   6.180
  731SOL    HW1 3092   4.418   4.893   6.134
  731SOL    HW2 3093   4.327   4.758   6.147
  732SOL     OW 3094   4.699   1.586   4.547
  732SOL    HW1 3095   4.741   1.521   4.611
  732SOL    HW2 3096   4.731   1.566   4.455
  733SOL     OW 3097   6.190   6.668   3.076
  733SOL    HW1 3098   6.112   6.634   3.127
  733SOL    HW2 3099   6.180   6.642   2.980
  734SOL     OW 3100   6.107   6.319   2.428
  734SOL    HW1 3101   6.138   6.231   2.463
  734SOL    HW2 3102   6.026   6.305   2.370
  735SOL     OW 3103   4.868   0.776   2.494
  735SOL    HW1 3104   4.904   0.856   2.542
  735SOL    HW2 3105   4.790   0.803   2.437
  736SOL     OW 3106   1.330   1.910   4.668
  736SOL    HW1 3107   1.398   1.920   4.595
  736SOL    HW2 3108   1.249   1.964   4.646
  737SOL     OW 3109   5.221   1.076   6.662
  737SOL    HW1 3110   5.302   1.080   6.603
  737SOL    HW2 3111   5.241   1.117   6.750
  738SOL     OW 3112   2.366   4.248   1.115
  738SOL    HW1 3113   2.337   4.204   1.030
  738SOL    HW2 3114   2.459   4.218   1.138
  739SOL     OW 3115   2.993   6.779   4.588
  739SOL    HW1 3116   3.036   6.744   4.505
  739SOL    HW2 3117   2.901   6.743   4.595
  740SOL     OW 3118   5.451   3.283   2.846
  740SOL    HW1 3119   5.499   3.244   2.925
  740SOL    HW2 3120   5.369   3.331   2.878
  741SOL     OW 3121   2.625   0.366   3.125
  741SOL    HW1 3122   2.551   0.407   3.072
  741SOL    HW2 3123   2.682   0.310   3.065
  742SOL     OW 3124   1.819   6.669   1.778
  742SOL    HW1 3125   1.770   6.666   1.691
  742SOL    HW2 3126   1.786   6.746   1.832
  743SOL     OW 3127   0.769   6.601   3.515
  743SOL    HW1 3128   0.686   6.639   3.473
  743SOL    HW2 3129   0.764   6.501   3.513
  744SOL     OW 3130   4.784   2.171   0.065
  744SOL    HW1 3131   4.693   2.165   0.107
  744SOL    HW2 3132   4.814   2.079   0.038
  745SOL     OW 3133   2.842   6.442   4.866
  745SOL    HW1 3134   2.844   6.512   4.937
  745SOL    HW2 3135   2.924   6.385   4.874
  746SOL     OW 3136   6.667   4.430   5.651
  746SOL    HW1 3137   6.697   4.341   5.686
  746SOL    HW2 3138   6.602   4.417   5.576
  747SOL     OW 3139   5.016   5.984   3.249
  747SOL    HW1 3140   4.935   5.939   3.209
  747SOL    HW2 3141   5.038   6.065   3.196
  748SOL     OW 3142   5.582   5.380   2.315
  748SOL    HW1 3143   5.567   5.453   2.383
  748SOL    HW2 3144   5.631   5.305   2.358
  749SOL     OW 3145   4.984   3.631   3.761
  749SOL    HW1 3146   4.939   3.580   3.687
  749SOL    HW2 3147   5.038   3.706   3.721
  750SOL     OW 3148   2.283   2.021   1.880
  750SOL    HW1 3149   2.298   1.924   1.863
  750SOL    HW2 3150   2.355   2.075   1.836
  751SOL     OW 3151   4.690   0.203   0.248
  751SOL    HW1 3152   4.671   0.118   0.296
  751SOL    HW2 3153   4.606   0.258   0.243
  752SOL     OW 3154   3.605   2.511   5.393
  752SOL    HW1 3155   3.592   2.609   5.380
  752SOL    HW2 3156   3.526   2.462   5.357
  753SOL     OW 3157   3.945   3.512   4.721
  753SOL    HW1 3158   3.893   3.457   4.657
  753SOL    HW2 3159   3.892   3.525   4.805
  754SOL     OW 3160   6.130   0.533   6.999
  754SOL    HW1 3161   6.179   0.446   6.993
  754SOL    HW2 3162   6.041   0.524   6.956
  755SOL     OW 3163   4.090   4.381   5.293
  755SOL    HW1 3164   4.177   4.391   5.245
  755SOL    HW2 3165   4.052   4.471   5.312
  756SOL     OW 3166   2.063   5.106   6.029
  756SOL    HW1 3167   2.127   5.101   5.953
  756SOL    HW2 3168   2.046   5.013   6.064
  757SOL     OW 3169   2.602   6.859   2.740
  757SOL    HW1 3170   2.685   6.839   2.791
  757SOL    HW2 3171   2.570   6.951   2.762
  758SOL     OW 3172   3.305   1.438   3.696
  758SOL    HW1 3173   3.239   1.369   3.723
  758SOL    HW2 3174   3.260   1.527   3.688
  759SOL     OW 3175   0.428   2.776   4.520
  759SOL    HW1 3176   0.349   2.725   4.488
  759SOL    HW2 3177   0.407   2.818   4.608
  760SOL     OW 3178   6.619   5.584   3.185
  760SOL    HW1 3179   6.585   5.584   3.091
  760SOL    HW2 3180   6.544   5.559   3.247
  761SOL     OW 3181   3.872   3.131   6.101
  761SOL    HW1 3182   3.876   3.109   6.004
  761SOL    HW2 3183   3.964   3.137   6.138
  762SOL     OW 3184   3.331   5.182   4.220
  762SOL    HW1 3185   3.419   5.223   4.243
  762SOL    HW2 3186   3.290   5.233   4.144
  763SOL     OW 3187   6.064   0.714   0.145
  763SOL    HW1 3188   6.071   0.637   0.081
  763SOL    HW2 3189   6.140   0.711   0.210
  764SOL     OW 3190   5.675   0.190   5.507
  764SOL    HW1 3191   5.598   0.135   5.540
  764SOL    HW2 3192   5.751   0.129   5.483
  765SOL     OW 3193   6.558   6.569   0.948
  765SOL    HW1 3194   6.598   6.485   0.984
  765SOL    HW2 3195   6.497   6.547   0.872
  766SOL     OW 3196   2.239   2.032   5.141
  766SOL    HW1 3197   2.271   2.127   5.143
  766SOL    HW2 3198   2.169   2.019   5.212
  767SOL     OW 3199   0.057   6.235   4.467
  767SOL    HW1 3200   0.151   6.227   4.499
  767SOL    HW2 3201   0.055   6.230   4.368
  768SOL     OW 3202   2.001   5.254   2.372
  768SOL    HW1 3203   1.914   5.260   2.323
  768SOL    HW2 3204   2.076   5.270   2.307
  769SOL     OW 3205   2.548   2.429   5.008
  769SOL    HW1 3206   2.510   2.470   5.091
  769SOL    HW2 3207   2.648   2.423   5.016
  770SOL     OW 3208   1.718   4.386   5.061
  770SOL    HW1 3209   1.666   4.367   5.144
  770SOL    HW2 3210   1.679   4.466   5.014
  771SOL     OW 3211   1.207   5.805   3.093
  771SOL    HW1 3212   1.164   5.854   3.169
  771SOL    HW2 3213   1.176   5.710   3.093
  772SOL     OW 3214   5.652   4.244   0.714
  772SOL    HW1 3215   5.611   4.248   0.623
  772SOL    HW2 3216   5.588   4.280   0.781
  773SOL     OW 3217   0.563   3.484   3.307
  773SOL    HW1 3218   0.524   3.422   3.375
  773SOL    HW2 3219   0.493   3.509   3.240
  774SOL     OW 3220   1.951   0.476   2.843
  774SOL    HW1 3221   1.938   0.450   2.939
  774SOL    HW2 3222   1.942   0.575   2.834
  775SOL     OW 3223   2.303   4.806   2.893
  775SOL    HW1 3224   2.230   4.789   2.827
  775SOL    HW2 3225   2.368   4.871   2.854
  776SOL     OW 3226   2.595   5.318   6.730
  776SOL    HW1 3227   2.650   5.240   6.699
  776SOL    HW2 3228   2.643   5.365   6.804
  777SOL     OW 3229   2.367   4.070   0.058
  777SOL    HW1 3230   2.361   4.001   0.131
  777SOL    HW2 3231   2.436   4.043   7.010
  778SOL     OW 3232   2.925   6.782   1.449
  778SOL    HW1 3233   2.927   6.861   1.509
  778SOL    HW2 3234   2.843   6.786   1.391
  779SOL     OW 3235   6.937   2.113   3.423
  779SOL    HW1 3236   6.855   2.105   3.366
  779SOL    HW2 3237   6.923   2.063   3.509
  780SOL     OW 3238   0.861   1.980   4.083
  780SOL    HW1 3239   0.938   1.936   4.037
  780SOL    HW2 3240   0.875   2.079   4.085
  781SOL     OW 3241   0.507   4.404   0.202
  781SOL    HW1 3242   0.527   4.382   0.106
  781SOL    HW2 3243   0.499   4.319   0.254
  782SOL     OW 3244   1.903   3.370   5.296
  782SOL    HW1 3245   1.997   3.365   5.263
  782SOL    HW2 3246   1.849   3.427   5.234
  783SOL     OW 3247   6.314   5.131   6.104
  783SOL    HW1 3248   6.280   5.041   6.129
  783SOL    HW2 3249   6.395   5.153   6.159
  784SOL     OW 3250   3.156   6.162   0.641
  784SOL    HW1 3251   3.080   6.100   0.622
  784SOL    HW2 3252   3.129   6.256   0.619
  785SOL     OW 3253   1.337   6.547   4.497
  785SOL    HW1 3254   1.400   6.623   4.514
  785SOL    HW2 3255   1.314   6.502   4.584
  786SOL     OW 3256   6.632   1.182   3.216
  786SOL    HW1 3257   6.551   1.217   3.262
  786SOL    HW2 3258   6.606   1.136   3.131
  787SOL     OW 3259   2.643   0.092   0.834
  787SOL    HW1 3260   2.690   0.094   0.922
  787SOL    HW2 3261   2.698   0.043   0.767
  788SOL     OW 3262   3.008   2.403   1.160
  788SOL    HW1 3263   3.056   2.417   1.073
  788SOL    HW2 3264   3.054   2.332   1.213
  789SOL     OW 3265   4.176   4.969   1.688
  789SOL    HW1 3266   4.145   4.913   1.765
  789SOL    HW2 3267   4.275   4.957   1.677
  790SOL     OW 3268   0.538   2.134   2.355
  790SOL    HW1 3269   0.458   2.185   2.388
  790SOL    HW2 3270   0.554   2.156   2.259
  791SOL     OW 3271   3.064   5.155   4.688
  791SOL    HW1 3272   3.059   5.204   4.775
  791SOL    HW2 3273   3.065   5.056   4.706
  792SOL     OW 3274   1.351   0.480   0.838
  792SOL    HW1 3275   1.334   0.439   0.748
  792SOL    HW2 3276   1.379   0.575   0.826
  793SOL     OW 3277   2.793   5.940   4.016
  793SOL    HW1 3278   2.882   5.898   4.031
  793SOL    HW2 3279   2.770   5.935   3.918
  794SOL     OW 3280   3.437   3.208   2.944
  794SOL    HW1 3281   3.401   3.121   2.912
  794SOL    HW2 3282   3.537   3.208   2.937
  795SOL     OW 3283   3.732   0.548   6.580
  795SOL    HW1 3284   3.731   0.628   6.520
  795SOL    HW2 3285   3.680   0.474   6.537
  796SOL     OW 3286   1.368   2.995   6.794
  796SOL    HW1 3287   1.461   3.029   6.781
  796SOL    HW2 3288   1.329   3.033   6.878
  797SOL     OW 3289   5.287   6.991   0.676
  797SOL    HW1 3290   5.361   6.928   0.699
  797SOL    HW2 3291   5.211   6.940   0.635
  798SOL     OW 3292   3.947   6.207   0.741
  798SOL    HW1 3293   3.970   6.202   0.643
  798SOL    HW2 3294   3.977   6.295   0.777
  799SOL     OW 3295   1.613   2.443   5.373
  799SOL    HW1 3296   1.570   2.389   5.446
  799SOL    HW2 3297   1.710   2.421   5.367
  800SOL     OW 3298   5.804   2.915   2.172
  800SOL    HW1 3299   5.848   2.832   2.136
  800SOL    HW2 3300   5.705   2.907   2.162
  801SOL     OW 3301   2.078   5.658   5.549
  801SOL    HW1 3302   2.011   5.728   5.576
  801SOL    HW2 3303   2.033   5.589   5.492
  802SOL     OW 3304   5.500   2.916   6.303
  802SOL    HW1 3305   5.440   2.880   6.231
  802SOL    HW2 3306   5.588   2.941   6.264
  803SOL     OW 3307   2.480   1.416   5.358
  803SOL    HW1 3308   2.467   1.427   5.260
  803SOL    HW2 3309   2.479   1.319   5.382
  804SOL     OW 3310   5.885   0.676   2.631
  804SOL    HW1 3311   5.789   0.683   2.655
  804SOL    HW2 3312   5.895   0.683   2.531
  805SOL     OW 3313   4.055   0.576   3.237
  805SOL    HW1 3314   4.012   0.624   3.314
  805SOL    HW2 3315   4.034   0.624   3.152
  806SOL     OW 3316   1.972   6.060   5.812
  806SOL    HW1 3317   2.013   6.135   5.761
  806SOL    HW2 3318   2.036   6.027   5.882
  807SOL     OW 3319   0.875   6.182   6.125
  807SOL    HW1 3320   0.801   6.225   6.073
  807SOL    HW2 3321   0.851   6.181   6.223
  808SOL     OW 3322   5.528   3.029   0.047
  808SOL    HW1 3323   5.468   3.100   0.085
  808SOL    HW2 3324   5.500   2.940   0.082
  809SOL     OW 3325   2.390   4.660   0.339
  809SOL    HW1 3326   2.435   4.628   0.423
  809SOL    HW2 3327   2.336   4.585   0.300
  810SOL     OW 3328   3.915   3.248   0.091
  810SOL    HW1 3329   3.956   3.169   0.044
  810SOL    HW2 3330   3.908   3.229   0.189
  811SOL     OW 3331   5.372   4.823   4.464
  811SOL    HW1 3332   5.281   4.861   4.479
  811SOL    HW2 3333   5.411   4.862   4.381
  812SOL     OW 3334   0.493   3.046   2.244
  812SOL    HW1 3335   0.523   3.000   2.328
  812SOL    HW2 3336   0.446   3.131   2.268
  813SOL     OW 3337   0.887   1.786   4.525
  813SOL    HW1 3338   0.841   1.805   4.612
  813SOL    HW2 3339   0.841   1.836   4.451
  814SOL     OW 3340   0.610   5.044   2.924
  814SOL    HW1 3341   0.557   5.120   2.962
  814SOL    HW2 3342   0.549   4.986   2.869
  815SOL     OW 3343   4.778   1.560   4.251
  815SOL    HW1 3344   4.866   1.572   4.297
  815SOL    HW2 3345   4.778   1.613   4.166
  816SOL     OW 3346   5.488   4.975   6.740
  816SOL    HW1 3347   5.445   5.050   6.690
  816SOL    HW2 3348   5.536   4.916   6.675
  817SOL     OW 3349   0.853   4.293   6.883
  817SOL    HW1 3350   0.914   4.336   6.817
  817SOL    HW2 3351   0.759   4.295   6.849
  818SOL     OW 3352   6.296   2.731   4.804
  818SOL    HW1 3353   6.348   2.683   4.733
  818SOL    HW2 3354   6.358   2.787   4.859
  819SOL     OW 3355   5.012   2.256   1.755
  819SOL    HW1 3356   4.971   2.287   1.669
  819SOL    HW2 3357   4.996   2.324   1.826
  820SOL     OW 3358   2.244   2.004   4.861
  820SOL    HW1 3359   2.237   1.989   4.959
  820SOL    HW2 3360   2.164   1.964   4.815
  821SOL     OW 3361   5.464   3.852   5.698
  821SOL    HW1 3362   5.458   3.870   5.796
  821SOL    HW2 3363   5.463   3.753   5.682
  822SOL     OW 3364   0.510   3.944   3.129
  822SOL    HW1 3365   0.480   3.920   3.036
  822SOL    HW2 3366   0.440   4.001   3.172
  823SOL     OW 3367   0.979   3.693   5.905
  823SOL    HW1 3368   1.005   3.618   5.845
  823SOL    HW2 3369   1.048   3.765   5.901
  824SOL     OW 3370   5.652   1.442   5.578
  824SOL    HW1 3371   5.699   1.474   5.660
  824SOL    HW2 3372   5.649   1.517   5.511
  825SOL     OW 3373   5.894   5.763   1.079
  825SOL    HW1 3374   5.943   5.833   1.130
  825SOL    HW2 3375   5.929   5.672   1.104
  826SOL     OW 3376   3.548   1.531   6.772
  826SOL    HW1 3377   3.521   1.483   6.856
  826SOL    HW2 3378   3.516   1.479   6.693
  827SOL     OW 3379   4.001   3.949   4.619
  827SOL    HW1 3380   3.964   4.023   4.676
  827SOL    HW2 3381   4.026   3.872   4.677
  828SOL     OW 3382   6.336   5.985   5.318
  828SOL    HW1 3383   6.330   5.984   5.418
  828SOL    HW2 3384   6.353   5.892   5.286
  829SOL     OW 3385   3.385   3.270   2.614
  829SOL    HW1 3386   3.338   3.238   2.696
  829SOL    HW2 3387   3.413   3.192   2.559
  830SOL     OW 3388   6.437   4.403   0.212
  830SOL    HW1 3389   6.401   4.496   0.213
  830SOL    HW2 3390   6.380   4.346   0.153
  831SOL     OW 3391   4.616   6.905   1.315
  831SOL    HW1 3392   4.596   6.900   1.413
  831SOL    HW2 3393   4.707   6.945   1.301
  832SOL     OW 3394   3.041   1.963   4.630
  832SOL    HW1 3395   3.047   2.046   4.686
  832SOL    HW2 3396   3.061   1.986   4.535
  833SOL     OW 3397   2.526   2.281   6.561
  833SOL    HW1 3398   2.519   2.249   6.467
  833SOL    HW2 3399   2.611   2.247   6.602
  834SOL     OW 3400   5.225   3.439   0.057
  834SOL    HW1 3401   5.308   3.430   0.002
  834SOL    HW2 3402   5.243   3.498   0.136
  835SOL     OW 3403   0.616   6.804   4.387
  835SOL    HW1 3404   0.646   6.887   4.339
  835SOL    HW2 3405   0.549   6.755   4.330
  836SOL     OW 3406   3.875   1.297   4.747
  836SOL    HW1 3407   3.858   1.331   4.654
  836SOL    HW2 3408   3.825   1.352   4.813
  837SOL     OW 3409   1.700   0.664   0.869
  837SOL    HW1 3410   1.706   0.597   0.796
  837SOL    HW2 3411   1.612   0.712   0.864
  838SOL     OW 3412   1.699   4.901   3.436
  838SOL    HW1 3413   1.706   4.802   3.444
  838SOL    HW2 3414   1.784   4.943   3.468
  839SOL     OW 3415   1.083   1.915   0.328
  839SOL    HW1 3416   1.032   1.984   0.277
  839SOL    HW2 3417   1.165   1.889   0.276
  840SOL     OW 3418   5.489   5.408   6.782
  840SOL    HW1 3419   5.434   5.333   6.820
  840SOL    HW2 3420   5.473   5.412   6.683
  841SOL     OW 3421   3.318   4.698   6.646
  841SOL    HW1 3422   3.373   4.748   6.579
  841SOL    HW2 3423   3.302   4.604   6.613
  842SOL     OW 3424   3.478   6.588   6.471
  842SOL    HW1 3425   3.503   6.644   6.550
  842SOL    HW2 3426   3.393   6.623   6.431
  843SOL     OW 3427   1.251   1.074   2.438
  843SOL    HW1 3428   1.334   1.119   2.472
  843SOL    HW2 3429   1.264   0.975   2.442
  844SOL     OW 3430   6.041   0.747   1.695
  844SOL    HW1 3431   6.069   0.692   1.615
  844SOL    HW2 3432   5.997   0.688   1.762
  845SOL     OW 3433   3.794   1.230   2.619
  845SOL    HW1 3434   3.876   1.211   2.565
  845SOL    HW2 3435   3.716   1.242   2.558
  846SOL     OW 3436   2.631   2.016   0.525
  846SOL    HW1 3437   2.662   2.087   0.589
  846SOL    HW2 3438   2.702   1.946   0.517
  847SOL     OW 3439   2.404   4.064   1.507
  847SOL    HW1 3440   2.408   4.150   1.456
  847SOL    HW2 3441   2.490   4.052   1.557
  848SOL     OW 3442   0.187   5.643   0.307
  848SOL    HW1 3443   0.241   5.567   0.272
  848SOL    HW2 3444   0.241   5.727   0.302
  849SOL     OW 3445   6.032   3.576   6.356
  849SOL    HW1 3446   6.123   3.582   6.315
  849SOL    HW2 3447   6.020   3.488   6.401
  850SOL     OW 3448   0.790   0.762   5.352
  850SOL    HW1 3449   0.866   0.762   5.416
  850SOL    HW2 3450   0.821   0.728   5.263
  851SOL     OW 3451   6.876   3.381   5.941
  851SOL    HW1 3452   6.779   3.387   5.965
  851SOL    HW2 3453   6.897   3.287   5.912
  852SOL     OW 3454   0.376   4.128   2.348
  852SOL    HW1 3455   0.459   4.101   2.300
  852SOL    HW2 3456   0.324   4.046   2.373
  853SOL     OW 3457   2.705   3.050   0.042
  853SOL    HW1 3458   2.725   3.095   0.129
  853SOL    HW2 3459   2.724   3.113   6.985
  854SOL     OW 3460   5.760   6.949   6.649
  854SOL    HW1 3461   5.743   6.856   6.618
  854SOL    HW2 3462   5.674   6.999   6.653
  855SOL     OW 3463   6.084   1.530   0.030
  855SOL    HW1 3464   6.091   1.452   6.985
  855SOL    HW2 3465   6.079   1.615   6.996
  856SOL     OW 3466   2.072   6.081   0.717
  856SOL    HW1 3467   2.045   5.985   0.728
  856SOL    HW2 3468   1.995   6.140   0.740
  857SOL     OW 3469   6.097   5.231   5.864
  857SOL    HW1 3470   6.004   5.263   5.844
  857SOL    HW2 3471   6.125   5.165   5.795
  858SOL     OW 3472   4.122   3.360   0.679
  858SOL    HW1 3473   4.154   3.299   0.606
  858SOL    HW2 3474   4.198   3.417   0.709
  859SOL     OW 3475   4.503   6.422   5.655
  859SOL    HW1 3476   4.449   6.350   5.612
  859SOL    HW2 3477   4.596   6.388   5.672
  860SOL     OW 3478   5.180   3.366   5.753
  860SOL    HW1 3479   5.165   3.320   5.841
  860SOL    HW2 3480   5.272   3.343   5.719
  861SOL     OW 3481   2.513   6.057   2.556
  861SOL    HW1 3482   2.455   6.121   2.507
  861SOL    HW2 3483   2.486   6.055   2.653
  862SOL     OW 3484   0.642   3.785   3.480
  862SOL    HW1 3485   0.558   3.841   3.483
  862SOL    HW2 3486   0.719   3.843   3.454
  863SOL     OW 3487   0.030   0.448   0.237
  863SOL    HW1 3488   0.123   0.427   0.268
  863SOL    HW2 3489   7.006   0.514   0.299
  864SOL     OW 3490   6.024   0.293   4.878
  864SOL    HW1 3491   5.952   0.320   4.813
  864SOL    HW2 3492   6.014   0.346   4.962
  865SOL     OW 3493   2.254   6.297   4.425
  865SOL    HW1 3494   2.205   6.259   4.347
  865SOL    HW2 3495   2.323   6.232   4.456
  866SOL     OW 3496   3.444   6.285   2.080
  866SOL    HW1 3497   3.372   6.247   2.021
  866SOL    HW2 3498   3.471   6.375   2.046
  867SOL     OW 3499   5.726   2.134   6.766
  867SOL    HW1 3500   5.670   2.075   6.708
  867SOL    HW2 3501   5.727   2.226   6.728
  868SOL     OW 3502   0.065   1.892   2.347
  868SOL    HW1 3503   0.160   1.919   2.362
  868SOL    HW2 3504   0.019   1.962   2.294
  869SOL     OW 3505   6.549   3.794   3.280
  869SOL    HW1 3506   6.554   3.694   3.274
  869SOL    HW2 3507   6.511   3.821   3.368
  870SOL     OW 3508   3.440   5.115   1.949
  870SOL    HW1 3509   3.447   5.069   2.038
  870SOL    HW2 3510   3.354   5.090   1.905
  871SOL     OW 3511   4.411   1.592   3.453
  871SOL    HW1 3512   4.393   1.494   3.457
  871SOL    HW2 3513   4.409   1.630   3.545
  872SOL     OW 3514   0.045   3.277   5.054
  872SOL    HW1 3515   0.002   3.365   5.034
  872SOL    HW2 3516   0.127   3.292   5.109
  873SOL     OW 3517   5.000   6.709   6.257
  873SOL    HW1 3518   5.097   6.701   6.235
  873SOL    HW2 3519   4.990   6.743   6.351
  874SOL     OW 3520   4.918   4.155   0.302
  874SOL    HW1 3521   4.845   4.149   0.370
  874SOL    HW2 3522   4.880   4.134   0.212
  875SOL     OW 3523   5.169   5.280   0.635
  875SOL    HW1 3524   5.193   5.324   0.721
  875SOL    HW2 3525   5.085   5.320   0.598
  876SOL     OW 3526   0.038   6.311   1.350
  876SOL    HW1 3527   0.051   6.401   1.309
  876SOL    HW2 3528   7.017   6.322   1.442
  877SOL     OW 3529   2.816   3.661   6.675
  877SOL    HW1 3530   2.828   3.568   6.710
  877SOL    HW2 3531   2.774   3.657   6.585
  878SOL     OW 3532   4.033   6.591   4.140
  878SOL    HW1 3533   3.958   6.586   4.205
  878SOL    HW2 3534   4.025   6.515   4.074
  879SOL     OW 3535   5.753   0.617   0.669
  879SOL    HW1 3536   5.741   0.563   0.586
  879SOL    HW2 3537   5.840   0.593   0.712
  880SOL     OW 3538   3.010   3.280   2.816
  880SOL    HW1 3539   3.076   3.354   2.799
  880SOL    HW2 3540   2.948   3.307   2.889
  881SOL     OW 3541   4.264   2.054   6.682
  881SOL    HW1 3542   4.227   1.961   6.689
  881SOL    HW2 3543   4.227   2.098   6.600
  882SOL     OW 3544   1.315   3.607   3.995
  882SOL    HW1 3545   1.341   3.511   3.985
  882SOL    HW2 3546   1.371   3.649   4.067
  883SOL     OW 3547   3.007   0.332   2.340
  883SOL    HW1 3548   2.940   0.258   2.330
  883SOL    HW2 3549   2.990   0.401   2.270
  884SOL     OW 3550   5.005   3.206   5.452
  884SOL    HW1 3551   5.073   3.278   5.439
  884SOL    HW2 3552   4.925   3.244   5.498
  885SOL     OW 3553   3.690   1.924   6.151
  885SOL    HW1 3554   3.662   1.970   6.235
  885SOL    HW2 3555   3.657   1.976   6.072
  886SOL     OW 3556   3.555   0.289   6.787
  886SOL    HW1 3557   3.621   0.324   6.853
  886SOL    HW2 3558   3.499   0.364   6.753
  887SOL     OW 3559   4.386   1.389   4.523
  887SOL    HW1 3560   4.312   1.428   4.469
  887SOL    HW2 3561   4.349   1.352   4.609
  888SOL     OW 3562   7.008   0.169   3.348
  888SOL    HW1 3563   0.040   0.152   3.264
  888SOL    HW2 3564   0.052   0.168   3.426
  889SOL     OW 3565   0.910   3.852   6.937
  889SOL    HW1 3566   0.975   3.829   7.009
  889SOL    HW2 3567   0.871   3.942   6.956
  890SOL     OW 3568   2.633   5.578   3.729
  890SOL    HW1 3569   2.543   5.536   3.718
  890SOL    HW2 3570   2.698   5.533   3.667
  891SOL     OW 3571   5.649   5.623   0.943
  891SOL    HW1 3572   5.619   5.698   0.884
  891SOL    HW2 3573   5.736   5.647   0.986
  892SOL     OW 3574   2.790   4.462   6.110
  892SOL    HW1 3575   2.855   4.388   6.096
  892SOL    HW2 3576   2.811   4.508   6.196
  893SOL     OW 3577   2.543   0.091   2.834
  893SOL    HW1 3578   2.582   0.162   2.894
  893SOL    HW2 3579   2.551   0.120   2.739
  894SOL     OW 3580   1.380   4.082   1.434
  894SOL    HW1 3581   1.393   3.983   1.436
  894SOL    HW2 3582   1.286   4.104   1.462
  895SOL     OW 3583   0.112   6.233   3.687
  895SOL    HW1 3584   0.090   6.191   3.775
  895SOL    HW2 3585   0.123   6.332   3.699
  896SOL     OW 3586   6.491   6.209   5.294
  896SOL    HW1 3587   6.416   6.258   5.338
  896SOL    HW2 3588   6.482   6.111   5.311
  897SOL     OW 3589   5.115   0.673   6.487
  897SOL    HW1 3590   5.017   0.673   6.504
  897SOL    HW2 3591   5.163   0.636   6.567
  898SOL     OW 3592   3.641   6.038   3.022
  898SOL    HW1 3593   3.621   6.039   2.924
  898SOL    HW2 3594   3.594   6.114   3.066
  899SOL     OW 3595   0.111   4.756   6.539
  899SOL    HW1 3596   0.030   4.779   6.485
  899SOL    HW2 3597   0.192   4.761   6.482
  900SOL     OW 3598   5.734   6.281   0.779
  900SOL    HW1 3599   5.816   6.226   0.763
  900SOL    HW2 3600   5.657   6.240   0.729
  901SOL     OW 3601   1.485   1.418   2.125
  901SOL    HW1 3602   1.581   1.412   2.154
  901SOL    HW2 3603   1.470   1.358   2.047
  902SOL     OW 3604   6.245   4.073   1.448
  902SOL    HW1 3605   6.149   4.045   1.453
  902SOL    HW2 3606   6.267   4.100   1.354
  903SOL     OW 3607   6.547   2.195   0.384
  903SOL    HW1 3608   6.643   2.217   0.373
  903SOL    HW2 3609   6.516   2.140   0.306
  904SOL     OW 3610   3.435   1.858   3.061
  904SOL    HW1 3611   3.472   1.830   2.973
  904SOL    HW2 3612   3.460   1.953   3.079
  905SOL     OW 3613   5.981   2.746   6.671
  905SOL    HW1 3614   5.941   2.791   6.751
  905SOL    HW2 3615   6.009   2.653   6.695
  906SOL     OW 3616   6.945   3.212   6.279
  906SOL    HW1 3617   6.900   3.180   6.362
  906SOL    HW2 3618   6.884   3.199   6.201
  907SOL     OW 3619   4.938   3.481   7.010
  907SOL    HW1 3620   4.896   3.516   0.076
  907SOL    HW2 3621   5.038   3.490   7.017
  908SOL     OW 3622   2.822   4.696   2.468
  908SOL    HW1 3623   2.777   4.784   2.486
  908SOL    HW2 3624   2.781   4.654   2.387
  909SOL     OW 3625   5.554   5.187   6.343
  909SOL    HW1 3626   5.509   5.268   6.304
  909SOL    HW2 3627   5.491   5.139   6.404
  910SOL     OW 3628   2.655   3.175   1.456
  910SOL    HW1 3629   2.579   3.157   1.518
  910SOL    HW2 3630   2.690   3.089   1.419
  911SOL     OW 3631   1.293   5.361   6.400
  911SOL    HW1 3632   1.305   5.400   6.309
  911SOL    HW2 3633   1.199   5.379   6.432
  912SOL     OW 3634   4.851   2.232   3.177
  912SOL    HW1 3635   4.945   2.259   3.156
  912SOL    HW2 3636   4.847   2.194   3.269
  913SOL     OW 3637   5.257   0.124   3.086
  913SOL    HW1 3638   5.244   0.025   3.079
  913SOL    HW2 3639   5.202   0.170   3.017
  914SOL     OW 3640   2.714   6.960   0.309
  914SOL    HW1 3641   2.780   6.924   0.243
  914SOL    HW2 3642   2.731   0.039   0.323
  915SOL     OW 3643   6.012   5.878   0.839
  915SOL    HW1 3644   6.000   5.791   0.792
  915SOL    HW2 3645   5.958   5.878   0.923
  916SOL     OW 3646   0.836   2.381   2.291
  916SOL    HW1 3647   0.763   2.416   2.350
  916SOL    HW2 3648   0.904   2.335   2.348
  917SOL     OW 3649   0.065   0.158   0.525
  917SOL    HW1 3650   7.006   0.130   0.468
  917SOL    HW2 3651   0.102   0.078   0.573
  918SOL     OW 3652   1.676   5.240   0.336
  918SOL    HW1 3653   1.641   5.219   0.427
  918SOL    HW2 3654   1.635   5.326   0.303
  919SOL     OW 3655   5.391   1.531   4.350
  919SOL    HW1 3656   5.404   1.466   4.275
  919SOL    HW2 3657   5.477   1.545   4.397
  920SOL     OW 3658   2.851   4.841   2.168
  920SOL    HW1 3659   2.930   4.898   2.145
  920SOL    HW2 3660   2.858   4.754   2.120
  921SOL     OW 3661   4.910   5.811   4.751
  921SOL    HW1 3662   4.888   5.829   4.655
  921SOL    HW2 3663   4.836   5.846   4.809
  922SOL     OW 3664   4.010   3.419   3.645
  922SOL    HW1 3665   3.931   3.479   3.658
  922SOL    HW2 3666   4.039   3.422   3.550
  923SOL     OW 3667   2.329   3.246   5.646
  923SOL    HW1 3668   2.260   3.225   5.716
  923SOL    HW2 3669   2.383   3.164   5.628
  924SOL     OW 3670   0.079   3.560   2.881
  924SOL    HW1 3671   7.010   3.517   2.859
  924SOL    HW2 3672   0.122   3.593   2.796
  925SOL     OW 3673   5.992   2.172   0.289
  925SOL    HW1 3674   5.931   2.236   0.242
  925SOL    HW2 3675   5.979   2.080   0.251
  926SOL     OW 3676   0.152   0.958   1.993
  926SOL    HW1 3677   0.182   0.917   1.907
  926SOL    HW2 3678   0.219   0.939   2.064
  927SOL     OW 3679   5.372   4.074   3.634
  927SOL    HW1 3680   5.367   4.054   3.732
  927SOL    HW2 3681   5.377   3.988   3.583
  928SOL     OW 3682   2.879   5.633   0.110
  928SOL    HW1 3683   2.905   5.720   0.152
  928SOL    HW2 3684   2.799   5.646   0.052
  929SOL     OW 3685   6.720   1.481   5.289
  929SOL    HW1 3686   6.632   1.528   5.294
  929SOL    HW2 3687   6.706   1.382   5.292
  930SOL     OW 3688   5.345   5.580   5.839
  930SOL    HW1 3689   5.372   5.675   5.823
  930SOL    HW2 3690   5.278   5.577   5.913
  931SOL     OW 3691   6.425   2.661   2.762
  931SOL    HW1 3692   6.370   2.697   2.687
  931SOL    HW2 3693   6.438   2.732   2.831
  932SOL     OW 3694   3.452   0.279   3.974
  932SOL    HW1 3695   3.427   0.239   4.063
  932SOL    HW2 3696   3.512   0.358   3.989
  933SOL     OW 3697   1.282   5.075   2.234
  933SOL    HW1 3698   1.239   5.071   2.143
  933SOL    HW2 3699   1.351   5.146   2.235
  934SOL     OW 3700   1.701   4.767   6.209
  934SOL    HW1 3701   1.659   4.846   6.165
  934SOL    HW2 3702   1.634   4.721   6.267
  935SOL     OW 3703   5.294   3.045   3.597
  935SOL    HW1 3704   5.371   3.007   3.648
  935SOL    HW2 3705   5.325   3.074   3.506
  936SOL     OW 3706   1.781   0.593   6.600
  936SOL    HW1 3707   1.702   0.652   6.581
  936SOL    HW2 3708   1.851   0.644   6.649
  937SOL     OW 3709   5.222   1.493   5.684
  937SOL    HW1 3710   5.152   1.510   5.615
  937SOL    HW2 3711   5.192   1.418   5.743
  938SOL     OW 3712   5.744   5.832   4.066
  938SOL    HW1 3713   5.751   5.909   4.004
  938SOL    HW2 3714   5.694   5.757   4.021
  939SOL     OW 3715   0.474   0.077   5.343
  939SOL    HW1 3716   0.384   0.093   5.383
  939SOL    HW2 3717   0.500   7.000   5.355
  940SOL     OW 3718   2.077   4.877   0.480
  940SOL    HW1 3719   2.149   4.926   0.529
  940SOL    HW2 3720   1.990   4.926   0.492
  941SOL     OW 3721   3.368   0.431   6.668
  941SOL    HW1 3722   3.307   0.414   6.591
  941SOL    HW2 3723   3.345   0.371   6.744
  942SOL     OW 3724   0.459   5.110   0.374
  942SOL    HW1 3725   0.479   5.071   0.283
  942SOL    HW2 3726   0.360   5.115   0.386
  943SOL     OW 3727   2.947   5.460   2.972
  943SOL    HW1 3728   2.963   5.548   3.017
  943SOL    HW2 3729   3.003   5.454   2.889
  944SOL     OW 3730   0.504   6.954   4.622
  944SOL    HW1 3731   0.552   6.913   4.544
  944SOL    HW2 3732   0.429   6.894   4.650
  945SOL     OW 3733   0.765   5.456   6.606
  945SOL    HW1 3734   0.728   5.394   6.536
  945SOL    HW2 3735   0.689   5.505   6.649
  946SOL     OW 3736   4.864   3.113   3.472
  946SOL    HW1 3737   4.843   3.126   3.569
  946SOL    HW2 3738   4.875   3.202   3.428
  947SOL     OW 3739   3.880   3.703   4.215
  947SOL    HW1 3740   3.919   3.762   4.285
  947SOL    HW2 3741   3.883   3.750   4.127
  948SOL     OW 3742   4.194   0.470   2.790
  948SOL    HW1 3743   4.239   0.551   2.829
  948SOL    HW2 3744   4.109   0.497   2.745
  949SOL     OW 3745   2.663   6.566   6.361
  949SOL    HW1 3746   2.688   6.577   6.457
  949SOL    HW2 3747   2.701   6.481   6.326
  950SOL     OW 3748   0.123   6.684   2.095
  950SOL    HW1 3749   0.159   6.755   2.155
  950SOL    HW2 3750   0.108   6.600   2.148
  951SOL     OW 3751   2.329   6.898   3.392
  951SOL    HW1 3752   2.312   6.994   3.413
  951SOL    HW2 3753   2.346   6.887   3.294
  952SOL     OW 3754   3.402   1.308   2.023
  952SOL    HW1 3755   3.313   1.353   2.015
  952SOL    HW2 3756   3.470   1.360   1.971
  953SOL     OW 3757   6.037   4.687   5.490
  953SOL    HW1 3758   5.942   4.664   5.512
  953SOL    HW2 3759   6.090   4.603   5.482
  954SOL     OW 3760   4.756   5.951   2.253
  954SOL    HW1 3761   4.721   6.043   2.268
  954SOL    HW2 3762   4.689   5.884   2.284
  955SOL     OW 3763   1.595   4.369   0.048
  955SOL    HW1 3764   1.563   4.463   0.043
  955SOL    HW2 3765   1.519   4.310   0.077
  956SOL     OW 3766   5.710   0.697   1.273
  956SOL    HW1 3767   5.744   0.708   1.366
  956SOL    HW2 3768   5.625   0.749   1.262
  957SOL     OW 3769   5.903   1.855   3.184
  957SOL    HW1 3770   5.889   1.764   3.224
  957SOL    HW2 3771   6.001   1.868   3.167
  958SOL     OW 3772   5.223   0.233   1.906
  958SOL    HW1 3773   5.303   0.259   1.851
  958SOL    HW2 3774   5.147   0.294   1.885
  959SOL     OW 3775   4.247   6.339   4.234
  959SOL    HW1 3776   4.161   6.305   4.272
  959SOL    HW2 3777   4.236   6.356   4.136
  960SOL     OW 3778   0.908   0.210   0.036
  960SOL    HW1 3779   0.985   0.171   0.086
  960SOL    HW2 3780   0.941   0.246   6.967
  961SOL     OW 3781   3.172   7.008   2.513
  961SOL    HW1 3782   3.141   0.030   2.427
  961SOL    HW2 3783   3.155   0.053   2.588
  962SOL     OW 3784   6.628   0.150   4.847
  962SOL    HW1 3785   6.653   0.075   4.909
  962SOL    HW2 3786   6.528   0.159   4.845
  963SOL     OW 3787   5.710   3.025   1.002
  963SOL    HW1 3788   5.762   3.004   1.085
  963SOL    HW2 3789   5.614   3.034   1.025
  964SOL     OW 3790   4.857   4.297   5.106
  964SOL    HW1 3791   4.927   4.368   5.094
  964SOL    HW2 3792   4.898   4.216   5.148
  965SOL     OW 3793   6.049   2.679   3.807
  965SOL    HW1 3794   6.134   2.627   3.815
  965SOL    HW2 3795   6.058   2.765   3.857
  966SOL     OW 3796   4.623   1.825   4.457
  966SOL    HW1 3797   4.535   1.786   4.430
  966SOL    HW2 3798   4.683   1.752   4.491
  967SOL     OW 3799   4.991   3.911   6.003
  967SOL    HW1 3800   4.976   4.000   5.960
  967SOL    HW2 3801   4.999   3.923   6.102
  968SOL     OW 3802   3.421   0.807   1.924
  968SOL    HW1 3803   3.454   0.715   1.904
  968SOL    HW2 3804   3.468   0.843   2.005
  969SOL     OW 3805   3.488   4.143   5.992
  969SOL    HW1 3806   3.394   4.122   6.019
  969SOL    HW2 3807   3.500   4.124   5.895
  970SOL     OW 3808   6.110   0.444   5.893
  970SOL    HW1 3809   6.116   0.537   5.857
  970SOL    HW2 3810   6.019   0.407   5.874
  971SOL     OW 3811   5.506   4.158   2.538
  971SOL    HW1 3812   5.487   4.134   2.443
  971SOL    HW2 3813   5.469   4.087   2.599
  972SOL     OW 3814   0.268   3.098   0.729
  972SOL    HW1 3815   0.344   3.157   0.703
  972SOL    HW2 3816   0.302   3.006   0.748
  973SOL     OW 3817   0.052   3.551   6.374
  973SOL    HW1 3818   0.063   3.649   6.390
  973SOL    HW2 3819   6.974   3.525   6.388
  974SOL     OW 3820   0.198   5.384   3.823
  974SOL    HW1 3821   0.289   5.341   3.815
  974SOL    HW2 3822   0.142   5.356   3.746
  975SOL     OW 3823   2.595   6.803   2.001
  975SOL    HW1 3824   2.612   6.727   1.939
  975SOL    HW2 3825   2.511   6.786   2.053
  976SOL     OW 3826   6.288   3.295   2.697
  976SOL    HW1 3827   6.208   3.353   2.680
  976SOL    HW2 3828   6.362   3.324   2.636
  977SOL     OW 3829   0.267   1.032   2.550
  977SOL    HW1 3830   0.288   0.940   2.582
  977SOL    HW2 3831   0.167   1.044   2.548
  978SOL     OW 3832   5.535   3.205   1.781
  978SOL    HW1 3833   5.599   3.150   1.834
  978SOL    HW2 3834   5.466   3.244   1.843
  979SOL     OW 3835   0.367   4.214   6.542
  979SOL    HW1 3836   0.437   4.275   6.505
  979SOL    HW2 3837   0.325   4.258   6.622
  980SOL     OW 3838   3.392   1.637   4.641
  980SOL    HW1 3839   3.471   1.648   4.702
  980SOL    HW2 3840   3.310   1.670   4.687
  981SOL     OW 3841   6.750   6.101   5.224
  981SOL    HW1 3842   6.840   6.145   5.220
  981SOL    HW2 3843   6.680   6.170   5.242
  982SOL     OW 3844   6.585   0.915   4.979
  982SOL    HW1 3845   6.624   0.992   4.928
  982SOL    HW2 3846   6.639   0.900   5.062
  983SOL     OW 3847   0.158   4.884   4.270
  983SOL    HW1 3848   0.086   4.816   4.255
  983SOL    HW2 3849   0.231   4.870   4.203
  984SOL     OW 3850   1.093   2.157   2.935
  984SOL    HW1 3851   1.053   2.222   3.000
  984SOL    HW2 3852   1.130   2.079   2.985
  985SOL     OW 3853   6.532   4.459   4.843
  985SOL    HW1 3854   6.513   4.363   4.860
  985SOL    HW2 3855   6.574   4.500   4.924
  986SOL     OW 3856   4.866   5.116   1.300
  986SOL    HW1 3857   4.843   5.213   1.290
  986SOL    HW2 3858   4.872   5.074   1.210
  987SOL     OW 3859   5.171   4.913   3.942
  987SOL    HW1 3860   5.141   4.818   3.945
  987SOL    HW2 3861   5.201   4.936   3.850
  988SOL     OW 3862   2.868   4.541   1.423
  988SOL    HW1 3863   2.853   4.508   1.330
  988SOL    HW2 3864   2.900   4.635   1.420
  989SOL     OW 3865   0.542   1.431   0.993
  989SOL    HW1 3866   0.469   1.383   1.042
  989SOL    HW2 3867   0.510   1.521   0.963
  990SOL     OW 3868   3.626   0.400   3.634
  990SOL    HW1 3869   3.683   0.339   3.689
  990SOL    HW2 3870   3.548   0.349   3.598
  991SOL     OW 3871   0.172   4.701   3.477
  991SOL    HW1 3872   0.267   4.673   3.488
  991SOL    HW2 3873   0.148   4.768   3.548
  992SOL     OW 3874   0.529   2.753   1.320
  992SOL    HW1 3875   0.502   2.761   1.223
  992SOL    HW2 3876   0.546   2.657   1.341
  993SOL     OW 3877   1.341   4.998   0.426
  993SOL    HW1 3878   1.416   5.053   0.462
  993SOL    HW2 3879   1.312   5.035   0.338
  994SOL     OW 3880   3.102   6.092   6.768
  994SOL    HW1 3881   3.114   6.111   6.865
  994SOL    HW2 3882   3.182   6.124   6.717
  995SOL     OW 3883   6.107   3.422   5.931
  995SOL    HW1 3884   6.066   3.347   5.879
  995SOL    HW2 3885   6.110   3.504   5.874
  996SOL     OW 3886   3.582   6.120   5.797
  996SOL    HW1 3887   3.563   6.160   5.707
  996SOL    HW2 3888   3.643   6.180   5.848
  997SOL     OW 3889   1.544   5.441   3.530
  997SOL    HW1 3890   1.593   5.424   3.445
  997SOL    HW2 3891   1.538   5.539   3.546
  998SOL     OW 3892   6.655   0.495   6.801
  998SOL    HW1 3893   6.569   0.508   6.752
  998SOL    HW2 3894   6.726   0.551   6.759
  999SOL     OW 3895   4.810   3.992   2.313
  999SOL    HW1 3896   4.745   4.051   2.363
  999SOL    HW2 3897   4.896   4.042   2.299
 1000SOL     OW 3898   4.264   1.814   1.164
 1000SOL    HW1 3899   4.213   1.729   1.182
 1000SOL    HW2 3900   4.218   1.890   1.209
 1001SOL     OW 3901   3.306   6.448   2.291
 1001SOL    HW1 3902   3.345   6.357   2.276
 1001SOL    HW2 3903   3.212   6.438   2.326
 1002SOL     OW 3904   5.437   2.116   1.278
 1002SOL    HW1 3905   5.500   2.187   1.309
 1002SOL    HW2 3906   5.342   2.148   1.288
 1003SOL     OW 3907   0.299   0.366   3.390
 1003SOL    HW1 3908   0.209   0.406   3.406
 1003SOL    HW2 3909   0.340   0.409   3.310
 1004SOL     OW 3910   5.355   1.678   3.887
 1004SOL    HW1 3911   5.275   1.649   3.941
 1004SOL    HW2 3912   5.439   1.649   3.933
 1005SOL     OW 3913   1.364   4.114   2.584
 1005SOL    HW1 3914   1.298   4.165   2.529
 1005SOL    HW2 3915   1.450   4.107   2.533
 1006SOL     OW 3916   2.838   3.614   0.957
 1006SOL    HW1 3917   2.934   3.620   0.985
 1006SOL    HW2 3918   2.782   3.669   1.019
 1007SOL     OW 3919   4.966   1.073   7.007
 1007SOL    HW1 3920   4.969   0.976   6.982
 1007SOL    HW2 3921   5.059   1.109   7.008
 1008SOL     OW 3922   6.907   4.691   4.799
 1008SOL    HW1 3923   6.917   4.593   4.781
 1008SOL    HW2 3924   6.813   4.711   4.825
 1009SOL     OW 3925   6.852   5.651   6.484
 1009SOL    HW1 3926   6.762   5.611   6.500
 1009SOL    HW2 3927   6.842   5.739   6.439
 1010SOL     OW 3928   2.813   3.261   1.072
 1010SOL    HW1 3929   2.910   3.256   1.094
 1010SOL    HW2 3930   2.768   3.327   1.132
 1011SOL     OW 3931   6.288   5.372   2.108
 1011SOL    HW1 3932   6.248   5.295   2.156
 1011SOL    HW2 3933   6.346   5.424   2.170
 1012SOL     OW 3934   4.664   0.518   3.146
 1012SOL    HW1 3935   4.675   0.602   3.093
 1012SOL    HW2 3936   4.572   0.482   3.130
 1013SOL     OW 3937   6.984   0.253   6.589
 1013SOL    HW1 3938   0.065   0.263   6.593
 1013SOL    HW2 3939   6.949   0.233   6.680
 1014SOL     OW 3940   0.925   4.884   4.725
 1014SOL    HW1 3941   0.921   4.976   4.764
 1014SOL    HW2 3942   0.886   4.818   4.790
 1015SOL     OW 3943   3.366   6.430   6.752
 1015SOL    HW1 3944   3.282   6.386   6.783
 1015SOL    HW2 3945   3.348   6.485   6.671
 1016SOL     OW 3946   6.336   4.206   1.771
 1016SOL    HW1 3947   6.412   4.175   1.714
 1016SOL    HW2 3948   6.288   4.126   1.808
 1017SOL     OW 3949   2.143   2.029   2.273
 1017SOL    HW1 3950   2.112   2.122   2.296
 1017SOL    HW2 3951   2.242   2.027   2.270
 1018SOL     OW 3952   0.038   5.806   3.569
 1018SOL    HW1 3953   0.038   5.739   3.496
 1018SOL    HW2 3954   0.132   5.838   3.585
 1019SOL     OW 3955   6.618   4.760   0.879
 1019SOL    HW1 3956   6.662   4.764   0.789
 1019SOL    HW2 3957   6.662   4.824   0.942
 1020SOL     OW 3958   6.417   0.744   0.613
 1020SOL    HW1 3959   6.419   0.670   0.680
 1020SOL    HW2 3960   6.472   0.820   0.646
 1021SOL     OW 3961   6.749   6.011   1.347
 1021SOL    HW1 3962   6.714   5.941   1.409
 1021SOL    HW2 3963   6.847   6.024   1.363
 1022SOL     OW 3964   2.225   6.149   6.280
 1022SOL    HW1 3965   2.162   6.220   6.310
 1022SOL    HW2 3966   2.193   6.060   6.311
 1023SOL     OW 3967   0.686   1.767   3.254
 1023SOL    HW1 3968   0.689   1.677   3.297
 1023SOL    HW2 3969   0.737   1.833   3.311
 1024SOL     OW 3970   1.554   1.955   5.057
 1024SOL    HW1 3971   1.592   2.012   5.130
 1024SOL    HW2 3972   1.574   1.859   5.075
 1025SOL     OW 3973   4.538   3.546   0.514
 1025SOL    HW1 3974   4.477   3.495   0.454
 1025SOL    HW2 3975   4.616   3.488   0.539
 1026SOL     OW 3976   3.395   2.655   0.894
 1026SOL    HW1 3977   3.468   2.628   0.831
 1026SOL    HW2 3978   3.433   2.717   0.964
 1027SOL     OW 3979   0.290   6.373   0.916
 1027SOL    HW1 3980   0.310   6.396   1.011
 1027SOL    HW2 3981   0.233   6.444   0.876
 1028SOL     OW 3982   1.493   6.156   2.726
 1028SOL    HW1 3983   1.444   6.087   2.673
 1028SOL    HW2 3984   1.526   6.115   2.811
 1029SOL     OW 3985   0.984   1.026   6.383
 1029SOL    HW1 3986   1.053   1.083   6.337
 1029SOL    HW2 3987   0.909   1.006   6.320
 1030SOL     OW 3988   3.650   3.270   1.455
 1030SOL    HW1 3989   3.587   3.348   1.446
 1030SOL    HW2 3990   3.604   3.194   1.499
 1031SOL     OW 3991   3.325   3.652   1.285
 1031SOL    HW1 3992   3.363   3.740   1.313
 1031SOL    HW2 3993   3.230   3.645   1.316
 1032SOL     OW 3994   2.306   2.062   5.990
 1032SOL    HW1 3995   2.379   1.996   5.970
 1032SOL    HW2 3996   2.219   2.013   5.998
 1033SOL     OW 3997   1.055   6.206   1.804
 1033SOL    HW1 3998   1.121   6.138   1.771
 1033SOL    HW2 3999   1.059   6.209   1.904
 1034SOL     OW 4000   3.367   0.025   4.223
 1034SOL    HW1 4001   3.393   6.982   4.297
 1034SOL    HW2 4002   3.316   0.102   4.260
 1035SOL     OW 4003   1.210   2.065   5.911
 1035SOL    HW1 4004   1.287   2.001   5.913
 1035SOL    HW2 4005   1.171   2.074   6.002
 1036SOL     OW 4006   4.801   1.738   1.063
 1036SOL    HW1 4007   4.746   1.820   1.080
 1036SOL    HW2 4008   4.879   1.762   1.004
 1037SOL     OW 4009   1.460   2.881   2.347
 1037SOL    HW1 4010   1.411   2.881   2.434
 1037SOL    HW2 4011   1.431   2.960   2.293
 1038SOL     OW 4012   3.202   6.579   0.091
 1038SOL    HW1 4013   3.265   6.619   0.024
 1038SOL    HW2 4014   3.114   6.625   0.084
 1039SOL     OW 4015   3.412   2.897   3.374
 1039SOL    HW1 4016   3.344   2.928   3.441
 1039SOL    HW2 4017   3.371   2.894   3.283
 1040SOL     OW 4018   3.968   0.710   3.013
 1040SOL    HW1 4019   4.035   0.785   3.020
 1040SOL    HW2 4020   3.879   0.747   2.988
 1041SOL     OW 4021   6.889   5.956   6.490
 1041SOL    HW1 4022   6.848   5.949   6.581
 1041SOL    HW2 4023   6.869   6.046   6.451
 1042SOL     OW 4024   5.463   4.688   2.834
 1042SOL    HW1 4025   5.556   4.669   2.867
 1042SOL    HW2 4026   5.435   4.779   2.865
 1043SOL     OW 4027   3.086   2.218   3.861
 1043SOL    HW1 4028   3.160   2.174   3.810
 1043SOL    HW2 4029   3.102   2.205   3.959
 1044SOL     OW 4030   5.517   4.639   1.676
 1044SOL    HW1 4031   5.489   4.679   1.589
 1044SOL    HW2 4032   5.616   4.624   1.676
 1045SOL     OW 4033   2.426   0.703   3.580
 1045SOL    HW1 4034   2.373   0.695   3.495
 1045SOL    HW2 4035   2.380   0.652   3.653
 1046SOL     OW 4036   2.797   1.476   0.861
 1046SOL    HW1 4037   2.890   1.491   0.831
 1046SOL    HW2 4038   2.776   1.378   0.857
 1047SOL     OW 4039   3.577   6.677   3.276
 1047SOL    HW1 4040   3.519   6.723   3.209
 1047SOL    HW2 4041   3.657   6.639   3.229
 1048SOL     OW 4042   1.612   6.503   1.998
 1048SOL    HW1 4043   1.539   6.470   1.938
 1048SOL    HW2 4044   1.586   6.592   2.036
 1049SOL     OW 4045   4.143   6.007   5.431
 1049SOL    HW1 4046   4.116   5.939   5.363
 1049SOL    HW2 4047   4.128   6.099   5.395
 1050SOL     OW 4048   3.470   5.113   3.061
 1050SOL    HW1 4049   3.542   5.163   3.108
 1050SOL    HW2 4050   3.487   5.114   2.962
 1051SOL     OW 4051   0.634   0.217   6.986
 1051SOL    HW1 4052   0.726   0.189   7.012
 1051SOL    HW2 4053   0.567   0.163   0.018
 1052SOL     OW 4054   3.670   1.002   6.989
 1052SOL    HW1 4055   3.670   0.959   6.899
 1052SOL    HW2 4056   3.715   0.941   0.037
 1053SOL     OW 4057   5.685   2.676   2.968
 1053SOL    HW1 4058   5.629   2.708   2.892
 1053SOL    HW2 4059   5.761   2.621   2.932
 1054SOL     OW 4060   3.210   4.593   6.200
 1054SOL    HW1 4061   3.254   4.600   6.289
 1054SOL    HW2 4062   3.111   4.585   6.212
 1055SOL     OW 4063   5.064   6.272   6.592
 1055SOL    HW1 4064   5.156   6.235   6.584
 1055SOL    HW2 4065   5.026   6.249   6.681
 1056SOL     OW 4066   2.749   3.989   6.352
 1056SOL    HW1 4067   2.664   4.024   6.391
 1056SOL    HW2 4068   2.797   4.063   6.305
 1057SOL     OW 4069   2.600   1.919   1.096
 1057SOL    HW1 4070   2.561   1.961   1.014
 1057SOL    HW2 4071   2.699   1.932   1.096
 1058SOL     OW 4072   2.419   2.650   2.624
 1058SOL    HW1 4073   2.485   2.577   2.607
 1058SOL    HW2 4074   2.444   2.730   2.570
 1059SOL     OW 4075   2.913   6.148   1.565
 1059SOL    HW1 4076   2.981   6.075   1.579
 1059SOL    HW2 4077   2.949   6.233   1.602
 1060SOL     OW 4078   6.018   6.449   5.430
 1060SOL    HW1 4079   6.048   6.507   5.506
 1060SOL    HW2 4080   5.986   6.361   5.465
 1061SOL     OW 4081   6.695   4.023   0.000
 1061SOL    HW1 4082   6.606   3.979   0.009
 1061SOL    HW2 4083   6.695   4.109   0.051
 1062SOL     OW 4084   3.882   6.432   5.149
 1062SOL    HW1 4085   3.835   6.467   5.230
 1062SOL    HW2 4086   3.823   6.367   5.101
 1063SOL     OW 4087   2.655   6.064   6.104
 1063SOL    HW1 4088   2.693   6.082   6.013
 1063SOL    HW2 4089   2.720   6.009   6.157
 1064SOL     OW 4090   1.513   3.707   0.207
 1064SOL    HW1 4091   1.506   3.730   0.303
 1064SOL    HW2 4092   1.421   3.694   0.168
 1065SOL     OW 4093   4.262   0.723   4.151
 1065SOL    HW1 4094   4.360   0.707   4.145
 1065SOL    HW2 4095   4.241   0.774   4.235
 1066SOL     OW 4096   4.850   0.181   2.012
 1066SOL    HW1 4097   4.821   0.261   2.064
 1066SOL    HW2 4098   4.923   0.134   2.062
 1067SOL     OW 4099   2.194   0.945   0.245
 1067SOL    HW1 4100   2.272   1.006   0.260
 1067SOL    HW2 4101   2.110   0.998   0.246
 1068SOL     OW 4102   5.862   3.338   1.245
 1068SOL    HW1 4103   5.947   3.346   1.297
 1068SOL    HW2 4104   5.812   3.424   1.250
 1069SOL     OW 4105   6.677   3.978   1.811
 1069SOL    HW1 4106   6.653   4.052   1.874
 1069SOL    HW2 4107   6.593   3.938   1.774
 1070SOL     OW 4108   1.346   6.925   1.889
 1070SOL    HW1 4109   1.327   0.004   1.883
 1070SOL    HW2 4110   1.429   6.903   1.838
 1071SOL     OW 4111   6.958   3.166   5.740
 1071SOL    HW1 4112   6.986   3.183   5.645
 1071SOL    HW2 4113   6.998   3.079   5.771
 1072SOL     OW 4114   2.533   1.399   2.073
 1072SOL    HW1 4115   2.526   1.346   1.989
 1072SOL    HW2 4116   2.613   1.369   2.124
 1073SOL     OW 4117   4.904   1.812   3.383
 1073SOL    HW1 4118   4.927   1.776   3.474
 1073SOL    HW2 4119   4.859   1.900   3.393
 1074SOL     OW 4120   2.663   4.604   1.674
 1074SOL    HW1 4121   2.695   4.609   1.769
 1074SOL    HW2 4122   2.742   4.616   1.613
 1075SOL     OW 4123   5.642   3.741   5.299
 1075SOL    HW1 4124   5.622   3.745   5.201
 1075SOL    HW2 4125   5.662   3.646   5.324
 1076SOL     OW 4126   2.123   3.860   4.851
 1076SOL    HW1 4127   2.185   3.909   4.914
 1076SOL    HW2 4128   2.029   3.887   4.870
 1077SOL     OW 4129   0.458   0.126   0.143
 1077SOL    HW1 4130   0.449   0.049   0.207
 1077SOL    HW2 4131   0.369   0.169   0.131
 1078SOL     OW 4132   6.989   6.511   4.096
 1078SOL    HW1 4133   6.958   6.424   4.057
 1078SOL    HW2 4134   6.990   6.581   4.025
 1079SOL     OW 4135   1.002   6.586   2.512
 1079SOL    HW1 4136   1.010   6.512   2.579
 1079SOL    HW2 4137   1.021   6.673   2.557
 1080SOL     OW 4138   2.091   5.189   6.646
 1080SOL    HW1 4139   2.170   5.212   6.589
 1080SOL    HW2 4140   2.087   5.090   6.657
 1081SOL     OW 4141   6.594   5.752   4.219
 1081SOL    HW1 4142   6.635   5.785   4.303
 1081SOL    HW2 4143   6.666   5.735   4.151
 1082SOL     OW 4144   5.541   6.757   6.110
 1082SOL    HW1 4145   5.563   6.688   6.041
 1082SOL    HW2 4146   5.443   6.756   6.129
 1083SOL     OW 4147   4.952   4.345   0.913
 1083SOL    HW1 4148   4.876   4.409   0.921
 1083SOL    HW2 4149   4.994   4.332   1.003
 1084SOL     OW 4150   6.759   0.283   6.024
 1084SOL    HW1 4151   6.688   0.250   6.086
 1084SOL    HW2 4152   6.818   0.206   5.998
 1085SOL     OW 4153   1.427   3.743   4.489
 1085SOL    HW1 4154   1.433   3.840   4.513
 1085SOL    HW2 4155   1.429   3.688   4.573
 1086SOL     OW 4156   5.958   5.649   0.712
 1086SOL    HW1 4157   5.965   5.593   0.630
 1086SOL    HW2 4158   6.003   5.603   0.788
 1087SOL     OW 4159   2.878   0.170   5.319
 1087SOL    HW1 4160   2.873   0.262   5.280
 1087SOL    HW2 4161   2.959   0.162   5.376
 1088SOL     OW 4162   6.800   4.801   3.542
 1088SOL    HW1 4163   6.742   4.837   3.615
 1088SOL    HW2 4164   6.795   4.701   3.542
 1089SOL     OW 4165   6.436   4.355   4.183
 1089SOL    HW1 4166   6.469   4.316   4.269
 1089SOL    HW2 4167   6.468   4.299   4.107
 1090SOL     OW 4168   5.018   1.724   5.058
 1090SOL    HW1 4169   5.099   1.670   5.082
 1090SOL    HW2 4170   5.047   1.815   5.027
 1091SOL     OW 4171   2.492   2.605   3.290
 1091SOL    HW1 4172   2.525   2.553   3.212
 1091SOL    HW2 4173   2.549   2.585   3.370
 1092SOL     OW 4174   0.976   5.658   0.786
 1092SOL    HW1 4175   0.918   5.577   0.780
 1092SOL    HW2 4176   0.922   5.734   0.822
 1093SOL     OW 4177   2.049   6.890   2.119
 1093SOL    HW1 4178   2.114   6.835   2.066
 1093SOL    HW2 4179   2.099   6.940   2.191
 1094SOL     OW 4180   0.894   0.169   2.721
 1094SOL    HW1 4181   0.812   0.215   2.687
 1094SOL    HW2 4182   0.955   0.236   2.762
 1095SOL     OW 4183   6.188   3.509   0.214
 1095SOL    HW1 4184   6.127   3.473   0.143
 1095SOL    HW2 4185   6.195   3.443   0.289
 1096SOL     OW 4186   2.916   5.243   1.574
 1096SOL    HW1 4187   2.832   5.263   1.524
 1096SOL    HW2 4188   2.921   5.300   1.656
 1097SOL     OW 4189   3.394   5.179   4.592
 1097SOL    HW1 4190   3.310   5.233   4.603
 1097SOL    HW2 4191   3.471   5.233   4.625
 1098SOL     OW 4192   5.952   4.810   0.896
 1098SOL    HW1 4193   5.946   4.869   0.815
 1098SOL    HW2 4194   5.987   4.864   0.973
 1099SOL     OW 4195   4.797   0.503   5.873
 1099SOL    HW1 4196   4.837   0.553   5.796
 1099SOL    HW2 4197   4.744   0.566   5.931
 1100SOL     OW 4198   3.136   1.898   3.952
 1100SOL    HW1 4199   3.057   1.955   3.930
 1100SOL    HW2 4200   3.136   1.875   4.049
 1101SOL     OW 4201   6.723   3.161   6.116
 1101SOL    HW1 4202   6.654   3.088   6.115
 1101SOL    HW2 4203   6.681   3.247   6.088
 1102SOL     OW 4204   3.064   1.162   4.385
 1102SOL    HW1 4205   2.978   1.137   4.429
 1102SOL    HW2 4206   3.068   1.124   4.293
 1103SOL     OW 4207   2.745   6.627   6.611
 1103SOL    HW1 4208   2.773   6.582   6.695
 1103SOL    HW2 4209   2.702   6.715   6.632
 1104SOL     OW 4210   0.012   3.379   4.072
 1104SOL    HW1 4211   6.945   3.365   4.022
 1104SOL    HW2 4212   0.089   3.376   4.008
 1105SOL     OW 4213   5.544   0.823   5.353
 1105SOL    HW1 4214   5.607   0.896   5.377
 1105SOL    HW2 4215   5.451   0.860   5.345
 1106SOL     OW 4216   0.455   1.994   0.632
 1106SOL    HW1 4217   0.545   1.990   0.588
 1106SOL    HW2 4218   0.453   2.070   0.697
 1107SOL     OW 4219   1.170   0.767   0.619
 1107SOL    HW1 4220   1.080   0.799   0.646
 1107SOL    HW2 4221   1.161   0.700   0.545
 1108SOL     OW 4222   2.627   6.336   4.327
 1108SOL    HW1 4223   2.565   6.279   4.381
 1108SOL    HW2 4224   2.720   6.326   4.362
 1109SOL     OW 4225   5.014   1.626   4.359
 1109SOL    HW1 4226   5.097   1.667   4.319
 1109SOL    HW2 4227   5.010   1.647   4.456
 1110SOL     OW 4228   3.521   0.985   2.818
 1110SOL    HW1 4229   3.541   1.010   2.723
 1110SOL    HW2 4230   3.457   1.051   2.857
 1111SOL     OW 4231   5.148   3.887   6.798
 1111SOL    HW1 4232   5.051   3.908   6.809
 1111SOL    HW2 4233   5.160   3.823   6.722
 1112SOL     OW 4234   5.096   0.436   2.264
 1112SOL    HW1 4235   5.053   0.409   2.350
 1112SOL    HW2 4236   5.179   0.382   2.250
 1113SOL     OW 4237   5.484   4.456   2.537
 1113SOL    HW1 4238   5.486   4.356   2.544
 1113SOL    HW2 4239   5.420   4.493   2.604
 1114SOL     OW 4240   4.150   3.568   5.477
 1114SOL    HW1 4241   4.171   3.619   5.393
 1114SOL    HW2 4242   4.200   3.481   5.476
 1115SOL     OW 4243   2.938   4.285   5.670
 1115SOL    HW1 4244   2.988   4.274   5.756
 1115SOL    HW2 4245   2.855   4.337   5.687
 1116SOL     OW 4246   4.478   7.007   6.462
 1116SOL    HW1 4247   4.428   6.958   6.534
 1116SOL    HW2 4248   4.571   0.009   6.494
 1117SOL     OW 4249   1.494   3.245   1.964
 1117SOL    HW1 4250   1.532   3.239   1.871
 1117SOL    HW2 4251   1.566   3.224   2.030
 1118SOL     OW 4252   3.182   4.859   6.885
 1118SOL    HW1 4253   3.207   4.785   6.948
 1118SOL    HW2 4254   3.218   4.839   6.794
 1119SOL     OW 4255   3.887   4.938   4.082
 1119SOL    HW1 4256   3.790   4.932   4.105
 1119SOL    HW2 4257   3.906   5.026   4.040
 1120SOL     OW 4258   6.806   5.053   1.383
 1120SOL    HW1 4259   6.837   5.081   1.474
 1120SOL    HW2 4260   6.881   5.005   1.336
 1121SOL     OW 4261   6.516   5.261   4.646
 1121SOL    HW1 4262   6.461   5.345   4.638
 1121SOL    HW2 4263   6.503   5.204   4.565
 1122SOL     OW 4264   5.418   2.865   1.868
 1122SOL    HW1 4265   5.464   2.939   1.820
 1122SOL    HW2 4266   5.336   2.839   1.817
 1123SOL     OW 4267   4.205   1.789   3.335
 1123SOL    HW1 4268   4.291   1.738   3.341
 1123SOL    HW2 4269   4.203   1.842   3.250
 1124SOL     OW 4270   2.234   2.970   4.804
 1124SOL    HW1 4271   2.305   2.983   4.874
 1124SOL    HW2 4272   2.171   2.898   4.833
 1125SOL     OW 4273   1.006   3.899   3.781
 1125SOL    HW1 4274   0.971   3.816   3.736
 1125SOL    HW2 4275   0.950   3.977   3.755
 1126SOL     OW 4276   3.390   5.215   5.138
 1126SOL    HW1 4277   3.410   5.282   5.066
 1126SOL    HW2 4278   3.417   5.124   5.107
 1127SOL     OW 4279   5.748   6.628   3.061
 1127SOL    HW1 4280   5.696   6.667   2.985
 1127SOL    HW2 4281   5.728   6.530   3.067
 1128SOL     OW 4282   6.005   1.579   3.121
 1128SOL    HW1 4283   5.926   1.529   3.158
 1128SOL    HW2 4284   6.012   1.561   3.023
 1129SOL     OW 4285   1.898   0.291   0.869
 1129SOL    HW1 4286   1.868   0.285   0.774
 1129SOL    HW2 4287   1.825   0.330   0.925
 1130SOL     OW 4288   2.100   4.425   2.240
 1130SOL    HW1 4289   2.176   4.367   2.270
 1130SOL    HW2 4290   2.115   4.454   2.146
 1131SOL     OW 4291   1.398   5.762   3.851
 1131SOL    HW1 4292   1.379   5.854   3.883
 1131SOL    HW2 4293   1.495   5.741   3.863
 1132SOL     OW 4294   3.537   1.284   2.508
 1132SOL    HW1 4295   3.483   1.324   2.581
 1132SOL    HW2 4296   3.497   1.307   2.420
 1133SOL     OW 4297   1.378   6.789   4.924
 1133SOL    HW1 4298   1.335   6.795   5.014
 1133SOL    HW2 4299   1.442   6.865   4.912
 1134SOL     OW 4300   3.971   0.027   1.447
 1134SOL    HW1 4301   3.930   0.110   1.486
 1134SOL    HW2 4302   3.964   6.971   1.513
 1135SOL     OW 4303   2.021   5.708   3.850
 1135SOL    HW1 4304   2.055   5.633   3.907
 1135SOL    HW2 4305   2.083   5.722   3.772
 1136SOL     OW 4306   2.402   6.106   2.183
 1136SOL    HW1 4307   2.478   6.169   2.169
 1136SOL    HW2 4308   2.433   6.013   2.164
 1137SOL     OW 4309   0.299   5.416   5.457
 1137SOL    HW1 4310   0.238   5.346   5.418
 1137SOL    HW2 4311   0.244   5.487   5.500
 1138SOL     OW 4312   2.276   2.857   4.526
 1138SOL    HW1 4313   2.196   2.895   4.478
 1138SOL    HW2 4314   2.293   2.912   4.608
 1139SOL     OW 4315   2.729   5.479   4.351
 1139SOL    HW1 4316   2.733   5.430   4.438
 1139SOL    HW2 4317   2.670   5.429   4.287
 1140SOL     OW 4318   1.367   1.478   1.506
 1140SOL    HW1 4319   1.353   1.496   1.409
 1140SOL    HW2 4320   1.290   1.513   1.559
 1141SOL     OW 4321   6.150   4.573   6.373
 1141SOL    HW1 4322   6.051   4.584   6.372
 1141SOL    HW2 4323   6.178   4.515   6.297
 1142SOL     OW 4324   2.851   7.016   2.474
 1142SOL    HW1 4325   2.916   6.964   2.418
 1142SOL    HW2 4326   2.776   6.956   2.502
 1143SOL     OW 4327   1.330   3.919   2.057
 1143SOL    HW1 4328   1.300   3.922   1.962
 1143SOL    HW2 4329   1.375   3.831   2.075
 1144SOL     OW 4330   5.305   4.524   2.037
 1144SOL    HW1 4331   5.280   4.490   1.946
 1144SOL    HW2 4332   5.340   4.617   2.030
 1145SOL     OW 4333   7.007   1.308   0.910
 1145SOL    HW1 4334   0.034   1.322   0.822
 1145SOL    HW2 4335   0.052   1.333   0.984
 1146SOL     OW 4336   1.136   1.244   1.473
 1146SOL    HW1 4337   1.198   1.216   1.546
 1146SOL    HW2 4338   1.173   1.216   1.385
 1147SOL     OW 4339   3.266   6.529   1.103
 1147SOL    HW1 4340   3.194   6.586   1.142
 1147SOL    HW2 4341   3.229   6.474   1.029
 1148SOL     OW 4342   4.502   5.235   3.429
 1148SOL    HW1 4343   4.446   5.190   3.359
 1148SOL    HW2 4344   4.461   5.322   3.454
 1149SOL     OW 4345   4.975   2.789   1.639
 1149SOL    HW1 4346   4.928   2.812   1.554
 1149SOL    HW2 4347   4.940   2.847   1.713
 1150SOL     OW 4348   2.142   4.375   6.882
 1150SOL    HW1 4349   2.078   4.315   6.831
 1150SOL    HW2 4350   2.090   4.432   6.945
 1151SOL     OW 4351   6.408   5.527   4.212
 1151SOL    HW1 4352   6.475   5.598   4.191
 1151SOL    HW2 4353   6.379   5.482   4.128
 1152SOL     OW 4354   4.054   0.194   6.421
 1152SOL    HW1 4355   3.988   0.147   6.363
 1152SOL    HW2 4356   4.008   0.268   6.471
 1153SOL     OW 4357   6.081   0.484   0.985
 1153SOL    HW1 4358   6.061   0.490   0.887
 1153SOL    HW2 4359   6.032   0.556   1.034
 1154SOL     OW 4360   2.269   2.435   1.691
 1154SOL    HW1 4361   2.307   2.460   1.780
 1154SOL    HW2 4362   2.176   2.399   1.703
 1155SOL     OW 4363   2.911   6.050   4.774
 1155SOL    HW1 4364   2.983   6.068   4.707
 1155SOL    HW2 4365   2.933   6.097   4.860
 1156SOL     OW 4366   3.183   2.129   4.108
 1156SOL    HW1 4367   3.280   2.108   4.119
 1156SOL    HW2 4368   3.134   2.104   4.192
 1157SOL     OW 4369   3.636   0.870   5.725
 1157SOL    HW1 4370   3.575   0.822   5.662
 1157SOL    HW2 4371   3.591   0.951   5.760
 1158SOL     OW 4372   5.931   6.218   3.205
 1158SOL    HW1 4373   5.980   6.218   3.292
 1158SOL    HW2 4374   5.848   6.164   3.213
 1159SOL     OW 4375   6.388   6.387   2.045
 1159SOL    HW1 4376   6.400   6.394   2.144
 1159SOL    HW2 4377   6.348   6.298   2.023
 1160SOL     OW 4378   5.031   1.053   0.994
 1160SOL    HW1 4379   4.944   1.045   0.944
 1160SOL    HW2 4380   5.102   1.085   0.932
 1161SOL     OW 4381   0.370   5.570   6.988
 1161SOL    HW1 4382   0.399   5.514   0.047
 1161SOL    HW2 4383   0.282   5.537   6.954
 1162SOL     OW 4384   2.504   2.183   4.921
 1162SOL    HW1 4385   2.439   2.168   4.847
 1162SOL    HW2 4386   2.477   2.264   4.973
 1163SOL     OW 4387   6.439   3.831   1.816
 1163SOL    HW1 4388   6.507   3.776   1.767
 1163SOL    HW2 4389   6.400   3.776   1.890
 1164SOL     OW 4390   4.762   2.135   4.620
 1164SOL    HW1 4391   4.686   2.198   4.632
 1164SOL    HW2 4392   4.729   2.049   4.582
 1165SOL     OW 4393   4.050   6.308   3.006
 1165SOL    HW1 4394   3.974   6.284   3.066
 1165SOL    HW2 4395   4.015   6.362   2.929
 1166SOL     OW 4396   1.870   5.868   6.595
 1166SOL    HW1 4397   1.890   5.962   6.622
 1166SOL    HW2 4398   1.860   5.811   6.677
 1167SOL     OW 4399   5.609   4.537   2.290
 1167SOL    HW1 4400   5.618   4.496   2.199
 1167SOL    HW2 4401   5.553   4.477   2.348
 1168SOL     OW 4402   6.181   1.945   3.197
 1168SOL    HW1 4403   6.255   1.915   3.257
 1168SOL    HW2 4404   6.194   1.907   3.106
 1169SOL     OW 4405   5.749   0.627   5.329
 1169SOL    HW1 4406   5.685   0.695   5.294
 1169SOL    HW2 4407   5.709   0.580   5.407
 1170SOL     OW 4408   4.814   6.754   3.692
 1170SOL    HW1 4409   4.745   6.752   3.764
 1170SOL    HW2 4410   4.846   6.847   3.679
 1171SOL     OW 4411   0.987   0.228   1.163
 1171SOL    HW1 4412   0.997   0.183   1.252
 1171SOL    HW2 4413   0.890   0.242   1.143
 1172SOL     OW 4414   0.061   3.829   6.388
 1172SOL    HW1 4415   0.146   3.837   6.440
 1172SOL    HW2 4416   0.075   3.866   6.296
 1173SOL     OW 4417   3.055   1.560   0.793
 1173SOL    HW1 4418   3.017   1.651   0.811
 1173SOL    HW2 4419   3.063   1.546   0.695
 1174SOL     OW 4420   3.665   3.129   0.997
 1174SOL    HW1 4421   3.700   3.122   1.091
 1174SOL    HW2 4422   3.572   3.166   0.999
 1175SOL     OW 4423   3.514   3.239   4.360
 1175SOL    HW1 4424   3.484   3.231   4.455
 1175SOL    HW2 4425   3.599   3.290   4.355
 1176SOL     OW 4426   5.014   3.965   6.264
 1176SOL    HW1 4427   4.983   4.026   6.337
 1176SOL    HW2 4428   5.109   3.985   6.241
 1177SOL     OW 4429   6.413   2.431   4.830
 1177SOL    HW1 4430   6.453   2.416   4.920
 1177SOL    HW2 4431   6.474   2.487   4.775
 1178SOL     OW 4432   3.459   4.827   0.269
 1178SOL    HW1 4433   3.475   4.735   0.233
 1178SOL    HW2 4434   3.385   4.871   0.219
 1179SOL     OW 4435   2.177   5.402   0.707
 1179SOL    HW1 4436   2.114   5.463   0.755
 1179SOL    HW2 4437   2.256   5.382   0.765
 1180SOL     OW 4438   3.294   5.907   0.595
 1180SOL    HW1 4439   3.257   5.999   0.610
 1180SOL    HW2 4440   3.326   5.899   0.501
 1181SOL     OW 4441   0.613   5.620   0.134
 1181SOL    HW1 4442   0.707   5.635   0.166
 1181SOL    HW2 4443   0.550   5.675   0.188
 1182SOL     OW 4444   4.199   5.251   3.096
 1182SOL    HW1 4445   4.126   5.198   3.053
 1182SOL    HW2 4446   4.270   5.188   3.130
 1183SOL     OW 4447   2.002   3.804   6.181
 1183SOL    HW1 4448   2.011   3.842   6.089
 1183SOL    HW2 4449   1.913   3.758   6.190
 1184SOL     OW 4450   1.986   6.818   5.174
 1184SOL    HW1 4451   2.071   6.871   5.168
 1184SOL    HW2 4452   2.007   6.721   5.170
 1185SOL     OW 4453   0.010   1.049   6.585
 1185SOL    HW1 4454   0.014   1.021   6.489
 1185SOL    HW2 4455   0.062   1.134   6.597
 1186SOL     OW 4456   4.876   6.293   4.614
 1186SOL    HW1 4457   4.966   6.323   4.582
 1186SOL    HW2 4458   4.886   6.234   4.694
 1187SOL     OW 4459   6.468   0.119   5.924
 1187SOL    HW1 4460   6.531   0.041   5.916
 1187SOL    HW2 4461   6.373   0.086   5.917
 1188SOL     OW 4462   2.627   6.449   5.119
 1188SOL    HW1 4463   2.557   6.413   5.057
 1188SOL    HW2 4464   2.681   6.518   5.072
 1189SOL     OW 4465   6.084   3.560   3.542
 1189SOL    HW1 4466   6.122   3.534   3.453
 1189SOL    HW2 4467   6.157   3.591   3.602
 1190SOL     OW 4468   2.049   6.394   2.322
 1190SOL    HW1 4469   1.982   6.458   2.283
 1190SOL    HW2 4470   2.093   6.342   2.248
 1191SOL     OW 4471   4.771   5.196   2.805
 1191SOL    HW1 4472   4.793   5.106   2.842
 1191SOL    HW2 4473   4.767   5.190   2.705
 1192SOL     OW 4474   4.372   5.916   3.228
 1192SOL    HW1 4475   4.303   5.844   3.229
 1192SOL    HW2 4476   4.350   5.981   3.155
 1193SOL     OW 4477   6.295   4.902   3.584
 1193SOL    HW1 4478   6.337   4.952   3.660
 1193SOL    HW2 4479   6.197   4.894   3.600
 1194SOL     OW 4480   4.331   0.754   1.226
 1194SOL    HW1 4481   4.371   0.776   1.315
 1194SOL    HW2 4482   4.277   0.670   1.233
 1195SOL     OW 4483   6.227   2.941   2.209
 1195SOL    HW1 4484   6.222   2.911   2.114
 1195SOL    HW2 4485   6.138   2.926   2.254
 1196SOL     OW 4486   6.396   6.474   4.305
 1196SOL    HW1 4487   6.322   6.509   4.362
 1196SOL    HW2 4488   6.389   6.515   4.214
 1197SOL     OW 4489   3.527   0.012   0.588
 1197SOL    HW1 4490   3.473   0.006   0.504
 1197SOL    HW2 4491   3.619   6.995   0.572
 1198SOL     OW 4492   1.132   2.153   0.493
 1198SOL    HW1 4493   1.127   2.218   0.417
 1198SOL    HW2 4494   1.086   2.068   0.468
 1199SOL     OW 4495   5.042   5.011   2.075
 1199SOL    HW1 4496   5.137   5.031   2.051
 1199SOL    HW2 4497   4.991   5.097   2.087
 1200SOL     OW 4498   2.958   3.686   2.073
 1200SOL    HW1 4499   2.923   3.647   2.158
 1200SOL    HW2 4500   2.988   3.780   2.090
 1201SOL     OW 4501   1.793   1.882   4.533
 1201SOL    HW1 4502   1.786   1.866   4.434
 1201SOL    HW2 4503   1.855   1.815   4.573
 1202SOL     OW 4504   0.189   5.595   6.373
 1202SOL    HW1 4505   0.142   5.681   6.353
 1202SOL    HW2 4506   0.226   5.598   6.466
 1203SOL     OW 4507   4.873   5.991   5.642
 1203SOL    HW1 4508   4.786   5.977   5.691
 1203SOL    HW2 4509   4.863   6.067   5.578
 1204SOL     OW 4510   1.877   0.922   2.230
 1204SOL    HW1 4511   1.897   0.829   2.261
 1204SOL    HW2 4512   1.858   0.980   2.308
 1205SOL     OW 4513   5.083   4.023   1.419
 1205SOL    HW1 4514   5.133   4.099   1.378
 1205SOL    HW2 4515   4.988   4.051   1.436
 1206SOL     OW 4516   3.472   3.174   4.662
 1206SOL    HW1 4517   3.463   3.076   4.643
 1206SOL    HW2 4518   3.382   3.213   4.682
 1207SOL     OW 4519   2.141   6.160   2.189
 1207SOL    HW1 4520   2.239   6.147   2.170
 1207SOL    HW2 4521   2.089   6.144   2.105
 1208SOL     OW 4522   3.535   3.346   6.902
 1208SOL    HW1 4523   3.576   3.312   6.986
 1208SOL    HW2 4524   3.468   3.417   6.923
 1209SOL     OW 4525   3.598   6.991   5.656
 1209SOL    HW1 4526   3.657   6.912   5.674
 1209SOL    HW2 4527   3.654   0.051   5.631
 1210SOL     OW 4528   3.202   0.875   3.299
 1210SOL    HW1 4529   3.229   0.789   3.255
 1210SOL    HW2 4530   3.254   0.886   3.384
 1211SOL     OW 4531   0.658   4.141   0.887
 1211SOL    HW1 4532   0.741   4.149   0.944
 1211SOL    HW2 4533   0.676   4.180   0.797
 1212SOL     OW 4534   0.766   6.949   6.651
 1212SOL    HW1 4535   0.668   6.938   6.670
 1212SOL    HW2 4536   0.816   6.871   6.690
 1213SOL     OW 4537   5.713   2.628   0.705
 1213SOL    HW1 4538   5.621   2.611   0.671
 1213SOL    HW2 4539   5.754   2.703   0.652
 1214SOL     OW 4540   6.708   2.117   1.073
 1214SOL    HW1 4541   6.771   2.064   1.129
 1214SOL    HW2 4542   6.708   2.082   0.980
 1215SOL     OW 4543   0.924   4.721   4.467
 1215SOL    HW1 4544   0.938   4.759   4.559
 1215SOL    HW2 4545   0.870   4.637   4.474
 1216SOL     OW 4546   4.591   0.532   6.541
 1216SOL    HW1 4547   4.582   0.494   6.633
 1216SOL    HW2 4548   4.502   0.533   6.496
 1217SOL     OW 4549   2.406   4.523   0.578
 1217SOL    HW1 4550   2.461   4.442   0.599
 1217SOL    HW2 4551   2.316   4.515   0.621
 1218SOL     OW 4552   1.585   3.990   3.800
 1218SOL    HW1 4553   1.581   3.987   3.700
 1218SOL    HW2 4554   1.514   4.051   3.835
 1219SOL     OW 4555   4.057   6.077   2.270
 1219SOL    HW1 4556   4.119   6.047   2.342
 1219SOL    HW2 4557   3.995   6.147   2.306
 1220SOL     OW 4558   1.116   4.468   2.615
 1220SOL    HW1 4559   1.044   4.463   2.546
 1220SOL    HW2 4560   1.096   4.403   2.689
 1221SOL     OW 4561   6.006   3.686   6.092
 1221SOL    HW1 4562   5.969   3.616   6.031
 1221SOL    HW2 4563   5.986   3.662   6.186
 1222SOL     OW 4564   0.070   6.245   0.015
 1222SOL    HW1 4565   0.001   6.245   0.088
 1222SOL    HW2 4566   0.141   6.312   0.037
 1223SOL     OW 4567   3.127   6.367   0.296
 1223SOL    HW1 4568   3.135   6.432   0.220
 1223SOL    HW2 4569   3.055   6.397   0.359
 1224SOL     OW 4570   2.381   0.078   1.172
 1224SOL    HW1 4571   2.307   0.058   1.108
 1224SOL    HW2 4572   2.398   0.177   1.173
 1225SOL     OW 4573   3.336   4.152   6.438
 1225SOL    HW1 4574   3.436   4.153   6.440
 1225SOL    HW2 4575   3.304   4.059   6.423
 1226SOL     OW 4576   1.861   5.037   1.348
 1226SOL    HW1 4577   1.791   4.967   1.331
 1226SOL    HW2 4578   1.817   5.121   1.378
 1227SOL     OW 4579   6.877   3.945   6.549
 1227SOL    HW1 4580   6.934   3.865   6.528
 1227SOL    HW2 4581   6.844   3.939   6.643
 1228SOL     OW 4582   4.392   1.893   6.075
 1228SOL    HW1 4583   4.316   1.861   6.132
 1228SOL    HW2 4584   4.357   1.928   5.988
 1229SOL     OW 4585   3.573   4.586   6.473
 1229SOL    HW1 4586   3.579   4.616   6.378
 1229SOL    HW2 4587   3.573   4.665   6.534
 1230SOL     OW 4588   4.207   6.701   3.400
 1230SOL    HW1 4589   4.141   6.655   3.341
 1230SOL    HW2 4590   4.262   6.764   3.345
 1231SOL     OW 4591   1.908   3.065   4.980
 1231SOL    HW1 4592   1.871   3.113   4.901
 1231SOL    HW2 4593   1.856   3.089   5.062
 1232SOL     OW 4594   1.421   2.720   5.128
 1232SOL    HW1 4595   1.480   2.713   5.048
 1232SOL    HW2 4596   1.445   2.647   5.193
 1233SOL     OW 4597   0.969   3.673   5.473
 1233SOL    HW1 4598   0.893   3.622   5.514
 1233SOL    HW2 4599   0.989   3.635   5.383
 1234SOL     OW 4600   5.700   4.231   4.333
 1234SOL    HW1 4601   5.775   4.294   4.314
 1234SOL    HW2 4602   5.619   4.283   4.358
 1235SOL     OW 4603   6.159   5.275   3.390
 1235SOL    HW1 4604   6.088   5.232   3.445
 1235SOL    HW2 4605   6.179   5.366   3.425
 1236SOL     OW 4606   5.671   0.621   6.988
 1236SOL    HW1 4607   5.612   0.574   6.922
 1236SOL    HW2 4608   5.765   0.589   6.977
 1237SOL     OW 4609   3.270   4.919   6.465
 1237SOL    HW1 4610   3.188   4.869   6.492
 1237SOL    HW2 4611   3.244   5.009   6.428
 1238SOL     OW 4612   1.996   1.537   0.946
 1238SOL    HW1 4613   1.973   1.447   0.911
 1238SOL    HW2 4614   2.095   1.548   0.948
 1239SOL     OW 4615   6.737   6.030   6.726
 1239SOL    HW1 4616   6.717   5.987   6.814
 1239SOL    HW2 4617   6.652   6.068   6.687
 1240SOL     OW 4618   4.955   6.107   1.789
 1240SOL    HW1 4619   4.916   6.014   1.791
 1240SOL    HW2 4620   4.995   6.124   1.699
 1241SOL     OW 4621   6.487   3.741   4.401
 1241SOL    HW1 4622   6.506   3.703   4.311
 1241SOL    HW2 4623   6.390   3.765   4.407
 1242SOL     OW 4624   2.396   3.761   0.433
 1242SOL    HW1 4625   2.483   3.812   0.440
 1242SOL    HW2 4626   2.353   3.781   0.345
 1243SOL     OW 4627   2.071   5.116   5.226
 1243SOL    HW1 4628   2.163   5.118   5.187
 1243SOL    HW2 4629   2.030   5.207   5.220
 1244SOL     OW 4630   0.621   1.156   3.760
 1244SOL    HW1 4631   0.577   1.069   3.782
 1244SOL    HW2 4632   0.681   1.143   3.681
 1245SOL     OW 4633   3.695   3.555   0.172
 1245SOL    HW1 4634   3.677   3.516   0.262
 1245SOL    HW2 4635   3.713   3.653   0.180
 1246SOL     OW 4636   1.899   6.043   2.289
 1246SOL    HW1 4637   1.866   6.111   2.355
 1246SOL    HW2 4638   1.993   6.064   2.263
 1247SOL     OW 4639   2.036   6.442   5.997
 1247SOL    HW1 4640   1.969   6.369   6.002
 1247SOL    HW2 4641   2.092   6.443   6.080
 1248SOL     OW 4642   2.270   5.286   4.041
 1248SOL    HW1 4643   2.294   5.218   4.110
 1248SOL    HW2 4644   2.181   5.264   4.002
 1249SOL     OW 4645   5.727   2.960   3.411
 1249SOL    HW1 4646   5.745   2.922   3.502
 1249SOL    HW2 4647   5.814   2.987   3.369
 1250SOL     OW 4648   1.311   4.171   4.353
 1250SOL    HW1 4649   1.330   4.266   4.329
 1250SOL    HW2 4650   1.220   4.147   4.321
 1251SOL     OW 4651   4.019   0.229   4.803
 1251SOL    HW1 4652   4.053   0.304   4.746
 1251SOL    HW2 4653   3.919   0.231   4.804
 1252SOL     OW 4654   3.520   4.254   5.509
 1252SOL    HW1 4655   3.513   4.329   5.575
 1252SOL    HW2 4656   3.430   4.233   5.473
 1253SOL     OW 4657   3.986   5.124   2.931
 1253SOL    HW1 4658   3.907   5.168   2.975
 1253SOL    HW2 4659   3.953   5.058   2.863
 1254SOL     OW 4660   6.528   1.927   2.816
 1254SOL    HW1 4661   6.562   2.011   2.858
 1254SOL    HW2 4662   6.436   1.944   2.779
 1255SOL     OW 4663   6.945   6.929   6.773
 1255SOL    HW1 4664   6.968   7.013   6.821
 1255SOL    HW2 4665   6.849   6.932   6.744
 1256SOL     OW 4666   4.874   0.354   3.405
 1256SOL    HW1 4667   4.806   0.351   3.478
 1256SOL    HW2 4668   4.892   0.262   3.372
 1257SOL     OW 4669   6.638   1.120   3.749
 1257SOL    HW1 4670   6.636   1.142   3.847
 1257SOL    HW2 4671   6.561   1.163   3.703
 1258SOL     OW 4672   0.135   0.188   3.583
 1258SOL    HW1 4673   0.143   0.231   3.673
 1258SOL    HW2 4674   0.226   0.167   3.547
 1259SOL     OW 4675   3.867   2.127   4.821
 1259SOL    HW1 4676   3.863   2.146   4.723
 1259SOL    HW2 4677   3.779   2.148   4.863
 1260SOL     OW 4678   1.142   0.582   0.075
 1260SOL    HW1 4679   1.195   0.647   0.129
 1260SOL    HW2 4680   1.065   0.629   0.032
 1261SOL     OW 4681   6.611   5.171   0.545
 1261SOL    HW1 4682   6.659   5.100   0.494
 1261SOL    HW2 4683   6.621   5.153   0.643
 1262SOL     OW 4684   5.382   5.745   1.089
 1262SOL    HW1 4685   5.399   5.772   1.183
 1262SOL    HW2 4686   5.373   5.645   1.084
 1263SOL     OW 4687   1.359   2.254   3.478
 1263SOL    HW1 4688   1.302   2.171   3.484
 1263SOL    HW2 4689   1.335   2.315   3.554
 1264SOL     OW 4690   0.909   2.526   5.125
 1264SOL    HW1 4691   1.003   2.560   5.131
 1264SOL    HW2 4692   0.901   2.463   5.047
 1265SOL     OW 4693   6.023   6.784   4.731
 1265SOL    HW1 4694   5.997   6.728   4.809
 1265SOL    HW2 4695   5.945   6.793   4.669
 1266SOL     OW 4696   2.217   0.642   4.757
 1266SOL    HW1 4697   2.264   0.662   4.843
 1266SOL    HW2 4698   2.224   0.544   4.737
 1267SOL     OW 4699   4.366   0.262   2.461
 1267SOL    HW1 4700   4.301   0.188   2.480
 1267SOL    HW2 4701   4.377   0.319   2.542
 1268SOL     OW 4702   4.279   2.747   5.347
 1268SOL    HW1 4703   4.268   2.846   5.338
 1268SOL    HW2 4704   4.223   2.701   5.277
 1269SOL     OW 4705   6.039   2.568   4.579
 1269SOL    HW1 4706   6.118   2.578   4.518
 1269SOL    HW2 4707   5.969   2.513   4.535
 1270SOL     OW 4708   0.049   5.254   3.601
 1270SOL    HW1 4709   6.989   5.315   3.587
 1270SOL    HW2 4710   0.043   5.177   3.538
 1271SOL     OW 4711   1.589   1.327   1.437
 1271SOL    HW1 4712   1.645   1.363   1.362
 1271SOL    HW2 4713   1.506   1.381   1.445
 1272SOL     OW 4714   6.922   4.205   0.118
 1272SOL    HW1 4715   6.845   4.216   0.181
 1272SOL    HW2 4716   6.893   4.230   0.026
 1273SOL     OW 4717   1.177   4.692   4.929
 1273SOL    HW1 4718   1.112   4.699   5.004
 1273SOL    HW2 4719   1.239   4.771   4.931
 1274SOL     OW 4720   0.873   5.360   2.915
 1274SOL    HW1 4721   0.883   5.264   2.888
 1274SOL    HW2 4722   0.900   5.418   2.839
 1275SOL     OW 4723   2.806   0.976   2.495
 1275SOL    HW1 4724   2.880   0.940   2.553
 1275SOL    HW2 4725   2.719   0.944   2.531
 1276SOL     OW 4726   5.283   4.930   3.656
 1276SOL    HW1 4727   5.355   4.999   3.666
 1276SOL    HW2 4728   5.211   4.965   3.597
 1277SOL     OW 4729   0.618   6.041   0.693
 1277SOL    HW1 4730   0.713   6.042   0.724
 1277SOL    HW2 4731   0.575   6.129   0.712
 1278SOL     OW 4732   1.187   5.619   2.764
 1278SOL    HW1 4733   1.169   5.616   2.862
 1278SOL    HW2 4734   1.232   5.705   2.741
 1279SOL     OW 4735   2.033   2.373   0.215
 1279SOL    HW1 4736   1.969   2.296   0.215
 1279SOL    HW2 4737   2.053   2.400   0.309
 1280SOL     OW 4738   2.304   1.966   3.325
 1280SOL    HW1 4739   2.261   1.938   3.239
 1280SOL    HW2 4740   2.248   1.936   3.402
 1281SOL     OW 4741   4.453   5.857   4.210
 1281SOL    HW1 4742   4.477   5.832   4.116
 1281SOL    HW2 4743   4.420   5.951   4.211
 1282SOL     OW 4744   6.999   2.503   1.258
 1282SOL    HW1 4745   6.909   2.545   1.244
 1282SOL    HW2 4746   0.021   2.479   1.170
 1283SOL     OW 4747   6.626   3.450   5.120
 1283SOL    HW1 4748   6.544   3.425   5.172
 1283SOL    HW2 4749   6.680   3.516   5.172
 1284SOL     OW 4750   3.910   1.831   1.933
 1284SOL    HW1 4751   3.850   1.764   1.977
 1284SOL    HW2 4752   3.913   1.914   1.989
 1285SOL     OW 4753   3.797   1.010   5.454
 1285SOL    HW1 4754   3.698   1.027   5.449
 1285SOL    HW2 4755   3.841   1.081   5.509
 1286SOL     OW 4756   4.570   1.939   1.994
 1286SOL    HW1 4757   4.626   2.022   1.987
 1286SOL    HW2 4758   4.619   1.870   2.047
 1287SOL     OW 4759   6.521   4.686   4.612
 1287SOL    HW1 4760   6.531   4.611   4.678
 1287SOL    HW2 4761   6.425   4.694   4.585
 1288SOL     OW 4762   4.496   4.290   6.848
 1288SOL    HW1 4763   4.535   4.333   6.767
 1288SOL    HW2 4764   4.424   4.226   6.821
 1289SOL     OW 4765   0.022   0.346   1.872
 1289SOL    HW1 4766   6.942   0.329   1.869
 1289SOL    HW2 4767   0.067   0.305   1.793
 1290SOL     OW 4768   1.585   6.903   6.254
 1290SOL    HW1 4769   1.652   6.936   6.320
 1290SOL    HW2 4770   1.503   6.874   6.302
 1291SOL     OW 4771   6.941   5.407   3.004
 1291SOL    HW1 4772   7.006   5.478   2.974
 1291SOL    HW2 4773   6.921   5.419   3.101
 1292SOL     OW 4774   0.950   6.335   2.352
 1292SOL    HW1 4775   1.048   6.317   2.348
 1292SOL    HW2 4776   0.934   6.433   2.362
 1293SOL     OW 4777   3.020   1.334   0.001
 1293SOL    HW1 4778   3.064   1.266   0.060
 1293SOL    HW2 4779   3.068   1.340   6.933
 1294SOL     OW 4780   2.308   3.509   5.358
 1294SOL    HW1 4781   2.342   3.564   5.281
 1294SOL    HW2 4782   2.374   3.438   5.380
 1295SOL     OW 4783   6.286   4.585   0.759
 1295SOL    HW1 4784   6.383   4.582   0.784
 1295SOL    HW2 4785   6.230   4.587   0.842
 1296SOL     OW 4786   5.268   6.867   5.571
 1296SOL    HW1 4787   5.168   6.869   5.570
 1296SOL    HW2 4788   5.303   6.869   5.478
 1297SOL     OW 4789   0.108   0.128   2.140
 1297SOL    HW1 4790   0.141   0.163   2.052
 1297SOL    HW2 4791   0.126   0.196   2.211
 1298SOL     OW 4792   4.998   6.100   2.441
 1298SOL    HW1 4793   4.921   6.153   2.406
 1298SOL    HW2 4794   4.981   6.003   2.425
 1299SOL     OW 4795   1.432   3.396   4.993
 1299SOL    HW1 4796   1.446   3.376   5.090
 1299SOL    HW2 4797   1.355   3.459   4.983
 1300SOL     OW 4798   1.225   4.302   1.841
 1300SOL    HW1 4799   1.294   4.261   1.902
 1300SOL    HW2 4800   1.166   4.363   1.895
 1301SOL     OW 4801   0.573   0.634   1.348
 1301SOL    HW1 4802   0.556   0.590   1.260
 1301SOL    HW2 4803   0.639   0.708   1.337
 1302SOL     OW 4804   5.377   6.802   4.992
 1302SOL    HW1 4805   5.352   6.739   5.065
 1302SOL    HW2 4806   5.325   6.887   5.001
 1303SOL     OW 4807   4.353   6.341   1.355
 1303SOL    HW1 4808   4.394   6.295   1.276
 1303SOL    HW2 4809   4.415   6.333   1.433
 1304SOL     OW 4810   0.824   1.376   0.652
 1304SOL    HW1 4811   0.826   1.361   0.751
 1304SOL    HW2 4812   0.914   1.402   0.620
 1305SOL     OW 4813   5.523   3.883   6.399
 1305SOL    HW1 4814   5.552   3.939   6.477
 1305SOL    HW2 4815   5.453   3.931   6.348
 1306SOL     OW 4816   2.629   5.624   4.009
 1306SOL    HW1 4817   2.565   5.698   4.030
 1306SOL    HW2 4818   2.627   5.605   3.911
 1307SOL     OW 4819   2.911   2.263   3.607
 1307SOL    HW1 4820   2.996   2.262   3.660
 1307SOL    HW2 4821   2.835   2.292   3.665
 1308SOL     OW 4822   6.958   5.631   6.148
 1308SOL    HW1 4823   0.003   5.601   6.076
 1308SOL    HW2 4824   6.970   5.573   6.229
 1309SOL     OW 4825   5.294   4.246   6.630
 1309SOL    HW1 4826   5.197   4.226   6.619
 1309SOL    HW2 4827   5.324   4.219   6.721
 1310SOL     OW 4828   1.172   4.176   3.600
 1310SOL    HW1 4829   1.248   4.168   3.664
 1310SOL    HW2 4830   1.193   4.247   3.532
 1311SOL     OW 4831   6.962   6.084   0.729
 1311SOL    HW1 4832   7.009   6.062   0.815
 1311SOL    HW2 4833   6.964   6.183   0.715
 1312SOL     OW 4834   2.523   0.479   6.362
 1312SOL    HW1 4835   2.567   0.549   6.418
 1312SOL    HW2 4836   2.450   0.520   6.308
 1313SOL     OW 4837   6.461   5.760   2.661
 1313SOL    HW1 4838   6.413   5.696   2.601
 1313SOL    HW2 4839   6.456   5.852   2.623
 1314SOL     OW 4840   2.818   1.403   5.216
 1314SOL    HW1 4841   2.806   1.499   5.192
 1314SOL    HW2 4842   2.760   1.346   5.157
 1315SOL     OW 4843   6.222   1.451   3.724
 1315SOL    HW1 4844   6.295   1.477   3.788
 1315SOL    HW2 4845   6.161   1.385   3.768
 1316SOL     OW 4846   4.125   0.577   4.913
 1316SOL    HW1 4847   4.169   0.487   4.913
 1316SOL    HW2 4848   4.117   0.611   5.006
 1317SOL     OW 4849   2.706   3.400   5.665
 1317SOL    HW1 4850   2.784   3.463   5.666
 1317SOL    HW2 4851   2.684   3.376   5.571
 1318SOL     OW 4852   1.931   2.787   6.355
 1318SOL    HW1 4853   1.867   2.855   6.320
 1318SOL    HW2 4854   1.893   2.745   6.438
 1319SOL     OW 4855   0.061   6.557   0.964
 1319SOL    HW1 4856   0.118   6.639   0.964
 1319SOL    HW2 4857   0.081   6.503   1.046
 1320SOL     OW 4858   3.093   2.801   5.574
 1320SOL    HW1 4859   3.110   2.892   5.613
 1320SOL    HW2 4860   3.104   2.805   5.475
 1321SOL     OW 4861   5.619   2.610   6.864
 1321SOL    HW1 4862   5.565   2.693   6.875
 1321SOL    HW2 4863   5.667   2.612   6.777
 1322SOL     OW 4864   3.168   1.254   0.780
 1322SOL    HW1 4865   3.127   1.318   0.715
 1322SOL    HW2 4866   3.267   1.264   0.780
 1323SOL     OW 4867   4.238   6.985   0.200
 1323SOL    HW1 4868   4.171   0.016   0.145
 1323SOL    HW2 4869   4.234   0.000   0.294
 1324SOL     OW 4870   1.260   3.582   6.931
 1324SOL    HW1 4871   1.334   3.583   6.863
 1324SOL    HW2 4872   1.237   3.676   6.957
 1325SOL     OW 4873   2.921   5.157   6.297
 1325SOL    HW1 4874   2.930   5.200   6.387
 1325SOL    HW2 4875   2.910   5.229   6.228
 1326SOL     OW 4876   5.115   3.253   3.640
 1326SOL    HW1 4877   5.021   3.230   3.667
 1326SOL    HW2 4878   5.164   3.170   3.616
 1327SOL     OW 4879   6.354   5.865   1.354
 1327SOL    HW1 4880   6.335   5.936   1.422
 1327SOL    HW2 4881   6.438   5.888   1.305
 1328SOL     OW 4882   1.603   3.311   5.721
 1328SOL    HW1 4883   1.652   3.397   5.717
 1328SOL    HW2 4884   1.582   3.289   5.816
 1329SOL     OW 4885   0.821   3.011   2.979
 1329SOL    HW1 4886   0.792   3.107   2.974
 1329SOL    HW2 4887   0.757   2.961   3.037
 1330SOL     OW 4888   6.661   3.414   1.374
 1330SOL    HW1 4889   6.629   3.497   1.419
 1330SOL    HW2 4890   6.674   3.342   1.442
 1331SOL     OW 4891   4.777   1.711   3.148
 1331SOL    HW1 4892   4.681   1.705   3.175
 1331SOL    HW2 4893   4.832   1.738   3.226
 1332SOL     OW 4894   1.667   6.177   0.275
 1332SOL    HW1 4895   1.727   6.120   0.218
 1332SOL    HW2 4896   1.589   6.122   0.305
 1333SOL     OW 4897   3.530   4.092   3.426
 1333SOL    HW1 4898   3.444   4.105   3.476
 1333SOL    HW2 4899   3.568   4.002   3.446
 1334SOL     OW 4900   0.197   3.144   2.274
 1334SOL    HW1 4901   0.144   3.218   2.233
 1334SOL    HW2 4902   0.290   3.176   2.292
 1335SOL     OW 4903   1.277   3.542   2.251
 1335SOL    HW1 4904   1.358   3.526   2.308
 1335SOL    HW2 4905   1.204   3.581   2.308
 1336SOL     OW 4906   3.220   0.553   5.214
 1336SOL    HW1 4907   3.268   0.509   5.138
 1336SOL    HW2 4908   3.173   0.635   5.182
 1337SOL     OW 4909   6.904   1.366   3.630
 1337SOL    HW1 4910   6.810   1.378   3.662
 1337SOL    HW2 4911   6.921   1.269   3.612
 1338SOL     OW 4912   6.218   4.474   5.403
 1338SOL    HW1 4913   6.257   4.526   5.327
 1338SOL    HW2 4914   6.290   4.420   5.447
 1339SOL     OW 4915   0.299   0.768   6.728
 1339SOL    HW1 4916   0.261   0.693   6.783
 1339SOL    HW2 4917   0.277   0.855   6.771
 1340SOL     OW 4918   4.629   2.224   1.569
 1340SOL    HW1 4919   4.551   2.224   1.507
 1340SOL    HW2 4920   4.636   2.135   1.614
 1341SOL     OW 4921   4.696   7.013   6.959
 1341SOL    HW1 4922   4.671   6.960   6.878
 1341SOL    HW2 4923   4.723   6.952   0.015
 1342SOL     OW 4924   2.375   6.247   0.924
 1342SOL    HW1 4925   2.384   6.251   0.825
 1342SOL    HW2 4926   2.279   6.236   0.949
 1343SOL     OW 4927   5.691   6.087   3.242
 1343SOL    HW1 4928   5.686   6.028   3.323
 1343SOL    HW2 4929   5.621   6.159   3.250
 1344SOL     OW 4930   0.269   0.351   4.970
 1344SOL    HW1 4931   0.303   0.407   4.894
 1344SOL    HW2 4932   0.347   0.316   5.023
 1345SOL     OW 4933   0.185   5.868   1.251
 1345SOL    HW1 4934   0.213   5.954   1.209
 1345SOL    HW2 4935   0.123   5.887   1.327
 1346SOL     OW 4936   2.854   5.063   5.953
 1346SOL    HW1 4937   2.902   5.118   6.022
 1346SOL    HW2 4938   2.852   5.112   5.866
 1347SOL     OW 4939   1.422   6.958   6.678
 1347SOL    HW1 4940   1.511   6.913   6.690
 1347SOL    HW2 4941   1.402   6.967   6.581
 1348SOL     OW 4942   0.265   6.652   5.370
 1348SOL    HW1 4943   0.165   6.644   5.367
 1348SOL    HW2 4944   0.303   6.576   5.422
 1349SOL     OW 4945   4.948   3.373   3.910
 1349SOL    HW1 4946   4.933   3.330   3.999
 1349SOL    HW2 4947   4.939   3.473   3.920
 1350SOL     OW 4948   3.328   3.664   0.349
 1350SOL    HW1 4949   3.322   3.584   0.289
 1350SOL    HW2 4950   3.414   3.712   0.333
 1351SOL     OW 4951   6.764   2.635   5.563
 1351SOL    HW1 4952   6.746   2.712   5.502
 1351SOL    HW2 4953   6.704   2.559   5.538
 1352SOL     OW 4954   0.086   0.530   2.326
 1352SOL    HW1 4955   0.056   0.617   2.364
 1352SOL    HW2 4956   0.111   0.543   2.230
 1353SOL     OW 4957   0.559   1.096   0.815
 1353SOL    HW1 4958   0.628   1.124   0.881
 1353SOL    HW2 4959   0.469   1.098   0.859
 1354SOL     OW 4960   5.390   4.946   2.312
 1354SOL    HW1 4961   5.326   4.877   2.278
 1354SOL    HW2 4962   5.479   4.905   2.326
 1355SOL     OW 4963   6.188   3.612   5.244
 1355SOL    HW1 4964   6.114   3.624   5.310
 1355SOL    HW2 4965   6.152   3.577   5.158
 1356SOL     OW 4966   3.463   2.914   1.398
 1356SOL    HW1 4967   3.396   2.865   1.454
 1356SOL    HW2 4968   3.537   2.947   1.457
 1357SOL     OW 4969   6.913   3.515   5.528
 1357SOL    HW1 4970   6.962   3.588   5.480
 1357SOL    HW2 4971   6.898   3.541   5.623
 1358SOL     OW 4972   1.749   6.897   6.483
 1358SOL    HW1 4973   1.755   6.880   6.582
 1358SOL    HW2 4974   1.783   6.989   6.463
 1359SOL     OW 4975   6.637   4.207   1.966
 1359SOL    HW1 4976   6.616   4.275   1.896
 1359SOL    HW2 4977   6.614   4.245   2.056
 1360SOL     OW 4978   2.438   2.390   7.010
 1360SOL    HW1 4979   2.442   2.490   7.004
 1360SOL    HW2 4980   2.433   2.351   6.918
 1361SOL     OW 4981   6.529   5.055   4.486
 1361SOL    HW1 4982   6.506   5.041   4.390
 1361SOL    HW2 4983   6.600   4.990   4.514
 1362SOL     OW 4984   3.257   2.984   2.850
 1362SOL    HW1 4985   3.204   3.010   2.769
 1362SOL    HW2 4986   3.341   2.939   2.822
 1363SOL     OW 4987   0.715   6.287   5.269
 1363SOL    HW1 4988   0.716   6.190   5.243
 1363SOL    HW2 4989   0.630   6.329   5.240
 1364SOL     OW 4990   3.777   3.838   1.248
 1364SOL    HW1 4991   3.709   3.909   1.231
 1364SOL    HW2 4992   3.736   3.748   1.232
 1365SOL     OW 4993   0.149   3.766   6.993
 1365SOL    HW1 4994   0.130   3.748   6.897
 1365SOL    HW2 4995   0.062   3.771   0.025
 1366SOL     OW 4996   2.468   6.989   5.062
 1366SOL    HW1 4997   2.514   0.019   5.137
 1366SOL    HW2 4998   2.490   0.017   4.976
 1367SOL     OW 4999   1.857   1.102   2.435
 1367SOL    HW1 5000   1.803   1.076   2.515
 1367SOL    HW2 5001   1.954   1.093   2.455
 1368SOL     OW 5002   5.924   6.552   4.103
 1368SOL    HW1 5003   6.017   6.518   4.120
 1368SOL    HW2 5004   5.864   6.475   4.082
 1369SOL     OW 5005   0.736   0.504   3.091
 1369SOL    HW1 5006   0.651   0.489   3.142
 1369SOL    HW2 5007   0.729   0.459   3.002
 1370SOL     OW 5008   2.425   1.101   1.411
 1370SOL    HW1 5009   2.374   1.173   1.459
 1370SOL    HW2 5010   2.485   1.055   1.476
 1371SOL     OW 5011   4.067   1.111   6.492
 1371SOL    HW1 5012   4.063   1.021   6.449
 1371SOL    HW2 5013   4.149   1.159   6.461
 1372SOL     OW 5014   3.570   2.086   2.224
 1372SOL    HW1 5015   3.595   2.106   2.130
 1372SOL    HW2 5016   3.537   1.992   2.231
 1373SOL     OW 5017   1.208   5.809   1.251
 1373SOL    HW1 5018   1.264   5.797   1.332
 1373SOL    HW2 5019   1.111   5.799   1.275
 1374SOL     OW 5020   4.995   2.908   0.289
 1374SOL    HW1 5021   5.049   2.991   0.274
 1374SOL    HW2 5022   4.987   2.857   0.203
 1375SOL     OW 5023   0.676   4.197   5.579
 1375SOL    HW1 5024   0.702   4.146   5.497
 1375SOL    HW2 5025   0.589   4.162   5.614
 1376SOL     OW 5026   4.919   1.882   2.245
 1376SOL    HW1 5027   4.839   1.849   2.196
 1376SOL    HW2 5028   4.956   1.809   2.302
 1377SOL     OW 5029   0.470   5.515   4.945
 1377SOL    HW1 5030   0.477   5.420   4.912
 1377SOL    HW2 5031   0.543   5.532   5.012
 1378SOL     OW 5032   1.303   2.092   0.731
 1378SOL    HW1 5033   1.400   2.103   0.706
 1378SOL    HW2 5034   1.247   2.103   0.649
 1379SOL     OW 5035   3.918   5.974   1.836
 1379SOL    HW1 5036   3.950   5.920   1.913
 1379SOL    HW2 5037   3.874   6.058   1.869
 1380SOL     OW 5038   6.266   6.513   2.485
 1380SOL    HW1 5039   6.201   6.438   2.470
 1380SOL    HW2 5040   6.322   6.494   2.565
 1381SOL     OW 5041   5.942   1.361   1.416
 1381SOL    HW1 5042   5.877   1.367   1.491
 1381SOL    HW2 5043   6.034   1.347   1.452
 1382SOL     OW 5044   6.269   5.045   6.561
 1382SOL    HW1 5045   6.232   4.964   6.516
 1382SOL    HW2 5046   6.228   5.127   6.520
 1383SOL     OW 5047   2.455   6.929   0.683
 1383SOL    HW1 5048   2.426   6.906   0.590
 1383SOL    HW2 5049   2.553   6.946   0.684
 1384SOL     OW 5050   3.493   2.047   2.809
 1384SOL    HW1 5051   3.458   2.092   2.891
 1384SOL    HW2 5052   3.426   2.056   2.735
 1385SOL     OW 5053   5.675   2.925   2.657
 1385SOL    HW1 5054   5.751   2.884   2.606
 1385SOL    HW2 5055   5.627   2.854   2.708
 1386SOL     OW 5056   2.257   2.356   4.182
 1386SOL    HW1 5057   2.221   2.373   4.090
 1386SOL    HW2 5058   2.198   2.402   4.249
 1387SOL     OW 5059   2.484   0.576   5.104
 1387SOL    HW1 5060   2.434   0.558   5.189
 1387SOL    HW2 5061   2.436   0.647   5.052
 1388SOL     OW 5062   6.595   0.667   4.895
 1388SOL    HW1 5063   6.577   0.763   4.913
 1388SOL    HW2 5064   6.606   0.618   4.981
 1389SOL     OW 5065   6.945   0.680   4.835
 1389SOL    HW1 5066   6.866   0.628   4.869
 1389SOL    HW2 5067   6.992   0.722   4.912
 1390SOL     OW 5068   4.721   2.693   2.551
 1390SOL    HW1 5069   4.778   2.770   2.523
 1390SOL    HW2 5070   4.656   2.672   2.478
 1391SOL     OW 5071   5.943   1.369   4.564
 1391SOL    HW1 5072   5.921   1.411   4.475
 1391SOL    HW2 5073   5.888   1.286   4.576
 1392SOL     OW 5074   4.466   5.094   5.983
 1392SOL    HW1 5075   4.384   5.108   5.928
 1392SOL    HW2 5076   4.490   5.179   6.031
 1393SOL     OW 5077   6.033   0.577   6.596
 1393SOL    HW1 5078   5.993   0.623   6.517
 1393SOL    HW2 5079   6.038   0.478   6.578
 1394SOL     OW 5080   4.200   0.187   4.141
 1394SOL    HW1 5081   4.209   0.253   4.215
 1394SOL    HW2 5082   4.140   0.113   4.171
 1395SOL     OW 5083   0.871   5.410   2.367
 1395SOL    HW1 5084   0.904   5.466   2.442
 1395SOL    HW2 5085   0.939   5.339   2.346
 1396SOL     OW 5086   1.987   1.502   3.923
 1396SOL    HW1 5087   1.985   1.433   3.851
 1396SOL    HW2 5088   1.944   1.465   4.006
 1397SOL     OW 5089   0.706   5.727   4.366
 1397SOL    HW1 5090   0.636   5.700   4.300
 1397SOL    HW2 5091   0.662   5.763   4.448
 1398SOL     OW 5092   1.013   6.515   0.665
 1398SOL    HW1 5093   1.091   6.578   0.671
 1398SOL    HW2 5094   0.929   6.568   0.657
 1399SOL     OW 5095   4.168   0.338   0.280
 1399SOL    HW1 5096   4.173   0.266   0.211
 1399SOL    HW2 5097   4.142   0.299   0.368
 1400SOL     OW 5098   0.290   0.673   4.958
 1400SOL    HW1 5099   0.364   0.685   5.024
 1400SOL    HW2 5100   0.316   0.603   4.892
 1401SOL     OW 5101   5.510   0.228   2.506
 1401SOL    HW1 5102   5.582   0.166   2.476
 1401SOL    HW2 5103   5.536   0.271   2.592
 1402SOL     OW 5104   6.845   4.884   2.665
 1402SOL    HW1 5105   6.777   4.840   2.723
 1402SOL    HW2 5106   6.884   4.963   2.712
 1403SOL     OW 5107   3.223   3.411   6.703
 1403SOL    HW1 5108   3.210   3.394   6.605
 1403SOL    HW2 5109   3.232   3.324   6.751
 1404SOL     OW 5110   3.774   6.980   0.458
 1404SOL    HW1 5111   3.745   6.906   0.397
 1404SOL    HW2 5112   3.803   0.040   0.402
 1405SOL     OW 5113   0.779   3.838   1.624
 1405SOL    HW1 5114   0.719   3.918   1.627
 1405SOL    HW2 5115   0.807   3.820   1.530
 1406SOL     OW 5116   2.015   3.495   0.636
 1406SOL    HW1 5117   1.987   3.476   0.731
 1406SOL    HW2 5118   2.110   3.525   0.635
 1407SOL     OW 5119   0.179   3.061   1.348
 1407SOL    HW1 5120   0.098   3.056   1.406
 1407SOL    HW2 5121   0.235   3.139   1.377
 1408SOL     OW 5122   5.721   6.698   1.112
 1408SOL    HW1 5123   5.709   6.604   1.079
 1408SOL    HW2 5124   5.741   6.696   1.210
 1409SOL     OW 5125   6.598   0.859   5.929
 1409SOL    HW1 5126   6.627   0.781   5.874
 1409SOL    HW2 5127   6.609   0.837   6.026
 1410SOL     OW 5128   3.775   0.424   6.202
 1410SOL    HW1 5129   3.846   0.492   6.220
 1410SOL    HW2 5130   3.685   0.463   6.221
 1411SOL     OW 5131   3.605   5.234   6.949
 1411SOL    HW1 5132   3.592   5.170   0.006
 1411SOL    HW2 5133   3.667   5.194   6.881
 1412SOL     OW 5134   2.636   2.761   0.011
 1412SOL    HW1 5135   2.661   2.857   0.002
 1412SOL    HW2 5136   2.716   2.708   0.041
 1413SOL     OW 5137   1.353   1.711   4.897
 1413SOL    HW1 5138   1.447   1.695   4.864
 1413SOL    HW2 5139   1.321   1.799   4.864
 1414SOL     OW 5140   0.532   4.288   2.685
 1414SOL    HW1 5141   0.574   4.378   2.696
 1414SOL    HW2 5142   0.597   4.226   2.641
 1415SOL     OW 5143   2.665   1.328   5.023
 1415SOL    HW1 5144   2.662   1.369   4.932
 1415SOL    HW2 5145   2.618   1.240   5.022
 1416SOL     OW 5146   4.444   0.509   4.755
 1416SOL    HW1 5147   4.391   0.558   4.686
 1416SOL    HW2 5148   4.522   0.464   4.710
 1417SOL     OW 5149   3.558   3.440   5.895
 1417SOL    HW1 5150   3.657   3.438   5.899
 1417SOL    HW2 5151   3.520   3.391   5.973
 1418SOL     OW 5152   4.015   4.350   5.608
 1418SOL    HW1 5153   3.987   4.346   5.512
 1418SOL    HW2 5154   3.937   4.372   5.665
 1419SOL     OW 5155   1.201   5.864   2.329
 1419SOL    HW1 5156   1.179   5.767   2.334
 1419SOL    HW2 5157   1.197   5.894   2.234
 1420SOL     OW 5158   2.719   6.794   3.051
 1420SOL    HW1 5159   2.706   6.865   3.121
 1420SOL    HW2 5160   2.630   6.762   3.019
 1421SOL     OW 5161   1.104   4.935   6.048
 1421SOL    HW1 5162   1.164   4.856   6.063
 1421SOL    HW2 5163   1.064   4.928   5.956
 1422SOL     OW 5164   2.157   2.936   6.008
 1422SOL    HW1 5165   2.058   2.941   5.998
 1422SOL    HW2 5166   2.181   2.921   6.104
 1423SOL     OW 5167   4.005   0.910   4.516
 1423SOL    HW1 5168   4.017   0.840   4.587
 1423SOL    HW2 5169   3.998   1.000   4.558
 1424SOL     OW 5170   5.988   3.030   0.528
 1424SOL    HW1 5171   6.063   3.062   0.471
 1424SOL    HW2 5172   6.006   3.054   0.624
 1425SOL     OW 5173   5.350   0.072   3.503
 1425SOL    HW1 5174   5.386   0.117   3.585
 1425SOL    HW2 5175   5.354   0.136   3.425
 1426SOL     OW 5176   3.403   1.391   6.995
 1426SOL    HW1 5177   3.363   1.305   6.964
 1426SOL    HW2 5178   3.407   1.391   0.076
 1427SOL     OW 5179   1.616   0.519   3.714
 1427SOL    HW1 5180   1.638   0.449   3.783
 1427SOL    HW2 5181   1.518   0.518   3.697
 1428SOL     OW 5182   0.736   2.946   3.886
 1428SOL    HW1 5183   0.708   3.017   3.951
 1428SOL    HW2 5184   0.714   2.856   3.924
 1429SOL     OW 5185   6.471   0.912   1.716
 1429SOL    HW1 5186   6.421   0.848   1.775
 1429SOL    HW2 5187   6.482   0.873   1.625
 1430SOL     OW 5188   2.086   3.347   3.944
 1430SOL    HW1 5189   2.176   3.314   3.916
 1430SOL    HW2 5190   2.015   3.303   3.890
 1431SOL     OW 5191   2.778   0.970   6.975
 1431SOL    HW1 5192   2.805   1.065   6.955
 1431SOL    HW2 5193   2.696   0.970   0.013
 1432SOL     OW 5194   3.409   0.918   2.200
 1432SOL    HW1 5195   3.501   0.931   2.235
 1432SOL    HW2 5196   3.343   0.926   2.274
 1433SOL     OW 5197   2.643   0.415   4.130
 1433SOL    HW1 5198   2.701   0.496   4.119
 1433SOL    HW2 5199   2.635   0.367   4.043
 1434SOL     OW 5200   6.563   3.894   0.296
 1434SOL    HW1 5201   6.653   3.866   0.331
 1434SOL    HW2 5202   6.540   3.839   0.216
 1435SOL     OW 5203   1.704   0.353   3.945
 1435SOL    HW1 5204   1.787   0.376   3.997
 1435SOL    HW2 5205   1.624   0.364   4.004
 1436SOL     OW 5206   5.254   1.144   0.512
 1436SOL    HW1 5207   5.236   1.233   0.554
 1436SOL    HW2 5208   5.352   1.133   0.496
 1437SOL     OW 5209   4.147   0.622   6.802
 1437SOL    HW1 5210   4.061   0.671   6.791
 1437SOL    HW2 5211   4.208   0.642   6.725
 1438SOL     OW 5212   2.325   0.513   2.422
 1438SOL    HW1 5213   2.381   0.528   2.341
 1438SOL    HW2 5214   2.369   0.556   2.501
 1439SOL     OW 5215   0.412   4.492   6.731
 1439SOL    HW1 5216   0.434   4.575   6.679
 1439SOL    HW2 5217   0.345   4.514   6.801
 1440SOL     OW 5218   3.476   3.014   2.558
 1440SOL    HW1 5219   3.561   2.993   2.607
 1440SOL    HW2 5220   3.467   2.952   2.480
 1441SOL     OW 5221   6.526   3.130   4.246
 1441SOL    HW1 5222   6.586   3.118   4.167
 1441SOL    HW2 5223   6.564   3.080   4.324
 1442SOL     OW 5224   5.469   6.715   6.868
 1442SOL    HW1 5225   5.541   6.713   6.799
 1442SOL    HW2 5226   5.491   6.785   6.937
 1443SOL     OW 5227   1.032   2.361   3.130
 1443SOL    HW1 5228   0.955   2.383   3.189
 1443SOL    HW2 5229   1.115   2.403   3.166
 1444SOL     OW 5230   5.677   0.691   4.969
 1444SOL    HW1 5231   5.600   0.668   4.910
 1444SOL    HW2 5232   5.762   0.660   4.926
 1445SOL     OW 5233   6.113   2.269   0.769
 1445SOL    HW1 5234   6.028   2.321   0.763
 1445SOL    HW2 5235   6.094   2.176   0.800
 1446SOL     OW 5236   3.987   0.507   0.876
 1446SOL    HW1 5237   4.007   0.411   0.892
 1446SOL    HW2 5238   3.894   0.527   0.905
 1447SOL     OW 5239   5.268   1.559   5.059
 1447SOL    HW1 5240   5.321   1.642   5.073
 1447SOL    HW2 5241   5.250   1.515   5.147
 1448SOL     OW 5242   5.830   0.265   6.874
 1448SOL    HW1 5243   5.793   0.222   6.792
 1448SOL    HW2 5244   5.893   0.202   6.919
 1449SOL     OW 5245   4.751   5.468   0.728
 1449SOL    HW1 5246   4.693   5.449   0.807
 1449SOL    HW2 5247   4.695   5.497   0.650
 1450SOL     OW 5248   5.443   1.939   4.116
 1450SOL    HW1 5249   5.367   1.940   4.051
 1450SOL    HW2 5250   5.430   2.011   4.184
 1451SOL     OW 5251   1.726   0.130   2.317
 1451SOL    HW1 5252   1.686   0.181   2.240
 1451SOL    HW2 5253   1.732   0.033   2.293
 1452SOL     OW 5254   4.311   0.386   4.957
 1452SOL    HW1 5255   4.307   0.286   4.961
 1452SOL    HW2 5256   4.378   0.414   4.887
 1453SOL     OW 5257   4.896   4.249   4.459
 1453SOL    HW1 5258   4.831   4.232   4.533
 1453SOL    HW2 5259   4.989   4.252   4.496
 1454SOL     OW 5260   4.429   4.040   1.431
 1454SOL    HW1 5261   4.487   3.968   1.470
 1454SOL    HW2 5262   4.460   4.059   1.337
 1455SOL     OW 5263   2.381   2.242   1.465
 1455SOL    HW1 5264   2.286   2.259   1.494
 1455SOL    HW2 5265   2.442   2.305   1.513
 1456SOL     OW 5266   6.574   5.252   4.015
 1456SOL    HW1 5267   6.602   5.298   4.099
 1456SOL    HW2 5268   6.544   5.158   4.037
 1457SOL     OW 5269   1.726   0.495   3.469
 1457SOL    HW1 5270   1.785   0.415   3.458
 1457SOL    HW2 5271   1.705   0.509   3.565
 1458SOL     OW 5272   6.830   5.231   7.005
 1458SOL    HW1 5273   6.816   5.133   0.004
 1458SOL    HW2 5274   6.743   5.274   6.982
 1459SOL     OW 5275   2.415   6.855   0.987
 1459SOL    HW1 5276   2.448   6.868   0.894
 1459SOL    HW2 5277   2.418   6.942   1.036
 1460SOL     OW 5278   0.607   6.250   0.982
 1460SOL    HW1 5279   0.612   6.275   0.885
 1460SOL    HW2 5280   0.669   6.309   1.034
 1461SOL     OW 5281   4.373   4.737   1.545
 1461SOL    HW1 5282   4.294   4.795   1.520
 1461SOL    HW2 5283   4.441   4.792   1.593
 1462SOL     OW 5284   5.167   0.511   5.276
 1462SOL    HW1 5285   5.170   0.430   5.334
 1462SOL    HW2 5286   5.073   0.527   5.245
 1463SOL     OW 5287   0.409   1.126   5.139
 1463SOL    HW1 5288   0.377   1.132   5.044
 1463SOL    HW2 5289   0.450   1.036   5.154
 1464SOL     OW 5290   0.208   0.270   1.663
 1464SOL    HW1 5291   0.305   0.274   1.639
 1464SOL    HW2 5292   0.170   0.183   1.632
 1465SOL     OW 5293   0.606   0.159   4.898
 1465SOL    HW1 5294   0.524   0.113   4.931
 1465SOL    HW2 5295   0.652   0.101   4.831
 1466SOL     OW 5296   5.391   5.310   4.411
 1466SOL    HW1 5297   5.393   5.304   4.311
 1466SOL    HW2 5298   5.479   5.345   4.444
 1467SOL     OW 5299   6.055   3.763   2.730
 1467SOL    HW1 5300   6.039   3.831   2.659
 1467SOL    HW2 5301   5.972   3.752   2.784
 1468SOL     OW 5302   5.292   5.989   2.799
 1468SOL    HW1 5303   5.281   6.058   2.728
 1468SOL    HW2 5304   5.348   6.025   2.873
 1469SOL     OW 5305   0.481   0.991   2.828
 1469SOL    HW1 5306   0.562   0.963   2.880
 1469SOL    HW2 5307   0.461   0.922   2.758
 1470SOL     OW 5308   0.149   0.715   3.346
 1470SOL    HW1 5309   0.148   0.625   3.389
 1470SOL    HW2 5310   0.060   0.758   3.357
 1471SOL     OW 5311   6.275   0.655   0.318
 1471SOL    HW1 5312   6.319   0.688   0.402
 1471SOL    HW2 5313   6.345   0.619   0.256
 1472SOL     OW 5314   4.511   5.735   5.115
 1472SOL    HW1 5315   4.502   5.750   5.214
 1472SOL    HW2 5316   4.606   5.754   5.087
 1473SOL     OW 5317   5.846   4.313   3.471
 1473SOL    HW1 5318   5.771   4.316   3.405
 1473SOL    HW2 5319   5.838   4.230   3.527
 1474SOL     OW 5320   4.565   5.095   3.661
 1474SOL    HW1 5321   4.540   5.149   3.581
 1474SOL    HW2 5322   4.482   5.075   3.714
 1475SOL     OW 5323   6.829   0.684   3.212
 1475SOL    HW1 5324   6.746   0.695   3.268
 1475SOL    HW2 5325   6.858   0.773   3.177
 1476SOL     OW 5326   6.040   1.862   1.538
 1476SOL    HW1 5327   5.973   1.869   1.612
 1476SOL    HW2 5328   5.994   1.851   1.451
 1477SOL     OW 5329   3.281   6.514   3.135
 1477SOL    HW1 5330   3.311   6.508   3.230
 1477SOL    HW2 5331   3.230   6.599   3.122
 1478SOL     OW 5332   6.690   4.849   2.158
 1478SOL    HW1 5333   6.623   4.904   2.108
 1478SOL    HW2 5334   6.769   4.906   2.182
 1479SOL     OW 5335   1.369   5.226   0.789
 1479SOL    HW1 5336   1.285   5.195   0.835
 1479SOL    HW2 5337   1.384   5.323   0.810
 1480SOL     OW 5338   2.602   1.003   0.155
 1480SOL    HW1 5339   2.639   0.927   0.208
 1480SOL    HW2 5340   2.531   1.049   0.207
 1481SOL     OW 5341   0.067   2.547   5.828
 1481SOL    HW1 5342   0.119   2.466   5.800
 1481SOL    HW2 5343   0.037   2.535   5.923
 1482SOL     OW 5344   5.755   1.004   6.159
 1482SOL    HW1 5345   5.845   1.039   6.134
 1482SOL    HW2 5346   5.698   1.080   6.191
 1483SOL     OW 5347   6.232   2.799   6.563
 1483SOL    HW1 5348   6.152   2.811   6.622
 1483SOL    HW2 5349   6.266   2.705   6.571
 1484SOL     OW 5350   6.920   6.709   3.131
 1484SOL    HW1 5351   6.865   6.698   3.048
 1484SOL    HW2 5352   6.914   6.805   3.161
 1485SOL     OW 5353   5.722   3.017   4.376
 1485SOL    HW1 5354   5.690   3.035   4.283
 1485SOL    HW2 5355   5.702   2.922   4.400
 1486SOL     OW 5356   4.918   2.380   1.982
 1486SOL    HW1 5357   4.852   2.359   2.055
 1486SOL    HW2 5358   4.900   2.471   1.945
 1487SOL     OW 5359   6.583   1.232   5.280
 1487SOL    HW1 5360   6.627   1.142   5.287
 1487SOL    HW2 5361   6.490   1.226   5.316
 1488SOL     OW 5362   4.284   2.088   2.701
 1488SOL    HW1 5363   4.351   2.161   2.717
 1488SOL    HW2 5364   4.196   2.129   2.678
 1489SOL     OW 5365   4.003   4.963   4.827
 1489SOL    HW1 5366   4.032   5.042   4.880
 1489SOL    HW2 5367   4.082   4.905   4.806
 1490SOL     OW 5368   2.165   2.587   0.812
 1490SOL    HW1 5369   2.264   2.594   0.809
 1490SOL    HW2 5370   2.138   2.523   0.884
 1491SOL     OW 5371   7.000   2.458   5.601
 1491SOL    HW1 5372   0.021   2.506   5.679
 1491SOL    HW2 5373   6.912   2.500   5.577
 1492SOL     OW 5374   5.154   2.599   1.852
 1492SOL    HW1 5375   5.059   2.578   1.828
 1492SOL    HW2 5376   5.203   2.628   1.770
 1493SOL     OW 5377   5.411   0.598   4.849
 1493SOL    HW1 5378   5.337   0.642   4.800
 1493SOL    HW2 5379   5.407   0.624   4.946
 1494SOL     OW 5380   5.035   2.117   4.141
 1494SOL    HW1 5381   4.986   2.147   4.223
 1494SOL    HW2 5382   5.089   2.192   4.104
 1495SOL     OW 5383   1.941   2.442   2.263
 1495SOL    HW1 5384   1.845   2.426   2.290
 1495SOL    HW2 5385   1.968   2.534   2.292
 1496SOL     OW 5386   0.918   1.341   3.307
 1496SOL    HW1 5387   0.848   1.413   3.303
 1496SOL    HW2 5388   0.894   1.276   3.379
 1497SOL     OW 5389   4.958   4.510   5.793
 1497SOL    HW1 5390   5.039   4.468   5.834
 1497SOL    HW2 5391   4.904   4.554   5.864
 1498SOL     OW 5392   1.797   5.967   0.098
 1498SOL    HW1 5393   1.884   5.927   0.068
 1498SOL    HW2 5394   1.768   5.924   0.184
 1499SOL     OW 5395   0.406   4.796   4.846
 1499SOL    HW1 5396   0.423   4.775   4.750
 1499SOL    HW2 5397   0.329   4.860   4.853
 1500SOL     OW 5398   4.181   6.663   5.252
 1500SOL    HW1 5399   4.173   6.721   5.172
 1500SOL    HW2 5400   4.251   6.593   5.236
 1501SOL     OW 5401   4.352   0.463   6.456
 1501SOL    HW1 5402   4.287   0.522   6.503
 1501SOL    HW2 5403   4.308   0.422   6.376
 1502SOL     OW 5404   6.756   6.434   0.131
 1502SOL    HW1 5405   6.852   6.459   0.145
 1502SOL    HW2 5406   6.715   6.410   0.219
 1503SOL     OW 5407   3.482   3.781   5.198
 1503SOL    HW1 5408   3.411   3.824   5.254
 1503SOL    HW2 5409   3.567   3.832   5.208
 1504SOL     OW 5410   2.902   6.279   4.338
 1504SOL    HW1 5411   2.931   6.218   4.412
 1504SOL    HW2 5412   2.910   6.231   4.250
 1505SOL     OW 5413   5.028   4.867   1.564
 1505SOL    HW1 5414   5.052   4.772   1.584
 1505SOL    HW2 5415   4.939   4.870   1.518
 1506SOL     OW 5416   0.695   6.301   3.072
 1506SOL    HW1 5417   0.623   6.294   3.003
 1506SOL    HW2 5418   0.693   6.391   3.114
 1507SOL     OW 5419   1.955   0.822   6.336
 1507SOL    HW1 5420   2.031   0.820   6.272
 1507SOL    HW2 5421   1.978   0.883   6.413
 1508SOL     OW 5422   4.625   6.985   0.377
 1508SOL    HW1 5423   4.536   6.942   0.390
 1508SOL    HW2 5424   4.678   6.977   0.461
 1509SOL     OW 5425   5.280   1.758   0.562
 1509SOL    HW1 5426   5.190   1.736   0.600
 1509SOL    HW2 5427   5.290   1.857   0.553
 1510SOL     OW 5428   0.124   2.126   3.781
 1510SOL    HW1 5429   0.177   2.070   3.716
 1510SOL    HW2 5430   0.126   2.221   3.752
 1511SOL     OW 5431   1.555   2.574   0.567
 1511SOL    HW1 5432   1.602   2.659   0.543
 1511SOL    HW2 5433   1.521   2.581   0.661
 1512SOL     OW 5434   5.912   0.361   2.377
 1512SOL    HW1 5435   5.911   0.388   2.473
 1512SOL    HW2 5436   5.910   0.261   2.370
 1513SOL     OW 5437   3.808   1.308   2.860
 1513SOL    HW1 5438   3.811   1.275   2.766
 1513SOL    HW2 5439   3.745   1.385   2.867
 1514SOL     OW 5440   5.330   1.646   5.888
 1514SOL    HW1 5441   5.293   1.582   5.821
 1514SOL    HW2 5442   5.258   1.707   5.919
 1515SOL     OW 5443   6.514   5.212   4.934
 1515SOL    HW1 5444   6.500   5.248   4.842
 1515SOL    HW2 5445   6.577   5.135   4.930
 1516SOL     OW 5446   1.031   1.106   0.965
 1516SOL    HW1 5447   0.968   1.168   0.919
 1516SOL    HW2 5448   1.119   1.106   0.918
 1517SOL     OW 5449   3.590   5.036   3.403
 1517SOL    HW1 5450   3.656   5.070   3.470
 1517SOL    HW2 5451   3.500   5.073   3.424
 1518SOL     OW 5452   1.045   4.732   1.543
 1518SOL    HW1 5453   0.947   4.712   1.535
 1518SOL    HW2 5454   1.096   4.676   1.478
 1519SOL     OW 5455   0.068   5.093   1.046
 1519SOL    HW1 5456   0.110   5.094   0.955
 1519SOL    HW2 5457   0.113   5.161   1.104
 1520SOL     OW 5458   1.265   2.727   2.749
 1520SOL    HW1 5459   1.319   2.645   2.728
 1520SOL    HW2 5460   1.194   2.739   2.680
 1521SOL     OW 5461   2.575   4.203   5.735
 1521SOL    HW1 5462   2.639   4.203   5.658
 1521SOL    HW2 5463   2.584   4.290   5.784
 1522SOL     OW 5464   0.622   2.626   6.555
 1522SOL    HW1 5465   0.627   2.668   6.646
 1522SOL    HW2 5466   0.655   2.531   6.561
 1523SOL     OW 5467   6.773   1.198   0.721
 1523SOL    HW1 5468   6.701   1.252   0.677
 1523SOL    HW2 5469   6.757   1.195   0.820
 1524SOL     OW 5470   6.157   0.917   2.662
 1524SOL    HW1 5471   6.108   0.848   2.716
 1524SOL    HW2 5472   6.252   0.922   2.694
 1525SOL     OW 5473   4.664   1.828   6.032
 1525SOL    HW1 5474   4.571   1.856   6.056
 1525SOL    HW2 5475   4.663   1.780   5.944
 1526SOL     OW 5476   6.819   1.809   0.960
 1526SOL    HW1 5477   6.836   1.711   0.957
 1526SOL    HW2 5478   6.827   1.842   1.054
 1527SOL     OW 5479   3.060   2.088   5.625
 1527SOL    HW1 5480   3.077   2.132   5.537
 1527SOL    HW2 5481   3.022   2.156   5.689
 1528SOL     OW 5482   4.867   6.108   3.441
 1528SOL    HW1 5483   4.838   6.048   3.515
 1528SOL    HW2 5484   4.921   6.056   3.375
 1529SOL     OW 5485   3.090   0.922   5.369
 1529SOL    HW1 5486   3.093   0.901   5.272
 1529SOL    HW2 5487   2.999   0.902   5.406
 1530SOL     OW 5488   3.051   0.001   2.232
 1530SOL    HW1 5489   3.026   6.935   2.185
 1530SOL    HW2 5490   3.085   0.068   2.165
 1531SOL     OW 5491   6.607   0.114   5.627
 1531SOL    HW1 5492   6.604   0.192   5.690
 1531SOL    HW2 5493   6.633   0.146   5.536
 1532SOL     OW 5494   3.446   2.050   5.284
 1532SOL    HW1 5495   3.442   2.057   5.184
 1532SOL    HW2 5496   3.531   2.006   5.311
 1533SOL     OW 5497   5.585   3.019   6.769
 1533SOL    HW1 5498   5.569   3.028   6.867
 1533SOL    HW2 5499   5.553   3.101   6.722
 1534SOL     OW 5500   6.869   6.960   1.747
 1534SOL    HW1 5501   6.864   0.002   1.826
 1534SOL    HW2 5502   6.894   6.868   1.776
 1535SOL     OW 5503   4.561   5.235   3.966
 1535SOL    HW1 5504   4.530   5.229   4.061
 1535SOL    HW2 5505   4.584   5.144   3.932
 1536SOL     OW 5506   2.986   5.577   3.424
 1536SOL    HW1 5507   3.070   5.525   3.441
 1536SOL    HW2 5508   3.005   5.674   3.431
 1537SOL     OW 5509   2.604   5.127   4.120
 1537SOL    HW1 5510   2.568   5.219   4.107
 1537SOL    HW2 5511   2.578   5.069   4.043
 1538SOL     OW 5512   2.747   5.075   6.618
 1538SOL    HW1 5513   2.788   4.985   6.631
 1538SOL    HW2 5514   2.808   5.145   6.655
 1539SOL     OW 5515   3.299   4.802   1.852
 1539SOL    HW1 5516   3.390   4.761   1.854
 1539SOL    HW2 5517   3.291   4.863   1.774
 1540SOL     OW 5518   6.944   0.121   5.198
 1540SOL    HW1 5519   7.011   0.156   5.263
 1540SOL    HW2 5520   6.987   0.054   5.138
 1541SOL     OW 5521   4.938   2.500   0.802
 1541SOL    HW1 5522   5.010   2.557   0.762
 1541SOL    HW2 5523   4.850   2.524   0.762
 1542SOL     OW 5524   0.826   6.008   1.321
 1542SOL    HW1 5525   0.742   5.999   1.268
 1542SOL    HW2 5526   0.876   5.921   1.319
 1543SOL     OW 5527   3.420   4.038   4.192
 1543SOL    HW1 5528   3.372   4.035   4.280
 1543SOL    HW2 5529   3.376   3.974   4.128
 1544SOL     OW 5530   3.651   3.813   2.850
 1544SOL    HW1 5531   3.676   3.910   2.856
 1544SOL    HW2 5532   3.572   3.796   2.910
 1545SOL     OW 5533   6.893   0.602   4.247
 1545SOL    HW1 5534   6.873   0.560   4.336
 1545SOL    HW2 5535   6.817   0.584   4.184
 1546SOL     OW 5536   0.160   6.398   6.084
 1546SOL    HW1 5537   0.230   6.402   6.156
 1546SOL    HW2 5538   0.204   6.408   5.995
 1547SOL     OW 5539   3.562   6.154   6.772
 1547SOL    HW1 5540   3.621   6.096   6.715
 1547SOL    HW2 5541   3.618   6.201   6.840
 1548SOL     OW 5542   6.346   4.410   3.750
 1548SOL    HW1 5543   6.418   4.468   3.712
 1548SOL    HW2 5544   6.338   4.326   3.697
 1549SOL     OW 5545   6.260   1.690   1.468
 1549SOL    HW1 5546   6.173   1.739   1.477
 1549SOL    HW2 5547   6.312   1.700   1.553
 1550SOL     OW 5548   2.672   5.869   3.466
 1550SOL    HW1 5549   2.744   5.897   3.404
 1550SOL    HW2 5550   2.711   5.852   3.557
 1551SOL     OW 5551   0.840   3.073   1.186
 1551SOL    HW1 5552   0.774   3.147   1.193
 1551SOL    HW2 5553   0.846   3.025   1.274
 1552SOL     OW 5554   0.941   6.877   0.503
 1552SOL    HW1 5555   1.036   6.844   0.505
 1552SOL    HW2 5556   0.940   6.977   0.499
 1553SOL     OW 5557   5.789   1.775   6.244
 1553SOL    HW1 5558   5.776   1.697   6.182
 1553SOL    HW2 5559   5.824   1.852   6.191
 1554SOL     OW 5560   2.882   1.822   1.069
 1554SOL    HW1 5561   2.961   1.760   1.069
 1554SOL    HW2 5562   2.915   1.917   1.062
 1555SOL     OW 5563   4.303   1.245   6.368
 1555SOL    HW1 5564   4.393   1.284   6.349
 1555SOL    HW2 5565   4.240   1.270   6.295
 1556SOL     OW 5566   3.089   1.933   6.948
 1556SOL    HW1 5567   3.165   1.913   7.010
 1556SOL    HW2 5568   3.003   1.931   6.999
 1557SOL     OW 5569   1.892   3.158   0.269
 1557SOL    HW1 5570   1.961   3.219   0.309
 1557SOL    HW2 5571   1.930   3.066   0.261
 1558SOL     OW 5572   5.473   2.991   5.986
 1558SOL    HW1 5573   5.489   2.907   5.934
 1558SOL    HW2 5574   5.560   3.035   6.005
 1559SOL     OW 5575   2.618   4.935   3.703
 1559SOL    HW1 5576   2.572   4.881   3.632
 1559SOL    HW2 5577   2.717   4.935   3.686
 1560SOL     OW 5578   4.016   1.545   0.716
 1560SOL    HW1 5579   4.052   1.621   0.770
 1560SOL    HW2 5580   4.068   1.538   0.630
 1561SOL     OW 5581   6.197   6.016   1.197
 1561SOL    HW1 5582   6.270   5.961   1.236
 1561SOL    HW2 5583   6.222   6.113   1.204
 1562SOL     OW 5584   3.418   0.438   2.327
 1562SOL    HW1 5585   3.348   0.430   2.398
 1562SOL    HW2 5586   3.374   0.452   2.238
 1563SOL     OW 5587   2.828   2.269   3.963
 1563SOL    HW1 5588   2.813   2.326   4.044
 1563SOL    HW2 5589   2.888   2.316   3.899
 1564SOL     OW 5590   0.854   1.066   2.897
 1564SOL    HW1 5591   0.799   1.149   2.912
 1564SOL    HW2 5592   0.866   1.018   2.984
 1565SOL     OW 5593   4.338   1.207   5.015
 1565SOL    HW1 5594   4.433   1.177   5.003
 1565SOL    HW2 5595   4.325   1.295   4.968
 1566SOL     OW 5596   5.521   4.975   3.177
 1566SOL    HW1 5597   5.593   4.911   3.151
 1566SOL    HW2 5598   5.441   4.924   3.207
 1567SOL     OW 5599   5.388   0.963   4.608
 1567SOL    HW1 5600   5.389   1.059   4.634
 1567SOL    HW2 5601   5.413   0.954   4.511
 1568SOL     OW 5602   2.878   4.931   1.164
 1568SOL    HW1 5603   2.906   4.959   1.256
 1568SOL    HW2 5604   2.781   4.905   1.165
 1569SOL     OW 5605   3.070   1.041   3.094
 1569SOL    HW1 5606   3.078   1.140   3.095
 1569SOL    HW2 5607   3.126   1.002   3.168
 1570SOL     OW 5608   3.405   5.750   6.214
 1570SOL    HW1 5609   3.398   5.836   6.265
 1570SOL    HW2 5610   3.378   5.674   6.273
 1571SOL     OW 5611   0.444   2.859   3.870
 1571SOL    HW1 5612   0.490   2.821   3.949
 1571SOL    HW2 5613   0.474   2.953   3.856
 1572SOL     OW 5614   2.652   5.172   2.641
 1572SOL    HW1 5615   2.594   5.202   2.566
 1572SOL    HW2 5616   2.595   5.138   2.716
 1573SOL     OW 5617   5.949   5.999   0.099
 1573SOL    HW1 5618   6.032   6.054   0.107
 1573SOL    HW2 5619   5.882   6.031   0.165
 1574SOL     OW 5620   6.666   3.690   3.719
 1574SOL    HW1 5621   6.638   3.640   3.637
 1574SOL    HW2 5622   6.591   3.749   3.749
 1575SOL     OW 5623   6.934   2.176   0.132
 1575SOL    HW1 5624   0.016   2.180   0.135
 1575SOL    HW2 5625   6.905   2.080   0.127
 1576SOL     OW 5626   1.081   6.764   1.509
 1576SOL    HW1 5627   1.170   6.720   1.501
 1576SOL    HW2 5628   1.073   6.838   1.441
 1577SOL     OW 5629   3.824   5.949   5.485
 1577SOL    HW1 5630   3.744   5.904   5.526
 1577SOL    HW2 5631   3.907   5.908   5.521
 1578SOL     OW 5632   4.693   0.785   1.106
 1578SOL    HW1 5633   4.689   0.702   1.161
 1578SOL    HW2 5634   4.775   0.837   1.130
 1579SOL     OW 5635   1.785   2.604   1.562
 1579SOL    HW1 5636   1.840   2.559   1.492
 1579SOL    HW2 5637   1.840   2.672   1.610
 1580SOL     OW 5638   3.192   3.494   2.801
 1580SOL    HW1 5639   3.224   3.552   2.877
 1580SOL    HW2 5640   3.186   3.548   2.718
 1581SOL     OW 5641   6.153   4.675   5.801
 1581SOL    HW1 5642   6.227   4.674   5.734
 1581SOL    HW2 5643   6.094   4.596   5.786
 1582SOL     OW 5644   4.764   6.118   5.020
 1582SOL    HW1 5645   4.836   6.148   4.957
 1582SOL    HW2 5646   4.684   6.089   4.968
 1583SOL     OW 5647   1.204   5.232   4.923
 1583SOL    HW1 5648   1.299   5.216   4.950
 1583SOL    HW2 5649   1.200   5.256   4.826
 1584SOL     OW 5650   6.920   4.618   0.222
 1584SOL    HW1 5651   6.963   4.651   0.306
 1584SOL    HW2 5652   6.828   4.583   0.243
 1585SOL     OW 5653   3.980   6.377   3.555
 1585SOL    HW1 5654   4.038   6.408   3.630
 1585SOL    HW2 5655   4.008   6.286   3.526
 1586SOL     OW 5656   3.453   6.077   3.715
 1586SOL    HW1 5657   3.495   6.130   3.641
 1586SOL    HW2 5658   3.363   6.115   3.737
 1587SOL     OW 5659   2.981   5.997   6.538
 1587SOL    HW1 5660   3.024   6.017   6.626
 1587SOL    HW2 5661   2.998   6.073   6.475
 1588SOL     OW 5662   6.753   1.665   3.290
 1588SOL    HW1 5663   6.735   1.579   3.241
 1588SOL    HW2 5664   6.690   1.735   3.257
 1589SOL     OW 5665   6.394   4.623   4.122
 1589SOL    HW1 5666   6.491   4.637   4.106
 1589SOL    HW2 5667   6.377   4.527   4.145
 1590SOL     OW 5668   6.334   2.681   3.813
 1590SOL    HW1 5669   6.392   2.651   3.738
 1590SOL    HW2 5670   6.312   2.778   3.802
 1591SOL     OW 5671   1.381   6.351   1.614
 1591SOL    HW1 5672   1.418   6.430   1.565
 1591SOL    HW2 5673   1.317   6.302   1.555
 1592SOL     OW 5674   0.073   4.300   6.018
 1592SOL    HW1 5675   0.140   4.231   5.995
 1592SOL    HW2 5676   7.000   4.260   6.018
 1593SOL     OW 5677   3.301   0.311   6.908
 1593SOL    HW1 5678   3.218   0.312   6.964
 1593SOL    HW2 5679   3.351   0.226   6.924
 1594SOL     OW 5680   5.915   0.285   2.642
 1594SOL    HW1 5681   5.868   0.360   2.690
 1594SOL    HW2 5682   5.856   0.204   2.641
 1595SOL     OW 5683   7.012   3.941   0.430
 1595SOL    HW1 5684   0.019   4.035   0.450
 1595SOL    HW2 5685   0.060   3.901   0.366
 1596SOL     OW 5686   4.344   4.649   3.300
 1596SOL    HW1 5687   4.362   4.557   3.335
 1596SOL    HW2 5688   4.282   4.697   3.363
 1597SOL     OW 5689   3.782   6.011   6.694
 1597SOL    HW1 5690   3.751   5.930   6.742
 1597SOL    HW2 5691   3.773   5.997   6.595
 1598SOL     OW 5692   1.767   4.633   0.130
 1598SOL    HW1 5693   1.743   4.730   0.133
 1598SOL    HW2 5694   1.726   4.586   0.208
 1599SOL     OW 5695   4.634   6.096   3.083
 1599SOL    HW1 5696   4.548   6.102   3.034
 1599SOL    HW2 5697   4.629   6.149   3.167
 1600SOL     OW 5698   4.166   0.363   2.039
 1600SOL    HW1 5699   4.097   0.432   2.015
 1600SOL    HW2 5700   4.238   0.362   1.971
 1601SOL     OW 5701   6.430   0.248   5.291
 1601SOL    HW1 5702   6.360   0.277   5.356
 1601SOL    HW2 5703   6.390   0.241   5.199
 1602SOL     OW 5704   3.583   5.830   3.649
 1602SOL    HW1 5705   3.673   5.871   3.663
 1602SOL    HW2 5706   3.513   5.893   3.681
 1603SOL     OW 5707   3.511   5.520   3.157
 1603SOL    HW1 5708   3.522   5.519   3.058
 1603SOL    HW2 5709   3.596   5.489   3.200
 1604SOL     OW 5710   4.274   5.291   1.743
 1604SOL    HW1 5711   4.252   5.387   1.725
 1604SOL    HW2 5712   4.372   5.280   1.752
 1605SOL     OW 5713   4.540   5.222   0.784
 1605SOL    HW1 5714   4.507   5.170   0.863
 1605SOL    HW2 5715   4.545   5.319   0.809
 1606SOL     OW 5716   3.647   5.991   4.922
 1606SOL    HW1 5717   3.718   5.949   4.864
 1606SOL    HW2 5718   3.570   6.019   4.865
 1607SOL     OW 5719   4.579   5.689   2.835
 1607SOL    HW1 5720   4.620   5.598   2.842
 1607SOL    HW2 5721   4.515   5.702   2.911
 1608SOL     OW 5722   5.331   1.586   3.363
 1608SOL    HW1 5723   5.272   1.667   3.350
 1608SOL    HW2 5724   5.426   1.616   3.374
 1609SOL     OW 5725   2.347   6.691   1.216
 1609SOL    HW1 5726   2.413   6.736   1.156
 1609SOL    HW2 5727   2.374   6.595   1.230
 1610SOL     OW 5728   5.658   6.719   0.653
 1610SOL    HW1 5729   5.612   6.734   0.741
 1610SOL    HW2 5730   5.591   6.727   0.579
 1611SOL     OW 5731   1.332   4.448   0.982
 1611SOL    HW1 5732   1.379   4.531   1.012
 1611SOL    HW2 5733   1.304   4.394   1.061
 1612SOL     OW 5734   3.777   0.396   2.017
 1612SOL    HW1 5735   3.842   0.471   2.009
 1612SOL    HW2 5736   3.759   0.378   2.114
 1613SOL     OW 5737   6.752   5.545   2.460
 1613SOL    HW1 5738   6.781   5.573   2.551
 1613SOL    HW2 5739   6.652   5.543   2.456
 1614SOL     OW 5740   6.436   1.753   6.263
 1614SOL    HW1 5741   6.478   1.729   6.350
 1614SOL    HW2 5742   6.458   1.684   6.195
 1615SOL     OW 5743   0.804   3.985   6.309
 1615SOL    HW1 5744   0.808   3.920   6.384
 1615SOL    HW2 5745   0.844   3.943   6.227
 1616SOL     OW 5746   1.663   1.365   4.695
 1616SOL    HW1 5747   1.664   1.337   4.599
 1616SOL    HW2 5748   1.690   1.461   4.702
 1617SOL     OW 5749   6.409   6.455   3.151
 1617SOL    HW1 5750   6.316   6.485   3.170
 1617SOL    HW2 5751   6.460   6.528   3.106
 1618SOL     OW 5752   3.063   5.692   3.045
 1618SOL    HW1 5753   3.150   5.667   3.089
 1618SOL    HW2 5754   3.081   5.758   2.971
 1619SOL     OW 5755   1.393   4.217   0.147
 1619SOL    HW1 5756   1.327   4.291   0.138
 1619SOL    HW2 5757   1.355   4.133   0.107
 1620SOL     OW 5758   3.206   5.231   5.474
 1620SOL    HW1 5759   3.167   5.162   5.535
 1620SOL    HW2 5760   3.303   5.242   5.493
 1621SOL     OW 5761   5.338   5.962   0.639
 1621SOL    HW1 5762   5.306   5.961   0.733
 1621SOL    HW2 5763   5.438   5.968   0.637
 1622SOL     OW 5764   6.680   4.720   4.388
 1622SOL    HW1 5765   6.754   4.786   4.403
 1622SOL    HW2 5766   6.626   4.711   4.472
 1623SOL     OW 5767   0.185   2.161   3.357
 1623SOL    HW1 5768   0.086   2.157   3.354
 1623SOL    HW2 5769   0.222   2.075   3.392
 1624SOL     OW 5770   4.047   1.969   0.733
 1624SOL    HW1 5771   4.025   1.913   0.813
 1624SOL    HW2 5772   4.092   1.913   0.664
 1625SOL     OW 5773   0.632   5.639   1.351
 1625SOL    HW1 5774   0.716   5.628   1.298
 1625SOL    HW2 5775   0.558   5.669   1.291
 1626SOL     OW 5776   2.875   2.258   1.523
 1626SOL    HW1 5777   2.813   2.336   1.516
 1626SOL    HW2 5778   2.863   2.213   1.612
 1627SOL     OW 5779   3.999   1.608   5.391
 1627SOL    HW1 5780   3.917   1.597   5.448
 1627SOL    HW2 5781   4.017   1.706   5.376
 1628SOL     OW 5782   5.334   6.448   1.032
 1628SOL    HW1 5783   5.387   6.507   1.093
 1628SOL    HW2 5784   5.386   6.433   0.947
 1629SOL     OW 5785   2.096   0.686   3.720
 1629SOL    HW1 5786   2.004   0.650   3.731
 1629SOL    HW2 5787   2.097   0.756   3.649
 1630SOL     OW 5788   0.342   3.943   6.881
 1630SOL    HW1 5789   0.269   3.916   6.943
 1630SOL    HW2 5790   0.388   3.861   6.845
 1631SOL     OW 5791   6.406   3.963   7.005
 1631SOL    HW1 5792   6.341   3.917   0.047
 1631SOL    HW2 5793   6.378   4.057   6.991
 1632SOL     OW 5794   6.481   5.497   2.490
 1632SOL    HW1 5795   6.515   5.439   2.564
 1632SOL    HW2 5796   6.409   5.449   2.439
 1633SOL     OW 5797   5.536   4.016   4.282
 1633SOL    HW1 5798   5.571   3.929   4.316
 1633SOL    HW2 5799   5.589   4.091   4.321
 1634SOL     OW 5800   6.750   1.758   4.471
 1634SOL    HW1 5801   6.762   1.791   4.565
 1634SOL    HW2 5802   6.816   1.685   4.453
 1635SOL     OW 5803   3.926   6.444   2.808
 1635SOL    HW1 5804   3.959   6.538   2.794
 1635SOL    HW2 5805   3.868   6.417   2.731
 1636SOL     OW 5806   6.318   6.097   1.487
 1636SOL    HW1 5807   6.394   6.134   1.541
 1636SOL    HW2 5808   6.256   6.170   1.462
 1637SOL     OW 5809   0.692   0.131   1.871
 1637SOL    HW1 5810   0.712   0.228   1.882
 1637SOL    HW2 5811   0.749   0.093   1.799
 1638SOL     OW 5812   6.178   2.664   1.917
 1638SOL    HW1 5813   6.254   2.644   1.979
 1638SOL    HW2 5814   6.135   2.578   1.889
 1639SOL     OW 5815   5.651   2.418   2.688
 1639SOL    HW1 5816   5.694   2.348   2.631
 1639SOL    HW2 5817   5.552   2.415   2.676
 1640SOL     OW 5818   7.010   0.374   6.966
 1640SOL    HW1 5819   0.004   0.430   0.029
 1640SOL    HW2 5820   6.914   0.350   6.955
 1641SOL     OW 5821   6.511   2.375   3.074
 1641SOL    HW1 5822   6.492   2.343   2.981
 1641SOL    HW2 5823   6.473   2.466   3.086
 1642SOL     OW 5824   6.950   2.750   6.280
 1642SOL    HW1 5825   6.909   2.814   6.215
 1642SOL    HW2 5826   0.025   2.730   6.252
 1643SOL     OW 5827   2.307   5.829   3.799
 1643SOL    HW1 5828   2.392   5.852   3.751
 1643SOL    HW2 5829   2.241   5.903   3.786
 1644SOL     OW 5830   5.925   2.717   1.553
 1644SOL    HW1 5831   5.903   2.621   1.571
 1644SOL    HW2 5832   5.844   2.764   1.517
 1645SOL     OW 5833   2.140   0.784   5.765
 1645SOL    HW1 5834   2.108   0.878   5.774
 1645SOL    HW2 5835   2.084   0.736   5.697
 1646SOL     OW 5836   1.156   4.610   0.799
 1646SOL    HW1 5837   1.132   4.701   0.831
 1646SOL    HW2 5838   1.225   4.570   0.860
 1647SOL     OW 5839   5.322   2.492   3.893
 1647SOL    HW1 5840   5.406   2.440   3.904
 1647SOL    HW2 5841   5.286   2.479   3.800
 1648SOL     OW 5842   5.490   6.077   1.252
 1648SOL    HW1 5843   5.533   5.988   1.232
 1648SOL    HW2 5844   5.561   6.146   1.265
 1649SOL     OW 5845   3.620   0.612   3.458
 1649SOL    HW1 5846   3.521   0.621   3.463
 1649SOL    HW2 5847   3.650   0.540   3.520
 1650SOL     OW 5848   2.766   3.996   6.824
 1650SOL    HW1 5849   2.831   3.931   6.863
 1650SOL    HW2 5850   2.805   4.037   6.741
 1651SOL     OW 5851   0.828   2.709   3.486
 1651SOL    HW1 5852   0.895   2.639   3.510
 1651SOL    HW2 5853   0.793   2.692   3.394
 1652SOL     OW 5854   0.128   3.415   1.285
 1652SOL    HW1 5855   0.162   3.333   1.332
 1652SOL    HW2 5856   0.154   3.413   1.189
 1653SOL     OW 5857   0.072   4.515   3.300
 1653SOL    HW1 5858   0.118   4.582   3.358
 1653SOL    HW2 5859   0.010   4.563   3.237
 1654SOL     OW 5860   6.714   2.999   2.630
 1654SOL    HW1 5861   6.724   3.042   2.540
 1654SOL    HW2 5862   6.627   2.951   2.634
 1655SOL     OW 5863   6.881   0.353   4.973
 1655SOL    HW1 5864   6.920   0.355   4.881
 1655SOL    HW2 5865   6.870   0.257   5.002
 1656SOL     OW 5866   2.020   4.237   2.984
 1656SOL    HW1 5867   1.967   4.158   2.953
 1656SOL    HW2 5868   2.095   4.206   3.042
 1657SOL     OW 5869   1.158   6.987   5.658
 1657SOL    HW1 5870   1.186   0.043   5.597
 1657SOL    HW2 5871   1.170   6.900   5.610
 1658SOL     OW 5872   6.098   6.874   6.417
 1658SOL    HW1 5873   6.132   6.968   6.413
 1658SOL    HW2 5874   6.121   6.834   6.506
 1659SOL     OW 5875   4.253   6.609   6.452
 1659SOL    HW1 5876   4.260   6.699   6.410
 1659SOL    HW2 5877   4.340   6.587   6.497
 1660SOL     OW 5878   2.528   0.896   2.379
 1660SOL    HW1 5879   2.595   0.823   2.395
 1660SOL    HW2 5880   2.563   0.982   2.415
 1661SOL     OW 5881   4.480   4.710   2.608
 1661SOL    HW1 5882   4.532   4.795   2.600
 1661SOL    HW2 5883   4.533   4.634   2.571
 1662SOL     OW 5884   0.183   1.647   4.584
 1662SOL    HW1 5885   0.119   1.591   4.636
 1662SOL    HW2 5886   0.187   1.613   4.489
 1663SOL     OW 5887   4.785   4.925   0.026
 1663SOL    HW1 5888   4.712   4.863   7.018
 1663SOL    HW2 5889   4.851   4.933   6.969
 1664SOL     OW 5890   1.528   0.060   5.667
 1664SOL    HW1 5891   1.446   0.107   5.700
 1664SOL    HW2 5892   1.501   7.004   5.605
 1665SOL     OW 5893   2.616   4.411   0.063
 1665SOL    HW1 5894   2.521   4.436   0.047
 1665SOL    HW2 5895   2.642   4.436   0.156
 1666SOL     OW 5896   5.905   6.524   6.095
 1666SOL    HW1 5897   5.878   6.454   6.161
 1666SOL    HW2 5898   5.875   6.497   6.004
 1667SOL     OW 5899   0.293   6.141   1.389
 1667SOL    HW1 5900   0.251   6.222   1.430
 1667SOL    HW2 5901   0.347   6.167   1.309
 1668SOL     OW 5902   5.526   4.412   2.842
 1668SOL    HW1 5903   5.618   4.397   2.807
 1668SOL    HW2 5904   5.491   4.500   2.808
 1669SOL     OW 5905   6.079   3.752   5.478
 1669SOL    HW1 5906   6.161   3.799   5.446
 1669SOL    HW2 5907   5.998   3.793   5.436
 1670SOL     OW 5908   2.263   4.547   6.525
 1670SOL    HW1 5909   2.187   4.482   6.521
 1670SOL    HW2 5910   2.317   4.530   6.607
 1671SOL     OW 5911   5.995   2.392   1.080
 1671SOL    HW1 5912   6.015   2.316   1.143
 1671SOL    HW2 5913   5.954   2.356   0.997
 1672SOL     OW 5914   0.371   3.613   0.092
 1672SOL    HW1 5915   0.293   3.653   0.043
 1672SOL    HW2 5916   0.456   3.656   0.060
 1673SOL     OW 5917   1.756   0.804   4.597
 1673SOL    HW1 5918   1.759   0.863   4.516
 1673SOL    HW2 5919   1.826   0.733   4.589
 1674SOL     OW 5920   4.564   2.128   2.315
 1674SOL    HW1 5921   4.499   2.081   2.256
 1674SOL    HW2 5922   4.516   2.193   2.374
 1675SOL     OW 5923   5.383   0.611   1.073
 1675SOL    HW1 5924   5.341   0.700   1.057
 1675SOL    HW2 5925   5.473   0.608   1.030
 1676SOL     OW 5926   1.134   2.242   2.266
 1676SOL    HW1 5927   1.050   2.202   2.302
 1676SOL    HW2 5928   1.199   2.255   2.341
 1677SOL     OW 5929   3.933   3.031   3.394
 1677SOL    HW1 5930   3.981   3.044   3.481
 1677SOL    HW2 5931   3.937   2.934   3.368
 1678SOL     OW 5932   0.832   6.965   1.205
 1678SOL    HW1 5933   0.820   0.045   1.218
 1678SOL    HW2 5934   0.800   6.939   1.114
 1679SOL     OW 5935   0.744   2.021   6.330
 1679SOL    HW1 5936   0.803   1.951   6.289
 1679SOL    HW2 5937   0.730   2.000   6.427
 1680SOL     OW 5938   5.317   2.762   3.910
 1680SOL    HW1 5939   5.319   2.662   3.899
 1680SOL    HW2 5940   5.222   2.791   3.921
 1681SOL     OW 5941   2.451   6.085   4.442
 1681SOL    HW1 5942   2.518   6.118   4.509
 1681SOL    HW2 5943   2.390   6.020   4.486
 1682SOL     OW 5944   3.057   0.430   4.464
 1682SOL    HW1 5945   3.090   0.523   4.450
 1682SOL    HW2 5946   3.023   0.393   4.377
 1683SOL     OW 5947   6.096   4.968   2.911
 1683SOL    HW1 5948   6.007   4.922   2.911
 1683SOL    HW2 5949   6.157   4.923   2.977
 1684SOL     OW 5950   2.489   4.494   1.993
 1684SOL    HW1 5951   2.475   4.395   1.996
 1684SOL    HW2 5952   2.588   4.513   1.993
 1685SOL     OW 5953   6.917   1.580   5.445
 1685SOL    HW1 5954   6.997   1.601   5.389
 1685SOL    HW2 5955   6.850   1.529   5.391
 1686SOL     OW 5956   4.395   5.945   2.788
 1686SOL    HW1 5957   4.396   5.892   2.703
 1686SOL    HW2 5958   4.392   5.882   2.866
 1687SOL     OW 5959   5.446   4.188   2.053
 1687SOL    HW1 5960   5.361   4.218   2.097
 1687SOL    HW2 5961   5.483   4.109   2.102
 1688SOL     OW 5962   1.027   0.882   2.577
 1688SOL    HW1 5963   0.985   0.927   2.499
 1688SOL    HW2 5964   1.060   0.951   2.642
 1689SOL     OW 5965   4.391   0.672   0.733
 1689SOL    HW1 5966   4.335   0.645   0.811
 1689SOL    HW2 5967   4.488   0.670   0.758
 1690SOL     OW 5968   0.448   4.212   3.657
 1690SOL    HW1 5969   0.473   4.294   3.709
 1690SOL    HW2 5970   0.478   4.222   3.562
 1691SOL     OW 5971   4.553   2.915   5.224
 1691SOL    HW1 5972   4.479   2.973   5.259
 1691SOL    HW2 5973   4.529   2.819   5.239
 1692SOL     OW 5974   5.125   5.074   1.372
 1692SOL    HW1 5975   5.043   5.105   1.324
 1692SOL    HW2 5976   5.102   4.998   1.433
 1693SOL     OW 5977   5.700   0.050   5.004
 1693SOL    HW1 5978   5.778   0.024   4.947
 1693SOL    HW2 5979   5.732   0.076   5.095
 1694SOL     OW 5980   4.946   1.689   5.781
 1694SOL    HW1 5981   4.980   1.659   5.693
 1694SOL    HW2 5982   5.001   1.765   5.815
 1695SOL     OW 5983   4.384   0.903   6.735
 1695SOL    HW1 5984   4.325   0.969   6.782
 1695SOL    HW2 5985   4.468   0.889   6.788
 1696SOL     OW 5986   5.332   6.399   0.395
 1696SOL    HW1 5987   5.390   6.346   0.457
 1696SOL    HW2 5988   5.306   6.342   0.317
 1697SOL     OW 5989   5.176   2.003   2.292
 1697SOL    HW1 5990   5.227   2.032   2.210
 1697SOL    HW2 5991   5.085   1.971   2.265
 1698SOL     OW 5992   3.955   0.672   1.620
 1698SOL    HW1 5993   3.970   0.766   1.651
 1698SOL    HW2 5994   3.900   0.672   1.537
 1699SOL     OW 5995   2.610   6.436   0.071
 1699SOL    HW1 5996   2.646   6.365   0.132
 1699SOL    HW2 5997   2.568   6.393   7.009
 1700SOL     OW 5998   6.426   2.373   2.795
 1700SOL    HW1 5999   6.435   2.473   2.793
 1700SOL    HW2 6000   6.338   2.347   2.753
 1701SOL     OW 6001   0.008   5.804   4.604
 1701SOL    HW1 6002   0.023   5.754   4.690
 1701SOL    HW2 6003   7.011   5.901   4.624
 1702SOL     OW 6004   2.011   2.276   6.163
 1702SOL    HW1 6005   1.969   2.307   6.078
 1702SOL    HW2 6006   2.004   2.347   6.233
 1703SOL     OW 6007   2.287   1.751   1.213
 1703SOL    HW1 6008   2.234   1.750   1.297
 1703SOL    HW2 6009   2.375   1.796   1.229
 1704SOL     OW 6010   3.060   2.219   0.849
 1704SOL    HW1 6011   3.071   2.302   0.904
 1704SOL    HW2 6012   3.112   2.228   0.764
 1705SOL     OW 6013   4.058   2.159   0.509
 1705SOL    HW1 6014   4.047   2.255   0.535
 1705SOL    HW2 6015   4.058   2.102   0.592
 1706SOL     OW 6016   5.065   2.331   6.810
 1706SOL    HW1 6017   4.970   2.341   6.838
 1706SOL    HW2 6018   5.124   2.385   6.871
 1707SOL     OW 6019   4.711   1.930   2.584
 1707SOL    HW1 6020   4.723   1.850   2.643
 1707SOL    HW2 6021   4.688   1.901   2.491
 1708SOL     OW 6022   3.132   4.927   2.038
 1708SOL    HW1 6023   3.182   4.880   1.965
 1708SOL    HW2 6024   3.168   4.899   2.127
 1709SOL     OW 6025   4.714   5.101   1.046
 1709SOL    HW1 6026   4.783   5.030   1.026
 1709SOL    HW2 6027   4.744   5.188   1.007
 1710SOL     OW 6028   5.188   5.260   3.163
 1710SOL    HW1 6029   5.219   5.187   3.102
 1710SOL    HW2 6030   5.263   5.325   3.178
 1711SOL     OW 6031   4.047   4.500   6.885
 1711SOL    HW1 6032   3.984   4.479   6.959
 1711SOL    HW2 6033   4.140   4.474   6.912
 1712SOL     OW 6034   0.594   1.315   2.596
 1712SOL    HW1 6035   0.551   1.262   2.522
 1712SOL    HW2 6036   0.580   1.413   2.579
 1713SOL     OW 6037   4.386   0.747   3.127
 1713SOL    HW1 6038   4.335   0.826   3.161
 1713SOL    HW2 6039   4.480   0.775   3.106
 1714SOL     OW 6040   3.705   3.415   0.436
 1714SOL    HW1 6041   3.789   3.363   0.425
 1714SOL    HW2 6042   3.694   3.440   0.533
 1715SOL     OW 6043   2.025   6.896   2.528
 1715SOL    HW1 6044   2.068   6.892   2.618
 1715SOL    HW2 6045   1.992   6.804   2.504
 1716SOL     OW 6046   4.837   1.385   3.772
 1716SOL    HW1 6047   4.768   1.314   3.790
 1716SOL    HW2 6048   4.922   1.362   3.820
 1717SOL     OW 6049   3.254   6.612   5.221
 1717SOL    HW1 6050   3.322   6.550   5.260
 1717SOL    HW2 6051   3.163   6.588   5.255
 1718SOL     OW 6052   1.266   2.997   1.005
 1718SOL    HW1 6053   1.347   3.054   1.022
 1718SOL    HW2 6054   1.242   2.948   1.088
 1719SOL     OW 6055   1.304   5.372   2.697
 1719SOL    HW1 6056   1.275   5.462   2.727
 1719SOL    HW2 6057   1.313   5.311   2.776
 1720SOL     OW 6058   0.848   3.014   6.065
 1720SOL    HW1 6059   0.840   2.959   6.148
 1720SOL    HW2 6060   0.758   3.048   6.038
 1721SOL     OW 6061   1.277   1.822   0.719
 1721SOL    HW1 6062   1.257   1.764   0.799
 1721SOL    HW2 6063   1.282   1.917   0.748
 1722SOL     OW 6064   2.470   2.626   3.689
 1722SOL    HW1 6065   2.508   2.621   3.781
 1722SOL    HW2 6066   2.542   2.604   3.622
 1723SOL     OW 6067   5.523   3.671   0.628
 1723SOL    HW1 6068   5.495   3.577   0.610
 1723SOL    HW2 6069   5.574   3.674   0.714
 1724SOL     OW 6070   5.769   2.066   1.373
 1724SOL    HW1 6071   5.699   2.059   1.444
 1724SOL    HW2 6072   5.811   2.157   1.375
 1725SOL     OW 6073   1.530   5.976   6.707
 1725SOL    HW1 6074   1.471   5.952   6.630
 1725SOL    HW2 6075   1.474   6.003   6.785
 1726SOL     OW 6076   5.456   4.404   3.094
 1726SOL    HW1 6077   5.370   4.352   3.092
 1726SOL    HW2 6078   5.500   4.399   3.005
 1727SOL     OW 6079   2.948   3.820   3.302
 1727SOL    HW1 6080   3.045   3.817   3.324
 1727SOL    HW2 6081   2.936   3.860   3.211
 1728SOL     OW 6082   5.180   2.354   4.092
 1728SOL    HW1 6083   5.220   2.383   4.005
 1728SOL    HW2 6084   5.092   2.400   4.105
 1729SOL     OW 6085   1.318   2.942   2.581
 1729SOL    HW1 6086   1.308   2.881   2.659
 1729SOL    HW2 6087   1.319   3.037   2.613
 1730SOL     OW 6088   2.477   5.236   4.537
 1730SOL    HW1 6089   2.526   5.166   4.486
 1730SOL    HW2 6090   2.409   5.279   4.478
 1731SOL     OW 6091   6.393   4.676   3.463
 1731SOL    HW1 6092   6.437   4.636   3.544
 1731SOL    HW2 6093   6.382   4.774   3.477
 1732SOL     OW 6094   2.431   3.515   5.668
 1732SOL    HW1 6095   2.530   3.506   5.683
 1732SOL    HW2 6096   2.392   3.426   5.645
 1733SOL     OW 6097   2.195   3.636   6.307
 1733SOL    HW1 6098   2.157   3.552   6.345
 1733SOL    HW2 6099   2.128   3.679   6.247
 1734SOL     OW 6100   6.811   3.098   1.441
 1734SOL    HW1 6101   6.842   3.099   1.536
 1734SOL    HW2 6102   6.827   3.007   1.402
 1735SOL     OW 6103   3.993   5.085   6.233
 1735SOL    HW1 6104   3.993   5.018   6.159
 1735SOL    HW2 6105   3.913   5.144   6.224
 1736SOL     OW 6106   5.403   3.094   0.703
 1736SOL    HW1 6107   5.396   3.140   0.615
 1736SOL    HW2 6108   5.317   3.104   0.754
 1737SOL     OW 6109   4.600   2.024   5.409
 1737SOL    HW1 6110   4.689   1.982   5.428
 1737SOL    HW2 6111   4.594   2.045   5.312
 1738SOL     OW 6112   1.522   3.080   3.793
 1738SOL    HW1 6113   1.440   3.027   3.816
 1738SOL    HW2 6114   1.560   3.046   3.707
 1739SOL     OW 6115   5.610   0.682   3.643
 1739SOL    HW1 6116   5.600   0.592   3.601
 1739SOL    HW2 6117   5.554   0.687   3.726
 1740SOL     OW 6118   6.128   2.963   4.887
 1740SOL    HW1 6119   6.215   2.994   4.926
 1740SOL    HW2 6120   6.136   2.867   4.860
 1741SOL     OW 6121   0.388   1.848   4.628
 1741SOL    HW1 6122   0.309   1.792   4.601
 1741SOL    HW2 6123   0.362   1.907   4.704
 1742SOL     OW 6124   6.209   5.927   6.092
 1742SOL    HW1 6125   6.174   6.019   6.071
 1742SOL    HW2 6126   6.149   5.858   6.052
 1743SOL     OW 6127   1.908   1.396   2.468
 1743SOL    HW1 6128   1.873   1.457   2.539
 1743SOL    HW2 6129   1.849   1.316   2.459
 1744SOL     OW 6130   3.592   2.090   4.921
 1744SOL    HW1 6131   3.595   2.013   4.858
 1744SOL    HW2 6132   3.496   2.114   4.939
 1745SOL     OW 6133   5.975   6.495   0.952
 1745SOL    HW1 6134   6.000   6.445   0.869
 1745SOL    HW2 6135   5.886   6.539   0.940
 1746SOL     OW 6136   2.401   4.383   3.458
 1746SOL    HW1 6137   2.380   4.426   3.371
 1746SOL    HW2 6138   2.335   4.310   3.477
 1747SOL     OW 6139   4.507   0.025   2.402
 1747SOL    HW1 6140   4.469   7.010   2.489
 1747SOL    HW2 6141   4.449   0.098   2.366
 1748SOL     OW 6142   6.885   3.123   5.201
 1748SOL    HW1 6143   6.968   3.159   5.159
 1748SOL    HW2 6144   6.901   3.030   5.233
 1749SOL     OW 6145   0.789   4.846   1.048
 1749SOL    HW1 6146   0.734   4.851   1.132
 1749SOL    HW2 6147   0.886   4.839   1.071
 1750SOL     OW 6148   4.170   0.181   5.842
 1750SOL    HW1 6149   4.255   0.147   5.881
 1750SOL    HW2 6150   4.183   0.201   5.744
 1751SOL     OW 6151   5.960   3.318   5.217
 1751SOL    HW1 6152   5.965   3.223   5.185
 1751SOL    HW2 6153   5.992   3.379   5.144
 1752SOL     OW 6154   6.839   0.392   2.571
 1752SOL    HW1 6155   6.813   0.487   2.550
 1752SOL    HW2 6156   6.901   0.391   2.649
 1753SOL     OW 6157   6.260   1.100   1.860
 1753SOL    HW1 6158   6.324   1.036   1.817
 1753SOL    HW2 6159   6.166   1.072   1.839
 1754SOL     OW 6160   2.868   5.513   4.071
 1754SOL    HW1 6161   2.893   5.464   4.155
 1754SOL    HW2 6162   2.773   5.543   4.077
 1755SOL     OW 6163   6.274   6.913   4.680
 1755SOL    HW1 6164   6.176   6.921   4.698
 1755SOL    HW2 6165   6.312   6.840   4.737
 1756SOL     OW 6166   4.872   6.298   0.100
 1756SOL    HW1 6167   4.846   6.394   0.104
 1756SOL    HW2 6168   4.815   6.245   0.162
 1757SOL     OW 6169   2.259   5.356   5.225
 1757SOL    HW1 6170   2.297   5.286   5.286
 1757SOL    HW2 6171   2.325   5.377   5.153
 1758SOL     OW 6172   1.976   6.141   4.581
 1758SOL    HW1 6173   1.973   6.047   4.547
 1758SOL    HW2 6174   2.062   6.157   4.629
 1759SOL     OW 6175   1.553   6.434   0.257
 1759SOL    HW1 6176   1.459   6.424   0.291
 1759SOL    HW2 6177   1.579   6.354   0.204
 1760SOL     OW 6178   6.833   0.918   4.715
 1760SOL    HW1 6179   6.863   0.833   4.757
 1760SOL    HW2 6180   6.764   0.899   4.646
 1761SOL     OW 6181   5.751   1.514   2.669
 1761SOL    HW1 6182   5.737   1.434   2.611
 1761SOL    HW2 6183   5.667   1.533   2.721
 1762SOL     OW 6184   0.651   1.420   5.762
 1762SOL    HW1 6185   0.567   1.367   5.750
 1762SOL    HW2 6186   0.645   1.504   5.708
 1763SOL     OW 6187   0.638   3.836   3.797
 1763SOL    HW1 6188   0.632   3.737   3.788
 1763SOL    HW2 6189   0.546   3.875   3.790
 1764SOL     OW 6190   1.101   5.522   3.013
 1764SOL    HW1 6191   1.123   5.429   3.040
 1764SOL    HW2 6192   1.048   5.567   3.085
 1765SOL     OW 6193   5.645   3.421   2.055
 1765SOL    HW1 6194   5.692   3.385   1.974
 1765SOL    HW2 6195   5.573   3.484   2.027
 1766SOL     OW 6196   4.360   4.572   4.007
 1766SOL    HW1 6197   4.275   4.621   3.985
 1766SOL    HW2 6198   4.383   4.586   4.103
 1767SOL     OW 6199   0.361   4.632   2.462
 1767SOL    HW1 6200   0.329   4.548   2.506
 1767SOL    HW2 6201   0.458   4.645   2.481
 1768SOL     OW 6202   4.955   5.789   2.289
 1768SOL    HW1 6203   4.870   5.841   2.284
 1768SOL    HW2 6204   4.936   5.693   2.271
 1769SOL     OW 6205   6.274   0.347   0.375
 1769SOL    HW1 6206   6.195   0.408   0.377
 1769SOL    HW2 6207   6.304   0.334   0.281
 1770SOL     OW 6208   1.872   5.060   0.466
 1770SOL    HW1 6209   1.937   5.082   0.539
 1770SOL    HW2 6210   1.875   5.132   0.396
 1771SOL     OW 6211   1.861   2.910   6.044
 1771SOL    HW1 6212   1.834   2.964   5.965
 1771SOL    HW2 6213   1.813   2.943   6.125
 1772SOL     OW 6214   2.095   3.899   2.557
 1772SOL    HW1 6215   2.154   3.916   2.636
 1772SOL    HW2 6216   2.100   3.802   2.532
 1773SOL     OW 6217   1.741   6.339   6.369
 1773SOL    HW1 6218   1.757   6.436   6.351
 1773SOL    HW2 6219   1.647   6.327   6.401
 1774SOL     OW 6220   5.512   5.408   0.766
 1774SOL    HW1 6221   5.548   5.419   0.859
 1774SOL    HW2 6222   5.517   5.496   0.718
 1775SOL     OW 6223   1.998   5.624   6.757
 1775SOL    HW1 6224   1.932   5.592   6.690
 1775SOL    HW2 6225   1.952   5.643   6.843
 1776SOL     OW 6226   4.647   2.594   5.515
 1776SOL    HW1 6227   4.642   2.503   5.556
 1776SOL    HW2 6228   4.608   2.661   5.579
 1777SOL     OW 6229   5.075   6.531   6.768
 1777SOL    HW1 6230   5.158   6.509   6.717
 1777SOL    HW2 6231   5.068   6.470   6.847
 1778SOL     OW 6232   5.877   0.054   4.136
 1778SOL    HW1 6233   5.886   0.120   4.061
 1778SOL    HW2 6234   5.920   0.090   4.218
 1779SOL     OW 6235   5.481   0.176   4.137
 1779SOL    HW1 6236   5.399   0.140   4.181
 1779SOL    HW2 6237   5.554   0.184   4.205
 1780SOL     OW 6238   2.027   5.286   4.776
 1780SOL    HW1 6239   2.121   5.316   4.790
 1780SOL    HW2 6240   2.023   5.186   4.776
 1781SOL     OW 6241   4.105   0.771   4.735
 1781SOL    HW1 6242   4.192   0.820   4.736
 1781SOL    HW2 6243   4.107   0.696   4.800
 1782SOL     OW 6244   6.928   1.325   2.150
 1782SOL    HW1 6245   0.001   1.308   2.112
 1782SOL    HW2 6246   6.936   1.380   2.233
 1783SOL     OW 6247   1.810   4.146   6.077
 1783SOL    HW1 6248   1.843   4.161   5.983
 1783SOL    HW2 6249   1.771   4.055   6.084
 1784SOL     OW 6250   2.863   6.583   1.623
 1784SOL    HW1 6251   2.764   6.584   1.614
 1784SOL    HW2 6252   2.902   6.661   1.573
 1785SOL     OW 6253   1.754   6.527   4.845
 1785SOL    HW1 6254   1.755   6.427   4.855
 1785SOL    HW2 6255   1.697   6.567   4.916
 1786SOL     OW 6256   1.386   6.456   0.762
 1786SOL    HW1 6257   1.337   6.521   0.705
 1786SOL    HW2 6258   1.326   6.422   0.835
 1787SOL     OW 6259   2.774   3.232   6.178
 1787SOL    HW1 6260   2.857   3.256   6.228
 1787SOL    HW2 6261   2.695   3.276   6.221
 1788SOL     OW 6262   4.678   3.847   1.383
 1788SOL    HW1 6263   4.709   3.790   1.459
 1788SOL    HW2 6264   4.654   3.789   1.305
 1789SOL     OW 6265   6.255   3.693   1.961
 1789SOL    HW1 6266   6.249   3.603   2.003
 1789SOL    HW2 6267   6.180   3.704   1.895
 1790SOL     OW 6268   2.393   1.921   4.640
 1790SOL    HW1 6269   2.344   1.970   4.712
 1790SOL    HW2 6270   2.339   1.924   4.555
 1791SOL     OW 6271   5.122   6.959   3.548
 1791SOL    HW1 6272   5.210   7.006   3.542
 1791SOL    HW2 6273   5.124   6.895   3.625
 1792SOL     OW 6274   0.271   2.062   5.712
 1792SOL    HW1 6275   0.352   2.105   5.751
 1792SOL    HW2 6276   0.219   2.017   5.784
 1793SOL     OW 6277   0.426   0.817   6.029
 1793SOL    HW1 6278   0.373   0.825   5.945
 1793SOL    HW2 6279   0.371   0.774   6.101
 1794SOL     OW 6280   1.171   0.341   6.119
 1794SOL    HW1 6281   1.169   0.252   6.074
 1794SOL    HW2 6282   1.263   0.357   6.157
 1795SOL     OW 6283   5.847   4.447   0.951
 1795SOL    HW1 6284   5.898   4.499   1.019
 1795SOL    HW2 6285   5.808   4.365   0.993
 1796SOL     OW 6286   0.534   0.463   6.650
 1796SOL    HW1 6287   0.554   0.370   6.678
 1796SOL    HW2 6288   0.500   0.463   6.556
 1797SOL     OW 6289   1.941   5.022   5.487
 1797SOL    HW1 6290   1.947   5.049   5.391
 1797SOL    HW2 6291   2.030   4.989   5.518
 1798SOL     OW 6292   2.533   3.785   5.323
 1798SOL    HW1 6293   2.500   3.840   5.247
 1798SOL    HW2 6294   2.480   3.806   5.405
 1799SOL     OW 6295   3.215   1.423   1.026
 1799SOL    HW1 6296   3.163   1.386   0.949
 1799SOL    HW2 6297   3.310   1.439   0.998
 1800SOL     OW 6298   5.667   3.501   5.462
 1800SOL    HW1 6299   5.723   3.432   5.508
 1800SOL    HW2 6300   5.626   3.462   5.380
 1801SOL     OW 6301   0.897   0.534   3.350
 1801SOL    HW1 6302   0.813   0.525   3.297
 1801SOL    HW2 6303   0.949   0.448   3.345
 1802SOL     OW 6304   6.790   5.081   3.926
 1802SOL    HW1 6305   6.732   5.057   4.004
 1802SOL    HW2 6306   6.850   5.157   3.951
 1803SOL     OW 6307   0.378   0.328   3.649
 1803SOL    HW1 6308   0.465   0.372   3.670
 1803SOL    HW2 6309   0.365   0.325   3.549
 1804SOL     OW 6310   2.452   3.355   6.103
 1804SOL    HW1 6311   2.444   3.290   6.179
 1804SOL    HW2 6312   2.525   3.326   6.042
 1805SOL     OW 6313   6.430   5.576   0.738
 1805SOL    HW1 6314   6.507   5.562   0.800
 1805SOL    HW2 6315   6.427   5.672   0.709
 1806SOL     OW 6316   0.305   1.590   1.423
 1806SOL    HW1 6317   0.246   1.569   1.502
 1806SOL    HW2 6318   0.332   1.505   1.378
 1807SOL     OW 6319   0.159   2.424   2.793
 1807SOL    HW1 6320   0.104   2.500   2.758
 1807SOL    HW2 6321   0.107   2.372   2.860
 1808SOL     OW 6322   5.156   1.870   6.218
 1808SOL    HW1 6323   5.172   1.951   6.275
 1808SOL    HW2 6324   5.234   1.808   6.226
 1809SOL     OW 6325   4.742   0.220   5.065
 1809SOL    HW1 6326   4.731   0.141   5.006
 1809SOL    HW2 6327   4.663   0.227   5.127
 1810SOL     OW 6328   1.125   0.880   4.578
 1810SOL    HW1 6329   1.138   0.785   4.551
 1810SOL    HW2 6330   1.147   0.891   4.675
 1811SOL     OW 6331   3.721   5.515   1.953
 1811SOL    HW1 6332   3.710   5.614   1.957
 1811SOL    HW2 6333   3.634   5.472   1.927
 1812SOL     OW 6334   4.677   6.665   6.329
 1812SOL    HW1 6335   4.723   6.606   6.263
 1812SOL    HW2 6336   4.745   6.725   6.372
 1813SOL     OW 6337   4.849   4.653   2.118
 1813SOL    HW1 6338   4.813   4.656   2.024
 1813SOL    HW2 6339   4.918   4.581   2.124
 1814SOL     OW 6340   6.586   6.107   0.339
 1814SOL    HW1 6341   6.548   6.103   0.246
 1814SOL    HW2 6342   6.640   6.024   0.356
 1815SOL     OW 6343   5.212   6.385   1.277
 1815SOL    HW1 6344   5.259   6.376   1.189
 1815SOL    HW2 6345   5.114   6.369   1.263
 1816SOL     OW 6346   3.864   4.895   5.268
 1816SOL    HW1 6347   3.858   4.952   5.186
 1816SOL    HW2 6348   3.904   4.948   5.343
 1817SOL     OW 6349   0.047   2.087   4.066
 1817SOL    HW1 6350   0.131   2.072   4.120
 1817SOL    HW2 6351   0.072   2.115   3.974
 1818SOL     OW 6352   2.427   0.948   0.643
 1818SOL    HW1 6353   2.494   0.963   0.569
 1818SOL    HW2 6354   2.440   0.857   0.682
 1819SOL     OW 6355   1.488   4.435   2.412
 1819SOL    HW1 6356   1.543   4.359   2.447
 1819SOL    HW2 6357   1.493   4.435   2.312
 1820SOL     OW 6358   3.181   0.098   4.987
 1820SOL    HW1 6359   3.182   0.072   4.891
 1820SOL    HW2 6360   3.139   0.026   5.041
 1821SOL     OW 6361   3.664   2.000   2.541
 1821SOL    HW1 6362   3.570   2.032   2.551
 1821SOL    HW2 6363   3.707   2.046   2.464
 1822SOL     OW 6364   6.620   3.240   3.308
 1822SOL    HW1 6365   6.693   3.276   3.365
 1822SOL    HW2 6366   6.646   3.150   3.272
 1823SOL     OW 6367   4.470   6.525   1.853
 1823SOL    HW1 6368   4.457   6.552   1.948
 1823SOL    HW2 6369   4.566   6.534   1.828
 1824SOL     OW 6370   4.200   3.104   1.705
 1824SOL    HW1 6371   4.293   3.139   1.690
 1824SOL    HW2 6372   4.138   3.180   1.721
 1825SOL     OW 6373   1.191   2.271   5.235
 1825SOL    HW1 6374   1.178   2.195   5.171
 1825SOL    HW2 6375   1.150   2.353   5.198
 1826SOL     OW 6376   3.382   2.058   1.973
 1826SOL    HW1 6377   3.336   2.133   1.925
 1826SOL    HW2 6378   3.474   2.086   1.999
 1827SOL     OW 6379   5.627   5.895   0.941
 1827SOL    HW1 6380   5.711   5.873   0.989
 1827SOL    HW2 6381   5.548   5.862   0.993
 1828SOL     OW 6382   1.728   3.526   5.163
 1828SOL    HW1 6383   1.691   3.599   5.220
 1828SOL    HW2 6384   1.776   3.566   5.085
 1829SOL     OW 6385   3.791   0.519   2.276
 1829SOL    HW1 6386   3.722   0.530   2.348
 1829SOL    HW2 6387   3.861   0.455   2.306
 1830SOL     OW 6388   5.495   0.710   5.727
 1830SOL    HW1 6389   5.538   0.689   5.815
 1830SOL    HW2 6390   5.436   0.791   5.737
 1831SOL     OW 6391   3.444   5.004   0.518
 1831SOL    HW1 6392   3.421   4.938   0.590
 1831SOL    HW2 6393   3.451   4.957   0.431
 1832SOL     OW 6394   2.609   2.634   0.335
 1832SOL    HW1 6395   2.539   2.691   0.378
 1832SOL    HW2 6396   2.676   2.692   0.290
 1833SOL     OW 6397   5.635   1.742   6.782
 1833SOL    HW1 6398   5.632   1.780   6.874
 1833SOL    HW2 6399   5.707   1.672   6.777
 1834SOL     OW 6400   0.553   2.762   5.355
 1834SOL    HW1 6401   0.630   2.728   5.410
 1834SOL    HW2 6402   0.564   2.733   5.260
 1835SOL     OW 6403   6.919   6.562   1.531
 1835SOL    HW1 6404   6.833   6.545   1.484
 1835SOL    HW2 6405   6.937   6.489   1.596
 1836SOL     OW 6406   5.253   2.648   2.492
 1836SOL    HW1 6407   5.313   2.666   2.414
 1836SOL    HW2 6408   5.195   2.568   2.472
 1837SOL     OW 6409   2.904   1.843   6.397
 1837SOL    HW1 6410   2.883   1.928   6.348
 1837SOL    HW2 6411   2.904   1.861   6.495
 1838SOL     OW 6412   5.306   0.886   0.815
 1838SOL    HW1 6413   5.207   0.873   0.812
 1838SOL    HW2 6414   5.332   0.960   0.753
 1839SOL     OW 6415   0.230   0.611   0.518
 1839SOL    HW1 6416   0.329   0.600   0.523
 1839SOL    HW2 6417   0.207   0.671   0.442
 1840SOL     OW 6418   4.282   6.240   3.511
 1840SOL    HW1 6419   4.263   6.338   3.499
 1840SOL    HW2 6420   4.366   6.217   3.463
 1841SOL     OW 6421   1.411   1.197   1.977
 1841SOL    HW1 6422   1.485   1.130   1.982
 1841SOL    HW2 6423   1.333   1.165   2.031
 1842SOL     OW 6424   1.179   5.418   1.220
 1842SOL    HW1 6425   1.081   5.408   1.231
 1842SOL    HW2 6426   1.200   5.509   1.182
 1843SOL     OW 6427   2.410   0.783   6.000
 1843SOL    HW1 6428   2.336   0.839   6.035
 1843SOL    HW2 6429   2.384   0.686   6.006
 1844SOL     OW 6430   6.077   2.824   6.254
 1844SOL    HW1 6431   6.155   2.815   6.316
 1844SOL    HW2 6432   6.096   2.895   6.186
 1845SOL     OW 6433   0.972   2.210   2.685
 1845SOL    HW1 6434   1.008   2.302   2.668
 1845SOL    HW2 6435   1.010   2.175   2.771
 1846SOL     OW 6436   3.154   1.120   1.483
 1846SOL    HW1 6437   3.165   1.180   1.404
 1846SOL    HW2 6438   3.158   1.025   1.454
 1847SOL     OW 6439   1.778   5.657   5.454
 1847SOL    HW1 6440   1.827   5.699   5.378
 1847SOL    HW2 6441   1.698   5.712   5.477
 1848SOL     OW 6442   3.874   6.564   3.385
 1848SOL    HW1 6443   3.912   6.491   3.441
 1848SOL    HW2 6444   3.785   6.591   3.422
 1849SOL     OW 6445   4.786   2.621   2.289
 1849SOL    HW1 6446   4.721   2.640   2.216
 1849SOL    HW2 6447   4.850   2.697   2.299
 1850SOL     OW 6448   4.133   1.800   0.562
 1850SOL    HW1 6449   4.232   1.787   0.549
 1850SOL    HW2 6450   4.090   1.819   0.474
 1851SOL     OW 6451   0.025   4.439   5.008
 1851SOL    HW1 6452   0.106   4.390   5.040
 1851SOL    HW2 6453   0.028   4.533   5.041
 1852SOL     OW 6454   0.581   0.267   3.035
 1852SOL    HW1 6455   0.629   0.192   3.080
 1852SOL    HW2 6456   0.522   0.313   3.101
 1853SOL     OW 6457   0.275   2.373   5.753
 1853SOL    HW1 6458   0.253   2.330   5.840
 1853SOL    HW2 6459   0.305   2.304   5.687
 1854SOL     OW 6460   0.908   6.767   3.711
 1854SOL    HW1 6461   0.847   6.715   3.651
 1854SOL    HW2 6462   0.905   6.728   3.803
 1855SOL     OW 6463   5.588   3.162   4.794
 1855SOL    HW1 6464   5.509   3.153   4.733
 1855SOL    HW2 6465   5.672   3.161   4.741
 1856SOL     OW 6466   3.887   3.193   0.353
 1856SOL    HW1 6467   3.959   3.175   0.421
 1856SOL    HW2 6468   3.800   3.158   0.387
 1857SOL     OW 6469   3.490   1.102   6.699
 1857SOL    HW1 6470   3.519   1.007   6.688
 1857SOL    HW2 6471   3.557   1.163   6.656
 1858SOL     OW 6472   4.763   2.473   4.233
 1858SOL    HW1 6473   4.795   2.428   4.316
 1858SOL    HW2 6474   4.725   2.404   4.170
 1859SOL     OW 6475   6.548   1.644   4.129
 1859SOL    HW1 6476   6.534   1.700   4.047
 1859SOL    HW2 6477   6.541   1.701   4.210
 1860SOL     OW 6478   2.169   1.058   5.970
 1860SOL    HW1 6479   2.188   1.120   5.894
 1860SOL    HW2 6480   2.071   1.059   5.991
 1861SOL     OW 6481   6.676   6.631   4.199
 1861SOL    HW1 6482   6.744   6.666   4.134
 1861SOL    HW2 6483   6.716   6.627   4.291
 1862SOL     OW 6484   2.875   5.545   5.294
 1862SOL    HW1 6485   2.795   5.604   5.285
 1862SOL    HW2 6486   2.908   5.548   5.388
 1863SOL     OW 6487   0.004   2.685   0.794
 1863SOL    HW1 6488   0.084   2.644   0.751
 1863SOL    HW2 6489   0.014   2.784   0.796
 1864SOL     OW 6490   4.027   5.401   2.182
 1864SOL    HW1 6491   4.026   5.413   2.083
 1864SOL    HW2 6492   4.038   5.304   2.204
 1865SOL     OW 6493   6.161   2.125   5.698
 1865SOL    HW1 6494   6.106   2.064   5.642
 1865SOL    HW2 6495   6.145   2.220   5.670
 1866SOL     OW 6496   0.394   5.202   3.391
 1866SOL    HW1 6497   0.333   5.191   3.313
 1866SOL    HW2 6498   0.488   5.183   3.364
 1867SOL     OW 6499   0.796   2.528   1.380
 1867SOL    HW1 6500   0.707   2.521   1.336
 1867SOL    HW2 6501   0.854   2.452   1.352
 1868SOL     OW 6502   5.525   3.385   6.999
 1868SOL    HW1 6503   5.501   3.459   6.936
 1868SOL    HW2 6504   5.612   3.345   6.971
 1869SOL     OW 6505   4.742   1.120   4.445
 1869SOL    HW1 6506   4.658   1.146   4.493
 1869SOL    HW2 6507   4.770   1.194   4.384
 1870SOL     OW 6508   6.303   6.369   5.397
 1870SOL    HW1 6509   6.238   6.299   5.366
 1870SOL    HW2 6510   6.255   6.435   5.455
 1871SOL     OW 6511   0.314   6.676   0.116
 1871SOL    HW1 6512   0.297   6.631   0.203
 1871SOL    HW2 6513   0.311   6.609   0.042
 1872SOL     OW 6514   2.992   2.924   1.551
 1872SOL    HW1 6515   3.040   2.893   1.633
 1872SOL    HW2 6516   2.993   3.024   1.547
 1873SOL     OW 6517   6.647   1.081   0.488
 1873SOL    HW1 6518   6.721   1.102   0.552
 1873SOL    HW2 6519   6.582   1.158   0.486
 1874SOL     OW 6520   0.528   5.368   0.818
 1874SOL    HW1 6521   0.542   5.292   0.882
 1874SOL    HW2 6522   0.616   5.393   0.777
 1875SOL     OW 6523   6.918   5.657   1.929
 1875SOL    HW1 6524   6.914   5.755   1.909
 1875SOL    HW2 6525   6.921   5.606   1.844
 1876SOL     OW 6526   0.566   5.360   1.269
 1876SOL    HW1 6527   0.599   5.322   1.356
 1876SOL    HW2 6528   0.608   5.450   1.254
 1877SOL     OW 6529   0.959   1.496   2.473
 1877SOL    HW1 6530   0.914   1.581   2.499
 1877SOL    HW2 6531   0.959   1.433   2.551
 1878SOL     OW 6532   5.486   4.299   4.027
 1878SOL    HW1 6533   5.582   4.290   4.053
 1878SOL    HW2 6534   5.442   4.369   4.083
 1879SOL     OW 6535   4.580   6.010   4.424
 1879SOL    HW1 6536   4.494   5.975   4.460
 1879SOL    HW2 6537   4.565   6.046   4.332
 1880SOL     OW 6538   6.895   1.430   4.063
 1880SOL    HW1 6539   6.806   1.437   4.109
 1880SOL    HW2 6540   6.940   1.346   4.090
 1881SOL     OW 6541   2.044   1.700   4.195
 1881SOL    HW1 6542   2.036   1.650   4.281
 1881SOL    HW2 6543   2.024   1.640   4.118
 1882SOL     OW 6544   1.372   5.387   0.241
 1882SOL    HW1 6545   1.350   5.290   0.234
 1882SOL    HW2 6546   1.331   5.425   0.324
 1883SOL     OW 6547   1.823   2.286   3.134
 1883SOL    HW1 6548   1.840   2.363   3.196
 1883SOL    HW2 6549   1.839   2.316   3.039
 1884SOL     OW 6550   4.090   1.021   0.277
 1884SOL    HW1 6551   4.180   0.987   0.250
 1884SOL    HW2 6552   4.043   1.059   0.197
 1885SOL     OW 6553   0.137   1.611   0.711
 1885SOL    HW1 6554   0.070   1.551   0.666
 1885SOL    HW2 6555   0.158   1.688   0.651
 1886SOL     OW 6556   3.550   2.310   6.267
 1886SOL    HW1 6557   3.490   2.345   6.340
 1886SOL    HW2 6558   3.530   2.358   6.182
 1887SOL     OW 6559   0.805   6.716   5.063
 1887SOL    HW1 6560   0.719   6.729   5.014
 1887SOL    HW2 6561   0.798   6.633   5.119
 1888SOL     OW 6562   1.724   2.063   5.250
 1888SOL    HW1 6563   1.692   2.012   5.330
 1888SOL    HW2 6564   1.822   2.049   5.239
 1889SOL     OW 6565   3.394   2.776   0.056
 1889SOL    HW1 6566   3.307   2.809   0.093
 1889SOL    HW2 6567   3.442   2.852   0.012
 1890SOL     OW 6568   6.493   5.914   6.857
 1890SOL    HW1 6569   6.439   5.872   6.785
 1890SOL    HW2 6570   6.498   5.852   6.936
 1891SOL     OW 6571   5.358   3.713   6.604
 1891SOL    HW1 6572   5.269   3.676   6.576
 1891SOL    HW2 6573   5.408   3.742   6.523
 1892SOL     OW 6574   3.984   0.288   1.856
 1892SOL    HW1 6575   3.895   0.328   1.876
 1892SOL    HW2 6576   4.044   0.297   1.936
 1893SOL     OW 6577   3.068   1.767   5.325
 1893SOL    HW1 6578   2.980   1.812   5.310
 1893SOL    HW2 6579   3.058   1.668   5.316
 1894SOL     OW 6580   4.868   3.946   1.092
 1894SOL    HW1 6581   4.773   3.923   1.112
 1894SOL    HW2 6582   4.888   3.924   0.997
 1895SOL     OW 6583   4.361   0.209   3.736
 1895SOL    HW1 6584   4.438   0.221   3.799
 1895SOL    HW2 6585   4.349   0.293   3.683
 1896SOL     OW 6586   6.094   2.164   6.169
 1896SOL    HW1 6587   6.082   2.263   6.160
 1896SOL    HW2 6588   6.106   2.141   6.266
 1897SOL     OW 6589   5.446   5.327   3.538
 1897SOL    HW1 6590   5.485   5.263   3.472
 1897SOL    HW2 6591   5.348   5.311   3.545
 1898SOL     OW 6592   5.902   6.812   6.848
 1898SOL    HW1 6593   5.830   6.880   6.834
 1898SOL    HW2 6594   5.865   6.736   6.903
 1899SOL     OW 6595   1.287   2.171   2.703
 1899SOL    HW1 6596   1.379   2.181   2.741
 1899SOL    HW2 6597   1.219   2.189   2.775
 1900SOL     OW 6598   2.832   6.238   1.295
 1900SOL    HW1 6599   2.864   6.160   1.242
 1900SOL    HW2 6600   2.858   6.227   1.391
 1901SOL     OW 6601   1.405   1.420   6.275
 1901SOL    HW1 6602   1.447   1.486   6.337
 1901SOL    HW2 6603   1.354   1.469   6.204
 1902SOL     OW 6604   2.008   2.424   5.137
 1902SOL    HW1 6605   1.959   2.385   5.059
 1902SOL    HW2 6606   2.103   2.441   5.111
 1903SOL     OW 6607   6.551   4.196   3.992
 1903SOL    HW1 6608   6.601   4.121   4.034
 1903SOL    HW2 6609   6.616   4.257   3.945
 1904SOL     OW 6610   0.721   0.642   4.438
 1904SOL    HW1 6611   0.741   0.546   4.418
 1904SOL    HW2 6612   0.774   0.700   4.377
 1905SOL     OW 6613   6.349   3.447   4.552
 1905SOL    HW1 6614   6.327   3.485   4.641
 1905SOL    HW2 6615   6.447   3.457   4.534
 1906SOL     OW 6616   2.695   6.079   6.958
 1906SOL    HW1 6617   2.731   5.993   6.922
 1906SOL    HW2 6618   2.770   6.131   7.000
 1907SOL     OW 6619   3.757   6.169   3.437
 1907SOL    HW1 6620   3.851   6.137   3.425
 1907SOL    HW2 6621   3.699   6.128   3.367
 1908SOL     OW 6622   4.730   0.239   6.711
 1908SOL    HW1 6623   4.645   0.216   6.759
 1908SOL    HW2 6624   4.743   0.338   6.713
 1909SOL     OW 6625   3.960   5.206   4.538
 1909SOL    HW1 6626   3.959   5.248   4.447
 1909SOL    HW2 6627   3.957   5.107   4.529
 1910SOL     OW 6628   5.006   2.807   4.755
 1910SOL    HW1 6629   5.084   2.820   4.694
 1910SOL    HW2 6630   4.988   2.709   4.766
 1911SOL     OW 6631   0.077   3.909   6.136
 1911SOL    HW1 6632   0.131   3.974   6.082
 1911SOL    HW2 6633   7.015   3.881   6.084
 1912SOL     OW 6634   2.708   6.144   3.250
 1912SOL    HW1 6635   2.729   6.193   3.165
 1912SOL    HW2 6636   2.733   6.201   3.328
 1913SOL     OW 6637   1.476   4.304   5.199
 1913SOL    HW1 6638   1.472   4.323   5.297
 1913SOL    HW2 6639   1.394   4.339   5.155
 1914SOL     OW 6640   4.591   1.188   5.536
 1914SOL    HW1 6641   4.685   1.158   5.550
 1914SOL    HW2 6642   4.557   1.231   5.620
 1915SOL     OW 6643   3.342   0.291   5.439
 1915SOL    HW1 6644   3.303   0.227   5.373
 1915SOL    HW2 6645   3.335   0.384   5.404
 1916SOL     OW 6646   4.162   6.403   1.531
 1916SOL    HW1 6647   4.100   6.438   1.460
 1916SOL    HW2 6648   4.227   6.339   1.489
 1917SOL     OW 6649   3.514   3.015   4.119
 1917SOL    HW1 6650   3.595   2.981   4.071
 1917SOL    HW2 6651   3.542   3.071   4.197
 1918SOL     OW 6652   5.838   6.366   4.708
 1918SOL    HW1 6653   5.863   6.291   4.646
 1918SOL    HW2 6654   5.863   6.453   4.666
 1919SOL     OW 6655   6.592   7.002   2.013
 1919SOL    HW1 6656   6.677   0.004   2.062
 1919SOL    HW2 6657   6.518   0.041   2.047
 1920SOL     OW 6658   6.943   6.078   4.221
 1920SOL    HW1 6659   6.915   6.127   4.138
 1920SOL    HW2 6660   6.867   6.079   4.287
 1921SOL     OW 6661   0.849   6.978   6.292
 1921SOL    HW1 6662   0.782   6.983   6.218
 1921SOL    HW2 6663   0.807   7.009   6.377
 1922SOL     OW 6664   3.453   4.470   1.214
 1922SOL    HW1 6665   3.470   4.566   1.191
 1922SOL    HW2 6666   3.495   4.412   1.145
 1923SOL     OW 6667   1.903   2.817   1.047
 1923SOL    HW1 6668   1.943   2.727   1.033
 1923SOL    HW2 6669   1.803   2.810   1.040
 1924SOL     OW 6670   1.111   3.592   2.033
 1924SOL    HW1 6671   1.088   3.495   2.034
 1924SOL    HW2 6672   1.181   3.611   2.102
 1925SOL     OW 6673   3.277   4.111   0.315
 1925SOL    HW1 6674   3.187   4.067   0.321
 1925SOL    HW2 6675   3.304   4.120   0.219
 1926SOL     OW 6676   0.984   0.492   3.628
 1926SOL    HW1 6677   1.061   0.487   3.564
 1926SOL    HW2 6678   0.902   0.457   3.583
 1927SOL     OW 6679   3.927   3.705   0.362
 1927SOL    HW1 6680   3.846   3.661   0.403
 1927SOL    HW2 6681   3.898   3.761   0.284
 1928SOL     OW 6682   6.647   5.145   5.467
 1928SOL    HW1 6683   6.576   5.097   5.520
 1928SOL    HW2 6684   6.608   5.227   5.426
 1929SOL     OW 6685   1.477   6.778   3.329
 1929SOL    HW1 6686   1.380   6.754   3.324
 1929SOL    HW2 6687   1.525   6.737   3.252
 1930SOL     OW 6688   6.511   4.832   6.794
 1930SOL    HW1 6689   6.532   4.797   6.886
 1930SOL    HW2 6690   6.571   4.909   6.773
 1931SOL     OW 6691   0.622   2.244   5.036
 1931SOL    HW1 6692   0.575   2.299   4.967
 1931SOL    HW2 6693   0.716   2.228   5.007
 1932SOL     OW 6694   5.470   3.137   2.545
 1932SOL    HW1 6695   5.428   3.194   2.615
 1932SOL    HW2 6696   5.525   3.065   2.588
 1933SOL     OW 6697   2.790   4.450   1.184
 1933SOL    HW1 6698   2.701   4.493   1.192
 1933SOL    HW2 6699   2.823   4.459   1.090
 1934SOL     OW 6700   0.320   6.270   4.542
 1934SOL    HW1 6701   0.383   6.233   4.475
 1934SOL    HW2 6702   0.354   6.251   4.634
 1935SOL     OW 6703   2.647   0.967   4.094
 1935SOL    HW1 6704   2.564   0.926   4.056
 1935SOL    HW2 6705   2.723   0.954   4.030
 1936SOL     OW 6706   6.328   5.667   5.696
 1936SOL    HW1 6707   6.277   5.582   5.708
 1936SOL    HW2 6708   6.413   5.662   5.748
 1937SOL     OW 6709   4.397   7.009   2.636
 1937SOL    HW1 6710   4.300   7.012   2.662
 1937SOL    HW2 6711   4.446   0.066   2.679
 1938SOL     OW 6712   5.417   0.319   3.646
 1938SOL    HW1 6713   5.498   0.363   3.608
 1938SOL    HW2 6714   5.356   0.389   3.685
 1939SOL     OW 6715   2.150   0.337   3.282
 1939SOL    HW1 6716   2.148   0.259   3.345
 1939SOL    HW2 6717   2.177   0.305   3.191
 1940SOL     OW 6718   6.579   5.407   0.350
 1940SOL    HW1 6719   6.597   5.371   0.442
 1940SOL    HW2 6720   6.563   5.331   0.287
 1941SOL     OW 6721   5.253   5.003   3.350
 1941SOL    HW1 6722   5.273   5.014   3.253
 1941SOL    HW2 6723   5.199   5.081   3.382
 1942SOL     OW 6724   6.363   5.565   3.026
 1942SOL    HW1 6725   6.318   5.583   3.114
 1942SOL    HW2 6726   6.391   5.651   2.985
 1943SOL     OW 6727   3.477   5.171   2.767
 1943SOL    HW1 6728   3.554   5.195   2.708
 1943SOL    HW2 6729   3.437   5.085   2.737
 1944SOL     OW 6730   6.682   0.876   1.929
 1944SOL    HW1 6731   6.701   0.939   2.004
 1944SOL    HW2 6732   6.612   0.915   1.870
 1945SOL     OW 6733   2.886   5.088   4.006
 1945SOL    HW1 6734   2.832   5.140   4.073
 1945SOL    HW2 6735   2.842   5.000   3.990
 1946SOL     OW 6736   1.851   0.139   0.120
 1946SOL    HW1 6737   1.924   0.180   0.064
 1946SOL    HW2 6738   1.887   0.121   0.212
 1947SOL     OW 6739   5.573   6.656   4.141
 1947SOL    HW1 6740   5.612   6.568   4.170
 1947SOL    HW2 6741   5.639   6.729   4.157
 1948SOL     OW 6742   6.216   4.010   5.696
 1948SOL    HW1 6743   6.191   3.938   5.761
 1948SOL    HW2 6744   6.163   3.998   5.612
 1949SOL     OW 6745   5.578   4.014   6.622
 1949SOL    HW1 6746   5.654   3.950   6.636
 1949SOL    HW2 6747   5.503   3.991   6.684
 1950SOL     OW 6748   2.741   3.939   0.754
 1950SOL    HW1 6749   2.739   3.969   0.849
 1950SOL    HW2 6750   2.806   3.864   0.744
 1951SOL     OW 6751   6.911   2.229   6.863
 1951SOL    HW1 6752   6.933   2.142   6.819
 1951SOL    HW2 6753   6.919   2.219   6.962
 1952SOL     OW 6754   4.112   1.853   5.333
 1952SOL    HW1 6755   4.066   1.941   5.320
 1952SOL    HW2 6756   4.201   1.868   5.376
 1953SOL     OW 6757   0.412   3.345   5.553
 1953SOL    HW1 6758   0.496   3.361   5.603
 1953SOL    HW2 6759   0.431   3.345   5.455
 1954SOL     OW 6760   2.562   2.147   3.476
 1954SOL    HW1 6761   2.575   2.171   3.380
 1954SOL    HW2 6762   2.630   2.077   3.501
 1955SOL     OW 6763   6.442   5.885   2.297
 1955SOL    HW1 6764   6.461   5.891   2.395
 1955SOL    HW2 6765   6.356   5.932   2.277
 1956SOL     OW 6766   5.879   6.596   2.326
 1956SOL    HW1 6767   5.859   6.507   2.368
 1956SOL    HW2 6768   5.976   6.599   2.300
 1957SOL     OW 6769   0.620   6.824   5.367
 1957SOL    HW1 6770   0.718   6.818   5.382
 1957SOL    HW2 6771   0.591   6.751   5.306
 1958SOL     OW 6772   4.758   3.279   5.965
 1958SOL    HW1 6773   4.779   3.350   5.898
 1958SOL    HW2 6774   4.835   3.270   6.029
 1959SOL     OW 6775   1.510   2.059   6.561
 1959SOL    HW1 6776   1.423   2.017   6.532
 1959SOL    HW2 6777   1.516   2.151   6.522
 1960SOL     OW 6778   5.015   6.463   1.571
 1960SOL    HW1 6779   5.018   6.558   1.541
 1960SOL    HW2 6780   5.038   6.458   1.668
 1961SOL     OW 6781   6.056   5.405   4.110
 1961SOL    HW1 6782   6.058   5.337   4.036
 1961SOL    HW2 6783   6.050   5.496   4.070
 1962SOL     OW 6784   0.333   6.555   3.335
 1962SOL    HW1 6785   0.380   6.470   3.358
 1962SOL    HW2 6786   0.240   6.535   3.307
 1963SOL     OW 6787   1.562   0.205   2.822
 1963SOL    HW1 6788   1.565   0.302   2.847
 1963SOL    HW2 6789   1.647   0.161   2.850
 1964SOL     OW 6790   5.517   3.737   2.819
 1964SOL    HW1 6791   5.507   3.714   2.915
 1964SOL    HW2 6792   5.532   3.653   2.766
 1965SOL     OW 6793   2.217   5.102   3.514
 1965SOL    HW1 6794   2.191   5.092   3.610
 1965SOL    HW2 6795   2.224   5.198   3.490
 1966SOL     OW 6796   6.024   5.648   5.482
 1966SOL    HW1 6797   5.999   5.552   5.473
 1966SOL    HW2 6798   6.098   5.658   5.549
 1967SOL     OW 6799   4.572   2.322   4.757
 1967SOL    HW1 6800   4.545   2.397   4.697
 1967SOL    HW2 6801   4.504   2.312   4.830
 1968SOL     OW 6802   3.301   5.067   5.911
 1968SOL    HW1 6803   3.281   4.973   5.940
 1968SOL    HW2 6804   3.281   5.129   5.987
 1969SOL     OW 6805   6.315   2.560   1.516
 1969SOL    HW1 6806   6.349   2.569   1.423
 1969SOL    HW2 6807   6.254   2.481   1.522
 1970SOL     OW 6808   1.995   0.091   3.645
 1970SOL    HW1 6809   2.028   0.000   3.672
 1970SOL    HW2 6810   1.990   0.150   3.725
 1971SOL     OW 6811   0.602   6.396   6.337
 1971SOL    HW1 6812   0.670   6.468   6.348
 1971SOL    HW2 6813   0.643   6.308   6.359
 1972SOL     OW 6814   0.985   5.007   4.095
 1972SOL    HW1 6815   1.047   5.035   4.168
 1972SOL    HW2 6816   1.038   4.980   4.014
 1973SOL     OW 6817   2.621   3.188   0.593
 1973SOL    HW1 6818   2.646   3.232   0.679
 1973SOL    HW2 6819   2.563   3.249   0.540
 1974SOL     OW 6820   5.870   0.939   4.294
 1974SOL    HW1 6821   5.959   0.978   4.271
 1974SOL    HW2 6822   5.812   0.939   4.213
 1975SOL     OW 6823   3.359   0.895   3.514
 1975SOL    HW1 6824   3.338   0.991   3.530
 1975SOL    HW2 6825   3.443   0.871   3.562
 1976SOL     OW 6826   6.748   4.959   7.016
 1976SOL    HW1 6827   6.794   4.871   7.004
 1976SOL    HW2 6828   6.650   4.943   0.011
 1977SOL     OW 6829   2.038   2.821   4.926
 1977SOL    HW1 6830   2.046   2.786   5.019
 1977SOL    HW2 6831   2.001   2.914   4.928
 1978SOL     OW 6832   6.811   1.426   4.867
 1978SOL    HW1 6833   6.756   1.348   4.897
 1978SOL    HW2 6834   6.801   1.501   4.932
 1979SOL     OW 6835   6.045   5.294   3.670
 1979SOL    HW1 6836   5.997   5.245   3.598
 1979SOL    HW2 6837   6.035   5.393   3.656
 1980SOL     OW 6838   3.970   0.396   1.312
 1980SOL    HW1 6839   3.920   0.317   1.276
 1980SOL    HW2 6840   3.908   0.474   1.319
 1981SOL     OW 6841   4.767   3.194   1.725
 1981SOL    HW1 6842   4.709   3.133   1.779
 1981SOL    HW2 6843   4.714   3.274   1.697
 1982SOL     OW 6844   5.595   6.835   4.814
 1982SOL    HW1 6845   5.503   6.818   4.849
 1982SOL    HW2 6846   5.624   6.927   4.841
 1983SOL     OW 6847   0.934   3.521   3.162
 1983SOL    HW1 6848   0.903   3.614   3.183
 1983SOL    HW2 6849   1.023   3.524   3.118
 1984SOL     OW 6850   4.223   0.337   6.251
 1984SOL    HW1 6851   4.293   0.270   6.228
 1984SOL    HW2 6852   4.152   0.293   6.307
 1985SOL     OW 6853   1.324   0.125   1.474
 1985SOL    HW1 6854   1.290   0.179   1.551
 1985SOL    HW2 6855   1.247   0.086   1.423
 1986SOL     OW 6856   1.238   1.940   6.332
 1986SOL    HW1 6857   1.300   1.915   6.258
 1986SOL    HW2 6858   1.166   2.000   6.296
 1987SOL     OW 6859   2.919   3.274   6.401
 1987SOL    HW1 6860   2.987   3.203   6.420
 1987SOL    HW2 6861   2.835   3.254   6.452
 1988SOL     OW 6862   4.827   3.103   0.870
 1988SOL    HW1 6863   4.849   3.149   0.784
 1988SOL    HW2 6864   4.872   3.152   0.946
 1989SOL     OW 6865   2.817   0.600   4.414
 1989SOL    HW1 6866   2.727   0.632   4.385
 1989SOL    HW2 6867   2.809   0.509   4.455
 1990SOL     OW 6868   2.691   1.247   2.371
 1990SOL    HW1 6869   2.595   1.247   2.400
 1990SOL    HW2 6870   2.709   1.166   2.315
 1991SOL     OW 6871   3.754   5.514   4.527
 1991SOL    HW1 6872   3.728   5.571   4.449
 1991SOL    HW2 6873   3.833   5.555   4.573
 1992SOL     OW 6874   2.335   6.524   5.149
 1992SOL    HW1 6875   2.389   6.608   5.154
 1992SOL    HW2 6876   2.391   6.450   5.110
 1993SOL     OW 6877   3.873   3.418   5.276
 1993SOL    HW1 6878   3.860   3.512   5.307
 1993SOL    HW2 6879   3.971   3.400   5.267
 1994SOL     OW 6880   6.038   2.341   2.089
 1994SOL    HW1 6881   6.033   2.242   2.096
 1994SOL    HW2 6882   6.042   2.368   1.993
 1995SOL     OW 6883   5.331   2.475   1.512
 1995SOL    HW1 6884   5.355   2.509   1.603
 1995SOL    HW2 6885   5.242   2.429   1.516
 1996SOL     OW 6886   2.947   4.508   6.976
 1996SOL    HW1 6887   3.016   4.556   0.012
 1996SOL    HW2 6888   2.893   4.575   6.925
 1997SOL     OW 6889   5.443   0.916   3.926
 1997SOL    HW1 6890   5.382   0.967   3.986
 1997SOL    HW2 6891   5.438   0.954   3.833
 1998SOL     OW 6892   2.910   4.848   5.068
 1998SOL    HW1 6893   2.847   4.921   5.096
 1998SOL    HW2 6894   2.864   4.760   5.071
 1999SOL     OW 6895   1.646   1.166   2.206
 1999SOL    HW1 6896   1.700   1.160   2.290
 1999SOL    HW2 6897   1.549   1.161   2.228
 2000SOL     OW 6898   3.841   1.907   5.006
 2000SOL    HW1 6899   3.836   1.993   4.955
 2000SOL    HW2 6900   3.796   1.917   5.094
 2001SOL     OW 6901   3.352   2.767   0.495
 2001SOL    HW1 6902   3.295   2.785   0.414
 2001SOL    HW2 6903   3.312   2.693   0.548
 2002SOL     OW 6904   1.798   4.792   4.664
 2002SOL    HW1 6905   1.822   4.708   4.712
 2002SOL    HW2 6906   1.780   4.772   4.567
 2003SOL     OW 6907   6.292   5.905   3.983
 2003SOL    HW1 6908   6.341   5.831   4.029
 2003SOL    HW2 6909   6.357   5.969   3.944
 2004SOL     OW 6910   3.058   0.958   6.008
 2004SOL    HW1 6911   3.114   0.889   5.963
 2004SOL    HW2 6912   3.059   0.942   6.107
 2005SOL     OW 6913   2.753   6.128   5.856
 2005SOL    HW1 6914   2.852   6.144   5.860
 2005SOL    HW2 6915   2.733   6.069   5.778
 2006SOL     OW 6916   4.107   4.803   4.031
 2006SOL    HW1 6917   4.164   4.846   4.101
 2006SOL    HW2 6918   4.014   4.840   4.036
 2007SOL     OW 6919   5.769   5.534   0.261
 2007SOL    HW1 6920   5.815   5.557   0.175
 2007SOL    HW2 6921   5.737   5.439   0.257
 2008SOL     OW 6922   0.416   5.997   4.061
 2008SOL    HW1 6923   0.420   5.944   4.146
 2008SOL    HW2 6924   0.437   5.937   3.984
 2009SOL     OW 6925   0.365   0.252   2.006
 2009SOL    HW1 6926   0.388   0.250   1.909
 2009SOL    HW2 6927   0.327   0.342   2.029
 2010SOL     OW 6928   1.616   6.848   0.830
 2010SOL    HW1 6929   1.705   6.836   0.875
 2010SOL    HW2 6930   1.592   6.946   0.830
 2011SOL     OW 6931   6.905   2.526   5.281
 2011SOL    HW1 6932   6.866   2.451   5.335
 2011SOL    HW2 6933   7.003   2.532   5.299
 2012SOL     OW 6934   1.008   3.681   0.982
 2012SOL    HW1 6935   1.043   3.699   1.074
 2012SOL    HW2 6936   1.080   3.644   0.925
 2013SOL     OW 6937   4.399   1.627   2.127
 2013SOL    HW1 6938   4.394   1.716   2.082
 2013SOL    HW2 6939   4.349   1.559   2.073
 2014SOL     OW 6940   2.411   5.823   3.483
 2014SOL    HW1 6941   2.508   5.845   3.477
 2014SOL    HW2 6942   2.397   5.727   3.458
 2015SOL     OW 6943   3.289   0.054   6.551
 2015SOL    HW1 6944   3.377   0.017   6.581
 2015SOL    HW2 6945   3.223   6.998   6.541
 2016SOL     OW 6946   6.612   4.955   4.132
 2016SOL    HW1 6947   6.547   5.009   4.184
 2016SOL    HW2 6948   6.609   4.859   4.163
 2017SOL     OW 6949   2.734   5.879   2.347
 2017SOL    HW1 6950   2.770   5.848   2.259
 2017SOL    HW2 6951   2.772   5.823   2.420
 2018SOL     OW 6952   0.533   5.333   5.674
 2018SOL    HW1 6953   0.436   5.315   5.692
 2018SOL    HW2 6954   0.562   5.411   5.729
 2019SOL     OW 6955   6.187   1.387   2.160
 2019SOL    HW1 6956   6.229   1.478   2.166
 2019SOL    HW2 6957   6.254   1.317   2.185
 2020SOL     OW 6958   2.433   5.860   3.032
 2020SOL    HW1 6959   2.441   5.933   2.964
 2020SOL    HW2 6960   2.353   5.876   3.089
 2021SOL     OW 6961   0.992   0.081   2.002
 2021SOL    HW1 6962   1.020   0.022   2.078
 2021SOL    HW2 6963   0.936   0.028   1.938
 2022SOL     OW 6964   2.184   3.902   1.842
 2022SOL    HW1 6965   2.224   3.979   1.792
 2022SOL    HW2 6966   2.248   3.869   1.911
 2023SOL     OW 6967   6.718   0.711   5.509
 2023SOL    HW1 6968   6.753   0.804   5.521
 2023SOL    HW2 6969   6.721   0.686   5.413
 2024SOL     OW 6970   5.955   1.373   3.551
 2024SOL    HW1 6971   6.011   1.456   3.552
 2024SOL    HW2 6972   5.936   1.345   3.645
 2025SOL     OW 6973   6.683   1.194   1.556
 2025SOL    HW1 6974   6.618   1.203   1.632
 2025SOL    HW2 6975   6.755   1.130   1.582
 2026SOL     OW 6976   1.797   1.714   5.724
 2026SOL    HW1 6977   1.809   1.640   5.658
 2026SOL    HW2 6978   1.771   1.676   5.812
 2027SOL     OW 6979   0.634   1.382   2.942
 2027SOL    HW1 6980   0.574   1.454   2.976
 2027SOL    HW2 6981   0.584   1.324   2.879
 2028SOL     OW 6982   4.212   2.805   7.002
 2028SOL    HW1 6983   4.215   2.814   6.902
 2028SOL    HW2 6984   4.117   2.806   0.015
 2029SOL     OW 6985   1.557   0.632   0.443
 2029SOL    HW1 6986   1.503   0.716   0.437
 2029SOL    HW2 6987   1.580   0.600   0.351
 2030SOL     OW 6988   1.746   0.833   3.045
 2030SOL    HW1 6989   1.720   0.914   3.098
 2030SOL    HW2 6990   1.742   0.752   3.104
 2031SOL     OW 6991   5.258   6.813   2.253
 2031SOL    HW1 6992   5.351   6.777   2.261
 2031SOL    HW2 6993   5.236   6.828   2.157
 2032SOL     OW 6994   5.187   6.684   1.228
 2032SOL    HW1 6995   5.172   6.591   1.259
 2032SOL    HW2 6996   5.283   6.695   1.201
 2033SOL     OW 6997   5.902   5.083   0.231
 2033SOL    HW1 6998   5.912   5.028   0.148
 2033SOL    HW2 6999   5.981   5.068   0.290
 2034SOL     OW 7000   2.049   0.092   3.013
 2034SOL    HW1 7001   1.952   0.097   2.991
 2034SOL    HW2 7002   2.072   0.001   3.046
 2035SOL     OW 7003   1.266   3.097   2.220
 2035SOL    HW1 7004   1.176   3.059   2.240
 2035SOL    HW2 7005   1.302   3.141   2.302
 2036SOL     OW 7006   1.819   4.505   0.579
 2036SOL    HW1 7007   1.744   4.556   0.621
 2036SOL    HW2 7008   1.819   4.411   0.613
 2037SOL     OW 7009   0.362   1.222   6.487
 2037SOL    HW1 7010   0.435   1.153   6.485
 2037SOL    HW2 7011   0.314   1.217   6.574
 2038SOL     OW 7012   0.745   1.040   4.757
 2038SOL    HW1 7013   0.697   1.125   4.775
 2038SOL    HW2 7014   0.680   0.964   4.756
 2039SOL     OW 7015   0.801   5.799   2.693
 2039SOL    HW1 7016   0.876   5.862   2.710
 2039SOL    HW2 7017   0.741   5.836   2.623
 2040SOL     OW 7018   4.140   3.347   4.773
 2040SOL    HW1 7019   4.193   3.349   4.688
 2040SOL    HW2 7020   4.074   3.422   4.772
 2041SOL     OW 7021   6.230   4.296   5.770
 2041SOL    HW1 7022   6.206   4.206   5.733
 2041SOL    HW2 7023   6.153   4.358   5.757
 2042SOL     OW 7024   4.311   5.186   6.810
 2042SOL    HW1 7025   4.336   5.279   6.783
 2042SOL    HW2 7026   4.279   5.186   6.905
 2043SOL     OW 7027   5.168   4.803   2.226
 2043SOL    HW1 7028   5.087   4.851   2.193
 2043SOL    HW2 7029   5.142   4.742   2.301
 2044SOL     OW 7030   6.498   0.553   1.715
 2044SOL    HW1 7031   6.546   0.624   1.663
 2044SOL    HW2 7032   6.421   0.594   1.764
 2045SOL     OW 7033   1.767   5.185   6.017
 2045SOL    HW1 7034   1.760   5.236   5.931
 2045SOL    HW2 7035   1.863   5.176   6.042
 2046SOL     OW 7036   5.992   0.329   5.192
 2046SOL    HW1 7037   6.008   0.426   5.211
 2046SOL    HW2 7038   5.894   0.310   5.199
 2047SOL     OW 7039   5.572   2.769   0.172
 2047SOL    HW1 7040   5.592   2.676   0.139
 2047SOL    HW2 7041   5.648   2.829   0.149
 2048SOL     OW 7042   4.418   0.029   5.623
 2048SOL    HW1 7043   4.484   0.010   5.695
 2048SOL    HW2 7044   4.386   0.124   5.630
 2049SOL     OW 7045   5.103   0.203   0.460
 2049SOL    HW1 7046   5.179   0.166   0.513
 2049SOL    HW2 7047   5.114   0.178   0.364
 2050SOL     OW 7048   5.766   2.291   4.067
 2050SOL    HW1 7049   5.689   2.342   4.028
 2050SOL    HW2 7050   5.851   2.326   4.029
 2051SOL     OW 7051   1.966   5.179   0.218
 2051SOL    HW1 7052   2.060   5.150   0.238
 2051SOL    HW2 7053   1.945   5.159   0.122
 2052SOL     OW 7054   0.900   3.481   0.565
 2052SOL    HW1 7055   0.909   3.580   0.568
 2052SOL    HW2 7056   0.923   3.443   0.655
 2053SOL     OW 7057   5.730   0.958   0.340
 2053SOL    HW1 7058   5.740   0.867   0.300
 2053SOL    HW2 7059   5.814   0.983   0.387
 2054SOL     OW 7060   6.084   2.634   0.917
 2054SOL    HW1 7061   6.047   2.561   0.974
 2054SOL    HW2 7062   6.026   2.715   0.925
 2055SOL     OW 7063   5.512   3.006   4.140
 2055SOL    HW1 7064   5.426   3.033   4.184
 2055SOL    HW2 7065   5.530   2.909   4.160
 2056SOL     OW 7066   1.487   0.781   3.299
 2056SOL    HW1 7067   1.519   0.694   3.259
 2056SOL    HW2 7068   1.415   0.819   3.240
 2057SOL     OW 7069   0.146   2.900   4.306
 2057SOL    HW1 7070   0.146   2.940   4.214
 2057SOL    HW2 7071   0.202   2.956   4.367
 2058SOL     OW 7072   6.791   2.267   2.018
 2058SOL    HW1 7073   6.847   2.188   2.045
 2058SOL    HW2 7074   6.779   2.266   1.918
 2059SOL     OW 7075   1.459   1.568   0.010
 2059SOL    HW1 7076   1.442   1.645   6.967
 2059SOL    HW2 7077   1.557   1.558   0.024
 2060SOL     OW 7078   1.113   5.190   2.589
 2060SOL    HW1 7079   1.176   5.253   2.634
 2060SOL    HW2 7080   1.094   5.113   2.650
 2061SOL     OW 7081   6.361   1.721   1.737
 2061SOL    HW1 7082   6.416   1.652   1.783
 2061SOL    HW2 7083   6.303   1.768   1.804
 2062SOL     OW 7084   4.677   0.601   3.393
 2062SOL    HW1 7085   4.719   0.570   3.307
 2062SOL    HW2 7086   4.644   0.694   3.382
 2063SOL     OW 7087   2.153   2.497   6.560
 2063SOL    HW1 7088   2.101   2.457   6.484
 2063SOL    HW2 7089   2.224   2.557   6.524
 2064SOL     OW 7090   0.893   2.476   0.158
 2064SOL    HW1 7091   0.887   2.494   0.060
 2064SOL    HW2 7092   0.803   2.490   0.200
 2065SOL     OW 7093   6.279   3.303   1.778
 2065SOL    HW1 7094   6.353   3.328   1.841
 2065SOL    HW2 7095   6.317   3.291   1.686
 2066SOL     OW 7096   1.527   6.758   4.562
 2066SOL    HW1 7097   1.571   6.698   4.630
 2066SOL    HW2 7098   1.595   6.819   4.522
 2067SOL     OW 7099   6.386   0.228   1.333
 2067SOL    HW1 7100   6.396   0.135   1.297
 2067SOL    HW2 7101   6.474   0.260   1.367
 2068SOL     OW 7102   1.528   1.749   5.329
 2068SOL    HW1 7103   1.515   1.758   5.230
 2068SOL    HW2 7104   1.602   1.808   5.358
 2069SOL     OW 7105   0.592   2.287   1.574
 2069SOL    HW1 7106   0.652   2.210   1.597
 2069SOL    HW2 7107   0.624   2.369   1.621
 2070SOL     OW 7108   0.845   0.734   2.713
 2070SOL    HW1 7109   0.807   0.812   2.762
 2070SOL    HW2 7110   0.911   0.765   2.645
 2071SOL     OW 7111   1.753   6.823   4.378
 2071SOL    HW1 7112   1.801   6.744   4.340
 2071SOL    HW2 7113   1.780   6.906   4.328
 2072SOL     OW 7114   4.925   5.271   1.586
 2072SOL    HW1 7115   4.991   5.344   1.572
 2072SOL    HW2 7116   4.871   5.259   1.503
 2073SOL     OW 7117   2.337   6.574   5.915
 2073SOL    HW1 7118   2.353   6.515   5.995
 2073SOL    HW2 7119   2.333   6.669   5.944
 2074SOL     OW 7120   5.504   1.384   2.096
 2074SOL    HW1 7121   5.496   1.391   2.195
 2074SOL    HW2 7122   5.466   1.466   2.053
 2075SOL     OW 7123   4.674   3.606   6.910
 2075SOL    HW1 7124   4.625   3.688   6.877
 2075SOL    HW2 7125   4.754   3.634   6.962
 2076SOL     OW 7126   4.889   0.229   1.134
 2076SOL    HW1 7127   4.846   0.272   1.055
 2076SOL    HW2 7128   4.988   0.248   1.133
 2077SOL     OW 7129   5.646   0.792   2.847
 2077SOL    HW1 7130   5.641   0.697   2.816
 2077SOL    HW2 7131   5.657   0.794   2.947
 2078SOL     OW 7132   3.145   5.052   5.676
 2078SOL    HW1 7133   3.196   4.997   5.609
 2078SOL    HW2 7134   3.207   5.079   5.750
 2079SOL     OW 7135   5.627   1.229   3.956
 2079SOL    HW1 7136   5.698   1.277   3.904
 2079SOL    HW2 7137   5.542   1.228   3.903
 2080SOL     OW 7138   2.770   2.328   4.209
 2080SOL    HW1 7139   2.825   2.288   4.282
 2080SOL    HW2 7140   2.687   2.369   4.248
 2081SOL     OW 7141   0.528   6.589   5.262
 2081SOL    HW1 7142   0.512   6.505   5.212
 2081SOL    HW2 7143   0.442   6.625   5.297
 2082SOL     OW 7144   5.452   0.702   1.517
 2082SOL    HW1 7145   5.356   0.694   1.542
 2082SOL    HW2 7146   5.461   0.748   1.429
 2083SOL     OW 7147   3.250   5.485   5.652
 2083SOL    HW1 7148   3.189   5.425   5.600
 2083SOL    HW2 7149   3.331   5.504   5.597
 2084SOL     OW 7150   0.054   2.864   3.484
 2084SOL    HW1 7151   0.100   2.939   3.531
 2084SOL    HW2 7152   0.056   2.782   3.541
 2085SOL     OW 7153   5.513   0.200   5.865
 2085SOL    HW1 7154   5.498   0.212   5.963
 2085SOL    HW2 7155   5.510   0.289   5.820
 2086SOL     OW 7156   2.910   5.175   0.708
 2086SOL    HW1 7157   2.949   5.203   0.796
 2086SOL    HW2 7158   2.913   5.252   0.644
 2087SOL     OW 7159   5.312   6.918   3.894
 2087SOL    HW1 7160   5.410   6.900   3.891
 2087SOL    HW2 7161   5.297   7.013   3.924
 2088SOL     OW 7162   3.302   0.134   0.696
 2088SOL    HW1 7163   3.281   0.203   0.627
 2088SOL    HW2 7164   3.379   0.078   0.665
 2089SOL     OW 7165   4.041   0.383   6.944
 2089SOL    HW1 7166   4.016   0.368   6.848
 2089SOL    HW2 7167   4.107   0.458   6.950
 2090SOL     OW 7168   3.822   3.324   4.566
 2090SOL    HW1 7169   3.733   3.364   4.587
 2090SOL    HW2 7170   3.833   3.316   4.467
 2091SOL     OW 7171   1.991   4.637   1.216
 2091SOL    HW1 7172   1.933   4.615   1.137
 2091SOL    HW2 7173   1.962   4.583   1.295
 2092SOL     OW 7174   6.407   6.478   0.729
 2092SOL    HW1 7175   6.428   6.392   0.683
 2092SOL    HW2 7176   6.372   6.544   0.662
 2093SOL     OW 7177   1.206   2.962   1.781
 2093SOL    HW1 7178   1.160   2.877   1.756
 2093SOL    HW2 7179   1.246   2.952   1.872
 2094SOL     OW 7180   5.971   0.104   2.343
 2094SOL    HW1 7181   6.031   0.136   2.270
 2094SOL    HW2 7182   6.004   0.017   2.378
 2095SOL     OW 7183   6.106   4.930   5.006
 2095SOL    HW1 7184   6.149   4.872   5.074
 2095SOL    HW2 7185   6.021   4.968   5.043
 2096SOL     OW 7186   4.695   4.129   2.601
 2096SOL    HW1 7187   4.780   4.178   2.617
 2096SOL    HW2 7188   4.693   4.045   2.655
 2097SOL     OW 7189   0.350   2.574   0.243
 2097SOL    HW1 7190   0.321   2.608   0.154
 2097SOL    HW2 7191   0.427   2.510   0.231
 2098SOL     OW 7192   4.736   0.470   4.367
 2098SOL    HW1 7193   4.747   0.377   4.333
 2098SOL    HW2 7194   4.750   0.535   4.292
 2099SOL     OW 7195   3.178   1.674   4.453
 2099SOL    HW1 7196   3.259   1.655   4.509
 2099SOL    HW2 7197   3.100   1.696   4.512
 2100SOL     OW 7198   4.476   3.918   6.471
 2100SOL    HW1 7199   4.499   3.861   6.392
 2100SOL    HW2 7200   4.534   4.000   6.471
 2101SOL     OW 7201   0.060   7.009   4.016
 2101SOL    HW1 7202   0.110   0.013   3.932
 2101SOL    HW2 7203   0.111   0.024   4.095
 2102SOL     OW 7204   0.216   4.904   2.516
 2102SOL    HW1 7205   0.178   4.851   2.592
 2102SOL    HW2 7206   0.302   4.863   2.486
 2103SOL     OW 7207   3.392   3.828   6.481
 2103SOL    HW1 7208   3.442   3.902   6.526
 2103SOL    HW2 7209   3.410   3.830   6.383
 2104SOL     OW 7210   1.524   3.581   5.511
 2104SOL    HW1 7211   1.550   3.587   5.415
 2104SOL    HW2 7212   1.563   3.659   5.561
 2105SOL     OW 7213   5.767   5.625   1.670
 2105SOL    HW1 7214   5.748   5.543   1.723
 2105SOL    HW2 7215   5.866   5.635   1.659
 2106SOL     OW 7216   4.859   5.633   6.758
 2106SOL    HW1 7217   4.884   5.559   6.696
 2106SOL    HW2 7218   4.942   5.675   6.796
 2107SOL     OW 7219   3.867   4.228   6.204
 2107SOL    HW1 7220   3.846   4.162   6.132
 2107SOL    HW2 7221   3.966   4.242   6.209
 2108SOL     OW 7222   5.829   5.235   6.342
 2108SOL    HW1 7223   5.907   5.213   6.284
 2108SOL    HW2 7224   5.758   5.166   6.331
 2109SOL     OW 7225   5.907   6.825   2.867
 2109SOL    HW1 7226   5.861   6.911   2.891
 2109SOL    HW2 7227   5.916   6.768   2.949
 2110SOL     OW 7228   2.593   4.436   6.428
 2110SOL    HW1 7229   2.557   4.421   6.336
 2110SOL    HW2 7230   2.551   4.518   6.467
 2111SOL     OW 7231   1.278   2.736   0.226
 2111SOL    HW1 7232   1.363   2.722   0.174
 2111SOL    HW2 7233   1.266   2.834   0.243
 2112SOL     OW 7234   4.709   3.036   1.387
 2112SOL    HW1 7235   4.790   2.977   1.387
 2112SOL    HW2 7236   4.676   3.048   1.481
 2113SOL     OW 7237   0.116   0.672   2.623
 2113SOL    HW1 7238   0.050   0.716   2.562
 2113SOL    HW2 7239   0.087   0.578   2.642
 2114SOL     OW 7240   2.138   4.021   6.841
 2114SOL    HW1 7241   2.071   3.966   6.891
 2114SOL    HW2 7242   2.197   4.068   6.906
 2115SOL     OW 7243   2.403   4.541   2.321
 2115SOL    HW1 7244   2.495   4.570   2.297
 2115SOL    HW2 7245   2.357   4.614   2.371
 2116SOL     OW 7246   0.272   4.030   3.279
 2116SOL    HW1 7247   0.209   4.104   3.300
 2116SOL    HW2 7248   0.231   3.968   3.212
 2117SOL     OW 7249   0.457   4.992   0.882
 2117SOL    HW1 7250   0.389   5.066   0.881
 2117SOL    HW2 7251   0.424   4.918   0.940
 2118SOL     OW 7252   6.903   3.821   2.299
 2118SOL    HW1 7253   6.931   3.900   2.244
 2118SOL    HW2 7254   6.984   3.767   2.323
 2119SOL     OW 7255   2.664   6.029   1.499
 2119SOL    HW1 7256   2.758   6.056   1.520
 2119SOL    HW2 7257   2.606   6.043   1.579
 2120SOL     OW 7258   6.857   5.067   2.209
 2120SOL    HW1 7259   6.817   5.155   2.234
 2120SOL    HW2 7260   6.922   5.039   2.279
 2121SOL     OW 7261   0.536   5.274   4.836
 2121SOL    HW1 7262   0.530   5.180   4.870
 2121SOL    HW2 7263   0.503   5.278   4.742
 2122SOL     OW 7264   4.711   4.200   4.873
 2122SOL    HW1 7265   4.799   4.156   4.857
 2122SOL    HW2 7266   4.647   4.135   4.914
 2123SOL     OW 7267   6.017   4.742   3.255
 2123SOL    HW1 7268   6.043   4.690   3.336
 2123SOL    HW2 7269   6.001   4.838   3.280
 2124SOL     OW 7270   1.896   2.411   0.700
 2124SOL    HW1 7271   1.826   2.391   0.632
 2124SOL    HW2 7272   1.966   2.340   0.699
 2125SOL     OW 7273   2.977   0.233   0.635
 2125SOL    HW1 7274   3.025   0.292   0.570
 2125SOL    HW2 7275   2.982   0.138   0.604
 2126SOL     OW 7276   2.710   0.815   0.306
 2126SOL    HW1 7277   2.672   0.723   0.295
 2126SOL    HW2 7278   2.731   0.830   0.403
 2127SOL     OW 7279   5.685   3.380   5.159
 2127SOL    HW1 7280   5.686   3.461   5.101
 2127SOL    HW2 7281   5.778   3.356   5.185
 2128SOL     OW 7282   0.545   4.935   4.348
 2128SOL    HW1 7283   0.640   4.929   4.317
 2128SOL    HW2 7284   0.501   5.014   4.304
 2129SOL     OW 7285   3.774   1.630   5.559
 2129SOL    HW1 7286   3.674   1.638   5.552
 2129SOL    HW2 7287   3.799   1.611   5.654
 2130SOL     OW 7288   4.436   5.982   2.193
 2130SOL    HW1 7289   4.444   6.079   2.218
 2130SOL    HW2 7290   4.510   5.958   2.130
 2131SOL     OW 7291   6.861   1.608   0.453
 2131SOL    HW1 7292   6.780   1.604   0.395
 2131SOL    HW2 7293   6.863   1.695   0.502
 2132SOL     OW 7294   2.093   3.277   0.451
 2132SOL    HW1 7295   2.129   3.302   0.361
 2132SOL    HW2 7296   2.060   3.360   0.497
 2133SOL     OW 7297   3.051   2.752   5.907
 2133SOL    HW1 7298   2.960   2.746   5.865
 2133SOL    HW2 7299   3.041   2.770   6.005
 2134SOL     OW 7300   1.108   0.127   0.252
 2134SOL    HW1 7301   1.145   0.220   0.246
 2134SOL    HW2 7302   1.174   0.063   0.214
 2135SOL     OW 7303   0.588   3.887   4.094
 2135SOL    HW1 7304   0.584   3.927   4.003
 2135SOL    HW2 7305   0.537   3.801   4.094
 2136SOL     OW 7306   2.160   5.855   2.053
 2136SOL    HW1 7307   2.211   5.781   2.009
 2136SOL    HW2 7308   2.181   5.942   2.009
 2137SOL     OW 7309   2.238   5.603   3.690
 2137SOL    HW1 7310   2.296   5.530   3.726
 2137SOL    HW2 7311   2.266   5.690   3.730
 2138SOL     OW 7312   5.018   1.636   2.397
 2138SOL    HW1 7313   4.992   1.567   2.464
 2138SOL    HW2 7314   5.104   1.680   2.425
 2139SOL     OW 7315   2.459   0.951   5.497
 2139SOL    HW1 7316   2.432   0.897   5.417
 2139SOL    HW2 7317   2.422   0.908   5.579
 2140SOL     OW 7318   2.366   1.474   5.608
 2140SOL    HW1 7319   2.434   1.522   5.665
 2140SOL    HW2 7320   2.402   1.464   5.516
 2141SOL     OW 7321   6.258   4.480   2.639
 2141SOL    HW1 7322   6.324   4.460   2.711
 2141SOL    HW2 7323   6.167   4.491   2.679
 2142SOL     OW 7324   1.966   1.118   2.831
 2142SOL    HW1 7325   1.894   1.086   2.770
 2142SOL    HW2 7326   1.927   1.176   2.902
 2143SOL     OW 7327   1.283   4.729   0.394
 2143SOL    HW1 7328   1.330   4.813   0.422
 2143SOL    HW2 7329   1.195   4.753   0.352
 2144SOL     OW 7330   6.096   6.054   4.130
 2144SOL    HW1 7331   6.064   6.013   4.215
 2144SOL    HW2 7332   6.164   5.994   4.088
 2145SOL     OW 7333   4.211   0.092   3.525
 2145SOL    HW1 7334   4.272   0.082   3.447
 2145SOL    HW2 7335   4.254   0.153   3.593
 2146SOL     OW 7336   1.927   3.098   0.610
 2146SOL    HW1 7337   1.958   3.055   0.695
 2146SOL    HW2 7338   2.000   3.154   0.572
 2147SOL     OW 7339   5.893   1.183   4.838
 2147SOL    HW1 7340   5.839   1.181   4.922
 2147SOL    HW2 7341   5.832   1.191   4.760
 2148SOL     OW 7342   0.495   3.267   6.841
 2148SOL    HW1 7343   0.439   3.274   6.758
 2148SOL    HW2 7344   0.577   3.323   6.830
 2149SOL     OW 7345   0.675   0.463   6.914
 2149SOL    HW1 7346   0.658   0.366   6.932
 2149SOL    HW2 7347   0.617   0.493   6.838
 2150SOL     OW 7348   2.377   3.351   0.912
 2150SOL    HW1 7349   2.345   3.416   0.981
 2150SOL    HW2 7350   2.299   3.299   0.877
 2151SOL     OW 7351   1.211   5.683   0.325
 2151SOL    HW1 7352   1.199   5.614   0.396
 2151SOL    HW2 7353   1.239   5.639   0.240
 2152SOL     OW 7354   4.037   5.753   3.909
 2152SOL    HW1 7355   4.048   5.848   3.938
 2152SOL    HW2 7356   4.105   5.696   3.954
 2153SOL     OW 7357   4.655   1.183   3.805
 2153SOL    HW1 7358   4.683   1.154   3.897
 2153SOL    HW2 7359   4.583   1.253   3.813
 2154SOL     OW 7360   2.911   0.041   3.242
 2154SOL    HW1 7361   2.840   6.996   3.271
 2154SOL    HW2 7362   2.985   7.009   3.197
 2155SOL     OW 7363   4.896   6.778   1.108
 2155SOL    HW1 7364   4.885   6.862   1.161
 2155SOL    HW2 7365   4.981   6.782   1.056
 2156SOL     OW 7366   5.958   1.802   4.157
 2156SOL    HW1 7367   5.867   1.844   4.165
 2156SOL    HW2 7368   6.013   1.827   4.236
 2157SOL     OW 7369   3.558   5.667   4.009
 2157SOL    HW1 7370   3.511   5.619   4.083
 2157SOL    HW2 7371   3.543   5.619   3.922
 2158SOL     OW 7372   3.555   0.522   0.257
 2158SOL    HW1 7373   3.652   0.498   0.264
 2158SOL    HW2 7374   3.541   0.578   0.176
 2159SOL     OW 7375   1.545   0.571   5.695
 2159SOL    HW1 7376   1.575   0.479   5.720
 2159SOL    HW2 7377   1.446   0.571   5.681
 2160SOL     OW 7378   5.772   6.121   0.297
 2160SOL    HW1 7379   5.864   6.142   0.331
 2160SOL    HW2 7380   5.716   6.204   0.300
 2161SOL     OW 7381   1.277   2.558   2.498
 2161SOL    HW1 7382   1.256   2.551   2.400
 2161SOL    HW2 7383   1.356   2.618   2.511
 2162SOL     OW 7384   1.081   6.958   2.215
 2162SOL    HW1 7385   1.179   6.970   2.224
 2162SOL    HW2 7386   1.038   6.967   2.305
 2163SOL     OW 7387   1.632   3.050   2.548
 2163SOL    HW1 7388   1.586   2.970   2.509
 2163SOL    HW2 7389   1.731   3.036   2.544
 2164SOL     OW 7390   1.541   2.672   2.558
 2164SOL    HW1 7391   1.596   2.620   2.623
 2164SOL    HW2 7392   1.602   2.714   2.490
 2165SOL     OW 7393   0.064   1.545   3.740
 2165SOL    HW1 7394   0.005   1.613   3.783
 2165SOL    HW2 7395   0.013   1.495   3.671
 2166SOL     OW 7396   6.627   4.065   2.793
 2166SOL    HW1 7397   6.726   4.061   2.779
 2166SOL    HW2 7398   6.606   4.039   2.887
 2167SOL     OW 7399   2.583   1.812   3.761
 2167SOL    HW1 7400   2.531   1.885   3.806
 2167SOL    HW2 7401   2.639   1.765   3.829
 2168SOL     OW 7402   1.909   1.309   3.068
 2168SOL    HW1 7403   2.005   1.335   3.075
 2168SOL    HW2 7404   1.864   1.322   3.156
 2169SOL     OW 7405   0.342   0.556   1.778
 2169SOL    HW1 7406   0.266   0.491   1.780
 2169SOL    HW2 7407   0.306   0.649   1.773
 2170SOL     OW 7408   0.679   4.092   5.312
 2170SOL    HW1 7409   0.665   4.008   5.260
 2170SOL    HW2 7410   0.615   4.162   5.280
 2171SOL     OW 7411   0.558   5.135   1.463
 2171SOL    HW1 7412   0.552   5.112   1.560
 2171SOL    HW2 7413   0.523   5.059   1.408
 2172SOL     OW 7414   1.293   1.521   4.633
 2172SOL    HW1 7415   1.226   1.569   4.577
 2172SOL    HW2 7416   1.283   1.549   4.729
 2173SOL     OW 7417   5.542   0.457   5.148
 2173SOL    HW1 7418   5.475   0.532   5.144
 2173SOL    HW2 7419   5.634   0.493   5.137
 2174SOL     OW 7420   7.008   6.557   5.557
 2174SOL    HW1 7421   6.982   6.463   5.578
 2174SOL    HW2 7422   7.010   6.611   5.640
 2175SOL     OW 7423   2.955   4.042   5.254
 2175SOL    HW1 7424   2.917   3.974   5.318
 2175SOL    HW2 7425   2.946   4.133   5.294
 2176SOL     OW 7426   5.503   2.029   1.545
 2176SOL    HW1 7427   5.509   1.930   1.561
 2176SOL    HW2 7428   5.443   2.046   1.468
 2177SOL     OW 7429   0.653   0.323   3.873
 2177SOL    HW1 7430   0.623   0.364   3.788
 2177SOL    HW2 7431   0.586   0.341   3.945
 2178SOL     OW 7432   0.951   2.140   2.413
 2178SOL    HW1 7433   0.985   2.150   2.507
 2178SOL    HW2 7434   0.855   2.112   2.416
 2179SOL     OW 7435   1.728   4.441   6.160
 2179SOL    HW1 7436   1.763   4.514   6.102
 2179SOL    HW2 7437   1.764   4.353   6.128
 2180SOL     OW 7438   0.706   6.212   2.374
 2180SOL    HW1 7439   0.798   6.252   2.374
 2180SOL    HW2 7440   0.692   6.157   2.456
 2181SOL     OW 7441   4.216   4.810   4.813
 2181SOL    HW1 7442   4.299   4.755   4.801
 2181SOL    HW2 7443   4.202   4.827   4.910
 2182SOL     OW 7444   0.187   5.158   2.532
 2182SOL    HW1 7445   0.256   5.196   2.594
 2182SOL    HW2 7446   0.203   5.060   2.520
 2183SOL     OW 7447   3.469   2.555   0.208
 2183SOL    HW1 7448   3.420   2.477   0.247
 2183SOL    HW2 7449   3.403   2.622   0.174
 2184SOL     OW 7450   6.285   1.251   6.580
 2184SOL    HW1 7451   6.241   1.301   6.655
 2184SOL    HW2 7452   6.249   1.158   6.577
 2185SOL     OW 7453   0.880   0.636   6.922
 2185SOL    HW1 7454   0.893   0.707   6.853
 2185SOL    HW2 7455   0.792   0.590   6.907
 2186SOL     OW 7456   0.024   5.117   5.399
 2186SOL    HW1 7457   6.960   5.103   5.344
 2186SOL    HW2 7458   0.005   5.094   5.495
 2187SOL     OW 7459   0.607   5.584   3.125
 2187SOL    HW1 7460   0.619   5.611   3.029
 2187SOL    HW2 7461   0.665   5.505   3.144
 2188SOL     OW 7462   2.211   0.438   1.149
 2188SOL    HW1 7463   2.142   0.366   1.147
 2188SOL    HW2 7464   2.166   0.527   1.143
 2189SOL     OW 7465   2.713   1.724   1.480
 2189SOL    HW1 7466   2.711   1.626   1.459
 2189SOL    HW2 7467   2.716   1.736   1.580
 2190SOL     OW 7468   6.132   4.140   2.346
 2190SOL    HW1 7469   6.138   4.234   2.313
 2190SOL    HW2 7470   6.038   4.108   2.341
 2191SOL     OW 7471   2.722   6.981   0.608
 2191SOL    HW1 7472   2.686   0.015   0.530
 2191SOL    HW2 7473   2.822   6.987   0.609
 2192SOL     OW 7474   4.219   1.314   1.067
 2192SOL    HW1 7475   4.222   1.414   1.077
 2192SOL    HW2 7476   4.226   1.290   0.971
 2193SOL     OW 7477   1.189   6.595   6.464
 2193SOL    HW1 7478   1.168   6.532   6.390
 2193SOL    HW2 7479   1.109   6.605   6.523
 2194SOL     OW 7480   0.608   3.704   6.116
 2194SOL    HW1 7481   0.665   3.786   6.112
 2194SOL    HW2 7482   0.512   3.729   6.105
 2195SOL     OW 7483   0.720   4.217   6.206
 2195SOL    HW1 7484   0.637   4.205   6.152
 2195SOL    HW2 7485   0.742   4.132   6.254
 2196SOL     OW 7486   2.955   6.349   5.470
 2196SOL    HW1 7487   3.033   6.288   5.457
 2196SOL    HW2 7488   2.969   6.403   5.553
 2197SOL     OW 7489   2.848   5.433   5.570
 2197SOL    HW1 7490   2.754   5.434   5.534
 2197SOL    HW2 7491   2.872   5.341   5.599
 2198SOL     OW 7492   0.585   0.675   6.427
 2198SOL    HW1 7493   0.493   0.659   6.462
 2198SOL    HW2 7494   0.613   0.769   6.448
 2199SOL     OW 7495   4.333   6.526   4.392
 2199SOL    HW1 7496   4.286   6.469   4.325
 2199SOL    HW2 7497   4.267   6.589   4.434
 2200SOL     OW 7498   2.625   1.620   4.443
 2200SOL    HW1 7499   2.573   1.661   4.518
 2200SOL    HW2 7500   2.608   1.671   4.359
 2201SOL     OW 7501   6.028   3.947   3.765
 2201SOL    HW1 7502   5.984   3.863   3.795
 2201SOL    HW2 7503   6.091   3.980   3.835
 2202SOL     OW 7504   3.981   5.863   2.058
 2202SOL    HW1 7505   3.997   5.949   2.106
 2202SOL    HW2 7506   4.058   5.801   2.075
 2203SOL     OW 7507   2.158   3.232   0.830
 2203SOL    HW1 7508   2.124   3.138   0.827
 2203SOL    HW2 7509   2.087   3.293   0.866
 2204SOL     OW 7510   5.115   3.107   1.146
 2204SOL    HW1 7511   5.040   3.047   1.118
 2204SOL    HW2 7512   5.161   3.069   1.226
 2205SOL     OW 7513   0.715   5.015   0.467
 2205SOL    HW1 7514   0.779   5.045   0.537
 2205SOL    HW2 7515   0.626   5.058   0.482
 2206SOL     OW 7516   2.598   2.417   6.208
 2206SOL    HW1 7517   2.596   2.492   6.274
 2206SOL    HW2 7518   2.616   2.453   6.117
 2207SOL     OW 7519   4.641   6.093   0.756
 2207SOL    HW1 7520   4.560   6.038   0.734
 2207SOL    HW2 7521   4.628   6.186   0.724
 2208SOL     OW 7522   0.750   6.036   4.142
 2208SOL    HW1 7523   0.781   6.058   4.234
 2208SOL    HW2 7524   0.675   6.097   4.116
 2209SOL     OW 7525   3.330   5.463   4.417
 2209SOL    HW1 7526   3.394   5.520   4.470
 2209SOL    HW2 7527   3.259   5.428   4.477
 2210SOL     OW 7528   4.682   6.414   1.233
 2210SOL    HW1 7529   4.668   6.505   1.194
 2210SOL    HW2 7530   4.617   6.349   1.191
 2211SOL     OW 7531   6.600   1.386   1.127
 2211SOL    HW1 7532   6.577   1.385   1.225
 2211SOL    HW2 7533   6.589   1.479   1.092
 2212SOL     OW 7534   2.685   5.795   6.556
 2212SOL    HW1 7535   2.619   5.851   6.506
 2212SOL    HW2 7536   2.730   5.851   6.626
 2213SOL     OW 7537   3.489   2.046   4.405
 2213SOL    HW1 7538   3.414   2.030   4.341
 2213SOL    HW2 7539   3.457   2.102   4.481
 2214SOL     OW 7540   3.884   3.292   6.414
 2214SOL    HW1 7541   3.815   3.225   6.386
 2214SOL    HW2 7542   3.922   3.337   6.334
 2215SOL     OW 7543   4.263   0.049   6.865
 2215SOL    HW1 7544   4.356   0.067   6.898
 2215SOL    HW2 7545   4.255   0.078   6.770
 2216SOL     OW 7546   0.600   6.918   6.137
 2216SOL    HW1 7547   0.602   6.843   6.071
 2216SOL    HW2 7548   0.575   7.003   6.091
 2217SOL     OW 7549   4.193   0.339   3.212
 2217SOL    HW1 7550   4.178   0.289   3.127
 2217SOL    HW2 7551   4.123   0.411   3.221
 2218SOL     OW 7552   0.366   5.261   6.035
 2218SOL    HW1 7553   0.316   5.190   6.085
 2218SOL    HW2 7554   0.336   5.261   5.940
 2219SOL     OW 7555   5.563   1.156   0.471
 2219SOL    HW1 7556   5.629   1.121   0.404
 2219SOL    HW2 7557   5.609   1.222   0.530
 2220SOL     OW 7558   0.637   5.863   5.667
 2220SOL    HW1 7559   0.617   5.947   5.718
 2220SOL    HW2 7560   0.555   5.833   5.618
 2221SOL     OW 7561   6.674   1.423   3.847
 2221SOL    HW1 7562   6.662   1.479   3.765
 2221SOL    HW2 7563   6.771   1.417   3.868
 2222SOL     OW 7564   4.638   6.073   1.484
 2222SOL    HW1 7565   4.583   5.999   1.523
 2222SOL    HW2 7566   4.650   6.058   1.386
 2223SOL     OW 7567   6.757   6.537   5.859
 2223SOL    HW1 7568   6.702   6.547   5.942
 2223SOL    HW2 7569   6.714   6.468   5.800
 2224SOL     OW 7570   5.635   3.897   0.519
 2224SOL    HW1 7571   5.671   3.868   0.430
 2224SOL    HW2 7572   5.594   3.818   0.566
 2225SOL     OW 7573   0.312   0.044   3.360
 2225SOL    HW1 7574   0.396   0.009   3.318
 2225SOL    HW2 7575   0.304   0.141   3.341
 2226SOL     OW 7576   2.249   5.085   0.879
 2226SOL    HW1 7577   2.231   5.046   0.969
 2226SOL    HW2 7578   2.302   5.169   0.888
 2227SOL     OW 7579   4.127   2.256   2.012
 2227SOL    HW1 7580   4.213   2.265   2.063
 2227SOL    HW2 7581   4.071   2.337   2.026
 2228SOL     OW 7582   5.063   5.170   0.171
 2228SOL    HW1 7583   5.048   5.193   0.075
 2228SOL    HW2 7584   5.144   5.112   0.180
 2229SOL     OW 7585   3.809   3.330   4.294
 2229SOL    HW1 7586   3.796   3.250   4.236
 2229SOL    HW2 7587   3.771   3.410   4.249
 2230SOL     OW 7588   5.438   6.482   0.733
 2230SOL    HW1 7589   5.477   6.399   0.694
 2230SOL    HW2 7590   5.495   6.560   0.710
 2231SOL     OW 7591   1.189   0.205   6.914
 2231SOL    HW1 7592   1.281   0.212   6.954
 2231SOL    HW2 7593   1.154   0.297   6.896
 2232SOL     OW 7594   1.380   0.466   5.487
 2232SOL    HW1 7595   1.459   0.405   5.482
 2232SOL    HW2 7596   1.300   0.421   5.449
 2233SOL     OW 7597   2.898   3.697   0.700
 2233SOL    HW1 7598   2.881   3.649   0.786
 2233SOL    HW2 7599   2.928   3.631   0.631
 2234SOL     OW 7600   4.187   1.273   0.790
 2234SOL    HW1 7601   4.214   1.204   0.723
 2234SOL    HW2 7602   4.194   1.364   0.749
 2235SOL     OW 7603   2.572   1.017   2.675
 2235SOL    HW1 7604   2.591   1.094   2.735
 2235SOL    HW2 7605   2.504   1.044   2.606
 2236SOL     OW 7606   2.200   4.147   5.524
 2236SOL    HW1 7607   2.280   4.206   5.513
 2236SOL    HW2 7608   2.168   4.152   5.619
 2237SOL     OW 7609   6.371   4.881   4.878
 2237SOL    HW1 7610   6.345   4.900   4.783
 2237SOL    HW2 7611   6.357   4.963   4.934
 2238SOL     OW 7612   5.364   4.085   2.308
 2238SOL    HW1 7613   5.327   4.046   2.223
 2238SOL    HW2 7614   5.342   4.182   2.312
 2239SOL     OW 7615   3.971   6.734   3.822
 2239SOL    HW1 7616   3.984   6.787   3.906
 2239SOL    HW2 7617   4.013   6.781   3.745
 2240SOL     OW 7618   4.733   5.343   3.302
 2240SOL    HW1 7619   4.679   5.289   3.367
 2240SOL    HW2 7620   4.674   5.377   3.229
 2241SOL     OW 7621   0.352   6.747   1.911
 2241SOL    HW1 7622   0.271   6.708   1.956
 2241SOL    HW2 7623   0.432   6.734   1.970
 2242SOL     OW 7624   4.937   3.135   3.088
 2242SOL    HW1 7625   4.903   3.229   3.097
 2242SOL    HW2 7626   4.862   3.070   3.102
 2243SOL     OW 7627   1.619   6.738   0.586
 2243SOL    HW1 7628   1.623   6.770   0.680
 2243SOL    HW2 7629   1.621   6.638   0.584
 2244SOL     OW 7630   2.447   0.260   0.896
 2244SOL    HW1 7631   2.484   0.342   0.939
 2244SOL    HW2 7632   2.521   0.205   0.858
 2245SOL     OW 7633   0.540   0.782   0.260
 2245SOL    HW1 7634   0.478   0.843   0.310
 2245SOL    HW2 7635   0.516   0.781   0.163
 2246SOL     OW 7636   2.028   1.039   5.364
 2246SOL    HW1 7637   1.986   0.998   5.283
 2246SOL    HW2 7638   2.031   1.139   5.352
 2247SOL     OW 7639   3.041   3.845   2.426
 2247SOL    HW1 7640   3.042   3.815   2.331
 2247SOL    HW2 7641   3.056   3.944   2.430
 2248SOL     OW 7642   5.587   4.206   5.369
 2248SOL    HW1 7643   5.573   4.108   5.385
 2248SOL    HW2 7644   5.667   4.220   5.311
 2249SOL     OW 7645   2.324   6.719   4.008
 2249SOL    HW1 7646   2.331   6.676   3.918
 2249SOL    HW2 7647   2.405   6.776   4.024
 2250SOL     OW 7648   4.125   4.479   6.325
 2250SOL    HW1 7649   4.103   4.528   6.241
 2250SOL    HW2 7650   4.106   4.537   6.404
 2251SOL     OW 7651   5.159   6.939   5.901
 2251SOL    HW1 7652   5.192   6.921   5.809
 2251SOL    HW2 7653   5.090   6.871   5.926
 2252SOL     OW 7654   4.646   1.698   2.746
 2252SOL    HW1 7655   4.557   1.739   2.727
 2252SOL    HW2 7656   4.664   1.626   2.680
 2253SOL     OW 7657   0.624   3.731   0.660
 2253SOL    HW1 7658   0.655   3.656   0.719
 2253SOL    HW2 7659   0.575   3.799   0.715
 2254SOL     OW 7660   3.951   3.783   3.143
 2254SOL    HW1 7661   4.027   3.810   3.202
 2254SOL    HW2 7662   3.870   3.767   3.198
 2255SOL     OW 7663   2.957   3.976   5.640
 2255SOL    HW1 7664   2.879   3.948   5.584
 2255SOL    HW2 7665   2.949   4.073   5.664
 2256SOL     OW 7666   5.101   6.549   1.857
 2256SOL    HW1 7667   5.032   6.487   1.894
 2256SOL    HW2 7668   5.109   6.630   1.916
 2257SOL     OW 7669   7.001   1.459   4.633
 2257SOL    HW1 7670   6.940   1.450   4.711
 2257SOL    HW2 7671   0.046   1.382   4.632
 2258SOL     OW 7672   2.141   6.560   4.440
 2258SOL    HW1 7673   2.042   6.568   4.452
 2258SOL    HW2 7674   2.172   6.474   4.480
 2259SOL     OW 7675   6.761   2.533   4.687
 2259SOL    HW1 7676   6.748   2.497   4.779
 2259SOL    HW2 7677   6.765   2.457   4.622
 2260SOL     OW 7678   1.104   4.019   1.485
 2260SOL    HW1 7679   1.017   4.063   1.463
 2260SOL    HW2 7680   1.100   3.922   1.461
 2261SOL     OW 7681   5.690   3.666   0.036
 2261SOL    HW1 7682   5.616   3.732   0.053
 2261SOL    HW2 7683   5.695   3.601   0.111
 2262SOL     OW 7684   6.403   0.576   4.463
 2262SOL    HW1 7685   6.405   0.623   4.551
 2262SOL    HW2 7686   6.454   0.490   4.470
 2263SOL     OW 7687   1.408   4.385   0.401
 2263SOL    HW1 7688   1.356   4.432   0.472
 2263SOL    HW2 7689   1.350   4.317   0.356
 2264SOL     OW 7690   2.057   6.908   6.366
 2264SOL    HW1 7691   1.990   6.882   6.296
 2264SOL    HW2 7692   2.029   6.995   6.407
 2265SOL     OW 7693   1.032   6.435   3.883
 2265SOL    HW1 7694   0.950   6.492   3.890
 2265SOL    HW2 7695   1.110   6.484   3.920
 2266SOL     OW 7696   4.937   1.312   6.606
 2266SOL    HW1 7697   5.034   1.302   6.628
 2266SOL    HW2 7698   4.925   1.311   6.507
 2267SOL     OW 7699   4.804   3.023   4.680
 2267SOL    HW1 7700   4.878   2.966   4.715
 2267SOL    HW2 7701   4.827   3.120   4.694
 2268SOL     OW 7702   6.767   4.464   6.071
 2268SOL    HW1 7703   6.667   4.467   6.069
 2268SOL    HW2 7704   6.803   4.492   5.982
 2269SOL     OW 7705   1.831   2.848   5.264
 2269SOL    HW1 7706   1.829   2.947   5.278
 2269SOL    HW2 7707   1.737   2.814   5.262
 2270SOL     OW 7708   4.835   2.381   6.396
 2270SOL    HW1 7709   4.876   2.352   6.310
 2270SOL    HW2 7710   4.807   2.300   6.449
 2271SOL     OW 7711   5.890   4.606   6.190
 2271SOL    HW1 7712   5.971   4.590   6.133
 2271SOL    HW2 7713   5.821   4.537   6.169
 2272SOL     OW 7714   6.262   1.226   5.987
 2272SOL    HW1 7715   6.256   1.315   6.032
 2272SOL    HW2 7716   6.205   1.160   6.035
 2273SOL     OW 7717   2.106   2.307   2.086
 2273SOL    HW1 7718   2.046   2.351   2.153
 2273SOL    HW2 7719   2.069   2.217   2.062
 2274SOL     OW 7720   1.086   0.959   0.174
 2274SOL    HW1 7721   1.016   0.950   0.245
 2274SOL    HW2 7722   1.061   1.033   0.112
 2275SOL     OW 7723   5.692   4.854   2.595
 2275SOL    HW1 7724   5.702   4.923   2.667
 2275SOL    HW2 7725   5.759   4.782   2.609
 2276SOL     OW 7726   1.733   1.415   1.663
 2276SOL    HW1 7727   1.653   1.369   1.703
 2276SOL    HW2 7728   1.729   1.409   1.564
 2277SOL     OW 7729   3.221   3.858   3.316
 2277SOL    HW1 7730   3.261   3.924   3.379
 2277SOL    HW2 7731   3.187   3.906   3.234
 2278SOL     OW 7732   0.800   2.082   3.569
 2278SOL    HW1 7733   0.731   2.138   3.523
 2278SOL    HW2 7734   0.860   2.041   3.501
 2279SOL     OW 7735   0.280   5.920   5.799
 2279SOL    HW1 7736   0.348   5.976   5.847
 2279SOL    HW2 7737   0.221   5.876   5.866
 2280SOL     OW 7738   4.678   1.441   5.149
 2280SOL    HW1 7739   4.675   1.346   5.180
 2280SOL    HW2 7740   4.756   1.455   5.089
 2281SOL     OW 7741   4.713   6.483   2.437
 2281SOL    HW1 7742   4.747   6.492   2.530
 2281SOL    HW2 7743   4.622   6.526   2.431
 2282SOL     OW 7744   4.142   5.588   5.623
 2282SOL    HW1 7745   4.082   5.607   5.546
 2282SOL    HW2 7746   4.204   5.666   5.637
 2283SOL     OW 7747   1.206   0.771   3.635
 2283SOL    HW1 7748   1.291   0.808   3.598
 2283SOL    HW2 7749   1.147   0.741   3.560
 2284SOL     OW 7750   1.480   2.970   6.124
 2284SOL    HW1 7751   1.520   2.907   6.190
 2284SOL    HW2 7752   1.408   3.023   6.168
 2285SOL     OW 7753   1.125   4.034   0.194
 2285SOL    HW1 7754   1.166   4.087   0.268
 2285SOL    HW2 7755   1.129   4.087   0.109
 2286SOL     OW 7756   4.783   6.359   3.677
 2286SOL    HW1 7757   4.851   6.432   3.688
 2286SOL    HW2 7758   4.795   6.291   3.750
 2287SOL     OW 7759   1.998   0.787   3.324
 2287SOL    HW1 7760   1.923   0.747   3.270
 2287SOL    HW2 7761   2.018   0.878   3.289
 2288SOL     OW 7762   0.384   5.495   3.265
 2288SOL    HW1 7763   0.418   5.471   3.356
 2288SOL    HW2 7764   0.460   5.530   3.209
 2289SOL     OW 7765   1.081   6.255   2.113
 2289SOL    HW1 7766   1.016   6.280   2.185
 2289SOL    HW2 7767   1.119   6.164   2.132
 2290SOL     OW 7768   0.790   4.929   1.531
 2290SOL    HW1 7769   0.787   4.835   1.563
 2290SOL    HW2 7770   0.731   4.939   1.451
 2291SOL     OW 7771   3.003   1.790   5.636
 2291SOL    HW1 7772   2.994   1.871   5.577
 2291SOL    HW2 7773   2.985   1.816   5.730
 2292SOL     OW 7774   1.096   1.002   4.977
 2292SOL    HW1 7775   1.151   0.922   4.999
 2292SOL    HW2 7776   1.000   0.975   4.967
 2293SOL     OW 7777   5.284   5.499   1.970
 2293SOL    HW1 7778   5.289   5.435   2.046
 2293SOL    HW2 7779   5.361   5.564   1.976
 2294SOL     OW 7780   4.164   6.501   7.002
 2294SOL    HW1 7781   4.079   6.501   6.950
 2294SOL    HW2 7782   4.166   6.580   0.045
 2295SOL     OW 7783   0.717   2.115   1.123
 2295SOL    HW1 7784   0.703   2.077   1.214
 2295SOL    HW2 7785   0.686   2.049   1.054
 2296SOL     OW 7786   3.194   0.296   0.464
 2296SOL    HW1 7787   3.211   0.385   0.421
 2296SOL    HW2 7788   3.194   0.225   0.395
 2297SOL     OW 7789   4.257   4.497   5.623
 2297SOL    HW1 7790   4.173   4.445   5.638
 2297SOL    HW2 7791   4.317   4.446   5.561
 2298SOL     OW 7792   3.687   1.991   1.525
 2298SOL    HW1 7793   3.708   1.934   1.446
 2298SOL    HW2 7794   3.750   2.068   1.529
 2299SOL     OW 7795   5.317   6.247   6.936
 2299SOL    HW1 7796   5.288   6.151   6.928
 2299SOL    HW2 7797   5.239   6.303   6.966
 2300SOL     OW 7798   1.668   5.301   1.771
 2300SOL    HW1 7799   1.645   5.332   1.679
 2300SOL    HW2 7800   1.608   5.345   1.838
 2301SOL     OW 7801   3.743   3.392   2.587
 2301SOL    HW1 7802   3.768   3.341   2.669
 2301SOL    HW2 7803   3.692   3.332   2.526
 2302SOL     OW 7804   3.159   5.870   2.847
 2302SOL    HW1 7805   3.155   5.837   2.753
 2302SOL    HW2 7806   3.215   5.953   2.851
 2303SOL     OW 7807   1.253   2.919   4.474
 2303SOL    HW1 7808   1.231   3.015   4.495
 2303SOL    HW2 7809   1.176   2.861   4.499
 2304SOL     OW 7810   2.267   0.982   3.479
 2304SOL    HW1 7811   2.248   1.016   3.571
 2304SOL    HW2 7812   2.187   0.999   3.421
 2305SOL     OW 7813   3.540   5.542   2.173
 2305SOL    HW1 7814   3.535   5.492   2.087
 2305SOL    HW2 7815   3.635   5.565   2.193
 2306SOL     OW 7816   2.094   4.209   1.811
 2306SOL    HW1 7817   1.997   4.208   1.836
 2306SOL    HW2 7818   2.108   4.153   1.730
 2307SOL     OW 7819   0.801   2.429   2.953
 2307SOL    HW1 7820   0.880   2.382   2.993
 2307SOL    HW2 7821   0.723   2.419   3.014
 2308SOL     OW 7822   0.827   0.725   6.657
 2308SOL    HW1 7823   0.907   0.771   6.618
 2308SOL    HW2 7824   0.831   0.627   6.637
 2309SOL     OW 7825   3.269   4.971   0.120
 2309SOL    HW1 7826   3.300   4.961   0.026
 2309SOL    HW2 7827   3.187   5.028   0.123
 2310SOL     OW 7828   6.007   0.983   1.572
 2310SOL    HW1 7829   5.917   1.025   1.580
 2310SOL    HW2 7830   6.013   0.905   1.634
 2311SOL     OW 7831   2.830   0.201   2.170
 2311SOL    HW1 7832   2.781   0.171   2.088
 2311SOL    HW2 7833   2.850   0.122   2.228
 2312SOL     OW 7834   4.410   0.244   2.784
 2312SOL    HW1 7835   4.401   0.212   2.879
 2312SOL    HW2 7836   4.382   0.339   2.778
 2313SOL     OW 7837   4.702   4.261   2.242
 2313SOL    HW1 7838   4.643   4.283   2.164
 2313SOL    HW2 7839   4.678   4.321   2.319
 2314SOL     OW 7840   5.985   1.008   3.732
 2314SOL    HW1 7841   5.964   0.921   3.777
 2314SOL    HW2 7842   5.900   1.060   3.720
 2315SOL     OW 7843   4.562   4.280   5.914
 2315SOL    HW1 7844   4.494   4.331   5.967
 2315SOL    HW2 7845   4.652   4.290   5.957
 2316SOL     OW 7846   2.929   1.111   6.358
 2316SOL    HW1 7847   2.847   1.083   6.308
 2316SOL    HW2 7848   3.003   1.131   6.293
 2317SOL     OW 7849   6.138   6.398   4.141
 2317SOL    HW1 7850   6.196   6.409   4.222
 2317SOL    HW2 7851   6.187   6.347   4.071
 2318SOL     OW 7852   2.237   4.169   4.560
 2318SOL    HW1 7853   2.163   4.104   4.544
 2318SOL    HW2 7854   2.268   4.162   4.654
 2319SOL     OW 7855   2.251   5.385   4.491
 2319SOL    HW1 7856   2.256   5.469   4.545
 2319SOL    HW2 7857   2.187   5.399   4.414
 2320SOL     OW 7858   1.333   3.466   5.699
 2320SOL    HW1 7859   1.405   3.488   5.633
 2320SOL    HW2 7860   1.350   3.375   5.737
 2321SOL     OW 7861   2.619   4.934   5.955
 2321SOL    HW1 7862   2.637   4.867   6.027
 2321SOL    HW2 7863   2.692   5.003   5.955
 2322SOL     OW 7864   2.106   3.658   2.163
 2322SOL    HW1 7865   2.077   3.708   2.082
 2322SOL    HW2 7866   2.166   3.583   2.137
 2323SOL     OW 7867   2.995   4.774   1.474
 2323SOL    HW1 7868   3.012   4.871   1.452
 2323SOL    HW2 7869   3.011   4.759   1.571
 2324SOL     OW 7870   6.920   5.974   2.248
 2324SOL    HW1 7871   6.968   5.907   2.192
 2324SOL    HW2 7872   6.844   6.013   2.196
 2325SOL     OW 7873   6.633   4.812   1.559
 2325SOL    HW1 7874   6.612   4.905   1.589
 2325SOL    HW2 7875   6.732   4.800   1.553
 2326SOL     OW 7876   1.684   6.524   6.757
 2326SOL    HW1 7877   1.747   6.465   6.707
 2326SOL    HW2 7878   1.628   6.469   6.819
 2327SOL     OW 7879   6.718   6.934   2.946
 2327SOL    HW1 7880   6.619   6.942   2.950
 2327SOL    HW2 7881   6.744   6.838   2.939
 2328SOL     OW 7882   1.404   2.164   1.960
 2328SOL    HW1 7883   1.357   2.096   2.016
 2328SOL    HW2 7884   1.489   2.125   1.924
 2329SOL     OW 7885   1.066   4.059   4.232
 2329SOL    HW1 7886   0.985   4.088   4.283
 2329SOL    HW2 7887   1.038   4.013   4.148
 2330SOL     OW 7888   6.725   2.721   0.198
 2330SOL    HW1 7889   6.721   2.645   0.263
 2330SOL    HW2 7890   6.683   2.802   0.239
 2331SOL     OW 7891   3.850   5.723   0.301
 2331SOL    HW1 7892   3.804   5.719   0.389
 2331SOL    HW2 7893   3.948   5.709   0.314
 2332SOL     OW 7894   6.370   6.965   5.621
 2332SOL    HW1 7895   6.408   6.888   5.571
 2332SOL    HW2 7896   6.440   0.016   5.635
 2333SOL     OW 7897   7.016   4.661   2.993
 2333SOL    HW1 7898   6.916   4.659   2.995
 2333SOL    HW2 7899   0.031   4.753   3.013
 2334SOL     OW 7900   1.243   1.101   6.180
 2334SOL    HW1 7901   1.295   1.063   6.104
 2334SOL    HW2 7902   1.302   1.107   6.261
 2335SOL     OW 7903   6.429   1.443   3.957
 2335SOL    HW1 7904   6.519   1.409   3.931
 2335SOL    HW2 7905   6.440   1.517   4.024
 2336SOL     OW 7906   2.399   1.665   3.604
 2336SOL    HW1 7907   2.454   1.719   3.668
 2336SOL    HW2 7908   2.387   1.716   3.519
 2337SOL     OW 7909   4.116   1.443   1.456
 2337SOL    HW1 7910   4.101   1.469   1.551
 2337SOL    HW2 7911   4.210   1.408   1.446
 2338SOL     OW 7912   1.066   3.489   4.029
 2338SOL    HW1 7913   1.048   3.478   4.127
 2338SOL    HW2 7914   1.154   3.534   4.016
 2339SOL     OW 7915   3.695   3.629   3.273
 2339SOL    HW1 7916   3.678   3.598   3.179
 2339SOL    HW2 7917   3.645   3.571   3.337
 2340SOL     OW 7918   0.761   5.216   6.798
 2340SOL    HW1 7919   0.681   5.235   6.856
 2340SOL    HW2 7920   0.781   5.295   6.741
 2341SOL     OW 7921   2.534   4.942   3.078
 2341SOL    HW1 7922   2.525   4.850   3.117
 2341SOL    HW2 7923   2.589   4.999   3.140
 2342SOL     OW 7924   2.678   6.628   4.296
 2342SOL    HW1 7925   2.670   6.533   4.264
 2342SOL    HW2 7926   2.618   6.686   4.241
 2343SOL     OW 7927   2.110   6.541   3.187
 2343SOL    HW1 7928   2.059   6.612   3.237
 2343SOL    HW2 7929   2.058   6.456   3.188
 2344SOL     OW 7930   6.798   5.376   0.654
 2344SOL    HW1 7931   6.710   5.333   0.637
 2344SOL    HW2 7932   6.795   5.425   0.741
 2345SOL     OW 7933   2.507   5.668   4.459
 2345SOL    HW1 7934   2.440   5.621   4.402
 2345SOL    HW2 7935   2.586   5.693   4.403
 2346SOL     OW 7936   4.190   3.376   5.785
 2346SOL    HW1 7937   4.211   3.467   5.821
 2346SOL    HW2 7938   4.222   3.306   5.849
 2347SOL     OW 7939   1.509   2.035   1.368
 2347SOL    HW1 7940   1.465   1.948   1.391
 2347SOL    HW2 7941   1.552   2.074   1.449
 2348SOL     OW 7942   1.875   5.878   3.670
 2348SOL    HW1 7943   1.923   5.818   3.735
 2348SOL    HW2 7944   1.906   5.972   3.682
 2349SOL     OW 7945   1.045   4.372   6.129
 2349SOL    HW1 7946   1.092   4.387   6.216
 2349SOL    HW2 7947   0.948   4.393   6.139
 2350SOL     OW 7948   5.789   3.837   5.820
 2350SOL    HW1 7949   5.728   3.868   5.893
 2350SOL    HW2 7950   5.735   3.792   5.749
 2351SOL     OW 7951   3.177   4.888   3.412
 2351SOL    HW1 7952   3.106   4.820   3.397
 2351SOL    HW2 7953   3.245   4.882   3.339
 2352SOL     OW 7954   6.551   2.887   3.600
 2352SOL    HW1 7955   6.606   2.804   3.603
 2352SOL    HW2 7956   6.482   2.884   3.673
 2353SOL     OW 7957   4.231   5.226   5.280
 2353SOL    HW1 7958   4.257   5.186   5.192
 2353SOL    HW2 7959   4.136   5.257   5.275
 2354SOL     OW 7960   2.623   2.314   4.534
 2354SOL    HW1 7961   2.563   2.377   4.583
 2354SOL    HW2 7962   2.569   2.258   4.472
 2355SOL     OW 7963   2.383   6.095   4.819
 2355SOL    HW1 7964   2.311   6.165   4.818
 2355SOL    HW2 7965   2.342   6.004   4.824
 2356SOL     OW 7966   1.089   2.998   0.079
 2356SOL    HW1 7967   1.100   2.999   0.178
 2356SOL    HW2 7968   1.164   3.048   0.036
 2357SOL     OW 7969   3.589   1.447   1.853
 2357SOL    HW1 7970   3.552   1.519   1.795
 2357SOL    HW2 7971   3.667   1.404   1.807
 2358SOL     OW 7972   2.507   5.150   5.583
 2358SOL    HW1 7973   2.602   5.126   5.565
 2358SOL    HW2 7974   2.503   5.238   5.630
 2359SOL     OW 7975   0.404   0.589   5.350
 2359SOL    HW1 7976   0.488   0.616   5.397
 2359SOL    HW2 7977   0.354   0.523   5.405
 2360SOL     OW 7978   6.314   3.971   0.861
 2360SOL    HW1 7979   6.351   4.038   0.796
 2360SOL    HW2 7980   6.246   4.014   0.919
 2361SOL     OW 7981   2.948   1.328   6.563
 2361SOL    HW1 7982   2.939   1.239   6.519
 2361SOL    HW2 7983   2.917   1.400   6.500
 2362SOL     OW 7984   3.042   5.661   3.739
 2362SOL    HW1 7985   2.975   5.607   3.687
 2362SOL    HW2 7986   3.108   5.599   3.782
 2363SOL     OW 7987   4.094   1.913   3.823
 2363SOL    HW1 7988   4.142   1.859   3.892
 2363SOL    HW2 7989   4.034   1.979   3.868
 2364SOL     OW 7990   1.307   2.642   2.000
 2364SOL    HW1 7991   1.228   2.649   1.939
 2364SOL    HW2 7992   1.345   2.733   2.016
 2365SOL     OW 7993   6.643   2.103   6.592
 2365SOL    HW1 7994   6.651   2.194   6.634
 2365SOL    HW2 7995   6.594   2.111   6.505
 2366SOL     OW 7996   3.303   4.826   0.682
 2366SOL    HW1 7997   3.271   4.846   0.775
 2366SOL    HW2 7998   3.259   4.743   0.648
 2367SOL     OW 7999   2.126   3.635   0.041
 2367SOL    HW1 8000   2.074   3.550   0.053
 2367SOL    HW2 8001   2.218   3.614   0.008
 2368SOL     OW 8002   5.720   6.874   4.233
 2368SOL    HW1 8003   5.679   6.897   4.322
 2368SOL    HW2 8004   5.793   6.939   4.212
 2369SOL     OW 8005   1.981   6.962   4.283
 2369SOL    HW1 8006   2.033   6.946   4.199
 2369SOL    HW2 8007   2.044   6.970   4.360
 2370SOL     OW 8008   5.713   3.290   6.773
 2370SOL    HW1 8009   5.813   3.288   6.786
 2370SOL    HW2 8010   5.691   3.251   6.684
 2371SOL     OW 8011   2.545   6.484   2.226
 2371SOL    HW1 8012   2.514   6.451   2.136
 2371SOL    HW2 8013   2.643   6.464   2.236
 2372SOL     OW 8014   0.214   2.725   1.730
 2372SOL    HW1 8015   0.117   2.729   1.707
 2372SOL    HW2 8016   0.253   2.817   1.728
 2373SOL     OW 8017   1.742   3.525   5.806
 2373SOL    HW1 8018   1.803   3.521   5.727
 2373SOL    HW2 8019   1.783   3.477   5.883
 2374SOL     OW 8020   6.504   2.375   5.088
 2374SOL    HW1 8021   6.516   2.283   5.124
 2374SOL    HW2 8022   6.478   2.437   5.163
 2375SOL     OW 8023   3.395   5.437   5.879
 2375SOL    HW1 8024   3.353   5.387   5.955
 2375SOL    HW2 8025   3.326   5.456   5.809
 2376SOL     OW 8026   5.527   3.386   3.792
 2376SOL    HW1 8027   5.531   3.470   3.846
 2376SOL    HW2 8028   5.491   3.405   3.701
 2377SOL     OW 8029   3.245   3.694   3.679
 2377SOL    HW1 8030   3.282   3.785   3.660
 2377SOL    HW2 8031   3.169   3.702   3.744
 2378SOL     OW 8032   5.036   2.369   0.129
 2378SOL    HW1 8033   4.963   2.311   0.093
 2378SOL    HW2 8034   5.099   2.393   0.054
 2379SOL     OW 8035   6.804   0.963   0.153
 2379SOL    HW1 8036   6.706   0.979   0.148
 2379SOL    HW2 8037   6.821   0.865   0.164
 2380SOL     OW 8038   0.144   2.772   0.297
 2380SOL    HW1 8039   0.107   2.784   0.389
 2380SOL    HW2 8040   0.213   2.699   0.298
 2381SOL     OW 8041   2.211   5.866   3.191
 2381SOL    HW1 8042   2.201   5.782   3.246
 2381SOL    HW2 8043   2.142   5.867   3.119
 2382SOL     OW 8044   1.719   3.577   4.336
 2382SOL    HW1 8045   1.746   3.485   4.363
 2382SOL    HW2 8046   1.715   3.636   4.417
 2383SOL     OW 8047   6.380   6.970   1.216
 2383SOL    HW1 8048   6.396   6.884   1.168
 2383SOL    HW2 8049   6.288   6.971   1.255
 2384SOL     OW 8050   4.843   2.113   2.360
 2384SOL    HW1 8051   4.744   2.110   2.343
 2384SOL    HW2 8052   4.886   2.032   2.321
 2385SOL     OW 8053   0.200   0.578   6.913
 2385SOL    HW1 8054   0.114   0.628   6.931
 2385SOL    HW2 8055   0.191   0.485   6.948
 2386SOL     OW 8056   5.141   5.959   4.505
 2386SOL    HW1 8057   5.184   5.876   4.539
 2386SOL    HW2 8058   5.075   5.937   4.433
 2387SOL     OW 8059   2.243   1.209   4.428
 2387SOL    HW1 8060   2.305   1.284   4.406
 2387SOL    HW2 8061   2.214   1.218   4.524
 2388SOL     OW 8062   6.793   2.609   4.121
 2388SOL    HW1 8063   6.871   2.614   4.183
 2388SOL    HW2 8064   6.717   2.662   4.159
 2389SOL     OW 8065   4.517   4.697   3.813
 2389SOL    HW1 8066   4.595   4.650   3.854
 2389SOL    HW2 8067   4.433   4.667   3.857
 2390SOL     OW 8068   3.941   3.014   2.606
 2390SOL    HW1 8069   3.943   3.103   2.651
 2390SOL    HW2 8070   3.982   3.022   2.515
 2391SOL     OW 8071   5.195   4.712   6.267
 2391SOL    HW1 8072   5.209   4.771   6.188
 2391SOL    HW2 8073   5.099   4.714   6.294
 2392SOL     OW 8074   2.871   6.934   6.426
 2392SOL    HW1 8075   2.827   6.969   6.508
 2392SOL    HW2 8076   2.803   6.919   6.355
 2393SOL     OW 8077   4.803   4.322   6.116
 2393SOL    HW1 8078   4.778   4.380   6.194
 2393SOL    HW2 8079   4.795   4.226   6.143
 2394SOL     OW 8080   0.260   3.623   4.704
 2394SOL    HW1 8081   0.164   3.598   4.700
 2394SOL    HW2 8082   0.282   3.684   4.628
 2395SOL     OW 8083   4.876   0.066   5.682
 2395SOL    HW1 8084   4.797   0.122   5.658
 2395SOL    HW2 8085   4.878   0.052   5.781
 2396SOL     OW 8086   3.807   5.183   0.802
 2396SOL    HW1 8087   3.791   5.126   0.722
 2396SOL    HW2 8088   3.886   5.242   0.785
 2397SOL     OW 8089   0.242   4.185   4.433
 2397SOL    HW1 8090   0.236   4.283   4.414
 2397SOL    HW2 8091   0.260   4.172   4.530
 2398SOL     OW 8092   4.864   3.921   6.893
 2398SOL    HW1 8093   4.779   3.911   6.945
 2398SOL    HW2 8094   4.843   3.929   6.796
 2399SOL     OW 8095   4.121   0.918   0.992
 2399SOL    HW1 8096   4.140   1.010   1.027
 2399SOL    HW2 8097   4.129   0.918   0.892
 2400SOL     OW 8098   2.470   3.843   0.722
 2400SOL    HW1 8099   2.472   3.767   0.656
 2400SOL    HW2 8100   2.563   3.862   0.754
 2401SOL     OW 8101   5.682   5.939   6.842
 2401SOL    HW1 8102   5.780   5.937   6.820
 2401SOL    HW2 8103   5.662   5.868   6.909
 2402SOL     OW 8104   0.750   6.990   4.758
 2402SOL    HW1 8105   0.813   6.913   4.755
 2402SOL    HW2 8106   0.668   6.968   4.704
 2403SOL     OW 8107   0.929   2.507   5.781
 2403SOL    HW1 8108   0.980   2.569   5.841
 2403SOL    HW2 8109   0.831   2.525   5.791
 2404SOL     OW 8110   2.384   1.575   1.487
 2404SOL    HW1 8111   2.427   1.590   1.397
 2404SOL    HW2 8112   2.333   1.489   1.485
 2405SOL     OW 8113   3.228   4.073   2.522
 2405SOL    HW1 8114   3.284   4.042   2.445
 2405SOL    HW2 8115   3.287   4.103   2.597
 2406SOL     OW 8116   3.536   1.287   1.535
 2406SOL    HW1 8117   3.626   1.303   1.575
 2406SOL    HW2 8118   3.472   1.259   1.607
 2407SOL     OW 8119   5.687   1.931   3.696
 2407SOL    HW1 8120   5.675   2.013   3.641
 2407SOL    HW2 8121   5.785   1.917   3.714
 2408SOL     OW 8122   4.574   4.539   2.080
 2408SOL    HW1 8123   4.636   4.558   2.156
 2408SOL    HW2 8124   4.581   4.442   2.055
 2409SOL     OW 8125   2.053   3.703   1.693
 2409SOL    HW1 8126   2.087   3.790   1.729
 2409SOL    HW2 8127   2.130   3.640   1.681
 2410SOL     OW 8128   4.063   3.191   4.279
 2410SOL    HW1 8129   3.966   3.216   4.276
 2410SOL    HW2 8130   4.102   3.197   4.187
 2411SOL     OW 8131   5.402   6.475   5.046
 2411SOL    HW1 8132   5.446   6.397   5.091
 2411SOL    HW2 8133   5.407   6.464   4.947
 2412SOL     OW 8134   5.574   4.145   1.804
 2412SOL    HW1 8135   5.501   4.144   1.735
 2412SOL    HW2 8136   5.534   4.166   1.894
 2413SOL     OW 8137   5.546   0.147   1.499
 2413SOL    HW1 8138   5.523   0.160   1.403
 2413SOL    HW2 8139   5.626   0.089   1.507
 2414SOL     OW 8140   4.732   4.162   3.697
 2414SOL    HW1 8141   4.831   4.158   3.710
 2414SOL    HW2 8142   4.686   4.159   3.786
 2415SOL     OW 8143   5.906   1.186   2.275
 2415SOL    HW1 8144   5.989   1.238   2.297
 2415SOL    HW2 8145   5.886   1.198   2.178
 2416SOL     OW 8146   5.511   1.969   5.911
 2416SOL    HW1 8147   5.503   2.057   5.865
 2416SOL    HW2 8148   5.516   1.984   6.010
 2417SOL     OW 8149   3.209   3.270   4.649
 2417SOL    HW1 8150   3.195   3.173   4.629
 2417SOL    HW2 8151   3.202   3.322   4.564
 2418SOL     OW 8152   3.357   3.140   3.916
 2418SOL    HW1 8153   3.376   3.146   3.818
 2418SOL    HW2 8154   3.421   3.075   3.958
 2419SOL     OW 8155   0.563   6.708   3.419
 2419SOL    HW1 8156   0.495   6.661   3.362
 2419SOL    HW2 8157   0.567   6.804   3.393
 2420SOL     OW 8158   3.076   0.465   1.859
 2420SOL    HW1 8159   3.156   0.406   1.846
 2420SOL    HW2 8160   3.106   0.553   1.897
 2421SOL     OW 8161   1.998   2.880   4.416
 2421SOL    HW1 8162   2.045   2.955   4.370
 2421SOL    HW2 8163   1.903   2.906   4.432
 2422SOL     OW 8164   5.001   1.766   0.873
 2422SOL    HW1 8165   5.056   1.849   0.872
 2422SOL    HW2 8166   5.057   1.689   0.901
 2423SOL     OW 8167   2.688   6.331   2.485
 2423SOL    HW1 8168   2.604   6.381   2.506
 2423SOL    HW2 8169   2.707   6.266   2.558
 2424SOL     OW 8170   5.779   1.411   0.340
 2424SOL    HW1 8171   5.701   1.451   0.390
 2424SOL    HW2 8172   5.750   1.389   0.247
 2425SOL     OW 8173   6.252   0.616   4.251
 2425SOL    HW1 8174   6.309   0.597   4.331
 2425SOL    HW2 8175   6.300   0.587   4.168
 2426SOL     OW 8176   2.328   5.050   4.907
 2426SOL    HW1 8177   2.374   5.047   4.995
 2426SOL    HW2 8178   2.249   4.990   4.908
 2427SOL     OW 8179   5.801   6.409   4.993
 2427SOL    HW1 8180   5.774   6.395   4.898
 2427SOL    HW2 8181   5.780   6.503   5.020
 2428SOL     OW 8182   0.604   0.509   1.721
 2428SOL    HW1 8183   0.506   0.505   1.740
 2428SOL    HW2 8184   0.632   0.603   1.705
 2429SOL     OW 8185   5.365   5.761   1.405
 2429SOL    HW1 8186   5.431   5.794   1.472
 2429SOL    HW2 8187   5.341   5.666   1.424
 2430SOL     OW 8188   6.170   0.600   2.574
 2430SOL    HW1 8189   6.114   0.577   2.653
 2430SOL    HW2 8190   6.110   0.622   2.496
 2431SOL     OW 8191   4.265   1.099   2.248
 2431SOL    HW1 8192   4.295   1.007   2.221
 2431SOL    HW2 8193   4.251   1.101   2.347
 2432SOL     OW 8194   4.535   6.207   1.907
 2432SOL    HW1 8195   4.594   6.272   1.954
 2432SOL    HW2 8196   4.554   6.114   1.939
 2433SOL     OW 8197   4.339   0.591   6.999
 2433SOL    HW1 8198   4.382   0.503   0.003
 2433SOL    HW2 8199   4.286   0.581   6.915
 2434SOL     OW 8200   3.874   0.963   6.101
 2434SOL    HW1 8201   3.869   1.060   6.076
 2434SOL    HW2 8202   3.943   0.918   6.045
 2435SOL     OW 8203   5.783   5.920   5.159
 2435SOL    HW1 8204   5.813   5.993   5.221
 2435SOL    HW2 8205   5.855   5.903   5.092
 2436SOL     OW 8206   2.344   5.879   0.599
 2436SOL    HW1 8207   2.321   5.804   0.661
 2436SOL    HW2 8208   2.430   5.858   0.551
 2437SOL     OW 8209   6.888   6.280   5.543
 2437SOL    HW1 8210   6.908   6.197   5.594
 2437SOL    HW2 8211   6.808   6.325   5.582
 2438SOL     OW 8212   2.642   2.527   0.746
 2438SOL    HW1 8213   2.630   2.435   0.711
 2438SOL    HW2 8214   2.645   2.524   0.846
 2439SOL     OW 8215   6.087   4.057   5.429
 2439SOL    HW1 8216   5.994   4.023   5.416
 2439SOL    HW2 8217   6.148   4.013   5.363
 2440SOL     OW 8218   5.656   5.221   5.835
 2440SOL    HW1 8219   5.586   5.199   5.767
 2440SOL    HW2 8220   5.616   5.281   5.905
 2441SOL     OW 8221   5.643   2.353   0.542
 2441SOL    HW1 8222   5.572   2.424   0.545
 2441SOL    HW2 8223   5.600   2.264   0.530
 2442SOL     OW 8224   0.815   3.756   4.818
 2442SOL    HW1 8225   0.828   3.690   4.892
 2442SOL    HW2 8226   0.806   3.708   4.731
 2443SOL     OW 8227   2.829   4.291   6.412
 2443SOL    HW1 8228   2.736   4.327   6.407
 2443SOL    HW2 8229   2.867   4.284   6.319
 2444SOL     OW 8230   2.555   3.817   5.921
 2444SOL    HW1 8231   2.513   3.742   5.972
 2444SOL    HW2 8232   2.623   3.780   5.858
 2445SOL     OW 8233   0.337   1.032   0.952
 2445SOL    HW1 8234   0.249   1.032   1.000
 2445SOL    HW2 8235   0.339   0.959   0.884
 2446SOL     OW 8236   6.354   4.610   5.184
 2446SOL    HW1 8237   6.347   4.709   5.186
 2446SOL    HW2 8238   6.359   4.579   5.089
 2447SOL     OW 8239   0.826   1.475   0.403
 2447SOL    HW1 8240   0.889   1.552   0.411
 2447SOL    HW2 8241   0.813   1.433   0.493
 2448SOL     OW 8242   1.110   0.486   4.725
 2448SOL    HW1 8243   1.089   0.429   4.804
 2448SOL    HW2 8244   1.088   0.437   4.640
 2449SOL     OW 8245   0.380   3.837   5.629
 2449SOL    HW1 8246   0.454   3.800   5.572
 2449SOL    HW2 8247   0.317   3.763   5.654
 2450SOL     OW 8248   2.109   3.787   2.956
 2450SOL    HW1 8249   2.086   3.706   2.903
 2450SOL    HW2 8250   2.097   3.768   3.054
 2451SOL     OW 8251   2.183   6.079   3.725
 2451SOL    HW1 8252   2.089   6.108   3.742
 2451SOL    HW2 8253   2.190   6.040   3.633
 2452SOL     OW 8254   1.136   2.708   4.191
 2452SOL    HW1 8255   1.212   2.689   4.129
 2452SOL    HW2 8256   1.159   2.675   4.283
 2453SOL     OW 8257   6.757   4.203   1.441
 2453SOL    HW1 8258   6.789   4.278   1.384
 2453SOL    HW2 8259   6.784   4.116   1.400
 2454SOL     OW 8260   3.264   0.985   2.435
 2454SOL    HW1 8261   3.293   0.975   2.530
 2454SOL    HW2 8262   3.203   1.064   2.426
 2455SOL     OW 8263   5.830   5.767   0.476
 2455SOL    HW1 8264   5.909   5.750   0.416
 2455SOL    HW2 8265   5.853   5.742   0.570
 2456SOL     OW 8266   4.564   6.831   1.573
 2456SOL    HW1 8267   4.523   6.866   1.658
 2456SOL    HW2 8268   4.566   6.731   1.577
 2457SOL     OW 8269   5.514   6.382   1.486
 2457SOL    HW1 8270   5.548   6.338   1.570
 2457SOL    HW2 8271   5.416   6.364   1.476
 2458SOL     OW 8272   0.590   5.691   3.379
 2458SOL    HW1 8273   0.597   5.617   3.447
 2458SOL    HW2 8274   0.612   5.654   3.289
 2459SOL     OW 8275   2.205   0.035   0.711
 2459SOL    HW1 8276   2.197   0.046   0.611
 2459SOL    HW2 8277   2.299   0.009   0.734
 2460SOL     OW 8278   3.205   5.674   1.827
 2460SOL    HW1 8279   3.264   5.748   1.859
 2460SOL    HW2 8280   3.133   5.657   1.894
 2461SOL     OW 8281   5.574   0.682   2.319
 2461SOL    HW1 8282   5.551   0.635   2.235
 2461SOL    HW2 8283   5.633   0.761   2.298
 2462SOL     OW 8284   2.304   4.914   6.337
 2462SOL    HW1 8285   2.223   4.970   6.352
 2462SOL    HW2 8286   2.385   4.973   6.336
 2463SOL     OW 8287   6.502   1.768   4.376
 2463SOL    HW1 8288   6.447   1.839   4.419
 2463SOL    HW2 8289   6.596   1.772   4.411
 2464SOL     OW 8290   1.503   3.334   1.023
 2464SOL    HW1 8291   1.431   3.325   1.091
 2464SOL    HW2 8292   1.464   3.322   0.931
 2465SOL     OW 8293   6.225   5.523   3.503
 2465SOL    HW1 8294   6.169   5.602   3.527
 2465SOL    HW2 8295   6.317   5.534   3.539
 2466SOL     OW 8296   3.945   1.656   2.762
 2466SOL    HW1 8297   3.941   1.751   2.731
 2466SOL    HW2 8298   3.885   1.600   2.705
 2467SOL     OW 8299   6.809   1.055   6.053
 2467SOL    HW1 8300   6.714   1.084   6.043
 2467SOL    HW2 8301   6.868   1.111   5.994
 2468SOL     OW 8302   0.031   4.750   1.046
 2468SOL    HW1 8303   0.020   4.652   1.025
 2468SOL    HW2 8304   7.000   4.771   1.130
 2469SOL     OW 8305   2.730   2.932   5.629
 2469SOL    HW1 8306   2.793   3.005   5.655
 2469SOL    HW2 8307   2.724   2.925   5.530
 2470SOL     OW 8308   5.660   3.134   0.389
 2470SOL    HW1 8309   5.688   3.070   0.461
 2470SOL    HW2 8310   5.567   3.113   0.360
 2471SOL     OW 8311   1.358   0.420   3.624
 2471SOL    HW1 8312   1.321   0.490   3.685
 2471SOL    HW2 8313   1.343   0.447   3.529
 2472SOL     OW 8314   6.270   1.652   3.189
 2472SOL    HW1 8315   6.175   1.623   3.204
 2472SOL    HW2 8316   6.331   1.577   3.215
 2473SOL     OW 8317   1.034   6.832   4.985
 2473SOL    HW1 8318   1.027   6.844   4.886
 2473SOL    HW2 8319   0.950   6.791   5.020
 2474SOL     OW 8320   6.151   5.485   4.711
 2474SOL    HW1 8321   6.057   5.462   4.687
 2474SOL    HW2 8322   6.214   5.439   4.649
 2475SOL     OW 8323   4.022   2.094   0.251
 2475SOL    HW1 8324   4.115   2.104   0.214
 2475SOL    HW2 8325   4.024   2.112   0.350
 2476SOL     OW 8326   0.228   2.020   4.252
 2476SOL    HW1 8327   0.190   1.941   4.299
 2476SOL    HW2 8328   0.257   2.088   4.319
 2477SOL     OW 8329   4.199   4.926   1.374
 2477SOL    HW1 8330   4.119   4.894   1.324
 2477SOL    HW2 8331   4.267   4.961   1.310
 2478SOL     OW 8332   6.669   6.750   3.361
 2478SOL    HW1 8333   6.748   6.704   3.402
 2478SOL    HW2 8334   6.661   6.842   3.398
 2479SOL     OW 8335   0.623   3.801   0.232
 2479SOL    HW1 8336   0.723   3.800   0.233
 2479SOL    HW2 8337   0.588   3.744   0.307
 2480SOL     OW 8338   0.415   3.552   1.336
 2480SOL    HW1 8339   0.326   3.589   1.362
 2480SOL    HW2 8340   0.481   3.627   1.327
 2481SOL     OW 8341   4.352   5.450   2.512
 2481SOL    HW1 8342   4.402   5.367   2.486
 2481SOL    HW2 8343   4.271   5.425   2.564
 2482SOL     OW 8344   4.416   2.436   4.201
 2482SOL    HW1 8345   4.450   2.367   4.138
 2482SOL    HW2 8346   4.324   2.464   4.173
 2483SOL     OW 8347   0.668   1.964   6.582
 2483SOL    HW1 8348   0.721   1.963   6.667
 2483SOL    HW2 8349   0.592   1.900   6.590
 2484SOL     OW 8350   3.146   2.254   6.285
 2484SOL    HW1 8351   3.068   2.301   6.243
 2484SOL    HW2 8352   3.220   2.319   6.300
 2485SOL     OW 8353   0.333   5.991   2.265
 2485SOL    HW1 8354   0.286   5.907   2.238
 2485SOL    HW2 8355   0.347   5.991   2.364
 2486SOL     OW 8356   1.022   5.096   3.380
 2486SOL    HW1 8357   1.048   5.166   3.446
 2486SOL    HW2 8358   1.060   5.119   3.290
 2487SOL     OW 8359   3.221   0.866   0.916
 2487SOL    HW1 8360   3.244   0.787   0.973
 2487SOL    HW2 8361   3.191   0.941   0.975
 2488SOL     OW 8362   3.324   6.151   6.614
 2488SOL    HW1 8363   3.405   6.167   6.671
 2488SOL    HW2 8364   3.327   6.210   6.534
 2489SOL     OW 8365   0.075   5.855   4.142
 2489SOL    HW1 8366   0.110   5.806   4.222
 2489SOL    HW2 8367   0.037   5.943   4.172
 2490SOL     OW 8368   5.033   3.543   1.484
 2490SOL    HW1 8369   5.092   3.601   1.427
 2490SOL    HW2 8370   5.048   3.565   1.580
 2491SOL     OW 8371   1.112   4.246   2.399
 2491SOL    HW1 8372   1.095   4.162   2.347
 2491SOL    HW2 8373   1.056   4.246   2.482
 2492SOL     OW 8374   4.042   2.840   5.957
 2492SOL    HW1 8375   4.004   2.860   6.047
 2492SOL    HW2 8376   3.994   2.893   5.887
 2493SOL     OW 8377   6.413   2.156   4.229
 2493SOL    HW1 8378   6.478   2.145   4.153
 2493SOL    HW2 8379   6.455   2.211   4.301
 2494SOL     OW 8380   4.801   3.571   1.329
 2494SOL    HW1 8381   4.888   3.583   1.377
 2494SOL    HW2 8382   4.819   3.560   1.231
 2495SOL     OW 8383   6.001   1.556   4.070
 2495SOL    HW1 8384   5.984   1.645   4.112
 2495SOL    HW2 8385   6.090   1.521   4.100
 2496SOL     OW 8386   0.683   6.005   0.072
 2496SOL    HW1 8387   0.759   5.940   0.065
 2496SOL    HW2 8388   0.650   6.007   0.166
 2497SOL     OW 8389   5.519   2.016   6.189
 2497SOL    HW1 8390   5.603   2.060   6.221
 2497SOL    HW2 8391   5.447   2.084   6.181
 2498SOL     OW 8392   1.162   3.781   4.697
 2498SOL    HW1 8393   1.104   3.759   4.618
 2498SOL    HW2 8394   1.252   3.739   4.685
 2499SOL     OW 8395   5.857   0.415   5.799
 2499SOL    HW1 8396   5.865   0.500   5.851
 2499SOL    HW2 8397   5.808   0.432   5.714
 2500SOL     OW 8398   4.718   3.002   6.236
 2500SOL    HW1 8399   4.672   3.001   6.324
 2500SOL    HW2 8400   4.815   3.021   6.249
 2501SOL     OW 8401   6.298   4.698   0.454
 2501SOL    HW1 8402   6.328   4.606   0.476
 2501SOL    HW2 8403   6.252   4.738   0.533
 2502SOL     OW 8404   1.881   6.744   3.263
 2502SOL    HW1 8405   1.802   6.710   3.211
 2502SOL    HW2 8406   1.865   6.728   3.361
 2503SOL     OW 8407   4.629   6.186   4.605
 2503SOL    HW1 8408   4.636   6.124   4.527
 2503SOL    HW2 8409   4.714   6.237   4.615
 2504SOL     OW 8410   1.839   3.995   3.401
 2504SOL    HW1 8411   1.750   3.950   3.394
 2504SOL    HW2 8412   1.882   3.999   3.310
 2505SOL     OW 8413   4.339   4.993   3.808
 2505SOL    HW1 8414   4.278   4.917   3.785
 2505SOL    HW2 8415   4.290   5.060   3.864
 2506SOL     OW 8416   0.081   1.333   0.405
 2506SOL    HW1 8417   7.009   1.330   0.362
 2506SOL    HW2 8418   0.072   1.362   0.500
 2507SOL     OW 8419   6.737   5.716   1.053
 2507SOL    HW1 8420   6.639   5.733   1.060
 2507SOL    HW2 8421   6.783   5.797   1.017
 2508SOL     OW 8422   2.432   2.618   2.199
 2508SOL    HW1 8423   2.350   2.669   2.227
 2508SOL    HW2 8424   2.513   2.672   2.222
 2509SOL     OW 8425   5.244   1.923   3.904
 2509SOL    HW1 8426   5.303   1.844   3.883
 2509SOL    HW2 8427   5.153   1.907   3.866
 2510SOL     OW 8428   3.652   5.589   1.026
 2510SOL    HW1 8429   3.691   5.679   1.046
 2510SOL    HW2 8430   3.587   5.564   1.098
 2511SOL     OW 8431   1.105   6.725   4.341
 2511SOL    HW1 8432   1.196   6.702   4.374
 2511SOL    HW2 8433   1.038   6.708   4.413
 2512SOL     OW 8434   4.729   2.943   4.368
 2512SOL    HW1 8435   4.696   2.943   4.462
 2512SOL    HW2 8436   4.704   2.856   4.324
 2513SOL     OW 8437   0.309   4.590   1.284
 2513SOL    HW1 8438   0.310   4.522   1.211
 2513SOL    HW2 8439   0.314   4.545   1.373
 2514SOL     OW 8440   1.142   1.645   4.217
 2514SOL    HW1 8441   1.059   1.637   4.162
 2514SOL    HW2 8442   1.200   1.717   4.180
 2515SOL     OW 8443   0.630   4.746   0.468
 2515SOL    HW1 8444   0.538   4.729   0.431
 2515SOL    HW2 8445   0.639   4.843   0.489
 2516SOL     OW 8446   4.923   6.223   3.899
 2516SOL    HW1 8447   4.861   6.216   3.977
 2516SOL    HW2 8448   5.017   6.229   3.932
 2517SOL     OW 8449   2.503   4.961   0.355
 2517SOL    HW1 8450   2.455   4.876   0.378
 2517SOL    HW2 8451   2.439   5.038   0.364
 2518SOL     OW 8452   2.619   2.169   6.300
 2518SOL    HW1 8453   2.588   2.258   6.265
 2518SOL    HW2 8454   2.545   2.102   6.291
 2519SOL     OW 8455   5.213   4.458   4.965
 2519SOL    HW1 8456   5.216   4.359   4.978
 2519SOL    HW2 8457   5.206   4.480   4.868
 2520SOL     OW 8458   2.530   4.949   2.138
 2520SOL    HW1 8459   2.613   4.896   2.126
 2520SOL    HW2 8460   2.452   4.887   2.149
 2521SOL     OW 8461   6.138   6.841   5.698
 2521SOL    HW1 8462   6.070   6.866   5.630
 2521SOL    HW2 8463   6.223   6.890   5.680
 2522SOL     OW 8464   1.262   3.202   5.178
 2522SOL    HW1 8465   1.344   3.231   5.226
 2522SOL    HW2 8466   1.269   3.105   5.155
 2523SOL     OW 8467   6.805   3.181   6.904
 2523SOL    HW1 8468   6.867   3.103   6.912
 2523SOL    HW2 8469   6.832   3.252   6.969
 2524SOL     OW 8470   0.923   0.063   4.979
 2524SOL    HW1 8471   0.995   7.012   4.977
 2524SOL    HW2 8472   0.854   0.042   4.910
 2525SOL     OW 8473   2.083   4.489   2.969
 2525SOL    HW1 8474   2.059   4.392   2.965
 2525SOL    HW2 8475   2.176   4.502   2.934
 2526SOL     OW 8476   0.627   1.951   5.674
 2526SOL    HW1 8477   0.546   1.986   5.723
 2526SOL    HW2 8478   0.704   2.013   5.689
 2527SOL     OW 8479   5.816   6.613   3.814
 2527SOL    HW1 8480   5.870   6.614   3.898
 2527SOL    HW2 8481   5.861   6.555   3.746
 2528SOL     OW 8482   5.689   5.256   0.294
 2528SOL    HW1 8483   5.769   5.198   0.275
 2528SOL    HW2 8484   5.647   5.226   0.380
 2529SOL     OW 8485   5.253   3.941   4.969
 2529SOL    HW1 8486   5.218   3.856   4.929
 2529SOL    HW2 8487   5.281   3.924   5.064
 2530SOL     OW 8488   1.238   6.882   3.929
 2530SOL    HW1 8489   1.302   6.958   3.919
 2530SOL    HW2 8490   1.154   6.914   3.973
 2531SOL     OW 8491   4.919   1.547   0.249
 2531SOL    HW1 8492   4.834   1.509   0.285
 2531SOL    HW2 8493   4.997   1.498   0.288
 2532SOL     OW 8494   1.530   4.584   5.772
 2532SOL    HW1 8495   1.522   4.588   5.872
 2532SOL    HW2 8496   1.441   4.565   5.732
 2533SOL     OW 8497   6.077   6.587   5.197
 2533SOL    HW1 8498   6.167   6.568   5.157
 2533SOL    HW2 8499   6.065   6.534   5.281
 2534SOL     OW 8500   6.877   1.911   3.622
 2534SOL    HW1 8501   6.788   1.951   3.647
 2534SOL    HW2 8502   6.936   1.907   3.703
 2535SOL     OW 8503   2.185   0.868   2.811
 2535SOL    HW1 8504   2.281   0.848   2.790
 2535SOL    HW2 8505   2.132   0.866   2.727
 2536SOL     OW 8506   6.266   0.982   3.684
 2536SOL    HW1 8507   6.287   0.915   3.755
 2536SOL    HW2 8508   6.169   1.004   3.687
 2537SOL     OW 8509   4.103   5.161   1.449
 2537SOL    HW1 8510   4.119   5.063   1.437
 2537SOL    HW2 8511   4.190   5.210   1.435
 2538SOL     OW 8512   1.628   4.596   4.911
 2538SOL    HW1 8513   1.650   4.687   4.948
 2538SOL    HW2 8514   1.712   4.555   4.875
 2539SOL     OW 8515   2.654   0.442   6.042
 2539SOL    HW1 8516   2.749   0.413   6.050
 2539SOL    HW2 8517   2.640   0.487   5.954
 2540SOL     OW 8518   5.643   1.665   2.463
 2540SOL    HW1 8519   5.711   1.635   2.531
 2540SOL    HW2 8520   5.579   1.590   2.446
 2541SOL     OW 8521   0.409   6.915   5.574
 2541SOL    HW1 8522   0.316   6.885   5.550
 2541SOL    HW2 8523   0.474   6.881   5.506
 2542SOL     OW 8524   3.474   1.683   4.170
 2542SOL    HW1 8525   3.440   1.604   4.118
 2542SOL    HW2 8526   3.527   1.742   4.111
 2543SOL     OW 8527   0.331   2.467   4.619
 2543SOL    HW1 8528   0.258   2.444   4.683
 2543SOL    HW2 8529   0.296   2.528   4.548
 2544SOL     OW 8530   6.178   5.677   2.712
 2544SOL    HW1 8531   6.124   5.618   2.654
 2544SOL    HW2 8532   6.123   5.755   2.743
 2545SOL     OW 8533   6.370   2.057   0.572
 2545SOL    HW1 8534   6.427   2.063   0.654
 2545SOL    HW2 8535   6.410   2.110   0.499
 2546SOL     OW 8536   6.191   4.129   2.738
 2546SOL    HW1 8537   6.267   4.149   2.676
 2546SOL    HW2 8538   6.113   4.095   2.686
 2547SOL     OW 8539   5.682   3.684   0.838
 2547SOL    HW1 8540   5.748   3.758   0.855
 2547SOL    HW2 8541   5.731   3.597   0.835
 2548SOL     OW 8542   0.389   6.516   5.588
 2548SOL    HW1 8543   0.484   6.500   5.563
 2548SOL    HW2 8544   0.384   6.582   5.663
 2549SOL     OW 8545   3.278   3.135   0.336
 2549SOL    HW1 8546   3.222   3.057   0.310
 2549SOL    HW2 8547   3.256   3.163   0.429
 2550SOL     OW 8548   4.089   5.854   6.295
 2550SOL    HW1 8549   4.104   5.946   6.261
 2550SOL    HW2 8550   4.130   5.788   6.232
 2551SOL     OW 8551   3.529   5.004   0.822
 2551SOL    HW1 8552   3.569   5.055   0.898
 2551SOL    HW2 8553   3.462   5.062   0.775
 2552SOL     OW 8554   2.244   5.658   1.805
 2552SOL    HW1 8555   2.291   5.712   1.735
 2552SOL    HW2 8556   2.146   5.676   1.800
 2553SOL     OW 8557   4.398   1.017   0.136
 2553SOL    HW1 8558   4.390   0.930   0.185
 2553SOL    HW2 8559   4.351   1.010   0.048
 2554SOL     OW 8560   1.386   5.735   1.451
 2554SOL    HW1 8561   1.461   5.799   1.431
 2554SOL    HW2 8562   1.420   5.641   1.445
 2555SOL     OW 8563   5.862   7.001   4.553
 2555SOL    HW1 8564   5.864   0.012   4.649
 2555SOL    HW2 8565   5.768   7.002   4.519
 2556SOL     OW 8566   3.880   0.143   0.276
 2556SOL    HW1 8567   3.968   0.139   0.229
 2556SOL    HW2 8568   3.806   0.131   0.209
 2557SOL     OW 8569   2.753   0.762   6.800
 2557SOL    HW1 8570   2.794   0.842   6.843
 2557SOL    HW2 8571   2.653   0.770   6.803
 2558SOL     OW 8572   5.137   3.327   1.011
 2558SOL    HW1 8573   5.129   3.240   1.059
 2558SOL    HW2 8574   5.063   3.388   1.039
 2559SOL     OW 8575   0.864   4.167   4.368
 2559SOL    HW1 8576   0.770   4.156   4.338
 2559SOL    HW2 8577   0.881   4.111   4.449
 2560SOL     OW 8578   4.864   2.086   3.848
 2560SOL    HW1 8579   4.909   2.089   3.759
 2560SOL    HW2 8580   4.928   2.115   3.919
 2561SOL     OW 8581   4.052   7.012   4.630
 2561SOL    HW1 8582   3.965   0.024   4.590
 2561SOL    HW2 8583   4.073   0.051   4.709
 2562SOL     OW 8584   2.359   6.271   3.857
 2562SOL    HW1 8585   2.434   6.243   3.917
 2562SOL    HW2 8586   2.336   6.196   3.795
 2563SOL     OW 8587   3.813   2.187   6.085
 2563SOL    HW1 8588   3.737   2.214   6.143
 2563SOL    HW2 8589   3.892   2.245   6.104
 2564SOL     OW 8590   1.657   1.914   0.088
 2564SOL    HW1 8591   1.684   1.952   7.018
 2564SOL    HW2 8592   1.684   1.818   0.093
 2565SOL     OW 8593   1.077   1.513   0.616
 2565SOL    HW1 8594   1.176   1.511   0.607
 2565SOL    HW2 8595   1.052   1.535   0.710
 2566SOL     OW 8596   2.774   0.890   0.998
 2566SOL    HW1 8597   2.686   0.929   0.970
 2566SOL    HW2 8598   2.779   0.886   1.098
 2567SOL     OW 8599   2.253   1.384   0.185
 2567SOL    HW1 8600   2.219   1.372   0.279
 2567SOL    HW2 8601   2.177   1.403   0.124
 2568SOL     OW 8602   3.561   6.588   0.127
 2568SOL    HW1 8603   3.617   6.670   0.138
 2568SOL    HW2 8604   3.535   6.553   0.217
 2569SOL     OW 8605   1.829   6.999   0.944
 2569SOL    HW1 8606   1.879   6.968   1.025
 2569SOL    HW2 8607   1.773   0.060   0.968
 2570SOL     OW 8608   0.195   6.051   4.969
 2570SOL    HW1 8609   0.200   6.073   5.066
 2570SOL    HW2 8610   0.108   6.006   4.950
 2571SOL     OW 8611   3.233   3.537   4.072
 2571SOL    HW1 8612   3.293   3.462   4.099
 2571SOL    HW2 8613   3.175   3.509   3.996
 2572SOL     OW 8614   1.802   5.280   2.155
 2572SOL    HW1 8615   1.749   5.354   2.196
 2572SOL    HW2 8616   1.744   5.199   2.147
 2573SOL     OW 8617   6.813   2.023   4.447
 2573SOL    HW1 8618   6.777   1.931   4.457
 2573SOL    HW2 8619   6.802   2.054   4.352
 2574SOL     OW 8620   0.638   3.603   2.181
 2574SOL    HW1 8621   0.670   3.544   2.106
 2574SOL    HW2 8622   0.654   3.557   2.269
 2575SOL     OW 8623   5.709   3.675   6.785
 2575SOL    HW1 8624   5.733   3.769   6.763
 2575SOL    HW2 8625   5.686   3.669   6.882
 2576SOL     OW 8626   2.129   6.907   3.772
 2576SOL    HW1 8627   2.126   6.813   3.738
 2576SOL    HW2 8628   2.136   6.907   3.872
 2577SOL     OW 8629   2.554   6.063   1.776
 2577SOL    HW1 8630   2.539   5.987   1.838
 2577SOL    HW2 8631   2.482   6.132   1.789
 2578SOL     OW 8632   4.863   1.694   4.020
 2578SOL    HW1 8633   4.820   1.784   4.015
 2578SOL    HW2 8634   4.945   1.699   4.078
 2579SOL     OW 8635   6.898   1.701   6.022
 2579SOL    HW1 8636   6.883   1.800   6.025
 2579SOL    HW2 8637   6.945   1.678   5.937
 2580SOL     OW 8638   1.473   2.217   6.018
 2580SOL    HW1 8639   1.529   2.276   5.960
 2580SOL    HW2 8640   1.389   2.265   6.043
 2581SOL     OW 8641   6.555   6.866   4.293
 2581SOL    HW1 8642   6.465   6.864   4.337
 2581SOL    HW2 8643   6.588   6.772   4.282
 2582SOL     OW 8644   0.330   5.310   2.690
 2582SOL    HW1 8645   0.379   5.279   2.771
 2582SOL    HW2 8646   0.274   5.389   2.714
 2583SOL     OW 8647   1.957   1.211   6.997
 2583SOL    HW1 8648   1.972   1.133   6.936
 2583SOL    HW2 8649   1.932   1.178   0.070
 2584SOL     OW 8650   5.278   7.004   2.005
 2584SOL    HW1 8651   5.365   7.013   2.053
 2584SOL    HW2 8652   5.265   0.064   1.944
 2585SOL     OW 8653   3.981   1.194   1.425
 2585SOL    HW1 8654   4.028   1.278   1.451
 2585SOL    HW2 8655   3.940   1.205   1.334
 2586SOL     OW 8656   6.532   2.347   4.409
 2586SOL    HW1 8657   6.620   2.374   4.370
 2586SOL    HW2 8658   6.547   2.306   4.500
 2587SOL     OW 8659   6.660   6.596   2.630
 2587SOL    HW1 8660   6.617   6.650   2.557
 2587SOL    HW2 8661   6.696   6.511   2.591
 2588SOL     OW 8662   5.159   0.611   1.778
 2588SOL    HW1 8663   5.097   0.533   1.789
 2588SOL    HW2 8664   5.142   0.654   1.689
 2589SOL     OW 8665   5.986   6.456   0.411
 2589SOL    HW1 8666   5.959   6.470   0.506
 2589SOL    HW2 8667   5.905   6.430   0.357
 2590SOL     OW 8668   3.888   6.071   2.774
 2590SOL    HW1 8669   3.955   6.130   2.729
 2590SOL    HW2 8670   3.901   6.075   2.873
 2591SOL     OW 8671   5.408   0.315   1.665
 2591SOL    HW1 8672   5.330   0.325   1.603
 2591SOL    HW2 8673   5.468   0.243   1.632
 2592SOL     OW 8674   3.196   5.323   1.505
 2592SOL    HW1 8675   3.184   5.379   1.424
 2592SOL    HW2 8676   3.116   5.263   1.517
 2593SOL     OW 8677   3.137   6.740   2.504
 2593SOL    HW1 8678   3.189   6.693   2.433
 2593SOL    HW2 8679   3.174   6.832   2.518
 2594SOL     OW 8680   1.086   5.786   6.205
 2594SOL    HW1 8681   1.016   5.716   6.192
 2594SOL    HW2 8682   1.094   5.841   6.123
 2595SOL     OW 8683   6.181   3.368   4.150
 2595SOL    HW1 8684   6.183   3.279   4.197
 2595SOL    HW2 8685   6.254   3.426   4.186
 2596SOL     OW 8686   4.161   1.829   1.866
 2596SOL    HW1 8687   4.187   1.916   1.824
 2596SOL    HW2 8688   4.065   1.832   1.892
 2597SOL     OW 8689   2.033   2.606   6.785
 2597SOL    HW1 8690   2.088   2.541   6.732
 2597SOL    HW2 8691   1.947   2.562   6.812
 2598SOL     OW 8692   6.009   2.596   2.729
 2598SOL    HW1 8693   6.042   2.678   2.775
 2598SOL    HW2 8694   5.969   2.534   2.795
 2599SOL     OW 8695   4.295   4.418   6.622
 2599SOL    HW1 8696   4.240   4.358   6.565
 2599SOL    HW2 8697   4.240   4.452   6.698
 2600SOL     OW 8698   6.577   3.542   3.510
 2600SOL    HW1 8699   6.564   3.530   3.412
 2600SOL    HW2 8700   6.499   3.500   3.559
 2601SOL     OW 8701   3.601   3.295   5.548
 2601SOL    HW1 8702   3.669   3.363   5.577
 2601SOL    HW2 8703   3.585   3.304   5.450
 2602SOL     OW 8704   6.126   5.587   5.211
 2602SOL    HW1 8705   6.063   5.592   5.133
 2602SOL    HW2 8706   6.102   5.658   5.277
 2603SOL     OW 8707   2.855   2.771   0.268
 2603SOL    HW1 8708   2.835   2.866   0.292
 2603SOL    HW2 8709   2.907   2.729   0.343
 2604SOL     OW 8710   5.698   1.122   1.829
 2604SOL    HW1 8711   5.721   1.218   1.820
 2604SOL    HW2 8712   5.669   1.104   1.923
 2605SOL     OW 8713   4.584   4.401   3.918
 2605SOL    HW1 8714   4.642   4.412   3.837
 2605SOL    HW2 8715   4.501   4.455   3.906
 2606SOL     OW 8716   6.831   4.475   2.010
 2606SOL    HW1 8717   6.785   4.523   2.085
 2606SOL    HW2 8718   6.764   4.443   1.944
 2607SOL     OW 8719   0.736   1.584   4.827
 2607SOL    HW1 8720   0.646   1.551   4.858
 2607SOL    HW2 8721   0.730   1.681   4.805
 2608SOL     OW 8722   4.901   0.303   0.633
 2608SOL    HW1 8723   4.967   0.267   0.567
 2608SOL    HW2 8724   4.902   0.403   0.629
 2609SOL     OW 8725   0.272   2.121   4.536
 2609SOL    HW1 8726   0.308   2.045   4.590
 2609SOL    HW2 8727   0.175   2.134   4.555
 2610SOL     OW 8728   5.711   6.064   4.501
 2610SOL    HW1 8729   5.709   5.978   4.552
 2610SOL    HW2 8730   5.798   6.110   4.517
 2611SOL     OW 8731   3.449   6.234   1.671
 2611SOL    HW1 8732   3.443   6.260   1.575
 2611SOL    HW2 8733   3.448   6.134   1.678
 2612SOL     OW 8734   6.266   6.870   4.388
 2612SOL    HW1 8735   6.230   6.924   4.464
 2612SOL    HW2 8736   6.231   6.776   4.394
 2613SOL     OW 8737   4.221   0.504   1.350
 2613SOL    HW1 8738   4.291   0.443   1.313
 2613SOL    HW2 8739   4.131   0.472   1.322
 2614SOL     OW 8740   0.026   6.504   6.479
 2614SOL    HW1 8741   0.042   6.586   6.534
 2614SOL    HW2 8742   0.076   6.427   6.519
 2615SOL     OW 8743   5.629   5.134   2.165
 2615SOL    HW1 8744   5.614   5.228   2.198
 2615SOL    HW2 8745   5.541   5.086   2.161
 2616SOL     OW 8746   3.946   3.292   2.749
 2616SOL    HW1 8747   3.967   3.331   2.839
 2616SOL    HW2 8748   3.988   3.348   2.678
 2617SOL     OW 8749   3.409   0.225   1.502
 2617SOL    HW1 8750   3.388   0.240   1.598
 2617SOL    HW2 8751   3.341   0.163   1.462
 2618SOL     OW 8752   0.880   0.718   0.893
 2618SOL    HW1 8753   0.874   0.620   0.914
 2618SOL    HW2 8754   0.788   0.757   0.892
 2619SOL     OW 8755   5.107   1.660   1.522
 2619SOL    HW1 8756   5.038   1.712   1.471
 2619SOL    HW2 8757   5.109   1.691   1.617
 2620SOL     OW 8758   1.670   4.260   4.287
 2620SOL    HW1 8759   1.763   4.255   4.250
 2620SOL    HW2 8760   1.605   4.225   4.220
 2621SOL     OW 8761   0.997   4.329   4.081
 2621SOL    HW1 8762   1.061   4.326   4.005
 2621SOL    HW2 8763   1.022   4.259   4.148
 2622SOL     OW 8764   3.124   3.388   6.138
 2622SOL    HW1 8765   3.116   3.375   6.039
 2622SOL    HW2 8766   3.146   3.483   6.158
 2623SOL     OW 8767   2.973   1.025   5.699
 2623SOL    HW1 8768   3.054   0.981   5.659
 2623SOL    HW2 8769   2.987   1.124   5.701
 2624SOL     OW 8770   6.351   2.417   3.913
 2624SOL    HW1 8771   6.356   2.504   3.863
 2624SOL    HW2 8772   6.436   2.367   3.901
 2625SOL     OW 8773   4.446   0.861   5.619
 2625SOL    HW1 8774   4.532   0.857   5.569
 2625SOL    HW2 8775   4.371   0.829   5.561
 2626SOL     OW 8776   2.462   6.501   2.478
 2626SOL    HW1 8777   2.478   6.471   2.384
 2626SOL    HW2 8778   2.487   6.597   2.487
 2627SOL     OW 8779   6.921   0.342   4.695
 2627SOL    HW1 8780   6.980   0.393   4.633
 2627SOL    HW2 8781   6.833   0.325   4.652
 2628SOL     OW 8782   3.628   5.491   5.760
 2628SOL    HW1 8783   3.675   5.559   5.817
 2628SOL    HW2 8784   3.539   5.469   5.800
 2629SOL     OW 8785   3.556   4.283   1.560
 2629SOL    HW1 8786   3.647   4.260   1.526
 2629SOL    HW2 8787   3.502   4.200   1.570
 2630SOL     OW 8788   3.036   2.162   2.237
 2630SOL    HW1 8789   2.988   2.225   2.175
 2630SOL    HW2 8790   3.134   2.169   2.222
 2631SOL     OW 8791   4.683   6.599   4.371
 2631SOL    HW1 8792   4.628   6.642   4.299
 2631SOL    HW2 8793   4.654   6.504   4.382
 2632SOL     OW 8794   5.008   1.737   0.574
 2632SOL    HW1 8795   4.984   1.644   0.601
 2632SOL    HW2 8796   4.932   1.778   0.523
 2633SOL     OW 8797   6.556   2.434   6.508
 2633SOL    HW1 8798   6.570   2.405   6.603
 2633SOL    HW2 8799   6.620   2.384   6.449
 2634SOL     OW 8800   2.525   5.652   1.306
 2634SOL    HW1 8801   2.610   5.701   1.329
 2634SOL    HW2 8802   2.483   5.617   1.389
 2635SOL     OW 8803   5.151   4.653   3.617
 2635SOL    HW1 8804   5.056   4.650   3.648
 2635SOL    HW2 8805   5.211   4.668   3.695
 2636SOL     OW 8806   6.071   0.939   5.064
 2636SOL    HW1 8807   6.127   0.872   5.015
 2636SOL    HW2 8808   5.980   0.942   5.024
 2637SOL     OW 8809   4.883   6.382   2.256
 2637SOL    HW1 8810   4.833   6.456   2.300
 2637SOL    HW2 8811   4.975   6.414   2.232
 2638SOL     OW 8812   5.662   5.600   1.221
 2638SOL    HW1 8813   5.679   5.694   1.251
 2638SOL    HW2 8814   5.634   5.600   1.125
 2639SOL     OW 8815   6.692   6.353   0.429
 2639SOL    HW1 8816   6.782   6.331   0.466
 2639SOL    HW2 8817   6.653   6.271   0.387
 2640SOL     OW 8818   6.835   6.834   5.969
 2640SOL    HW1 8819   6.891   6.915   5.955
 2640SOL    HW2 8820   6.753   6.840   5.912
 2641SOL     OW 8821   5.932   4.905   0.504
 2641SOL    HW1 8822   5.870   4.896   0.426
 2641SOL    HW2 8823   5.977   4.818   0.522
 2642SOL     OW 8824   6.242   0.110   3.892
 2642SOL    HW1 8825   6.229   0.054   3.973
 2642SOL    HW2 8826   6.284   0.055   3.820
 2643SOL     OW 8827   0.687   0.514   2.815
 2643SOL    HW1 8828   0.752   0.585   2.789
 2643SOL    HW2 8829   0.697   0.436   2.752
 2644SOL     OW 8830   0.275   4.819   6.295
 2644SOL    HW1 8831   0.370   4.797   6.276
 2644SOL    HW2 8832   0.217   4.742   6.269
 2645SOL     OW 8833   5.457   5.623   5.534
 2645SOL    HW1 8834   5.464   5.535   5.581
 2645SOL    HW2 8835   5.364   5.658   5.542
 2646SOL     OW 8836   6.387   6.376   6.869
 2646SOL    HW1 8837   6.461   6.329   6.917
 2646SOL    HW2 8838   6.378   6.469   6.904
 2647SOL     OW 8839   3.647   1.715   0.645
 2647SOL    HW1 8840   3.653   1.809   0.679
 2647SOL    HW2 8841   3.675   1.712   0.550
 2648SOL     OW 8842   4.080   0.770   2.268
 2648SOL    HW1 8843   4.120   0.679   2.267
 2648SOL    HW2 8844   4.056   0.797   2.175
 2649SOL     OW 8845   3.879   2.212   5.599
 2649SOL    HW1 8846   3.816   2.168   5.663
 2649SOL    HW2 8847   3.954   2.149   5.577
 2650SOL     OW 8848   0.421   6.267   1.950
 2650SOL    HW1 8849   0.387   6.192   1.893
 2650SOL    HW2 8850   0.482   6.230   2.020
 2651SOL     OW 8851   0.461   0.625   3.488
 2651SOL    HW1 8852   0.377   0.623   3.543
 2651SOL    HW2 8853   0.491   0.720   3.478
 2652SOL     OW 8854   3.108   3.159   2.371
 2652SOL    HW1 8855   3.027   3.212   2.398
 2652SOL    HW2 8856   3.160   3.211   2.303
 2653SOL     OW 8857   6.531   6.100   6.250
 2653SOL    HW1 8858   6.517   6.006   6.217
 2653SOL    HW2 8859   6.628   6.114   6.271
 2654SOL     OW 8860   5.834   2.783   6.070
 2654SOL    HW1 8861   5.930   2.809   6.062
 2654SOL    HW2 8862   5.828   2.688   6.102
 2655SOL     OW 8863   5.188   6.342   4.783
 2655SOL    HW1 8864   5.268   6.344   4.723
 2655SOL    HW2 8865   5.125   6.414   4.757
 2656SOL     OW 8866   5.577   3.149   3.896
 2656SOL    HW1 8867   5.559   3.246   3.882
 2656SOL    HW2 8868   5.536   3.120   3.982
 2657SOL     OW 8869   2.074   2.575   5.990
 2657SOL    HW1 8870   2.170   2.580   6.019
 2657SOL    HW2 8871   2.040   2.668   5.974
 2658SOL     OW 8872   5.732   4.505   5.825
 2658SOL    HW1 8873   5.645   4.485   5.779
 2658SOL    HW2 8874   5.720   4.498   5.924
 2659SOL     OW 8875   6.942   2.841   4.005
 2659SOL    HW1 8876   7.014   2.875   4.065
 2659SOL    HW2 8877   6.911   2.752   4.037
 2660SOL     OW 8878   6.870   2.144   3.087
 2660SOL    HW1 8879   6.882   2.047   3.066
 2660SOL    HW2 8880   6.899   2.199   3.010
 2661SOL     OW 8881   4.487   5.838   0.970
 2661SOL    HW1 8882   4.427   5.903   0.924
 2661SOL    HW2 8883   4.571   5.885   0.998
 2662SOL     OW 8884   3.052   6.592   3.987
 2662SOL    HW1 8885   3.006   6.662   4.042
 2662SOL    HW2 8886   3.138   6.628   3.951
 2663SOL     OW 8887   0.901   4.292   2.577
 2663SOL    HW1 8888   0.851   4.206   2.564
 2663SOL    HW2 8889   0.913   4.308   2.675
 2664SOL     OW 8890   4.100   3.630   2.063
 2664SOL    HW1 8891   4.190   3.649   2.103
 2664SOL    HW2 8892   4.036   3.607   2.136
 2665SOL     OW 8893   3.964   1.089   4.977
 2665SOL    HW1 8894   3.913   1.011   5.013
 2665SOL    HW2 8895   3.899   1.160   4.948
 2666SOL     OW 8896   5.472   5.980   1.765
 2666SOL    HW1 8897   5.474   5.970   1.865
 2666SOL    HW2 8898   5.380   5.962   1.731
 2667SOL     OW 8899   1.125   4.900   3.886
 2667SOL    HW1 8900   1.037   4.879   3.842
 2667SOL    HW2 8901   1.180   4.954   3.823
 2668SOL     OW 8902   0.347   2.830   5.676
 2668SOL    HW1 8903   0.443   2.831   5.704
 2668SOL    HW2 8904   0.293   2.882   5.742
 2669SOL     OW 8905   4.182   4.716   5.325
 2669SOL    HW1 8906   4.189   4.763   5.237
 2669SOL    HW2 8907   4.089   4.684   5.339
 2670SOL     OW 8908   1.558   0.746   6.797
 2670SOL    HW1 8909   1.488   0.796   6.848
 2670SOL    HW2 8910   1.557   0.775   6.702
 2671SOL     OW 8911   2.760   3.667   5.818
 2671SOL    HW1 8912   2.850   3.698   5.787
 2671SOL    HW2 8913   2.771   3.602   5.893
 2672SOL     OW 8914   1.049   4.876   0.822
 2672SOL    HW1 8915   1.096   4.965   0.815
 2672SOL    HW2 8916   0.997   4.860   0.738
 2673SOL     OW 8917   4.328   2.069   3.241
 2673SOL    HW1 8918   4.278   2.017   3.172
 2673SOL    HW2 8919   4.426   2.064   3.223
 2674SOL     OW 8920   5.092   5.146   5.331
 2674SOL    HW1 8921   5.086   5.228   5.388
 2674SOL    HW2 8922   5.006   5.096   5.336
 2675SOL     OW 8923   0.325   4.387   5.634
 2675SOL    HW1 8924   0.404   4.345   5.588
 2675SOL    HW2 8925   0.309   4.478   5.595
 2676SOL     OW 8926   4.277   0.840   1.797
 2676SOL    HW1 8927   4.289   0.823   1.895
 2676SOL    HW2 8928   4.302   0.757   1.746
 2677SOL     OW 8929   2.300   5.161   2.253
 2677SOL    HW1 8930   2.259   5.250   2.235
 2677SOL    HW2 8931   2.292   5.103   2.172
 2678SOL     OW 8932   0.676   5.076   5.810
 2678SOL    HW1 8933   0.644   5.154   5.757
 2678SOL    HW2 8934   0.658   5.093   5.907
 2679SOL     OW 8935   2.626   4.158   1.238
 2679SOL    HW1 8936   2.667   4.087   1.296
 2679SOL    HW2 8937   2.642   4.247   1.279
 2680SOL     OW 8938   1.089   2.329   1.572
 2680SOL    HW1 8939   1.069   2.237   1.537
 2680SOL    HW2 8940   1.110   2.390   1.496
 2681SOL     OW 8941   1.323   1.756   2.389
 2681SOL    HW1 8942   1.381   1.826   2.349
 2681SOL    HW2 8943   1.275   1.793   2.469
 2682SOL     OW 8944   5.983   1.932   3.512
 2682SOL    HW1 8945   5.929   2.006   3.473
 2682SOL    HW2 8946   5.997   1.949   3.610
 2683SOL     OW 8947   1.054   0.007   1.639
 2683SOL    HW1 8948   1.084   6.933   1.663
 2683SOL    HW2 8949   1.047   0.062   1.722
 2684SOL     OW 8950   2.465   6.562   2.994
 2684SOL    HW1 8951   2.387   6.556   2.932
 2684SOL    HW2 8952   2.467   6.653   3.036
 2685SOL     OW 8953   5.748   5.550   5.399
 2685SOL    HW1 8954   5.711   5.574   5.310
 2685SOL    HW2 8955   5.785   5.632   5.443
 2686SOL     OW 8956   1.929   2.661   4.264
 2686SOL    HW1 8957   1.914   2.704   4.175
 2686SOL    HW2 8958   1.961   2.729   4.329
 2687SOL     OW 8959   4.446   5.689   2.597
 2687SOL    HW1 8960   4.489   5.695   2.687
 2687SOL    HW2 8961   4.406   5.597   2.585
 2688SOL     OW 8962   3.897   4.726   6.287
 2688SOL    HW1 8963   3.816   4.780   6.309
 2688SOL    HW2 8964   3.942   4.764   6.206
 2689SOL     OW 8965   6.844   3.558   4.229
 2689SOL    HW1 8966   6.840   3.539   4.327
 2689SOL    HW2 8967   6.899   3.488   4.184
 2690SOL     OW 8968   3.511   3.538   3.462
 2690SOL    HW1 8969   3.569   3.489   3.527
 2690SOL    HW2 8970   3.415   3.515   3.479
 2691SOL     OW 8971   1.250   6.019   2.060
 2691SOL    HW1 8972   1.346   6.046   2.049
 2691SOL    HW2 8973   1.230   5.941   2.001
 2692SOL     OW 8974   0.143   6.849   3.806
 2692SOL    HW1 8975   0.167   6.810   3.718
 2692SOL    HW2 8976   0.052   6.890   3.801
 2693SOL     OW 8977   1.663   4.141   3.075
 2693SOL    HW1 8978   1.582   4.103   3.030
 2693SOL    HW2 8979   1.743   4.089   3.047
 2694SOL     OW 8980   2.195   0.143   3.451
 2694SOL    HW1 8981   2.257   0.129   3.528
 2694SOL    HW2 8982   2.106   0.103   3.472
 2695SOL     OW 8983   4.218   2.150   3.506
 2695SOL    HW1 8984   4.278   2.084   3.551
 2695SOL    HW2 8985   4.224   2.139   3.407
 2696SOL     OW 8986   3.746   4.024   5.577
 2696SOL    HW1 8987   3.697   3.936   5.574
 2696SOL    HW2 8988   3.758   4.057   5.483
 2697SOL     OW 8989   2.643   1.976   4.594
 2697SOL    HW1 8990   2.700   1.902   4.559
 2697SOL    HW2 8991   2.546   1.951   4.585
 2698SOL     OW 8992   2.330   3.461   7.002
 2698SOL    HW1 8993   2.428   3.465   6.986
 2698SOL    HW2 8994   2.289   3.393   6.942
 2699SOL     OW 8995   3.699   5.771   1.933
 2699SOL    HW1 8996   3.759   5.798   2.008
 2699SOL    HW2 8997   3.626   5.839   1.923
 2700SOL     OW 8998   2.087   3.576   2.803
 2700SOL    HW1 8999   2.080   3.479   2.829
 2700SOL    HW2 9000   2.161   3.587   2.738
 2701SOL     OW 9001   3.650   6.867   6.283
 2701SOL    HW1 9002   3.715   6.915   6.224
 2701SOL    HW2 9003   3.567   6.846   6.231
 2702SOL     OW 9004   0.035   0.483   3.469
 2702SOL    HW1 9005   6.973   0.533   3.437
 2702SOL    HW2 9006   0.010   0.388   3.489
 2703SOL     OW 9007   2.164   1.353   2.352
 2703SOL    HW1 9008   2.187   1.448   2.330
 2703SOL    HW2 9009   2.083   1.352   2.412
 2704SOL     OW 9010   2.210   4.935   1.114
 2704SOL    HW1 9011   2.147   4.865   1.079
 2704SOL    HW2 9012   2.191   4.951   1.211
 2705SOL     OW 9013   0.109   4.907   2.948
 2705SOL    HW1 9014   0.123   4.858   2.862
 2705SOL    HW2 9015   0.060   4.993   2.929
 2706SOL     OW 9016   6.863   1.592   1.995
 2706SOL    HW1 9017   6.929   1.643   2.050
 2706SOL    HW2 9018   6.826   1.517   2.049
 2707SOL     OW 9019   2.596   1.402   6.048
 2707SOL    HW1 9020   2.554   1.311   6.040
 2707SOL    HW2 9021   2.555   1.451   6.124
 2708SOL     OW 9022   2.011   2.810   1.298
 2708SOL    HW1 9023   1.946   2.820   1.223
 2708SOL    HW2 9024   2.082   2.745   1.272
 2709SOL     OW 9025   4.688   6.358   0.611
 2709SOL    HW1 9026   4.597   6.397   0.593
 2709SOL    HW2 9027   4.744   6.426   0.660
 2710SOL     OW 9028   5.803   3.758   2.817
 2710SOL    HW1 9029   5.710   3.721   2.816
 2710SOL    HW2 9030   5.799   3.857   2.821
 2711SOL     OW 9031   1.061   0.344   2.011
 2711SOL    HW1 9032   1.031   0.249   2.012
 2711SOL    HW2 9033   1.126   0.358   1.937
 2712SOL     OW 9034   2.639   4.470   0.340
 2712SOL    HW1 9035   2.677   4.562   0.352
 2712SOL    HW2 9036   2.603   4.436   0.427
 2713SOL     OW 9037   2.129   3.053   5.147
 2713SOL    HW1 9038   2.211   3.031   5.094
 2713SOL    HW2 9039   2.048   3.038   5.091
 2714SOL     OW 9040   5.337   6.896   5.315
 2714SOL    HW1 9041   5.434   6.908   5.294
 2714SOL    HW2 9042   5.299   6.823   5.258
 2715SOL     OW 9043   6.452   1.439   6.468
 2715SOL    HW1 9044   6.403   1.357   6.500
 2715SOL    HW2 9045   6.535   1.451   6.523
 2716SOL     OW 9046   0.366   0.188   2.444
 2716SOL    HW1 9047   0.281   0.234   2.415
 2716SOL    HW2 9048   0.444   0.241   2.411
 2717SOL     OW 9049   0.923   0.710   3.071
 2717SOL    HW1 9050   0.856   0.636   3.067
 2717SOL    HW2 9051   1.010   0.678   3.033
 2718SOL     OW 9052   1.636   4.869   3.806
 2718SOL    HW1 9053   1.734   4.851   3.815
 2718SOL    HW2 9054   1.601   4.818   3.727
 2719SOL     OW 9055   3.985   5.406   1.600
 2719SOL    HW1 9056   4.044   5.473   1.645
 2719SOL    HW2 9057   3.987   5.422   1.501
 2720SOL     OW 9058   1.470   5.708   3.581
 2720SOL    HW1 9059   1.438   5.713   3.676
 2720SOL    HW2 9060   1.484   5.800   3.546
 2721SOL     OW 9061   4.059   6.995   4.284
 2721SOL    HW1 9062   4.002   7.007   4.366
 2721SOL    HW2 9063   4.152   6.971   4.312
 2722SOL     OW 9064   1.471   5.866   1.869
 2722SOL    HW1 9065   1.397   5.826   1.923
 2722SOL    HW2 9066   1.462   5.965   1.868
 2723SOL     OW 9067   1.516   1.356   5.666
 2723SOL    HW1 9068   1.568   1.386   5.746
 2723SOL    HW2 9069   1.548   1.406   5.585
 2724SOL     OW 9070   3.634   5.081   6.054
 2724SOL    HW1 9071   3.546   5.084   6.101
 2724SOL    HW2 9072   3.680   5.169   6.062
 2725SOL     OW 9073   3.014   4.838   3.806
 2725SOL    HW1 9074   2.924   4.834   3.850
 2725SOL    HW2 9075   3.085   4.853   3.876
 2726SOL     OW 9076   4.924   5.615   1.693
 2726SOL    HW1 9077   4.959   5.590   1.603
 2726SOL    HW2 9078   4.999   5.621   1.758
 2727SOL     OW 9079   2.250   5.458   3.113
 2727SOL    HW1 9080   2.259   5.514   3.031
 2727SOL    HW2 9081   2.340   5.443   3.154
 2728SOL     OW 9082   3.845   0.186   5.772
 2728SOL    HW1 9083   3.846   0.274   5.819
 2728SOL    HW2 9084   3.798   0.195   5.684
 2729SOL     OW 9085   5.719   5.065   2.802
 2729SOL    HW1 9086   5.641   5.122   2.777
 2729SOL    HW2 9087   5.802   5.120   2.806
 2730SOL     OW 9088   1.976   5.648   1.839
 2730SOL    HW1 9089   1.962   5.569   1.899
 2730SOL    HW2 9090   1.928   5.633   1.753
 2731SOL     OW 9091   3.111   3.625   1.493
 2731SOL    HW1 9092   3.102   3.570   1.577
 2731SOL    HW2 9093   3.142   3.717   1.517
 2732SOL     OW 9094   6.273   1.997   2.693
 2732SOL    HW1 9095   6.225   2.083   2.711
 2732SOL    HW2 9096   6.216   1.920   2.722
 2733SOL     OW 9097   1.661   0.310   5.773
 2733SOL    HW1 9098   1.677   0.301   5.871
 2733SOL    HW2 9099   1.594   0.242   5.744
 2734SOL     OW 9100   2.115   5.526   4.036
 2734SOL    HW1 9101   2.203   5.479   4.029
 2734SOL    HW2 9102   2.089   5.534   4.132
 2735SOL     OW 9103   1.693   4.646   2.395
 2735SOL    HW1 9104   1.615   4.610   2.344
 2735SOL    HW2 9105   1.761   4.573   2.407
 2736SOL     OW 9106   4.384   0.295   5.679
 2736SOL    HW1 9107   4.404   0.334   5.769
 2736SOL    HW2 9108   4.319   0.354   5.630
 2737SOL     OW 9109   4.280   3.434   6.126
 2737SOL    HW1 9110   4.275   3.504   6.056
 2737SOL    HW2 9111   4.376   3.411   6.142
 2738SOL     OW 9112   5.767   4.874   3.985
 2738SOL    HW1 9113   5.692   4.825   3.939
 2738SOL    HW2 9114   5.766   4.970   3.954
 2739SOL     OW 9115   6.344   2.720   1.002
 2739SOL    HW1 9116   6.375   2.783   0.930
 2739SOL    HW2 9117   6.259   2.676   0.974
 2740SOL     OW 9118   6.442   2.143   3.193
 2740SOL    HW1 9119   6.467   2.231   3.155
 2740SOL    HW2 9120   6.351   2.149   3.233
 2741SOL     OW 9121   0.511   2.520   5.717
 2741SOL    HW1 9122   0.577   2.465   5.666
 2741SOL    HW2 9123   0.424   2.471   5.722
 2742SOL     OW 9124   2.130   6.439   6.369
 2742SOL    HW1 9125   2.229   6.449   6.364
 2742SOL    HW2 9126   2.091   6.516   6.419
 2743SOL     OW 9127   5.052   4.738   0.670
 2743SOL    HW1 9128   5.136   4.722   0.619
 2743SOL    HW2 9129   4.981   4.675   0.638
 2744SOL     OW 9130   3.795   1.566   6.676
 2744SOL    HW1 9131   3.811   1.625   6.596
 2744SOL    HW2 9132   3.697   1.553   6.688
 2745SOL     OW 9133   2.264   5.707   0.806
 2745SOL    HW1 9134   2.167   5.734   0.803
 2745SOL    HW2 9135   2.309   5.753   0.883
 2746SOL     OW 9136   1.765   1.966   6.259
 2746SOL    HW1 9137   1.717   2.046   6.296
 2746SOL    HW2 9138   1.752   1.889   6.321
 2747SOL     OW 9139   4.517   5.753   3.905
 2747SOL    HW1 9140   4.466   5.667   3.896
 2747SOL    HW2 9141   4.548   5.782   3.814
 2748SOL     OW 9142   3.624   1.217   4.130
 2748SOL    HW1 9143   3.633   1.147   4.201
 2748SOL    HW2 9144   3.535   1.261   4.137
 2749SOL     OW 9145   4.761   5.451   4.306
 2749SOL    HW1 9146   4.682   5.395   4.327
 2749SOL    HW2 9147   4.733   5.546   4.293
 2750SOL     OW 9148   0.700   5.957   2.484
 2750SOL    HW1 9149   0.717   5.921   2.392
 2750SOL    HW2 9150   0.601   5.953   2.503
 2751SOL     OW 9151   1.040   7.017   6.579
 2751SOL    HW1 9152   1.078   0.081   6.620
 2751SOL    HW2 9153   0.959   6.988   6.630
 2752SOL     OW 9154   6.024   6.235   5.629
 2752SOL    HW1 9155   6.124   6.236   5.627
 2752SOL    HW2 9156   5.994   6.223   5.724
 2753SOL     OW 9157   2.847   5.647   5.732
 2753SOL    HW1 9158   2.873   5.567   5.679
 2753SOL    HW2 9159   2.754   5.676   5.706
 2754SOL     OW 9160   1.237   6.179   4.094
 2754SOL    HW1 9161   1.313   6.237   4.126
 2754SOL    HW2 9162   1.231   6.098   4.151
 2755SOL     OW 9163   3.846   6.027   2.488
 2755SOL    HW1 9164   3.877   6.098   2.425
 2755SOL    HW2 9165   3.868   6.054   2.582
 2756SOL     OW 9166   0.774   2.839   5.520
 2756SOL    HW1 9167   0.853   2.893   5.550
 2756SOL    HW2 9168   0.736   2.789   5.597
 2757SOL     OW 9169   4.469   3.423   6.818
 2757SOL    HW1 9170   4.401   3.493   6.795
 2757SOL    HW2 9171   4.553   3.467   6.849
 2758SOL     OW 9172   6.633   6.530   1.898
 2758SOL    HW1 9173   6.621   6.629   1.900
 2758SOL    HW2 9174   6.554   6.486   1.940
 2759SOL     OW 9175   3.030   3.692   6.186
 2759SOL    HW1 9176   3.043   3.709   6.284
 2759SOL    HW2 9177   2.958   3.751   6.151
 2760SOL     OW 9178   5.496   6.326   3.027
 2760SOL    HW1 9179   5.480   6.363   3.118
 2760SOL    HW2 9180   5.594   6.320   3.010
 2761SOL     OW 9181   1.159   2.616   3.855
 2761SOL    HW1 9182   1.249   2.635   3.814
 2761SOL    HW2 9183   1.103   2.699   3.851
 2762SOL     OW 9184   2.567   2.372   0.486
 2762SOL    HW1 9185   2.555   2.297   0.421
 2762SOL    HW2 9186   2.601   2.453   0.438
 2763SOL     OW 9187   6.339   1.944   4.515
 2763SOL    HW1 9188   6.338   2.044   4.513
 2763SOL    HW2 9189   6.297   1.913   4.600
 2764SOL     OW 9190   0.799   3.114   2.140
 2764SOL    HW1 9191   0.812   3.157   2.229
 2764SOL    HW2 9192   0.703   3.120   2.113
 2765SOL     OW 9193   6.410   6.756   6.685
 2765SOL    HW1 9194   6.400   6.715   6.595
 2765SOL    HW2 9195   6.369   6.697   6.755
 2766SOL     OW 9196   4.673   0.521   0.141
 2766SOL    HW1 9197   4.744   0.453   0.160
 2766SOL    HW2 9198   4.679   0.550   0.046
 2767SOL     OW 9199   6.996   5.421   6.339
 2767SOL    HW1 9200   0.068   5.464   6.337
 2767SOL    HW2 9201   6.962   5.419   6.433
 2768SOL     OW 9202   3.924   0.253   1.591
 2768SOL    HW1 9203   3.971   0.269   1.678
 2768SOL    HW2 9204   3.928   0.336   1.536
 2769SOL     OW 9205   0.784   4.444   5.716
 2769SOL    HW1 9206   0.858   4.476   5.658
 2769SOL    HW2 9207   0.732   4.373   5.667
 2770SOL     OW 9208   2.757   6.001   0.680
 2770SOL    HW1 9209   2.717   5.952   0.603
 2770SOL    HW2 9210   2.684   6.025   0.745
 2771SOL     OW 9211   4.584   6.711   4.979
 2771SOL    HW1 9212   4.566   6.614   4.963
 2771SOL    HW2 9213   4.515   6.748   5.041
 2772SOL     OW 9214   4.685   0.315   3.606
 2772SOL    HW1 9215   4.670   0.235   3.664
 2772SOL    HW2 9216   4.598   0.340   3.562
 2773SOL     OW 9217   5.537   2.933   5.171
 2773SOL    HW1 9218   5.499   2.898   5.086
 2773SOL    HW2 9219   5.575   2.858   5.224
 2774SOL     OW 9220   6.135   2.061   4.230
 2774SOL    HW1 9221   6.124   2.141   4.289
 2774SOL    HW2 9222   6.233   2.046   4.213
 2775SOL     OW 9223   0.732   3.336   4.189
 2775SOL    HW1 9224   0.674   3.417   4.186
 2775SOL    HW2 9225   0.814   3.355   4.243
 2776SOL     OW 9226   4.954   5.159   6.131
 2776SOL    HW1 9227   4.869   5.143   6.080
 2776SOL    HW2 9228   5.030   5.114   6.084
 2777SOL     OW 9229   2.867   2.355   6.422
 2777SOL    HW1 9230   2.780   2.307   6.422
 2777SOL    HW2 9231   2.878   2.403   6.509
 2778SOL     OW 9232   2.843   0.132   6.212
 2778SOL    HW1 9233   2.897   0.166   6.289
 2778SOL    HW2 9234   2.754   0.178   6.212
 2779SOL     OW 9235   4.472   0.933   1.060
 2779SOL    HW1 9236   4.406   0.876   1.110
 2779SOL    HW2 9237   4.561   0.888   1.061
 2780SOL     OW 9238   0.157   1.738   4.981
 2780SOL    HW1 9239   0.139   1.640   4.990
 2780SOL    HW2 9240   0.247   1.752   4.940
 2781SOL     OW 9241   5.742   1.516   3.196
 2781SOL    HW1 9242   5.721   1.579   3.271
 2781SOL    HW2 9243   5.786   1.434   3.233
 2782SOL     OW 9244   5.312   0.489   5.894
 2782SOL    HW1 9245   5.324   0.453   5.802
 2782SOL    HW2 9246   5.401   0.505   5.936
 2783SOL     OW 9247   6.026   4.014   1.767
 2783SOL    HW1 9248   6.101   4.052   1.821
 2783SOL    HW2 9249   6.055   3.927   1.726
 2784SOL     OW 9250   1.012   2.391   1.086
 2784SOL    HW1 9251   0.994   2.356   1.178
 2784SOL    HW2 9252   0.956   2.472   1.069
 2785SOL     OW 9253   5.989   3.260   1.537
 2785SOL    HW1 9254   6.069   3.201   1.531
 2785SOL    HW2 9255   5.906   3.204   1.541
 2786SOL     OW 9256   0.233   5.810   6.725
 2786SOL    HW1 9257   0.268   5.840   6.814
 2786SOL    HW2 9258   0.273   5.867   6.653
 2787SOL     OW 9259   0.005   5.726   0.134
 2787SOL    HW1 9260   0.066   5.684   0.201
 2787SOL    HW2 9261   6.964   5.656   0.094
 2788SOL     OW 9262   3.046   6.681   6.077
 2788SOL    HW1 9263   2.988   6.759   6.101
 2788SOL    HW2 9264   3.125   6.713   6.026
 2789SOL     OW 9265   1.258   1.770   5.154
 2789SOL    HW1 9266   1.233   1.675   5.172
 2789SOL    HW2 9267   1.302   1.777   5.064
 2790SOL     OW 9268   1.182   5.585   2.345
 2790SOL    HW1 9269   1.096   5.580   2.397
 2790SOL    HW2 9270   1.165   5.557   2.250
 2791SOL     OW 9271   0.453   3.285   2.970
 2791SOL    HW1 9272   0.495   3.308   2.882
 2791SOL    HW2 9273   0.368   3.337   2.980
 2792SOL     OW 9274   3.504   0.842   5.987
 2792SOL    HW1 9275   3.466   0.910   6.050
 2792SOL    HW2 9276   3.595   0.870   5.958
 2793SOL     OW 9277   3.578   3.788   0.388
 2793SOL    HW1 9278   3.600   3.883   0.366
 2793SOL    HW2 9279   3.624   3.762   0.473
 2794SOL     OW 9280   0.843   2.606   6.912
 2794SOL    HW1 9281   0.759   2.639   6.869
 2794SOL    HW2 9282   0.913   2.676   6.907
 2795SOL     OW 9283   0.791   5.977   1.592
 2795SOL    HW1 9284   0.825   5.992   1.499
 2795SOL    HW2 9285   0.783   6.064   1.639
 2796SOL     OW 9286   1.951   5.567   5.961
 2796SOL    HW1 9287   1.922   5.505   5.889
 2796SOL    HW2 9288   1.882   5.639   5.973
 2797SOL     OW 9289   4.900   5.463   3.509
 2797SOL    HW1 9290   4.916   5.488   3.414
 2797SOL    HW2 9291   4.804   5.438   3.521
 2798SOL     OW 9292   4.805   1.085   1.690
 2798SOL    HW1 9293   4.761   1.052   1.773
 2798SOL    HW2 9294   4.739   1.137   1.636
 2799SOL     OW 9295   3.443   6.328   4.833
 2799SOL    HW1 9296   3.541   6.316   4.813
 2799SOL    HW2 9297   3.407   6.405   4.781
 2800SOL     OW 9298   5.675   6.974   5.904
 2800SOL    HW1 9299   5.641   0.046   5.879
 2800SOL    HW2 9300   5.620   6.937   5.978
 2801SOL     OW 9301   0.020   4.299   4.637
 2801SOL    HW1 9302   0.020   4.329   4.541
 2801SOL    HW2 9303   0.114   4.291   4.669
 2802SOL     OW 9304   1.704   4.830   5.054
 2802SOL    HW1 9305   1.639   4.851   5.127
 2802SOL    HW2 9306   1.797   4.826   5.092
 2803SOL     OW 9307   3.762   2.131   5.824
 2803SOL    HW1 9308   3.678   2.080   5.842
 2803SOL    HW2 9309   3.811   2.146   5.910
 2804SOL     OW 9310   6.969   2.372   3.942
 2804SOL    HW1 9311   6.941   2.443   3.878
 2804SOL    HW2 9312   6.902   2.298   3.940
 2805SOL     OW 9313   3.464   2.841   1.067
 2805SOL    HW1 9314   3.486   2.822   1.163
 2805SOL    HW2 9315   3.548   2.836   1.012
 2806SOL     OW 9316   0.295   3.547   5.985
 2806SOL    HW1 9317   0.321   3.639   6.013
 2806SOL    HW2 9318   0.208   3.522   6.027
 2807SOL     OW 9319   4.048   0.593   3.700
 2807SOL    HW1 9320   3.958   0.628   3.673
 2807SOL    HW2 9321   4.084   0.649   3.775
 2808SOL     OW 9322   0.223   4.642   5.538
 2808SOL    HW1 9323   0.296   4.702   5.573
 2808SOL    HW2 9324   0.139   4.695   5.527
 2809SOL     OW 9325   0.204   5.767   2.263
 2809SOL    HW1 9326   0.252   5.713   2.194
 2809SOL    HW2 9327   0.136   5.709   2.309
 2810SOL     OW 9328   2.379   6.869   3.009
 2810SOL    HW1 9329   2.283   6.865   2.982
 2810SOL    HW2 9330   2.410   6.964   3.002
 2811SOL     OW 9331   0.960   0.786   1.546
 2811SOL    HW1 9332   0.940   0.715   1.614
 2811SOL    HW2 9333   0.950   0.876   1.588
 2812SOL     OW 9334   1.184   1.348   1.111
 2812SOL    HW1 9335   1.209   1.265   1.162
 2812SOL    HW2 9336   1.087   1.342   1.085
 2813SOL     OW 9337   0.962   3.170   1.727
 2813SOL    HW1 9338   1.054   3.195   1.756
 2813SOL    HW2 9339   0.916   3.122   1.801
 2814SOL     OW 9340   2.451   4.067   0.330
 2814SOL    HW1 9341   2.514   4.014   0.387
 2814SOL    HW2 9342   2.496   4.151   0.300
 2815SOL     OW 9343   0.248   4.577   4.628
 2815SOL    HW1 9344   0.233   4.672   4.600
 2815SOL    HW2 9345   0.236   4.570   4.727
 2816SOL     OW 9346   0.404   5.753   5.603
 2816SOL    HW1 9347   0.346   5.673   5.583
 2816SOL    HW2 9348   0.358   5.811   5.670
 2817SOL     OW 9349   3.673   0.879   2.311
 2817SOL    HW1 9350   3.742   0.867   2.383
 2817SOL    HW2 9351   3.649   0.790   2.273
 2818SOL     OW 9352   2.017   0.175   0.459
 2818SOL    HW1 9353   2.046   0.083   0.431
 2818SOL    HW2 9354   2.095   0.237   0.453
 2819SOL     OW 9355   0.564   0.187   6.710
 2819SOL    HW1 9356   0.580   0.189   6.809
 2819SOL    HW2 9357   0.650   0.165   6.663
 2820SOL     OW 9358   1.707   2.786   0.011
 2820SOL    HW1 9359   1.635   2.833   0.063
 2820SOL    HW2 9360   1.767   2.736   0.073
 2821SOL     OW 9361   3.514   3.281   6.106
 2821SOL    HW1 9362   3.588   3.258   6.169
 2821SOL    HW2 9363   3.428   3.288   6.157
 2822SOL     OW 9364   4.725   2.855   0.288
 2822SOL    HW1 9365   4.815   2.869   0.329
 2822SOL    HW2 9366   4.732   2.861   0.188
 2823SOL     OW 9367   4.934   2.628   1.286
 2823SOL    HW1 9368   4.994   2.614   1.208
 2823SOL    HW2 9369   4.849   2.576   1.273
 2824SOL     OW 9370   1.196   3.696   4.304
 2824SOL    HW1 9371   1.270   3.725   4.364
 2824SOL    HW2 9372   1.198   3.596   4.294
 2825SOL     OW 9373   5.430   1.777   6.265
 2825SOL    HW1 9374   5.462   1.869   6.243
 2825SOL    HW2 9375   5.453   1.755   6.360
 2826SOL     OW 9376   2.636   2.570   6.462
 2826SOL    HW1 9377   2.656   2.538   6.555
 2826SOL    HW2 9378   2.652   2.668   6.457
 2827SOL     OW 9379   6.228   1.184   6.267
 2827SOL    HW1 9380   6.205   1.203   6.363
 2827SOL    HW2 9381   6.305   1.242   6.240
 2828SOL     OW 9382   1.835   4.046   1.027
 2828SOL    HW1 9383   1.873   3.962   0.988
 2828SOL    HW2 9384   1.750   4.024   1.075
 2829SOL     OW 9385   3.236   3.606   2.088
 2829SOL    HW1 9386   3.277   3.657   2.163
 2829SOL    HW2 9387   3.163   3.659   2.046
 2830SOL     OW 9388   3.273   5.869   5.154
 2830SOL    HW1 9389   3.345   5.925   5.113
 2830SOL    HW2 9390   3.287   5.773   5.131
 2831SOL     OW 9391   5.448   1.915   2.077
 2831SOL    HW1 9392   5.543   1.889   2.061
 2831SOL    HW2 9393   5.388   1.844   2.043
 2832SOL     OW 9394   0.824   3.940   1.927
 2832SOL    HW1 9395   0.809   3.861   1.867
 2832SOL    HW2 9396   0.887   4.005   1.883
 2833SOL     OW 9397   1.439   2.410   2.073
 2833SOL    HW1 9398   1.393   2.328   2.040
 2833SOL    HW2 9399   1.378   2.489   2.061
 2834SOL     OW 9400   3.796   6.519   4.690
 2834SOL    HW1 9401   3.745   6.437   4.713
 2834SOL    HW2 9402   3.823   6.567   4.774
 2835SOL     OW 9403   6.594   0.883   6.867
 2835SOL    HW1 9404   6.558   0.822   6.937
 2835SOL    HW2 9405   6.694   0.887   6.875
 2836SOL     OW 9406   3.102   5.798   2.598
 2836SOL    HW1 9407   3.013   5.843   2.609
 2836SOL    HW2 9408   3.117   5.779   2.501
 2837SOL     OW 9409   5.150   4.209   1.805
 2837SOL    HW1 9410   5.079   4.275   1.830
 2837SOL    HW2 9411   5.112   4.116   1.811
 2838SOL     OW 9412   6.547   4.543   6.581
 2838SOL    HW1 9413   6.463   4.594   6.596
 2838SOL    HW2 9414   6.526   4.452   6.545
 2839SOL     OW 9415   6.151   3.322   4.901
 2839SOL    HW1 9416   6.250   3.310   4.915
 2839SOL    HW2 9417   6.122   3.265   4.825
 2840SOL     OW 9418   0.095   6.726   4.240
 2840SOL    HW1 9419   0.035   6.653   4.206
 2840SOL    HW2 9420   0.042   6.787   4.299
 2841SOL     OW 9421   5.676   3.831   2.316
 2841SOL    HW1 9422   5.727   3.746   2.298
 2841SOL    HW2 9423   5.587   3.809   2.356
 2842SOL     OW 9424   1.318   0.602   3.811
 2842SOL    HW1 9425   1.252   0.543   3.858
 2842SOL    HW2 9426   1.269   0.676   3.764
 2843SOL     OW 9427   2.103   2.417   3.951
 2843SOL    HW1 9428   2.047   2.340   3.983
 2843SOL    HW2 9429   2.044   2.491   3.920
 2844SOL     OW 9430   4.956   3.803   0.183
 2844SOL    HW1 9431   4.958   3.822   0.085
 2844SOL    HW2 9432   4.891   3.730   0.202
 2845SOL     OW 9433   3.242   1.571   2.526
 2845SOL    HW1 9434   3.179   1.614   2.591
 2845SOL    HW2 9435   3.331   1.557   2.570
 2846SOL     OW 9436   6.798   0.271   6.806
 2846SOL    HW1 9437   6.729   0.198   6.806
 2846SOL    HW2 9438   6.753   0.359   6.798
 2847SOL     OW 9439   4.419   4.598   1.157
 2847SOL    HW1 9440   4.450   4.530   1.224
 2847SOL    HW2 9441   4.321   4.587   1.142
 2848SOL     OW 9442   0.935   4.130   5.282
 2848SOL    HW1 9443   0.843   4.103   5.310
 2848SOL    HW2 9444   0.931   4.178   5.194
 2849SOL     OW 9445   4.961   0.154   1.495
 2849SOL    HW1 9446   4.899   0.197   1.560
 2849SOL    HW2 9447   5.040   0.214   1.479
 2850SOL     OW 9448   1.662   0.680   2.159
 2850SOL    HW1 9449   1.713   0.618   2.218
 2850SOL    HW2 9450   1.649   0.768   2.205
 2851SOL     OW 9451   3.560   3.051   1.642
 2851SOL    HW1 9452   3.621   3.004   1.706
 2851SOL    HW2 9453   3.480   3.086   1.691
 2852SOL     OW 9454   6.584   4.790   5.885
 2852SOL    HW1 9455   6.511   4.751   5.830
 2852SOL    HW2 9456   6.661   4.726   5.889
 2853SOL     OW 9457   0.087   4.198   5.561
 2853SOL    HW1 9458   0.167   4.251   5.587
 2853SOL    HW2 9459   0.069   4.128   5.630
 2854SOL     OW 9460   4.393   0.650   5.795
 2854SOL    HW1 9461   4.413   0.721   5.728
 2854SOL    HW2 9462   4.389   0.561   5.749
 2855SOL     OW 9463   2.372   1.547   5.110
 2855SOL    HW1 9464   2.317   1.596   5.178
 2855SOL    HW2 9465   2.451   1.603   5.085
 2856SOL     OW 9466   1.100   5.510   3.817
 2856SOL    HW1 9467   1.180   5.465   3.778
 2856SOL    HW2 9468   1.020   5.450   3.806
 2857SOL     OW 9469   6.955   4.749   1.298
 2857SOL    HW1 9470   7.003   4.676   1.347
 2857SOL    HW2 9471   6.857   4.730   1.300
 2858SOL     OW 9472   4.633   4.821   2.145
 2858SOL    HW1 9473   4.558   4.769   2.185
 2858SOL    HW2 9474   4.694   4.759   2.096
 2859SOL     OW 9475   5.509   4.599   1.157
 2859SOL    HW1 9476   5.512   4.500   1.148
 2859SOL    HW2 9477   5.450   4.625   1.233
 2860SOL     OW 9478   1.022   0.020   2.490
 2860SOL    HW1 9479   0.941   0.062   2.530
 2860SOL    HW2 9480   1.091   0.090   2.471
 2861SOL     OW 9481   4.814   4.612   5.985
 2861SOL    HW1 9482   4.771   4.688   6.035
 2861SOL    HW2 9483   4.745   4.544   5.961
 2862SOL     OW 9484   4.412   3.155   6.873
 2862SOL    HW1 9485   4.444   3.246   6.847
 2862SOL    HW2 9486   4.429   3.140   6.971
 2863SOL     OW 9487   6.029   1.118   5.420
 2863SOL    HW1 9488   5.944   1.150   5.463
 2863SOL    HW2 9489   6.025   1.019   5.408
 2864SOL     OW 9490   3.705   4.207   0.374
 2864SOL    HW1 9491   3.687   4.301   0.345
 2864SOL    HW2 9492   3.804   4.189   0.370
 2865SOL     OW 9493   5.855   5.386   4.719
 2865SOL    HW1 9494   5.884   5.295   4.748
 2865SOL    HW2 9495   5.757   5.398   4.738
 2866SOL     OW 9496   3.996   4.148   0.313
 2866SOL    HW1 9497   3.973   4.060   0.272
 2866SOL    HW2 9498   4.095   4.161   0.310
 2867SOL     OW 9499   5.222   6.173   2.587
 2867SOL    HW1 9500   5.140   6.154   2.533
 2867SOL    HW2 9501   5.301   6.180   2.525
 2868SOL     OW 9502   0.849   0.174   5.632
 2868SOL    HW1 9503   0.776   0.113   5.662
 2868SOL    HW2 9504   0.913   0.189   5.707
 2869SOL     OW 9505   6.171   5.638   4.350
 2869SOL    HW1 9506   6.232   5.597   4.283
 2869SOL    HW2 9507   6.083   5.591   4.348
 2870SOL     OW 9508   6.509   2.421   2.409
 2870SOL    HW1 9509   6.558   2.462   2.486
 2870SOL    HW2 9510   6.458   2.341   2.441
 2871SOL     OW 9511   4.608   1.563   2.297
 2871SOL    HW1 9512   4.673   1.493   2.268
 2871SOL    HW2 9513   4.533   1.569   2.231
 2872SOL     OW 9514   2.800   2.112   2.359
 2872SOL    HW1 9515   2.889   2.112   2.314
 2872SOL    HW2 9516   2.737   2.053   2.309
 2873SOL     OW 9517   0.613   6.864   1.378
 2873SOL    HW1 9518   0.651   6.842   1.468
 2873SOL    HW2 9519   0.687   6.895   1.317
 2874SOL     OW 9520   2.443   1.326   3.040
 2874SOL    HW1 9521   2.426   1.232   3.069
 2874SOL    HW2 9522   2.497   1.326   2.956
 2875SOL     OW 9523   2.100   6.871   3.131
 2875SOL    HW1 9524   2.026   6.868   3.198
 2875SOL    HW2 9525   2.148   6.783   3.131
 2876SOL     OW 9526   1.891   0.289   2.013
 2876SOL    HW1 9527   1.837   0.321   2.091
 2876SOL    HW2 9528   1.933   0.368   1.968
 2877SOL     OW 9529   1.230   2.527   6.936
 2877SOL    HW1 9530   1.162   2.595   6.963
 2877SOL    HW2 9531   1.322   2.565   6.947
 2878SOL     OW 9532   3.809   2.989   3.908
 2878SOL    HW1 9533   3.761   3.062   3.860
 2878SOL    HW2 9534   3.873   2.944   3.846
 2879SOL     OW 9535   4.956   4.255   6.886
 2879SOL    HW1 9536   4.949   4.156   6.892
 2879SOL    HW2 9537   5.051   4.283   6.894
 2880SOL     OW 9538   2.054   1.051   3.303
 2880SOL    HW1 9539   1.973   1.110   3.305
 2880SOL    HW2 9540   2.090   1.048   3.210
 2881SOL     OW 9541   5.222   5.991   6.920
 2881SOL    HW1 9542   5.227   5.932   7.000
 2881SOL    HW2 9543   5.264   5.946   6.841
 2882SOL     OW 9544   4.346   6.097   0.288
 2882SOL    HW1 9545   4.317   6.121   0.381
 2882SOL    HW2 9546   4.382   6.178   0.242
 2883SOL     OW 9547   5.928   6.222   4.287
 2883SOL    HW1 9548   5.953   6.318   4.279
 2883SOL    HW2 9549   5.973   6.170   4.214
 2884SOL     OW 9550   5.872   5.289   4.282
 2884SOL    HW1 9551   5.792   5.254   4.233
 2884SOL    HW2 9552   5.932   5.337   4.218
 2885SOL     OW 9553   1.046   2.499   3.518
 2885SOL    HW1 9554   1.057   2.461   3.610
 2885SOL    HW2 9555   1.122   2.467   3.460
 2886SOL     OW 9556   2.112   4.344   5.318
 2886SOL    HW1 9557   2.075   4.254   5.295
 2886SOL    HW2 9558   2.150   4.387   5.236
 2887SOL     OW 9559   0.438   6.249   3.259
 2887SOL    HW1 9560   0.530   6.270   3.226
 2887SOL    HW2 9561   0.438   6.249   3.359
 2888SOL     OW 9562   6.231   0.129   6.466
 2888SOL    HW1 9563   6.327   0.119   6.489
 2888SOL    HW2 9564   6.216   0.104   6.370
 2889SOL     OW 9565   3.621   6.107   2.751
 2889SOL    HW1 9566   3.617   6.187   2.692
 2889SOL    HW2 9567   3.716   6.074   2.758
 2890SOL     OW 9568   0.989   1.753   1.284
 2890SOL    HW1 9569   1.007   1.842   1.244
 2890SOL    HW2 9570   0.938   1.696   1.219
 2891SOL     OW 9571   6.736   2.406   4.939
 2891SOL    HW1 9572   6.801   2.334   4.964
 2891SOL    HW2 9573   6.656   2.400   4.999
 2892SOL     OW 9574   5.704   3.538   2.304
 2892SOL    HW1 9575   5.641   3.507   2.376
 2892SOL    HW2 9576   5.695   3.479   2.224
 2893SOL     OW 9577   6.797   5.283   4.615
 2893SOL    HW1 9578   6.704   5.250   4.624
 2893SOL    HW2 9579   6.800   5.380   4.639
 2894SOL     OW 9580   2.117   5.411   2.579
 2894SOL    HW1 9581   2.071   5.346   2.519
 2894SOL    HW2 9582   2.079   5.403   2.671
 2895SOL     OW 9583   4.515   6.875   5.942
 2895SOL    HW1 9584   4.493   6.789   5.895
 2895SOL    HW2 9585   4.512   6.860   6.040
 2896SOL     OW 9586   5.280   6.829   4.707
 2896SOL    HW1 9587   5.299   6.782   4.793
 2896SOL    HW2 9588   5.247   6.921   4.725
 2897SOL     OW 9589   4.492   5.010   2.848
 2897SOL    HW1 9590   4.476   4.947   2.924
 2897SOL    HW2 9591   4.572   5.066   2.868
 2898SOL     OW 9592   5.367   2.518   2.686
 2898SOL    HW1 9593   5.365   2.421   2.661
 2898SOL    HW2 9594   5.312   2.570   2.620
 2899SOL     OW 9595   6.888   3.914   0.986
 2899SOL    HW1 9596   6.928   3.887   0.899
 2899SOL    HW2 9597   6.856   3.833   1.035
 2900SOL     OW 9598   2.610   3.213   5.872
 2900SOL    HW1 9599   2.656   3.285   5.821
 2900SOL    HW2 9600   2.568   3.148   5.809
 2901SOL     OW 9601   0.504   3.571   3.613
 2901SOL    HW1 9602   0.419   3.531   3.579
 2901SOL    HW2 9603   0.552   3.617   3.538
 2902SOL     OW 9604   6.843   6.298   4.017
 2902SOL    HW1 9605   6.893   6.233   3.959
 2902SOL    HW2 9606   6.750   6.309   3.982
 2903SOL     OW 9607   4.910   5.148   0.445
 2903SOL    HW1 9608   4.905   5.092   0.528
 2903SOL    HW2 9609   4.918   5.244   0.470
 2904SOL     OW 9610   2.260   3.902   5.402
 2904SOL    HW1 9611   2.226   3.995   5.416
 2904SOL    HW2 9612   2.312   3.899   5.316
 2905SOL     OW 9613   1.570   5.916   1.311
 2905SOL    HW1 9614   1.653   5.874   1.347
 2905SOL    HW2 9615   1.587   6.014   1.297
 2906SOL     OW 9616   6.328   6.163   4.292
 2906SOL    HW1 9617   6.244   6.149   4.240
 2906SOL    HW2 9618   6.322   6.113   4.378
 2907SOL     OW 9619   0.854   1.189   4.316
 2907SOL    HW1 9620   0.882   1.109   4.370
 2907SOL    HW2 9621   0.865   1.271   4.372
 2908SOL     OW 9622   4.329   6.528   2.787
 2908SOL    HW1 9623   4.411   6.502   2.838
 2908SOL    HW2 9624   4.252   6.539   2.850
 2909SOL     OW 9625   0.034   6.373   1.647
 2909SOL    HW1 9626   0.019   6.276   1.664
 2909SOL    HW2 9627   0.104   6.408   1.710
 2910SOL     OW 9628   0.312   0.967   3.933
 2910SOL    HW1 9629   0.372   0.940   3.857
 2910SOL    HW2 9630   0.360   1.030   3.993
 2911SOL     OW 9631   6.744   4.580   5.361
 2911SOL    HW1 9632   6.744   4.481   5.375
 2911SOL    HW2 9633   6.835   4.610   5.335
 2912SOL     OW 9634   0.947   1.383   1.870
 2912SOL    HW1 9635   0.966   1.423   1.780
 2912SOL    HW2 9636   0.974   1.287   1.870
 2913SOL     OW 9637   2.975   6.834   2.030
 2913SOL    HW1 9638   2.897   6.888   2.063
 2913SOL    HW2 9639   2.969   6.742   2.067
 2914SOL     OW 9640   4.314   5.531   0.706
 2914SOL    HW1 9641   4.326   5.434   0.727
 2914SOL    HW2 9642   4.268   5.577   0.783
 2915SOL     OW 9643   2.708   0.218   2.575
 2915SOL    HW1 9644   2.650   0.241   2.497
 2915SOL    HW2 9645   2.747   0.127   2.562
 2916SOL     OW 9646   1.437   6.089   6.970
 2916SOL    HW1 9647   1.423   6.021   0.024
 2916SOL    HW2 9648   1.364   6.157   6.974
 2917SOL     OW 9649   2.979   6.482   3.498
 2917SOL    HW1 9650   2.983   6.572   3.456
 2917SOL    HW2 9651   2.958   6.491   3.595
 2918SOL     OW 9652   4.897   2.566   1.766
 2918SOL    HW1 9653   4.855   2.504   1.699
 2918SOL    HW2 9654   4.929   2.649   1.719
 2919SOL     OW 9655   0.537   5.946   4.930
 2919SOL    HW1 9656   0.619   5.900   4.964
 2919SOL    HW2 9657   0.516   6.024   4.990
 2920SOL     OW 9658   1.710   2.095   2.748
 2920SOL    HW1 9659   1.751   2.049   2.827
 2920SOL    HW2 9660   1.761   2.073   2.666
 2921SOL     OW 9661   1.059   6.164   3.631
 2921SOL    HW1 9662   1.078   6.214   3.716
 2921SOL    HW2 9663   1.030   6.071   3.653
 2922SOL     OW 9664   3.665   6.311   4.035
 2922SOL    HW1 9665   3.679   6.216   4.005
 2922SOL    HW2 9666   3.611   6.312   4.119
 2923SOL     OW 9667   6.499   5.433   5.089
 2923SOL    HW1 9668   6.510   5.341   5.052
 2923SOL    HW2 9669   6.442   5.487   5.027
 2924SOL     OW 9670   6.003   1.818   5.116
 2924SOL    HW1 9671   6.035   1.723   5.109
 2924SOL    HW2 9672   5.947   1.828   5.198
 2925SOL     OW 9673   5.297   6.545   5.508
 2925SOL    HW1 9674   5.288   6.554   5.607
 2925SOL    HW2 9675   5.237   6.611   5.463
 2926SOL     OW 9676   6.622   3.282   4.699
 2926SOL    HW1 9677   6.642   3.277   4.797
 2926SOL    HW2 9678   6.644   3.195   4.656
 2927SOL     OW 9679   1.185   1.525   1.995
 2927SOL    HW1 9680   1.141   1.444   1.956
 2927SOL    HW2 9681   1.203   1.510   2.092
 2928SOL     OW 9682   6.325   3.078   0.154
 2928SOL    HW1 9683   6.388   3.007   0.124
 2928SOL    HW2 9684   6.306   3.140   0.077
 2929SOL     OW 9685   2.446   2.190   4.286
 2929SOL    HW1 9686   2.403   2.106   4.320
 2929SOL    HW2 9687   2.376   2.250   4.249
 2930SOL     OW 9688   0.639   4.120   4.240
 2930SOL    HW1 9689   0.596   4.205   4.211
 2930SOL    HW2 9690   0.629   4.052   4.168
 2931SOL     OW 9691   4.594   3.919   5.765
 2931SOL    HW1 9692   4.659   3.994   5.756
 2931SOL    HW2 9693   4.588   3.869   5.679
 2932SOL     OW 9694   6.040   5.094   1.033
 2932SOL    HW1 9695   6.133   5.130   1.027
 2932SOL    HW2 9696   5.976   5.160   0.991
 2933SOL     OW 9697   1.248   6.767   6.719
 2933SOL    HW1 9698   1.257   6.707   6.640
 2933SOL    HW2 9699   1.312   6.844   6.710
 2934SOL     OW 9700   3.770   4.416   0.736
 2934SOL    HW1 9701   3.736   4.481   0.668
 2934SOL    HW2 9702   3.830   4.349   0.692
 2935SOL     OW 9703   0.465   2.431   6.308
 2935SOL    HW1 9704   0.453   2.491   6.229
 2935SOL    HW2 9705   0.563   2.418   6.326
 2936SOL     OW 9706   4.742   6.086   1.178
 2936SOL    HW1 9707   4.769   6.073   1.082
 2936SOL    HW2 9708   4.797   6.159   1.218
 2937SOL     OW 9709   5.086   4.319   2.483
 2937SOL    HW1 9710   5.019   4.262   2.531
 2937SOL    HW2 9711   5.115   4.272   2.399
 2938SOL     OW 9712   7.013   5.202   6.145
 2938SOL    HW1 9713   7.014   5.277   6.212
 2938SOL    HW2 9714   0.088   5.187   6.112
 2939SOL     OW 9715   0.004   6.771   1.866
 2939SOL    HW1 9716   0.066   6.769   1.788
 2939SOL    HW2 9717   0.056   6.754   1.950
 2940SOL     OW 9718   4.284   6.582   4.024
 2940SOL    HW1 9719   4.201   6.581   4.079
 2940SOL    HW2 9720   4.276   6.651   3.952
 2941SOL     OW 9721   1.774   4.707   3.073
 2941SOL    HW1 9722   1.820   4.621   3.096
 2941SOL    HW2 9723   1.822   4.752   2.998
 2942SOL     OW 9724   3.110   1.688   1.046
 2942SOL    HW1 9725   3.094   1.639   1.132
 2942SOL    HW2 9726   3.115   1.622   0.971
 2943SOL     OW 9727   6.061   4.006   2.978
 2943SOL    HW1 9728   6.065   3.908   2.957
 2943SOL    HW2 9729   6.136   4.053   2.932
 2944SOL     OW 9730   1.818   5.785   2.394
 2944SOL    HW1 9731   1.862   5.875   2.386
 2944SOL    HW2 9732   1.745   5.789   2.462
 2945SOL     OW 9733   4.605   4.275   1.049
 2945SOL    HW1 9734   4.643   4.341   0.984
 2945SOL    HW2 9735   4.613   4.312   1.142
 2946SOL     OW 9736   3.891   3.709   5.290
 2946SOL    HW1 9737   3.838   3.760   5.357
 2946SOL    HW2 9738   3.972   3.762   5.263
 2947SOL     OW 9739   6.496   6.123   0.912
 2947SOL    HW1 9740   6.402   6.091   0.898
 2947SOL    HW2 9741   6.557   6.076   0.848
 2948SOL     OW 9742   6.982   3.308   2.185
 2948SOL    HW1 9743   6.959   3.257   2.102
 2948SOL    HW2 9744   6.902   3.314   2.244
 2949SOL     OW 9745   1.683   6.205   0.590
 2949SOL    HW1 9746   1.706   6.224   0.495
 2949SOL    HW2 9747   1.726   6.273   0.649
 2950SOL     OW 9748   5.942   5.198   2.778
 2950SOL    HW1 9749   5.914   5.260   2.705
 2950SOL    HW2 9750   6.034   5.162   2.759
 2951SOL     OW 9751   6.872   1.487   1.562
 2951SOL    HW1 9752   6.906   1.559   1.621
 2951SOL    HW2 9753   6.788   1.448   1.601
 2952SOL     OW 9754   6.834   1.818   5.276
 2952SOL    HW1 9755   6.734   1.805   5.278
 2952SOL    HW2 9756   6.878   1.739   5.318
 2953SOL     OW 9757   1.330   4.970   3.443
 2953SOL    HW1 9758   1.247   5.017   3.474
 2953SOL    HW2 9759   1.333   4.878   3.482
 2954SOL     OW 9760   0.160   4.559   6.079
 2954SOL    HW1 9761   0.189   4.544   6.174
 2954SOL    HW2 9762   0.126   4.473   6.041
 2955SOL     OW 9763   2.181   4.212   5.786
 2955SOL    HW1 9764   2.223   4.140   5.842
 2955SOL    HW2 9765   2.106   4.254   5.836
 2956SOL     OW 9766   5.277   4.634   3.896
 2956SOL    HW1 9767   5.318   4.556   3.850
 2956SOL    HW2 9768   5.347   4.683   3.948
 2957SOL     OW 9769   2.123   5.106   1.309
 2957SOL    HW1 9770   2.169   5.128   1.395
 2957SOL    HW2 9771   2.032   5.070   1.328
 2958SOL     OW 9772   2.281   4.729   2.474
 2958SOL    HW1 9773   2.321   4.821   2.467
 2958SOL    HW2 9774   2.218   4.726   2.552
 2959SOL     OW 9775   6.940   3.714   3.053
 2959SOL    HW1 9776   6.890   3.638   3.094
 2959SOL    HW2 9777   7.014   3.679   2.997
 2960SOL     OW 9778   5.461   6.812   0.841
 2960SOL    HW1 9779   5.383   6.780   0.895
 2960SOL    HW2 9780   5.527   6.856   0.902
 2961SOL     OW 9781   5.359   3.394   1.943
 2961SOL    HW1 9782   5.265   3.368   1.923
 2961SOL    HW2 9783   5.384   3.474   1.889
 2962SOL     OW 9784   6.770   0.314   3.392
 2962SOL    HW1 9785   6.843   0.247   3.379
 2962SOL    HW2 9786   6.741   0.349   3.303
 2963SOL     OW 9787   1.527   0.713   5.026
 2963SOL    HW1 9788   1.509   0.739   4.931
 2963SOL    HW2 9789   1.626   0.706   5.040
 2964SOL     OW 9790   1.302   1.234   6.748
 2964SOL    HW1 9791   1.297   1.332   6.767
 2964SOL    HW2 9792   1.397   1.210   6.726
 2965SOL     OW 9793   0.152   7.006   5.431
 2965SOL    HW1 9794   0.154   0.087   5.416
 2965SOL    HW2 9795   0.079   6.984   5.496
 2966SOL     OW 9796   2.911   5.754   2.174
 2966SOL    HW1 9797   3.008   5.758   2.199
 2966SOL    HW2 9798   2.878   5.660   2.184
 2967SOL     OW 9799   5.219   0.758   4.606
 2967SOL    HW1 9800   5.293   0.823   4.619
 2967SOL    HW2 9801   5.238   0.702   4.525
 2968SOL     OW 9802   1.368   3.698   1.134
 2968SOL    HW1 9803   1.317   3.674   1.051
 2968SOL    HW2 9804   1.456   3.738   1.109
 2969SOL     OW 9805   4.786   3.345   5.612
 2969SOL    HW1 9806   4.687   3.332   5.609
 2969SOL    HW2 9807   4.813   3.410   5.541
 2970SOL     OW 9808   2.834   1.771   4.672
 2970SOL    HW1 9809   2.888   1.845   4.630
 2970SOL    HW2 9810   2.877   1.745   4.759
 2971SOL     OW 9811   5.122   3.562   6.086
 2971SOL    HW1 9812   5.032   3.564   6.044
 2971SOL    HW2 9813   5.146   3.467   6.108
 2972SOL     OW 9814   6.616   5.551   6.567
 2972SOL    HW1 9815   6.595   5.623   6.633
 2972SOL    HW2 9816   6.550   5.476   6.578
 2973SOL     OW 9817   4.363   1.065   3.617
 2973SOL    HW1 9818   4.448   1.018   3.636
 2973SOL    HW2 9819   4.297   1.046   3.690
 2974SOL     OW 9820   4.551   6.994   2.007
 2974SOL    HW1 9821   4.596   0.060   2.038
 2974SOL    HW2 9822   4.614   6.917   2.014
 2975SOL     OW 9823   4.930   4.063   4.084
 2975SOL    HW1 9824   4.930   3.980   4.027
 2975SOL    HW2 9825   4.954   4.038   4.178
 2976SOL     OW 9826   4.013   1.183   2.469
 2976SOL    HW1 9827   4.029   1.266   2.414
 2976SOL    HW2 9828   4.100   1.137   2.486
 2977SOL     OW 9829   0.986   0.481   1.724
 2977SOL    HW1 9830   0.927   0.450   1.799
 2977SOL    HW2 9831   1.049   0.551   1.758
 2978SOL     OW 9832   4.652   5.276   6.439
 2978SOL    HW1 9833   4.633   5.373   6.450
 2978SOL    HW2 9834   4.656   5.232   6.529
 2979SOL     OW 9835   2.914   0.847   4.328
 2979SOL    HW1 9836   2.909   0.750   4.353
 2979SOL    HW2 9837   2.876   0.902   4.403
 2980SOL     OW 9838   3.625   3.480   4.649
 2980SOL    HW1 9839   3.636   3.530   4.734
 2980SOL    HW2 9840   3.540   3.508   4.604
 2981SOL     OW 9841   2.165   0.797   1.467
 2981SOL    HW1 9842   2.200   0.837   1.382
 2981SOL    HW2 9843   2.072   0.830   1.484
 2982SOL     OW 9844   1.849   6.969   0.653
 2982SOL    HW1 9845   1.863   6.988   0.750
 2982SOL    HW2 9846   1.877   0.030   0.598
 2983SOL     OW 9847   6.513   2.958   5.636
 2983SOL    HW1 9848   6.429   2.957   5.581
 2983SOL    HW2 9849   6.564   3.042   5.618
 2984SOL     OW 9850   0.309   5.292   1.718
 2984SOL    HW1 9851   0.403   5.263   1.699
 2984SOL    HW2 9852   0.258   5.217   1.760
 2985SOL     OW 9853   0.201   0.279   5.850
 2985SOL    HW1 9854   0.134   0.243   5.785
 2985SOL    HW2 9855   0.287   0.298   5.803
 2986SOL     OW 9856   3.651   3.525   2.190
 2986SOL    HW1 9857   3.606   3.437   2.195
 2986SOL    HW2 9858   3.748   3.512   2.167
 2987SOL     OW 9859   1.985   6.266   5.162
 2987SOL    HW1 9860   2.067   6.271   5.220
 2987SOL    HW2 9861   1.903   6.275   5.220
 2988SOL     OW 9862   0.258   1.518   6.464
 2988SOL    HW1 9863   0.259   1.561   6.554
 2988SOL    HW2 9864   0.352   1.492   6.439
 2989SOL     OW 9865   5.023   3.208   4.796
 2989SOL    HW1 9866   5.118   3.239   4.805
 2989SOL    HW2 9867   4.989   3.179   4.885
 2990SOL     OW 9868   5.702   1.825   4.290
 2990SOL    HW1 9869   5.688   1.839   4.192
 2990SOL    HW2 9870   5.646   1.891   4.342
 2991SOL     OW 9871   0.366   3.521   0.774
 2991SOL    HW1 9872   0.360   3.542   0.677
 2991SOL    HW2 9873   0.459   3.537   0.806
 2992SOL     OW 9874   0.167   3.627   5.236
 2992SOL    HW1 9875   0.185   3.725   5.225
 2992SOL    HW2 9876   0.187   3.600   5.331
 2993SOL     OW 9877   2.388   3.731   0.944
 2993SOL    HW1 9878   2.410   3.790   0.866
 2993SOL    HW2 9879   2.428   3.641   0.931
 2994SOL     OW 9880   3.796   5.292   6.136
 2994SOL    HW1 9881   3.726   5.363   6.135
 2994SOL    HW2 9882   3.885   5.332   6.115
 2995SOL     OW 9883   4.550   0.368   0.822
 2995SOL    HW1 9884   4.527   0.442   0.759
 2995SOL    HW2 9885   4.519   0.392   0.914
 2996SOL     OW 9886   6.668   0.785   4.126
 2996SOL    HW1 9887   6.727   0.853   4.170
 2996SOL    HW2 9888   6.579   0.826   4.105
 2997SOL     OW 9889   4.942   6.617   4.358
 2997SOL    HW1 9890   4.989   6.576   4.280
 2997SOL    HW2 9891   4.844   6.599   4.350
 2998SOL     OW 9892   2.898   1.389   1.849
 2998SOL    HW1 9893   2.993   1.392   1.879
 2998SOL    HW2 9894   2.838   1.396   1.928
 2999SOL     OW 9895   2.917   4.171   1.004
 2999SOL    HW1 9896   2.891   4.256   0.959
 2999SOL    HW2 9897   2.843   4.104   0.994
 3000SOL     OW 9898   2.783   3.881   5.427
 3000SOL    HW1 9899   2.690   3.910   5.448
 3000SOL    HW2 9900   2.780   3.797   5.372
 3001SOL     OW 9901   5.547   0.575   5.997
 3001SOL    HW1 9902   5.503   0.573   6.087
 3001SOL    HW2 9903   5.646   0.576   6.009
 3002SOL     OW 9904   1.625   1.998   1.894
 3002SOL    HW1 9905   1.689   1.972   1.821
 3002SOL    HW2 9906   1.674   2.047   1.966
 3003SOL     OW 9907   1.907   6.339   0.356
 3003SOL    HW1 9908   1.810   6.338   0.332
 3003SOL    HW2 9909   1.960   6.300   0.281
 3004SOL     OW 9910   2.621   6.467   3.893
 3004SOL    HW1 9911   2.705   6.520   3.895
 3004SOL    HW2 9912   2.585   6.463   3.800
 3005SOL     OW 9913   0.996   2.125   0.143
 3005SOL    HW1 9914   1.066   2.116   0.073
 3005SOL    HW2 9915   1.015   2.204   0.201
 3006SOL     OW 9916   5.259   1.914   5.736
 3006SOL    HW1 9917   5.184   1.910   5.801
 3006SOL    HW2 9918   5.346   1.917   5.785
 3007SOL     OW 9919   6.043   5.751   0.228
 3007SOL    HW1 9920   6.022   5.674   0.168
 3007SOL    HW2 9921   5.983   5.828   0.205
 3008SOL     OW 9922   4.508   3.522   5.819
 3008SOL    HW1 9923   4.604   3.549   5.824
 3008SOL    HW2 9924   4.500   3.436   5.769
 3009SOL     OW 9925   6.905   3.376   1.735
 3009SOL    HW1 9926   6.960   3.346   1.813
 3009SOL    HW2 9927   6.811   3.343   1.745
 3010SOL     OW 9928   4.276   5.679   0.967
 3010SOL    HW1 9929   4.360   5.733   0.959
 3010SOL    HW2 9930   4.234   5.695   1.056
 3011SOL     OW 9931   6.385   0.545   0.862
 3011SOL    HW1 9932   6.448   0.471   0.839
 3011SOL    HW2 9933   6.295   0.507   0.884
 3012SOL     OW 9934   2.372   2.249   5.193
 3012SOL    HW1 9935   2.411   2.325   5.141
 3012SOL    HW2 9936   2.343   2.282   5.283
 3013SOL     OW 9937   0.186   4.818   4.534
 3013SOL    HW1 9938   0.260   4.872   4.572
 3013SOL    HW2 9939   0.164   4.850   4.442
 3014SOL     OW 9940   5.540   0.181   6.132
 3014SOL    HW1 9941   5.551   0.083   6.152
 3014SOL    HW2 9942   5.538   0.233   6.217
 3015SOL     OW 9943   1.375   0.672   6.463
 3015SOL    HW1 9944   1.365   0.694   6.366
 3015SOL    HW2 9945   1.468   0.694   6.492
 3016SOL     OW 9946   2.201   6.094   4.079
 3016SOL    HW1 9947   2.205   6.167   4.011
 3016SOL    HW2 9948   2.292   6.079   4.118
 3017SOL     OW 9949   1.085   5.308   0.200
 3017SOL    HW1 9950   1.077   5.341   0.294
 3017SOL    HW2 9951   0.994   5.298   0.161
 3018SOL     OW 9952   3.533   0.733   1.309
 3018SOL    HW1 9953   3.455   0.700   1.255
 3018SOL    HW2 9954   3.513   0.825   1.342
 3019SOL     OW 9955   1.830   0.689   5.949
 3019SOL    HW1 9956   1.915   0.654   5.990
 3019SOL    HW2 9957   1.850   0.727   5.859
 3020SOL     OW 9958   6.316   4.300   6.769
 3020SOL    HW1 9959   6.246   4.286   6.698
 3020SOL    HW2 9960   6.290   4.378   6.825
 3021SOL     OW 9961   4.095   0.730   5.140
 3021SOL    HW1 9962   4.025   0.729   5.211
 3021SOL    HW2 9963   4.143   0.818   5.143
 3022SOL     OW 9964   4.028   5.887   3.295
 3022SOL    HW1 9965   3.938   5.843   3.303
 3022SOL    HW2 9966   4.093   5.822   3.255
 3023SOL     OW 9967   5.630   5.414   4.493
 3023SOL    HW1 9968   5.580   5.462   4.565
 3023SOL    HW2 9969   5.681   5.481   4.438
 3024SOL     OW 9970   0.423   0.714   7.009
 3024SOL    HW1 9971   0.488   0.747   6.941
 3024SOL    HW2 9972   0.379   0.631   6.976
 3025SOL     OW 9973   4.313   5.699   0.140
 3025SOL    HW1 9974   4.223   5.724   0.103
 3025SOL    HW2 9975   4.384   5.746   0.089
 3026SOL     OW 9976   6.995   0.739   2.093
 3026SOL    HW1 9977   0.016   0.831   2.089
 3026SOL    HW2 9978   6.975   0.708   2.000
 3027SOL     OW 9979   4.475   0.415   0.473
 3027SOL    HW1 9980   4.468   0.336   0.533
 3027SOL    HW2 9981   4.386   0.461   0.467
 3028SOL     OW 9982   3.302   3.040   5.515
 3028SOL    HW1 9983   3.362   3.015   5.591
 3028SOL    HW2 9984   3.343   3.008   5.429
 3029SOL     OW 9985   6.891   3.152   4.750
 3029SOL    HW1 9986   6.828   3.174   4.824
 3029SOL    HW2 9987   6.984   3.145   4.786
 3030SOL     OW 9988   2.182   2.850   6.285
 3030SOL    HW1 9989   2.238   2.886   6.359
 3030SOL    HW2 9990   2.087   2.844   6.315
 3031SOL     OW 9991   1.170   5.625   0.999
 3031SOL    HW1 9992   1.185   5.696   1.068
 3031SOL    HW2 9993   1.106   5.658   0.930
 3032SOL     OW 9994   2.529   0.494   2.910
 3032SOL    HW1 9995   2.626   0.516   2.898
 3032SOL    HW2 9996   2.493   0.457   2.824
 3033SOL     OW 9997   0.406   1.608   5.664
 3033SOL    HW1 9998   0.449   1.676   5.604
 3033SOL    HW2 9999   0.358   1.541   5.608
 3034SOL     OW10000   6.561   4.106   3.630
 3034SOL    HW110001   6.500   4.162   3.574
 3034SOL    HW210002   6.624   4.165   3.680
 3035SOL     OW10003   0.613   3.580   0.433
 3035SOL    HW110004   0.611   3.644   0.509
 3035SOL    HW210005   0.695   3.524   0.438
 3036SOL     OW10006   3.138   2.138   5.364
 3036SOL    HW110007   3.152   2.214   5.300
 3036SOL    HW210008   3.226   2.099   5.390
 3037SOL     OW10009   1.144   5.854   6.758
 3037SOL    HW110010   1.150   5.812   6.667
 3037SOL    HW210011   1.138   5.953   6.749
 3038SOL     OW10012   5.523   4.486   6.348
 3038SOL    HW110013   5.579   4.434   6.412
 3038SOL    HW210014   5.513   4.580   6.381
 3039SOL     OW10015   6.712   3.776   5.884
 3039SOL    HW110016   6.618   3.740   5.888
 3039SOL    HW210017   6.736   3.816   5.972
 3040SOL     OW10018   5.925   5.360   6.576
 3040SOL    HW110019   5.903   5.457   6.585
 3040SOL    HW210020   5.871   5.319   6.503
 3041SOL     OW10021   1.197   4.609   5.667
 3041SOL    HW110022   1.183   4.568   5.757
 3041SOL    HW210023   1.172   4.543   5.596
 3042SOL     OW10024   0.455   5.168   4.251
 3042SOL    HW110025   0.469   5.267   4.254
 3042SOL    HW210026   0.378   5.147   4.190
 3043SOL     OW10027   2.388   5.345   0.865
 3043SOL    HW110028   2.397   5.394   0.952
 3043SOL    HW210029   2.479   5.324   0.829
 3044SOL     OW10030   4.122   3.598   4.472
 3044SOL    HW110031   4.083   3.612   4.563
 3044SOL    HW210032   4.180   3.676   4.448
 3045SOL     OW10033   4.320   1.908   2.081
 3045SOL    HW110034   4.413   1.930   2.052
 3045SOL    HW210035   4.257   1.923   2.006
 3046SOL     OW10036   5.169   6.570   0.733
 3046SOL    HW110037   5.181   6.621   0.818
 3046SOL    HW210038   5.255   6.522   0.711
 3047SOL     OW10039   5.546   1.340   4.836
 3047SOL    HW110040   5.513   1.431   4.813
 3047SOL    HW210041   5.628   1.318   4.783
 3048SOL     OW10042   3.645   4.742   1.149
 3048SOL    HW110043   3.586   4.717   1.072
 3048SOL    HW210044   3.589   4.773   1.225
 3049SOL     OW10045   1.001   1.789   2.716
 3049SOL    HW110046   0.913   1.836   2.712
 3049SOL    HW210047   1.074   1.851   2.689
 3050SOL     OW10048   3.565   2.211   0.081
 3050SOL    HW110049   3.660   2.213   0.111
 3050SOL    HW210050   3.505   2.208   0.161
 3051SOL     OW10051   2.191   5.278   5.630
 3051SOL    HW110052   2.288   5.264   5.650
 3051SOL    HW210053   2.182   5.333   5.547
 3052SOL     OW10054   6.600   0.068   2.376
 3052SOL    HW110055   6.689   0.111   2.368
 3052SOL    HW210056   6.533   0.118   2.321
 3053SOL     OW10057   0.737   4.324   0.641
 3053SOL    HW110058   0.822   4.367   0.670
 3053SOL    HW210059   0.746   4.292   0.547
 3054SOL     OW10060   4.963   0.492   2.965
 3054SOL    HW110061   4.948   0.535   3.054
 3054SOL    HW210062   4.942   0.558   2.893
 3055SOL     OW10063   5.896   6.334   0.012
 3055SOL    HW110064   5.869   6.265   6.964
 3055SOL    HW210065   5.989   6.314   0.044
 3056SOL     OW10066   4.626   1.275   6.018
 3056SOL    HW110067   4.633   1.177   6.034
 3056SOL    HW210068   4.715   1.310   5.987
 3057SOL     OW10069   5.075   3.772   2.890
 3057SOL    HW110070   5.002   3.740   2.950
 3057SOL    HW210071   5.148   3.812   2.945
 3058SOL     OW10072   0.540   4.532   6.119
 3058SOL    HW110073   0.450   4.547   6.077
 3058SOL    HW210074   0.611   4.542   6.049
 3059SOL     OW10075   1.542   1.592   3.063
 3059SOL    HW110076   1.570   1.497   3.048
 3059SOL    HW210077   1.558   1.645   2.980
 3060SOL     OW10078   5.624   4.911   4.218
 3060SOL    HW110079   5.672   4.844   4.162
 3060SOL    HW210080   5.683   4.940   4.293
 3061SOL     OW10081   5.993   0.239   3.943
 3061SOL    HW110082   6.082   0.199   3.925
 3061SOL    HW210083   5.926   0.203   3.877
 3062SOL     OW10084   4.159   4.283   0.922
 3062SOL    HW110085   4.158   4.366   0.867
 3062SOL    HW210086   4.248   4.273   0.966
 3063SOL     OW10087   0.438   4.611   2.849
 3063SOL    HW110088   0.346   4.578   2.829
 3063SOL    HW210089   0.470   4.572   2.935
 3064SOL     OW10090   4.588   2.403   6.710
 3064SOL    HW110091   4.613   2.320   6.659
 3064SOL    HW210092   4.563   2.475   6.646
 3065SOL     OW10093   5.959   1.926   0.157
 3065SOL    HW110094   6.025   1.868   0.108
 3065SOL    HW210095   5.868   1.912   0.119
 3066SOL     OW10096   5.145   6.965   4.991
 3066SOL    HW110097   5.148   6.971   5.090
 3066SOL    HW210098   5.079   0.013   4.954
 3067SOL     OW10099   1.228   2.720   5.454
 3067SOL    HW110100   1.185   2.637   5.419
 3067SOL    HW210101   1.195   2.799   5.402
 3068SOL     OW10102   0.050   0.715   0.702
 3068SOL    HW110103   6.980   0.746   0.668
 3068SOL    HW210104   0.101   0.671   0.627
 3069SOL     OW10105   5.003   6.535   3.620
 3069SOL    HW110106   4.980   6.582   3.535
 3069SOL    HW210107   5.037   6.601   3.687
 3070SOL     OW10108   1.774   0.858   1.066
 3070SOL    HW110109   1.760   0.940   1.011
 3070SOL    HW210110   1.780   0.778   1.007
 3071SOL     OW10111   5.667   4.771   5.218
 3071SOL    HW110112   5.696   4.729   5.132
 3071SOL    HW210113   5.624   4.701   5.276
 3072SOL     OW10114   1.844   6.863   6.184
 3072SOL    HW110115   1.863   6.852   6.086
 3072SOL    HW210116   1.747   6.845   6.201
 3073SOL     OW10117   7.006   4.703   1.950
 3073SOL    HW110118   0.063   4.693   2.015
 3073SOL    HW210119   6.932   4.640   1.974
 3074SOL     OW10120   3.245   2.626   1.746
 3074SOL    HW110121   3.336   2.594   1.719
 3074SOL    HW210122   3.192   2.548   1.779
 3075SOL     OW10123   3.011   5.038   1.406
 3075SOL    HW110124   2.982   5.115   1.463
 3075SOL    HW210125   3.108   5.049   1.381
 3076SOL     OW10126   0.586   0.950   5.285
 3076SOL    HW110127   0.668   0.898   5.310
 3076SOL    HW210128   0.516   0.936   5.356
 3077SOL     OW10129   6.867   4.137   2.612
 3077SOL    HW110130   6.954   4.095   2.637
 3077SOL    HW210131   6.834   4.098   2.527
 3078SOL     OW10132   0.234   3.074   1.636
 3078SOL    HW110133   0.295   3.014   1.584
 3078SOL    HW210134   0.190   3.138   1.574
 3079SOL     OW10135   2.104   3.680   5.411
 3079SOL    HW110136   2.162   3.757   5.387
 3079SOL    HW210137   2.159   3.596   5.412
 3080SOL     OW10138   3.214   4.431   0.911
 3080SOL    HW110139   3.173   4.438   1.001
 3080SOL    HW210140   3.282   4.357   0.911
 3081SOL     OW10141   1.254   3.746   0.151
 3081SOL    HW110142   1.192   3.670   0.173
 3081SOL    HW210143   1.220   3.829   0.195
 3082SOL     OW10144   4.990   5.558   4.880
 3082SOL    HW110145   5.018   5.464   4.863
 3082SOL    HW210146   4.906   5.578   4.829
 3083SOL     OW10147   3.992   5.482   1.938
 3083SOL    HW110148   3.892   5.477   1.939
 3083SOL    HW210149   4.022   5.551   1.873
 3084SOL     OW10150   6.799   4.507   4.253
 3084SOL    HW110151   6.769   4.583   4.310
 3084SOL    HW210152   6.775   4.420   4.298
 3085SOL     OW10153   5.956   5.519   0.486
 3085SOL    HW110154   6.025   5.454   0.455
 3085SOL    HW210155   5.896   5.543   0.409
 3086SOL     OW10156   6.309   6.177   6.409
 3086SOL    HW110157   6.327   6.167   6.507
 3086SOL    HW210158   6.393   6.158   6.358
 3087SOL     OW10159   3.536   6.868   2.241
 3087SOL    HW110160   3.455   6.826   2.201
 3087SOL    HW210161   3.535   6.967   2.224
 3088SOL     OW10162   2.021   3.299   5.768
 3088SOL    HW110163   1.975   3.337   5.848
 3088SOL    HW210164   2.008   3.361   5.690
 3089SOL     OW10165   4.727   5.499   6.013
 3089SOL    HW110166   4.709   5.584   6.061
 3089SOL    HW210167   4.647   5.439   6.017
 3090SOL     OW10168   0.268   2.632   2.509
 3090SOL    HW110169   0.288   2.558   2.445
 3090SOL    HW210170   0.354   2.670   2.543
 3091SOL     OW10171   0.766   2.908   1.430
 3091SOL    HW110172   0.726   2.999   1.443
 3091SOL    HW210173   0.695   2.846   1.396
 3092SOL     OW10174   5.988   1.298   1.989
 3092SOL    HW110175   5.908   1.357   2.004
 3092SOL    HW210176   6.068   1.340   2.033
 3093SOL     OW10177   6.366   5.457   0.107
 3093SOL    HW110178   6.347   5.454   0.009
 3093SOL    HW210179   6.440   5.393   0.129
 3094SOL     OW10180   2.275   2.096   6.693
 3094SOL    HW110181   2.321   2.183   6.711
 3094SOL    HW210182   2.207   2.109   6.621
 3095SOL     OW10183   1.938   4.068   5.497
 3095SOL    HW110184   2.034   4.091   5.483
 3095SOL    HW210185   1.881   4.138   5.453
 3096SOL     OW10186   0.634   3.090   4.088
 3096SOL    HW110187   0.666   3.179   4.121
 3096SOL    HW210188   0.593   3.040   4.164
 3097SOL     OW10189   5.562   2.844   5.456
 3097SOL    HW110190   5.481   2.790   5.481
 3097SOL    HW210191   5.564   2.928   5.510
 3098SOL     OW10192   2.120   3.407   3.197
 3098SOL    HW110193   2.121   3.321   3.247
 3098SOL    HW210194   2.103   3.389   3.100
 3099SOL     OW10195   0.607   6.553   4.521
 3099SOL    HW110196   0.537   6.534   4.452
 3099SOL    HW210197   0.659   6.634   4.493
 3100SOL     OW10198   5.635   5.006   1.652
 3100SOL    HW110199   5.662   5.051   1.737
 3100SOL    HW210200   5.564   4.938   1.671
 3101SOL     OW10201   4.422   6.931   5.167
 3101SOL    HW110202   4.467   6.868   5.231
 3101SOL    HW210203   4.388   7.011   5.217
 3102SOL     OW10204   6.594   4.995   1.924
 3102SOL    HW110205   6.557   5.057   1.993
 3102SOL    HW210206   6.693   4.987   1.936
 3103SOL     OW10207   3.328   1.486   1.540
 3103SOL    HW110208   3.405   1.478   1.477
 3103SOL    HW210209   3.306   1.395   1.576
 3104SOL     OW10210   4.487   1.650   5.327
 3104SOL    HW110211   4.534   1.568   5.295
 3104SOL    HW210212   4.433   1.688   5.252
 3105SOL     OW10213   5.953   3.729   0.025
 3105SOL    HW110214   5.949   3.757   0.121
 3105SOL    HW210215   5.865   3.690   7.017
 3106SOL     OW10216   5.419   1.330   5.473
 3106SOL    HW110217   5.400   1.292   5.563
 3106SOL    HW210218   5.489   1.401   5.480
 3107SOL     OW10219   3.258   1.794   5.102
 3107SOL    HW110220   3.334   1.731   5.088
 3107SOL    HW210221   3.209   1.771   5.186
 3108SOL     OW10222   2.231   4.158   3.155
 3108SOL    HW110223   2.209   4.098   3.232
 3108SOL    HW210224   2.259   4.248   3.188
 3109SOL     OW10225   6.853   6.415   4.552
 3109SOL    HW110226   6.913   6.353   4.502
 3109SOL    HW210227   6.760   6.379   4.551
 3110SOL     OW10228   0.793   5.368   3.164
 3110SOL    HW110229   0.832   5.343   3.076
 3110SOL    HW210230   0.866   5.379   3.232
 3111SOL     OW10231   5.669   4.598   3.983
 3111SOL    HW110232   5.689   4.514   3.934
 3111SOL    HW210233   5.606   4.654   3.930
 3112SOL     OW10234   3.456   1.222   6.009
 3112SOL    HW110235   3.531   1.284   5.986
 3112SOL    HW210236   3.397   1.210   5.930
 3113SOL     OW10237   1.858   6.399   3.157
 3113SOL    HW110238   1.877   6.303   3.178
 3113SOL    HW210239   1.835   6.447   3.242
 3114SOL     OW10240   4.877   1.416   5.880
 3114SOL    HW110241   4.945   1.342   5.881
 3114SOL    HW210242   4.920   1.500   5.846
 3115SOL     OW10243   4.874   5.486   5.277
 3115SOL    HW110244   4.878   5.442   5.367
 3115SOL    HW210245   4.803   5.444   5.222
 3116SOL     OW10246   0.848   0.684   0.214
 3116SOL    HW110247   0.780   0.612   0.202
 3116SOL    HW210248   0.889   0.707   0.126
 3117SOL     OW10249   4.886   0.566   6.207
 3117SOL    HW110250   4.936   0.653   6.213
 3117SOL    HW210251   4.939   0.501   6.153
 3118SOL     OW10252   1.069   1.817   3.495
 3118SOL    HW110253   1.011   1.860   3.426
 3118SOL    HW210254   1.025   1.733   3.527
 3119SOL     OW10255   4.767   5.786   5.033
 3119SOL    HW110256   4.857   5.830   5.034
 3119SOL    HW210257   4.778   5.687   5.023
 3120SOL     OW10258   2.198   5.904   5.935
 3120SOL    HW110259   2.273   5.964   5.963
 3120SOL    HW210260   2.180   5.837   6.007
 3121SOL     OW10261   3.589   1.888   4.004
 3121SOL    HW110262   3.655   1.951   4.045
 3121SOL    HW210263   3.503   1.936   3.987
 3122SOL     OW10264   5.095   5.013   4.710
 3122SOL    HW110265   5.149   4.938   4.748
 3122SOL    HW210266   5.146   5.056   4.635
 3123SOL     OW10267   1.827   1.180   3.382
 3123SOL    HW110268   1.837   1.143   3.474
 3123SOL    HW210269   1.820   1.280   3.386
 3124SOL     OW10270   5.054   0.383   4.451
 3124SOL    HW110271   4.980   0.444   4.479
 3124SOL    HW210272   5.031   0.289   4.476
 3125SOL     OW10273   1.610   1.159   4.989
 3125SOL    HW110274   1.605   1.080   4.928
 3125SOL    HW210275   1.567   1.238   4.944
 3126SOL     OW10276   5.697   4.949   5.529
 3126SOL    HW110277   5.726   4.920   5.438
 3126SOL    HW210278   5.777   4.979   5.581
 3127SOL     OW10279   0.181   1.061   5.276
 3127SOL    HW110280   0.217   0.968   5.281
 3127SOL    HW210281   0.210   1.104   5.191
 3128SOL     OW10282   3.720   0.424   0.784
 3128SOL    HW110283   3.763   0.338   0.757
 3128SOL    HW210284   3.733   0.439   0.882
 3129SOL     OW10285   4.359   3.850   0.283
 3129SOL    HW110286   4.284   3.783   0.279
 3129SOL    HW210287   4.337   3.928   0.224
 3130SOL     OW10288   6.778   5.392   2.013
 3130SOL    HW110289   6.693   5.353   1.979
 3130SOL    HW210290   6.847   5.391   1.940
 3131SOL     OW10291   6.037   4.562   2.810
 3131SOL    HW110292   5.995   4.621   2.740
 3131SOL    HW210293   6.071   4.619   2.885
 3132SOL     OW10294   4.500   4.364   0.241
 3132SOL    HW110295   4.569   4.359   0.169
 3132SOL    HW210296   4.541   4.337   0.328
 3133SOL     OW10297   4.187   0.314   4.428
 3133SOL    HW110298   4.277   0.278   4.453
 3133SOL    HW210299   4.145   0.356   4.508
 3134SOL     OW10300   5.276   5.081   2.544
 3134SOL    HW110301   5.192   5.081   2.489
 3134SOL    HW210302   5.345   5.025   2.499
 3135SOL     OW10303   4.554   5.511   6.510
 3135SOL    HW110304   4.599   5.564   6.581
 3135SOL    HW210305   4.508   5.572   6.446
 3136SOL     OW10306   6.732   1.418   3.152
 3136SOL    HW110307   6.711   1.322   3.172
 3136SOL    HW210308   6.829   1.427   3.128
 3137SOL     OW10309   6.215   6.477   6.662
 3137SOL    HW110310   6.243   6.494   6.568
 3137SOL    HW210311   6.292   6.440   6.714
 3138SOL     OW10312   6.253   6.605   4.502
 3138SOL    HW110313   6.213   6.547   4.573
 3138SOL    HW210314   6.334   6.652   4.538
 3139SOL     OW10315   2.435   5.389   1.463
 3139SOL    HW110316   2.368   5.332   1.417
 3139SOL    HW210317   2.404   5.409   1.556
 3140SOL     OW10318   6.791   6.346   6.559
 3140SOL    HW110319   6.827   6.293   6.636
 3140SOL    HW210320   6.843   6.432   6.551
 3141SOL     OW10321   6.659   1.842   6.553
 3141SOL    HW110322   6.568   1.807   6.574
 3141SOL    HW210323   6.665   1.938   6.582
 3142SOL     OW10324   4.030   0.583   4.122
 3142SOL    HW110325   4.041   0.506   4.059
 3142SOL    HW210326   4.115   0.635   4.125
 3143SOL     OW10327   6.309   1.464   0.636
 3143SOL    HW110328   6.265   1.536   0.582
 3143SOL    HW210329   6.258   1.451   0.721
 3144SOL     OW10330   3.923   3.914   0.172
 3144SOL    HW110331   3.830   3.921   0.136
 3144SOL    HW210332   3.988   3.904   0.097
 3145SOL     OW10333   0.069   6.583   0.630
 3145SOL    HW110334   0.074   6.579   0.730
 3145SOL    HW210335   7.000   6.624   0.603
 3146SOL     OW10336   0.297   1.120   4.870
 3146SOL    HW110337   0.201   1.092   4.868
 3146SOL    HW210338   0.350   1.061   4.810
 3147SOL     OW10339   3.406   5.316   0.996
 3147SOL    HW110340   3.370   5.268   0.916
 3147SOL    HW210341   3.472   5.386   0.967
 3148SOL     OW10342   7.016   5.564   2.332
 3148SOL    HW110343   6.919   5.561   2.358
 3148SOL    HW210344   0.029   5.472   2.310
 3149SOL     OW10345   2.796   1.779   6.896
 3149SOL    HW110346   2.731   1.833   6.948
 3149SOL    HW210347   2.793   1.684   6.927
 3150SOL     OW10348   6.385   5.734   5.189
 3150SOL    HW110349   6.320   5.662   5.166
 3150SOL    HW210350   6.474   5.694   5.209
 3151SOL     OW10351   0.171   0.618   5.688
 3151SOL    HW110352   0.103   0.646   5.755
 3151SOL    HW210353   0.262   0.643   5.722
 3152SOL     OW10354   1.581   3.265   6.004
 3152SOL    HW110355   1.482   3.275   5.996
 3152SOL    HW210356   1.603   3.175   6.042
 3153SOL     OW10357   6.393   4.957   1.079
 3153SOL    HW110358   6.347   5.030   1.029
 3153SOL    HW210359   6.491   4.978   1.086
 3154SOL     OW10360   4.913   1.173   0.220
 3154SOL    HW110361   4.920   1.151   0.123
 3154SOL    HW210362   4.818   1.196   0.242
 3155SOL     OW10363   0.724   4.513   0.388
 3155SOL    HW110364   0.687   4.598   0.424
 3155SOL    HW210365   0.653   4.464   0.337
 3156SOL     OW10366   3.744   4.260   1.791
 3156SOL    HW110367   3.758   4.233   1.696
 3156SOL    HW210368   3.777   4.188   1.852
 3157SOL     OW10369   0.720   1.137   5.811
 3157SOL    HW110370   0.712   1.213   5.747
 3157SOL    HW210371   0.773   1.063   5.768
 3158SOL     OW10372   1.614   1.084   6.238
 3158SOL    HW110373   1.565   1.076   6.152
 3158SOL    HW210374   1.652   0.995   6.263
 3159SOL     OW10375   5.998   1.146   6.848
 3159SOL    HW110376   5.911   1.194   6.843
 3159SOL    HW210377   6.004   1.096   6.935
 3160SOL     OW10378   1.688   0.297   6.028
 3160SOL    HW110379   1.776   0.257   6.051
 3160SOL    HW210380   1.687   0.393   6.054
 3161SOL     OW10381   2.329   2.433   1.966
 3161SOL    HW110382   2.358   2.497   2.037
 3161SOL    HW210383   2.267   2.366   2.006
 3162SOL     OW10384   1.978   5.567   1.061
 3162SOL    HW110385   1.979   5.471   1.089
 3162SOL    HW210386   2.040   5.619   1.119
 3163SOL     OW10387   4.234   4.311   0.201
 3163SOL    HW110388   4.331   4.318   0.226
 3163SOL    HW210389   4.181   4.378   0.252
 3164SOL     OW10390   2.282   6.641   3.411
 3164SOL    HW110391   2.257   6.604   3.321
 3164SOL    HW210392   2.288   6.741   3.405
 3165SOL     OW10393   0.638   6.638   6.506
 3165SOL    HW110394   0.571   6.711   6.494
 3165SOL    HW210395   0.651   6.620   6.603
 3166SOL     OW10396   4.769   0.896   4.696
 3166SOL    HW110397   4.698   0.929   4.634
 3166SOL    HW210398   4.728   0.835   4.764
 3167SOL     OW10399   5.776   2.874   0.538
 3167SOL    HW110400   5.728   2.904   0.620
 3167SOL    HW210401   5.865   2.919   0.533
 3168SOL     OW10402   5.024   2.246   0.639
 3168SOL    HW110403   4.951   2.270   0.703
 3168SOL    HW210404   5.001   2.161   0.593
 3169SOL     OW10405   2.446   4.759   1.892
 3169SOL    HW110406   2.532   4.810   1.900
 3169SOL    HW210407   2.446   4.682   1.955
 3170SOL     OW10408   2.051   3.676   3.207
 3170SOL    HW110409   2.078   3.586   3.170
 3170SOL    HW210410   2.087   3.686   3.300
 3171SOL     OW10411   5.211   2.499   3.629
 3171SOL    HW110412   5.274   2.436   3.585
 3171SOL    HW210413   5.236   2.593   3.606
 3172SOL     OW10414   6.251   4.012   1.956
 3172SOL    HW110415   6.313   4.038   2.030
 3172SOL    HW210416   6.254   3.913   1.943
 3173SOL     OW10417   4.298   2.950   0.760
 3173SOL    HW110418   4.319   2.878   0.694
 3173SOL    HW210419   4.376   2.962   0.822
 3174SOL     OW10420   3.147   3.431   6.427
 3174SOL    HW110421   3.134   3.528   6.449
 3174SOL    HW210422   3.059   3.389   6.408
 3175SOL     OW10423   5.658   0.948   4.763
 3175SOL    HW110424   5.685   0.949   4.859
 3175SOL    HW210425   5.558   0.955   4.756
 3176SOL     OW10426   0.511   4.786   4.592
 3176SOL    HW110427   0.507   4.851   4.516
 3176SOL    HW210428   0.560   4.704   4.564
 3177SOL     OW10429   5.120   3.821   3.628
 3177SOL    HW110430   5.115   3.900   3.689
 3177SOL    HW210431   5.084   3.844   3.538
 3178SOL     OW10432   6.801   0.950   1.640
 3178SOL    HW110433   6.836   0.955   1.733
 3178SOL    HW210434   6.747   0.866   1.629
 3179SOL     OW10435   1.195   1.821   1.903
 3179SOL    HW110436   1.102   1.847   1.929
 3179SOL    HW210437   1.214   1.729   1.935
 3180SOL     OW10438   6.910   6.202   0.227
 3180SOL    HW110439   6.910   6.108   0.260
 3180SOL    HW210440   6.935   6.263   0.302
 3181SOL     OW10441   1.821   7.016   4.791
 3181SOL    HW110442   1.821   6.999   4.889
 3181SOL    HW210443   1.842   6.930   4.743
 3182SOL     OW10444   2.172   1.265   0.686
 3182SOL    HW110445   2.230   1.311   0.753
 3182SOL    HW210446   2.168   1.167   0.707
 3183SOL     OW10447   4.161   3.786   1.063
 3183SOL    HW110448   4.109   3.781   1.149
 3183SOL    HW210449   4.235   3.851   1.073
 3184SOL     OW10450   0.485   2.409   4.850
 3184SOL    HW110451   0.532   2.494   4.869
 3184SOL    HW210452   0.437   2.416   4.762
 3185SOL     OW10453   0.459   5.488   6.315
 3185SOL    HW110454   0.400   5.505   6.394
 3185SOL    HW210455   0.408   5.509   6.231
 3186SOL     OW10456   0.452   1.815   6.615
 3186SOL    HW110457   0.402   1.819   6.529
 3186SOL    HW210458   0.412   1.745   6.674
 3187SOL     OW10459   4.618   5.754   2.369
 3187SOL    HW110460   4.570   5.698   2.301
 3187SOL    HW210461   4.560   5.763   2.450
 3188SOL     OW10462   2.149   5.291   6.201
 3188SOL    HW110463   2.119   5.226   6.131
 3188SOL    HW210464   2.074   5.354   6.221
 3189SOL     OW10465   3.710   1.923   5.332
 3189SOL    HW110466   3.774   1.931   5.409
 3189SOL    HW210467   3.695   1.827   5.310
 3190SOL     OW10468   5.657   6.484   4.456
 3190SOL    HW110469   5.642   6.405   4.515
 3190SOL    HW210470   5.576   6.543   4.459
 3191SOL     OW10471   3.749   5.594   1.333
 3191SOL    HW110472   3.747   5.605   1.432
 3191SOL    HW210473   3.775   5.681   1.290
 3192SOL     OW10474   5.697   2.145   2.788
 3192SOL    HW110475   5.601   2.147   2.763
 3192SOL    HW210476   5.726   2.051   2.804
 3193SOL     OW10477   3.515   7.012   4.980
 3193SOL    HW110478   3.590   0.016   5.043
 3193SOL    HW210479   3.435   6.983   5.032
 3194SOL     OW10480   1.604   0.395   6.744
 3194SOL    HW110481   1.633   0.410   6.649
 3194SOL    HW210482   1.565   0.480   6.781
 3195SOL     OW10483   0.002   1.628   1.222
 3195SOL    HW110484   0.003   1.608   1.320
 3195SOL    HW210485   6.930   1.609   1.186
 3196SOL     OW10486   5.998   0.526   3.777
 3196SOL    HW110487   5.931   0.457   3.801
 3196SOL    HW210488   5.963   0.617   3.802
 3197SOL     OW10489   1.851   0.944   6.916
 3197SOL    HW110490   1.836   1.006   6.839
 3197SOL    HW210491   1.877   0.854   6.882
 3198SOL     OW10492   5.560   2.885   3.141
 3198SOL    HW110493   5.606   2.874   3.229
 3198SOL    HW210494   5.562   2.798   3.091
 3199SOL     OW10495   5.592   4.057   3.033
 3199SOL    HW110496   5.518   4.071   2.967
 3199SOL    HW210497   5.678   4.043   2.984
 3200SOL     OW10498   5.432   3.432   3.529
 3200SOL    HW110499   5.345   3.466   3.494
 3200SOL    HW210500   5.449   3.340   3.493
 3201SOL     OW10501   5.729   4.521   2.653
 3201SOL    HW110502   5.806   4.473   2.609
 3201SOL    HW210503   5.646   4.505   2.601
 3202SOL     OW10504   1.678   4.133   6.709
 3202SOL    HW110505   1.701   4.091   6.621
 3202SOL    HW210506   1.580   4.125   6.725
 3203SOL     OW10507   3.400   6.822   1.382
 3203SOL    HW110508   3.346   6.822   1.466
 3203SOL    HW210509   3.341   6.846   1.304
 3204SOL     OW10510   3.423   1.517   3.136
 3204SOL    HW110511   3.456   1.423   3.137
 3204SOL    HW210512   3.475   1.570   3.069
 3205SOL     OW10513   4.798   3.511   5.818
 3205SOL    HW110514   4.855   3.591   5.801
 3205SOL    HW210515   4.787   3.460   5.733
 3206SOL     OW10516   3.099   3.240   1.157
 3206SOL    HW110517   3.089   3.315   1.223
 3206SOL    HW210518   3.145   3.163   1.201
 3207SOL     OW10519   1.571   5.273   5.431
 3207SOL    HW110520   1.506   5.286   5.356
 3207SOL    HW210521   1.526   5.224   5.506
 3208SOL     OW10522   6.133   5.359   6.222
 3208SOL    HW110523   6.183   5.289   6.170
 3208SOL    HW210524   6.070   5.407   6.162
 3209SOL     OW10525   5.376   5.826   6.727
 3209SOL    HW110526   5.474   5.817   6.745
 3209SOL    HW210527   5.362   5.849   6.631
 3210SOL     OW10528   5.744   5.823   2.132
 3210SOL    HW110529   5.790   5.752   2.080
 3210SOL    HW210530   5.794   5.909   2.124
 3211SOL     OW10531   0.982   5.290   6.291
 3211SOL    HW110532   1.050   5.302   6.219
 3211SOL    HW210533   0.987   5.198   6.329
 3212SOL     OW10534   1.912   0.402   3.101
 3212SOL    HW110535   1.982   0.374   3.166
 3212SOL    HW210536   1.831   0.345   3.113
 3213SOL     OW10537   1.243   0.234   6.631
 3213SOL    HW110538   1.296   0.155   6.599
 3213SOL    HW210539   1.276   0.262   6.721
 3214SOL     OW10540   3.339   1.194   2.896
 3214SOL    HW110541   3.377   1.238   2.815
 3214SOL    HW210542   3.255   1.242   2.924
 3215SOL     OW10543   1.962   3.155   1.180
 3215SOL    HW110544   1.993   3.111   1.096
 3215SOL    HW210545   1.862   3.167   1.176
 3216SOL     OW10546   5.895   4.446   0.686
 3216SOL    HW110547   5.798   4.466   0.670
 3216SOL    HW210548   5.912   4.442   0.784
 3217SOL     OW10549   0.364   6.088   2.796
 3217SOL    HW110550   0.296   6.127   2.734
 3217SOL    HW210551   0.318   6.050   2.876
 3218SOL     OW10552   5.436   1.103   3.032
 3218SOL    HW110553   5.503   1.173   3.057
 3218SOL    HW210554   5.346   1.127   3.068
 3219SOL     OW10555   6.082   0.962   5.686
 3219SOL    HW110556   6.170   1.009   5.681
 3219SOL    HW210557   6.026   1.005   5.758
 3220SOL     OW10558   6.905   4.335   6.381
 3220SOL    HW110559   6.967   4.271   6.426
 3220SOL    HW210560   6.958   4.407   6.336
 3221SOL     OW10561   3.240   1.030   1.201
 3221SOL    HW110562   3.175   1.066   1.135
 3221SOL    HW210563   3.194   0.966   1.263
 3222SOL     OW10564   3.690   1.925   3.196
 3222SOL    HW110565   3.680   1.974   3.110
 3222SOL    HW210566   3.766   1.964   3.249
 3223SOL     OW10567   1.322   5.929   0.748
 3223SOL    HW110568   1.320   5.901   0.845
 3223SOL    HW210569   1.356   6.023   0.741
 3224SOL     OW10570   3.371   2.077   3.888
 3224SOL    HW110571   3.284   2.032   3.909
 3224SOL    HW210572   3.397   2.057   3.794
 3225SOL     OW10573   3.899   0.696   3.940
 3225SOL    HW110574   3.911   0.795   3.947
 3225SOL    HW210575   3.954   0.651   4.011
 3226SOL     OW10576   6.813   0.347   0.725
 3226SOL    HW110577   6.764   0.266   0.695
 3226SOL    HW210578   6.893   0.362   0.667
 3227SOL     OW10579   5.017   4.567   5.118
 3227SOL    HW110580   4.981   4.604   5.032
 3227SOL    HW210581   5.100   4.515   5.099
 3228SOL     OW10582   2.519   3.874   6.949
 3228SOL    HW110583   2.597   3.901   6.894
 3228SOL    HW210584   2.520   3.775   6.963
 3229SOL     OW10585   1.461   1.504   0.742
 3229SOL    HW110586   1.464   1.443   0.822
 3229SOL    HW210587   1.521   1.582   0.758
 3230SOL     OW10588   2.878   6.069   5.598
 3230SOL    HW110589   2.926   5.996   5.647
 3230SOL    HW210590   2.943   6.122   5.544
 3231SOL     OW10591   2.424   2.076   2.467
 3231SOL    HW110592   2.427   2.165   2.421
 3231SOL    HW210593   2.456   2.087   2.562
 3232SOL     OW10594   3.972   5.213   3.981
 3232SOL    HW110595   3.966   5.220   3.882
 3232SOL    HW210596   3.927   5.293   4.023
 3233SOL     OW10597   0.237   1.816   0.561
 3233SOL    HW110598   0.295   1.878   0.615
 3233SOL    HW210599   0.254   1.832   0.464
 3234SOL     OW10600   2.334   2.939   0.814
 3234SOL    HW110601   2.392   2.868   0.774
 3234SOL    HW210602   2.386   2.992   0.881
 3235SOL     OW10603   0.598   6.819   2.640
 3235SOL    HW110604   0.615   6.874   2.558
 3235SOL    HW210605   0.518   6.856   2.688
 3236SOL     OW10606   3.354   2.378   0.388
 3236SOL    HW110607   3.304   2.369   0.474
 3236SOL    HW210608   3.450   2.353   0.403
 3237SOL     OW10609   5.702   1.831   5.218
 3237SOL    HW110610   5.726   1.909   5.160
 3237SOL    HW210611   5.724   1.746   5.171
 3238SOL     OW10612   6.502   5.038   1.644
 3238SOL    HW110613   6.440   5.109   1.611
 3238SOL    HW210614   6.544   5.068   1.730
 3239SOL     OW10615   6.797   6.998   4.405
 3239SOL    HW110616   6.748   6.926   4.356
 3239SOL    HW210617   6.743   0.010   4.484
 3240SOL     OW10618   0.644   0.501   0.176
 3240SOL    HW110619   0.651   0.447   0.092
 3240SOL    HW210620   0.573   0.571   0.165
 3241SOL     OW10621   6.307   1.865   5.752
 3241SOL    HW110622   6.296   1.964   5.758
 3241SOL    HW210623   6.249   1.821   5.820
 3242SOL     OW10624   5.626   3.924   4.782
 3242SOL    HW110625   5.709   3.971   4.753
 3242SOL    HW210626   5.549   3.988   4.780
 3243SOL     OW10627   6.012   5.019   4.493
 3243SOL    HW110628   6.029   5.091   4.561
 3243SOL    HW210629   6.044   5.050   4.403
 3244SOL     OW10630   5.566   0.157   6.654
 3244SOL    HW110631   5.596   0.249   6.628
 3244SOL    HW210632   5.501   0.163   6.729
 3245SOL     OW10633   3.896   0.860   5.682
 3245SOL    HW110634   3.886   0.928   5.609
 3245SOL    HW210635   3.808   0.845   5.726
 3246SOL     OW10636   6.434   6.985   2.937
 3246SOL    HW110637   6.442   0.061   2.904
 3246SOL    HW210638   6.384   6.984   3.024
 3247SOL     OW10639   0.397   4.336   3.406
 3247SOL    HW110640   0.306   4.319   3.446
 3247SOL    HW210641   0.390   4.335   3.307
 3248SOL     OW10642   5.213   2.198   3.803
 3248SOL    HW110643   5.231   2.117   3.860
 3248SOL    HW210644   5.299   2.232   3.766
 3249SOL     OW10645   3.123   4.002   3.921
 3249SOL    HW110646   3.202   4.048   3.881
 3249SOL    HW210647   3.051   3.992   3.852
 3250SOL     OW10648   4.673   5.245   2.500
 3250SOL    HW110649   4.703   5.298   2.421
 3250SOL    HW210650   4.658   5.150   2.472
 3251SOL     OW10651   2.306   1.448   2.673
 3251SOL    HW110652   2.389   1.463   2.619
 3251SOL    HW210653   2.286   1.350   2.678
 3252SOL     OW10654   2.144   1.038   3.033
 3252SOL    HW110655   2.197   0.955   3.021
 3252SOL    HW210656   2.088   1.054   2.952
 3253SOL     OW10657   6.786   3.765   0.433
 3253SOL    HW110658   6.857   3.830   0.462
 3253SOL    HW210659   6.828   3.691   0.382
 3254SOL     OW10660   6.246   0.276   0.790
 3254SOL    HW110661   6.322   0.302   0.730
 3254SOL    HW210662   6.271   0.196   0.844
 3255SOL     OW10663   4.936   5.690   1.096
 3255SOL    HW110664   4.891   5.754   1.034
 3255SOL    HW210665   5.013   5.735   1.142
 3256SOL     OW10666   4.771   2.082   1.342
 3256SOL    HW110667   4.695   2.141   1.367
 3256SOL    HW210668   4.844   2.136   1.301
 3257SOL     OW10669   2.709   2.364   3.284
 3257SOL    HW110670   2.676   2.396   3.195
 3257SOL    HW210671   2.808   2.347   3.279
 3258SOL     OW10672   2.799   5.448   3.555
 3258SOL    HW110673   2.844   5.507   3.488
 3258SOL    HW210674   2.857   5.369   3.575
 3259SOL     OW10675   4.909   4.701   3.734
 3259SOL    HW110676   4.942   4.694   3.829
 3259SOL    HW210677   4.830   4.761   3.730
 3260SOL     OW10678   1.013   4.322   2.840
 3260SOL    HW110679   0.996   4.419   2.858
 3260SOL    HW210680   1.021   4.273   2.927
 3261SOL     OW10681   5.526   6.616   3.861
 3261SOL    HW110682   5.530   6.634   3.959
 3261SOL    HW210683   5.616   6.588   3.828
 3262SOL     OW10684   2.969   2.137   2.705
 3262SOL    HW110685   3.022   2.151   2.621
 3262SOL    HW210686   3.026   2.159   2.784
 3263SOL     OW10687   0.070   1.547   2.300
 3263SOL    HW110688   0.053   1.610   2.225
 3263SOL    HW210689   0.037   1.586   2.386
 3264SOL     OW10690   1.948   4.790   7.008
 3264SOL    HW110691   1.887   4.711   7.015
 3264SOL    HW210692   1.916   4.863   0.050
 3265SOL     OW10693   6.148   5.289   6.474
 3265SOL    HW110694   6.138   5.316   6.379
 3265SOL    HW210695   6.068   5.319   6.526
 3266SOL     OW10696   3.361   5.244   6.837
 3266SOL    HW110697   3.284   5.266   6.896
 3266SOL    HW210698   3.445   5.238   6.891
 3267SOL     OW10699   3.999   6.753   1.026
 3267SOL    HW110700   3.934   6.819   0.988
 3267SOL    HW210701   4.062   6.800   1.088
 3268SOL     OW10702   6.328   5.596   1.605
 3268SOL    HW110703   6.317   5.512   1.658
 3268SOL    HW210704   6.425   5.619   1.598
 3269SOL     OW10705   1.483   4.932   1.962
 3269SOL    HW110706   1.432   4.846   1.968
 3269SOL    HW210707   1.463   4.977   1.875
 3270SOL     OW10708   0.688   3.321   5.648
 3270SOL    HW110709   0.635   3.246   5.687
 3270SOL    HW210710   0.773   3.332   5.700
 3271SOL     OW10711   0.390   2.556   2.879
 3271SOL    HW110712   0.365   2.646   2.914
 3271SOL    HW210713   0.309   2.512   2.840
 3272SOL     OW10714   4.274   6.119   0.589
 3272SOL    HW110715   4.359   6.073   0.616
 3272SOL    HW210716   4.253   6.192   0.654
 3273SOL     OW10717   5.142   2.514   6.108
 3273SOL    HW110718   5.108   2.579   6.175
 3273SOL    HW210719   5.103   2.424   6.125
 3274SOL     OW10720   6.012   0.400   0.426
 3274SOL    HW110721   6.021   0.325   0.492
 3274SOL    HW210722   5.927   0.449   0.443
 3275SOL     OW10723   4.428   0.348   1.309
 3275SOL    HW110724   4.524   0.345   1.335
 3275SOL    HW210725   4.403   0.263   1.263
 3276SOL     OW10726   5.159   0.489   0.427
 3276SOL    HW110727   5.256   0.484   0.450
 3276SOL    HW210728   5.117   0.399   0.440
 3277SOL     OW10729   3.910   2.097   2.079
 3277SOL    HW110730   3.993   2.144   2.049
 3277SOL    HW210731   3.830   2.143   2.040
 3278SOL     OW10732   6.823   0.273   0.193
 3278SOL    HW110733   6.764   0.326   0.132
 3278SOL    HW210734   6.901   0.329   0.220
 3279SOL     OW10735   3.270   0.281   1.770
 3279SOL    HW110736   3.359   0.291   1.814
 3279SOL    HW210737   3.235   0.189   1.787
 3280SOL     OW10738   5.810   4.265   3.839
 3280SOL    HW110739   5.898   4.312   3.829
 3280SOL    HW210740   5.806   4.222   3.929
 3281SOL     OW10741   6.182   3.426   1.061
 3281SOL    HW110742   6.165   3.519   1.093
 3281SOL    HW210743   6.242   3.379   1.126
 3282SOL     OW10744   0.622   4.835   4.043
 3282SOL    HW110745   0.655   4.870   3.956
 3282SOL    HW210746   0.700   4.814   4.103
 3283SOL     OW10747   3.702   1.693   0.351
 3283SOL    HW110748   3.800   1.674   0.343
 3283SOL    HW210749   3.656   1.668   0.266
 3284SOL     OW10750   1.597   6.007   4.198
 3284SOL    HW110751   1.601   6.034   4.102
 3284SOL    HW210752   1.566   6.084   4.254
 3285SOL     OW10753   4.069   1.762   5.061
 3285SOL    HW110754   3.981   1.808   5.050
 3285SOL    HW210755   4.100   1.771   5.156
 3286SOL     OW10756   3.042   1.606   1.293
 3286SOL    HW110757   2.951   1.563   1.292
 3286SOL    HW210758   3.049   1.665   1.373
 3287SOL     OW10759   2.493   0.347   6.918
 3287SOL    HW110760   2.449   0.257   6.921
 3287SOL    HW210761   2.428   0.417   6.947
 3288SOL     OW10762   1.909   6.367   1.896
 3288SOL    HW110763   1.883   6.458   1.864
 3288SOL    HW210764   1.880   6.356   1.991
 3289SOL     OW10765   4.301   1.591   6.733
 3289SOL    HW110766   4.371   1.542   6.681
 3289SOL    HW210767   4.288   1.547   6.822
 3290SOL     OW10768   0.471   5.770   0.323
 3290SOL    HW110769   0.486   5.867   0.343
 3290SOL    HW210770   0.448   5.722   0.408
 3291SOL     OW10771   4.720   6.480   5.393
 3291SOL    HW110772   4.620   6.477   5.396
 3291SOL    HW210773   4.751   6.463   5.299
 3292SOL     OW10774   6.445   2.056   1.206
 3292SOL    HW110775   6.432   2.102   1.293
 3292SOL    HW210776   6.536   2.076   1.170
 3293SOL     OW10777   5.806   5.736   3.312
 3293SOL    HW110778   5.746   5.795   3.257
 3293SOL    HW210779   5.845   5.665   3.253
 3294SOL     OW10780   5.199   2.625   4.949
 3294SOL    HW110781   5.154   2.706   4.988
 3294SOL    HW210782   5.136   2.580   4.885
 3295SOL     OW10783   1.035   2.993   2.376
 3295SOL    HW110784   0.970   3.064   2.350
 3295SOL    HW210785   1.022   2.970   2.473
 3296SOL     OW10786   1.937   0.396   5.741
 3296SOL    HW110787   1.841   0.374   5.759
 3296SOL    HW210788   1.990   0.386   5.825
 3297SOL     OW10789   2.970   1.264   4.918
 3297SOL    HW110790   3.056   1.313   4.933
 3297SOL    HW210791   2.894   1.321   4.949
 3298SOL     OW10792   5.382   4.211   5.816
 3298SOL    HW110793   5.346   4.166   5.733
 3298SOL    HW210794   5.413   4.141   5.880
 3299SOL     OW10795   2.602   4.765   4.162
 3299SOL    HW110796   2.657   4.781   4.244
 3299SOL    HW210797   2.565   4.851   4.128
 3300SOL     OW10798   1.806   0.088   4.102
 3300SOL    HW110799   1.842   0.181   4.105
 3300SOL    HW210800   1.846   0.035   4.176
 3301SOL     OW10801   1.163   1.124   3.092
 3301SOL    HW110802   1.076   1.120   3.044
 3301SOL    HW210803   1.161   1.198   3.158
 3302SOL     OW10804   2.633   5.274   5.982
 3302SOL    HW110805   2.620   5.358   6.034
 3302SOL    HW210806   2.716   5.227   6.015
 3303SOL     OW10807   3.738   2.797   6.991
 3303SOL    HW110808   3.661   2.860   6.979
 3303SOL    HW210809   3.704   2.707   0.000
 3304SOL     OW10810   2.910   5.250   6.749
 3304SOL    HW110811   2.852   5.301   6.811
 3304SOL    HW210812   2.958   5.178   6.799
 3305SOL     OW10813   3.469   2.301   0.701
 3305SOL    HW110814   3.549   2.315   0.758
 3305SOL    HW210815   3.467   2.207   0.667
 3306SOL     OW10816   2.068   0.746   0.039
 3306SOL    HW110817   2.142   0.741   6.990
 3306SOL    HW210818   2.083   0.825   0.099
 3307SOL     OW10819   1.919   6.496   5.378
 3307SOL    HW110820   1.991   6.492   5.447
 3307SOL    HW210821   1.960   6.512   5.288
 3308SOL     OW10822   3.987   4.454   1.315
 3308SOL    HW110823   4.059   4.459   1.385
 3308SOL    HW210824   3.981   4.361   1.280
 3309SOL     OW10825   6.032   3.280   3.646
 3309SOL    HW110826   6.052   3.369   3.604
 3309SOL    HW210827   6.021   3.292   3.745
 3310SOL     OW10828   6.335   5.376   5.945
 3310SOL    HW110829   6.313   5.344   5.853
 3310SOL    HW210830   6.299   5.312   6.012
 3311SOL     OW10831   3.193   3.370   0.146
 3311SOL    HW110832   3.283   3.358   0.187
 3311SOL    HW210833   3.123   3.341   0.212
 3312SOL     OW10834   4.669   2.249   6.014
 3312SOL    HW110835   4.631   2.320   6.073
 3312SOL    HW210836   4.749   2.209   6.058
 3313SOL     OW10837   1.142   0.698   3.358
 3313SOL    HW110838   1.058   0.667   3.314
 3313SOL    HW210839   1.184   0.770   3.303
 3314SOL     OW10840   2.763   5.414   2.642
 3314SOL    HW110841   2.734   5.321   2.619
 3314SOL    HW210842   2.863   5.417   2.647
 3315SOL     OW10843   0.244   5.670   5.023
 3315SOL    HW110844   0.335   5.628   5.026
 3315SOL    HW210845   0.243   5.751   5.081
 3316SOL     OW10846   3.514   2.500   6.060
 3316SOL    HW110847   3.503   2.569   6.132
 3316SOL    HW210848   3.589   2.526   6.000
 3317SOL     OW10849   4.900   2.479   2.693
 3317SOL    HW110850   4.834   2.551   2.670
 3317SOL    HW210851   4.853   2.391   2.696
 3318SOL     OW10852   3.467   2.033   0.616
 3318SOL    HW110853   3.521   1.976   0.554
 3318SOL    HW210854   3.377   1.991   0.631
 3319SOL     OW10855   6.550   5.907   3.596
 3319SOL    HW110856   6.517   5.953   3.513
 3319SOL    HW210857   6.649   5.895   3.590
 3320SOL     OW10858   6.154   6.940   1.369
 3320SOL    HW110859   6.124   6.847   1.393
 3320SOL    HW210860   6.090   6.980   1.305
 3321SOL     OW10861   4.812   1.077   0.761
 3321SOL    HW110862   4.896   1.029   0.735
 3321SOL    HW210863   4.734   1.033   0.718
 3322SOL     OW10864   6.611   4.033   0.851
 3322SOL    HW110865   6.677   4.002   0.918
 3322SOL    HW210866   6.619   3.979   0.767
 3323SOL     OW10867   1.534   2.508   1.680
 3323SOL    HW110868   1.621   2.558   1.675
 3323SOL    HW210869   1.545   2.431   1.743
 3324SOL     OW10870   5.017   5.772   5.614
 3324SOL    HW110871   4.958   5.692   5.608
 3324SOL    HW210872   4.962   5.855   5.612
 3325SOL     OW10873   2.239   4.075   6.306
 3325SOL    HW110874   2.220   4.002   6.372
 3325SOL    HW210875   2.333   4.066   6.274
 3326SOL     OW10876   4.095   0.846   2.713
 3326SOL    HW110877   4.047   0.928   2.744
 3326SOL    HW210878   4.029   0.772   2.700
 3327SOL     OW10879   1.033   5.311   0.493
 3327SOL    HW110880   0.945   5.347   0.524
 3327SOL    HW210881   1.029   5.211   0.489
 3328SOL     OW10882   4.420   2.242   6.860
 3328SOL    HW110883   4.470   2.312   6.807
 3328SOL    HW210884   4.343   2.209   6.806
 3329SOL     OW10885   6.893   5.949   6.093
 3329SOL    HW110886   6.967   6.004   6.130
 3329SOL    HW210887   6.841   5.908   6.169
 3330SOL     OW10888   6.480   3.411   2.479
 3330SOL    HW110889   6.527   3.494   2.507
 3330SOL    HW210890   6.471   3.409   2.379
 3331SOL     OW10891   2.006   2.980   0.840
 3331SOL    HW110892   2.097   2.939   0.837
 3331SOL    HW210893   1.950   2.932   0.908
 3332SOL     OW10894   6.410   4.717   1.161
 3332SOL    HW110895   6.357   4.665   1.093
 3332SOL    HW210896   6.402   4.814   1.141
 3333SOL     OW10897   4.216   5.108   5.863
 3333SOL    HW110898   4.165   5.024   5.847
 3333SOL    HW210899   4.179   5.181   5.806
 3334SOL     OW10900   2.434   4.250   1.775
 3334SOL    HW110901   2.422   4.346   1.751
 3334SOL    HW210902   2.355   4.219   1.829
 3335SOL     OW10903   5.598   4.609   4.973
 3335SOL    HW110904   5.512   4.563   4.997
 3335SOL    HW210905   5.655   4.547   4.919
 3336SOL     OW10906   3.629   5.500   6.144
 3336SOL    HW110907   3.632   5.584   6.090
 3336SOL    HW210908   3.535   5.467   6.150
 3337SOL     OW10909   3.535   1.607   0.996
 3337SOL    HW110910   3.610   1.671   1.012
 3337SOL    HW210911   3.468   1.649   0.934
 3338SOL     OW10912   0.304   4.794   1.023
 3338SOL    HW110913   0.205   4.788   1.010
 3338SOL    HW210914   0.336   4.716   1.076
 3339SOL     OW10915   7.015   5.676   6.695
 3339SOL    HW110916   0.084   5.725   6.695
 3339SOL    HW210917   6.979   5.672   6.602
 3340SOL     OW10918   3.545   6.242   1.389
 3340SOL    HW110919   3.636   6.241   1.429
 3340SOL    HW210920   3.542   6.309   1.314
 3341SOL     OW10921   1.060   0.819   2.204
 3341SOL    HW110922   0.968   0.849   2.227
 3341SOL    HW210923   1.095   0.873   2.127
 3342SOL     OW10924   2.423   6.576   4.505
 3342SOL    HW110925   2.479   6.503   4.465
 3342SOL    HW210926   2.341   6.589   4.449
 3343SOL     OW10927   5.427   2.745   0.760
 3343SOL    HW110928   5.517   2.768   0.799
 3343SOL    HW210929   5.378   2.829   0.736
 3344SOL     OW10930   0.187   3.654   5.749
 3344SOL    HW110931   0.221   3.612   5.833
 3344SOL    HW210932   0.092   3.682   5.762
 3345SOL     OW10933   3.087   3.195   5.479
 3345SOL    HW110934   3.179   3.164   5.501
 3345SOL    HW210935   3.089   3.288   5.444
 3346SOL     OW10936   1.304   6.804   2.131
 3346SOL    HW110937   1.323   6.843   2.041
 3346SOL    HW210938   1.234   6.734   2.123
 3347SOL     OW10939   5.578   4.224   4.937
 3347SOL    HW110940   5.481   4.214   4.962
 3347SOL    HW210941   5.632   4.230   5.021
 3348SOL     OW10942   3.239   3.006   3.567
 3348SOL    HW110943   3.320   2.961   3.603
 3348SOL    HW210944   3.191   3.054   3.641
 3349SOL     OW10945   6.141   3.997   5.074
 3349SOL    HW110946   6.049   3.960   5.085
 3349SOL    HW210947   6.204   3.947   5.133
 3350SOL     OW10948   1.206   1.099   1.247
 3350SOL    HW110949   1.132   1.033   1.260
 3350SOL    HW210950   1.294   1.054   1.263
 3351SOL     OW10951   4.958   1.613   1.818
 3351SOL    HW110952   4.878   1.673   1.808
 3351SOL    HW210953   4.931   1.530   1.867
 3352SOL     OW10954   0.401   3.945   0.490
 3352SOL    HW110955   0.429   3.914   0.581
 3352SOL    HW210956   0.338   3.879   0.450
 3353SOL     OW10957   2.194   6.901   5.749
 3353SOL    HW110958   2.269   6.886   5.813
 3353SOL    HW210959   2.182   6.820   5.692
 3354SOL     OW10960   0.918   1.782   3.086
 3354SOL    HW110961   0.920   1.709   3.018
 3354SOL    HW210962   0.838   1.770   3.145
 3355SOL     OW10963   6.741   1.247   2.769
 3355SOL    HW110964   6.706   1.332   2.809
 3355SOL    HW210965   6.809   1.206   2.829
 3356SOL     OW10966   2.634   2.925   6.696
 3356SOL    HW110967   2.644   2.885   6.605
 3356SOL    HW210968   2.724   2.931   6.740
 3357SOL     OW10969   2.703   4.862   1.899
 3357SOL    HW110970   2.761   4.899   1.826
 3357SOL    HW210971   2.756   4.799   1.955
 3358SOL     OW10972   5.166   4.624   2.427
 3358SOL    HW110973   5.244   4.670   2.470
 3358SOL    HW210974   5.138   4.546   2.484
 3359SOL     OW10975   1.471   1.246   2.484
 3359SOL    HW110976   1.412   1.313   2.439
 3359SOL    HW210977   1.537   1.293   2.543
 3360SOL     OW10978   1.271   0.512   6.848
 3360SOL    HW110979   1.181   0.495   6.888
 3360SOL    HW210980   1.267   0.592   6.788
 3361SOL     OW10981   5.704   6.657   2.738
 3361SOL    HW110982   5.778   6.717   2.770
 3361SOL    HW210983   5.618   6.685   2.781
 3362SOL     OW10984   1.834   1.247   5.666
 3362SOL    HW110985   1.897   1.312   5.710
 3362SOL    HW210986   1.884   1.189   5.602
 3363SOL     OW10987   0.799   1.055   6.735
 3363SOL    HW110988   0.712   1.014   6.705
 3363SOL    HW210989   0.790   1.086   6.829
 3364SOL     OW10990   2.047   4.996   6.389
 3364SOL    HW110991   2.019   4.941   6.311
 3364SOL    HW210992   1.974   5.061   6.411
 3365SOL     OW10993   6.521   1.871   5.222
 3365SOL    HW110994   6.433   1.846   5.181
 3365SOL    HW210995   6.542   1.809   5.297
 3366SOL     OW10996   5.423   1.204   5.711
 3366SOL    HW110997   5.511   1.240   5.682
 3366SOL    HW210998   5.437   1.118   5.761
 3367SOL     OW10999   0.749   0.789   1.972
 3367SOL    HW111000   0.657   0.757   1.949
 3367SOL    HW211001   0.752   0.817   2.067
 3368SOL     OW11002   0.099   6.007   5.601
 3368SOL    HW111003   0.024   6.046   5.654
 3368SOL    HW211004   0.164   5.963   5.664
 3369SOL     OW11005   4.250   0.174   6.608
 3369SOL    HW111006   4.186   0.205   6.537
 3369SOL    HW211007   4.325   0.240   6.615
 3370SOL     OW11008   5.708   6.657   5.087
 3370SOL    HW111009   5.633   6.711   5.048
 3370SOL    HW211010   5.698   6.654   5.187
 3371SOL     OW11011   0.229   5.583   1.776
 3371SOL    HW111012   0.267   5.500   1.736
 3371SOL    HW211013   0.170   5.559   1.853
 3372SOL     OW11014   0.392   1.311   2.776
 3372SOL    HW111015   0.460   1.314   2.703
 3372SOL    HW211016   0.339   1.227   2.768
 3373SOL     OW11017   6.561   2.134   5.273
 3373SOL    HW111018   6.520   2.162   5.360
 3373SOL    HW211019   6.562   2.034   5.269
 3374SOL     OW11020   3.125   5.173   5.221
 3374SOL    HW111021   3.207   5.206   5.175
 3374SOL    HW211022   3.137   5.180   5.320
 3375SOL     OW11023   4.438   4.664   5.367
 3375SOL    HW111024   4.468   4.618   5.450
 3375SOL    HW211025   4.339   4.656   5.359
 3376SOL     OW11026   3.424   3.684   2.316
 3376SOL    HW111027   3.497   3.632   2.274
 3376SOL    HW211028   3.389   3.635   2.397
 3377SOL     OW11029   1.749   6.231   5.275
 3377SOL    HW111030   1.791   6.223   5.366
 3377SOL    HW211031   1.684   6.156   5.262
 3378SOL     OW11032   6.865   1.550   0.902
 3378SOL    HW111033   6.795   1.540   0.831
 3378SOL    HW211034   6.941   1.488   0.883
 3379SOL     OW11035   0.900   4.707   5.580
 3379SOL    HW111036   0.911   4.747   5.489
 3379SOL    HW211037   0.976   4.644   5.599
 3380SOL     OW11038   0.037   4.137   6.457
 3380SOL    HW111039   7.009   4.049   6.468
 3380SOL    HW211040   0.133   4.128   6.485
 3381SOL     OW11041   3.213   2.558   0.610
 3381SOL    HW111042   3.189   2.461   0.608
 3381SOL    HW211043   3.189   2.597   0.699
 3382SOL     OW11044   6.795   0.618   0.843
 3382SOL    HW111045   6.814   0.542   0.781
 3382SOL    HW211046   6.723   0.676   0.804
 3383SOL     OW11047   6.151   5.082   2.678
 3383SOL    HW111048   6.081   5.052   2.613
 3383SOL    HW211049   6.145   5.026   2.761
 3384SOL     OW11050   3.811   3.090   4.169
 3384SOL    HW111051   3.786   3.058   4.078
 3384SOL    HW211052   3.783   3.022   4.238
 3385SOL     OW11053   6.219   3.830   3.276
 3385SOL    HW111054   6.281   3.846   3.353
 3385SOL    HW211055   6.240   3.741   3.235
 3386SOL     OW11056   6.017   4.381   5.169
 3386SOL    HW111057   6.005   4.435   5.086
 3386SOL    HW211058   6.069   4.434   5.236
 3387SOL     OW11059   2.346   2.275   2.763
 3387SOL    HW111060   2.397   2.189   2.769
 3387SOL    HW211061   2.394   2.339   2.704
 3388SOL     OW11062   5.795   2.378   1.325
 3388SOL    HW111063   5.832   2.400   1.235
 3388SOL    HW211064   5.695   2.384   1.323
 3389SOL     OW11065   5.489   4.790   3.471
 3389SOL    HW111066   5.431   4.710   3.459
 3389SOL    HW211067   5.434   4.873   3.461
 3390SOL     OW11068   4.513   2.733   5.694
 3390SOL    HW111069   4.501   2.808   5.758
 3390SOL    HW211070   4.424   2.698   5.665
 3391SOL     OW11071   3.904   2.062   4.523
 3391SOL    HW111072   3.984   2.066   4.463
 3391SOL    HW211073   3.863   1.971   4.517
 3392SOL     OW11074   3.641   6.559   3.965
 3392SOL    HW111075   3.670   6.586   3.873
 3392SOL    HW211076   3.669   6.465   3.982
 3393SOL     OW11077   6.621   0.077   6.829
 3393SOL    HW111078   6.593   0.027   6.910
 3393SOL    HW211079   6.635   0.013   6.753
 3394SOL     OW11080   6.143   3.025   1.515
 3394SOL    HW111081   6.128   2.998   1.420
 3394SOL    HW211082   6.190   2.951   1.563
 3395SOL     OW11083   1.549   3.307   5.235
 3395SOL    HW111084   1.610   3.385   5.223
 3395SOL    HW211085   1.551   3.278   5.330
 3396SOL     OW11086   0.022   4.345   3.994
 3396SOL    HW111087   0.027   4.245   3.984
 3396SOL    HW211088   0.000   4.368   4.089
 3397SOL     OW11089   3.727   6.346   5.873
 3397SOL    HW111090   3.822   6.334   5.899
 3397SOL    HW211091   3.722   6.400   5.789
 3398SOL     OW11092   1.071   7.008   4.229
 3398SOL    HW111093   1.074   6.919   4.273
 3398SOL    HW211094   1.032   6.998   4.137
 3399SOL     OW11095   4.911   4.711   4.234
 3399SOL    HW111096   4.981   4.693   4.165
 3399SOL    HW211097   4.885   4.626   4.279
 3400SOL     OW11098   4.802   2.365   6.891
 3400SOL    HW111099   4.777   2.297   6.959
 3400SOL    HW211100   4.735   2.365   6.817
 3401SOL     OW11101   6.047   4.260   0.125
 3401SOL    HW111102   6.030   4.205   0.207
 3401SOL    HW211103   6.007   4.351   0.138
 3402SOL     OW11104   5.477   5.711   1.981
 3402SOL    HW111105   5.539   5.678   2.052
 3402SOL    HW211106   5.462   5.809   1.992
 3403SOL     OW11107   3.527   0.992   5.348
 3403SOL    HW111108   3.541   0.903   5.303
 3403SOL    HW211109   3.437   0.992   5.392
 3404SOL     OW11110   4.625   0.840   0.365
 3404SOL    HW111111   4.632   0.741   0.379
 3404SOL    HW211112   4.647   0.862   0.270
 3405SOL     OW11113   6.802   3.674   6.697
 3405SOL    HW111114   6.819   3.756   6.752
 3405SOL    HW211115   6.770   3.600   6.757
 3406SOL     OW11116   1.397   3.783   2.609
 3406SOL    HW111117   1.475   3.725   2.632
 3406SOL    HW211118   1.424   3.851   2.541
 3407SOL     OW11119   1.340   5.858   2.734
 3407SOL    HW111120   1.325   5.891   2.827
 3407SOL    HW211121   1.335   5.935   2.670
 3408SOL     OW11122   5.198   4.596   2.813
 3408SOL    HW111123   5.150   4.683   2.802
 3408SOL    HW211124   5.297   4.612   2.810
 3409SOL     OW11125   3.960   0.622   5.620
 3409SOL    HW111126   3.892   0.555   5.649
 3409SOL    HW211127   3.929   0.713   5.644
 3410SOL     OW11128   6.387   6.911   0.612
 3410SOL    HW111129   6.473   6.958   0.635
 3410SOL    HW211130   6.316   6.979   0.593
 3411SOL     OW11131   4.825   2.162   2.871
 3411SOL    HW111132   4.774   2.227   2.928
 3411SOL    HW211133   4.793   2.069   2.889
 3412SOL     OW11134   3.687   4.430   0.211
 3412SOL    HW111135   3.595   4.467   0.199
 3412SOL    HW211136   3.750   4.505   0.233
 3413SOL     OW11137   3.718   1.936   3.663
 3413SOL    HW111138   3.795   1.983   3.620
 3413SOL    HW211139   3.751   1.869   3.729
 3414SOL     OW11140   2.798   2.357   5.023
 3414SOL    HW111141   2.766   2.328   4.933
 3414SOL    HW211142   2.897   2.351   5.027
 3415SOL     OW11143   0.612   4.588   3.834
 3415SOL    HW111144   0.617   4.655   3.908
 3415SOL    HW211145   0.693   4.529   3.837
 3416SOL     OW11146   1.487   5.597   5.329
 3416SOL    HW111147   1.486   5.637   5.421
 3416SOL    HW211148   1.435   5.656   5.267
 3417SOL     OW11149   6.628   6.899   2.559
 3417SOL    HW111150   6.604   6.977   2.501
 3417SOL    HW211151   6.699   6.845   2.515
 3418SOL     OW11152   2.864   1.467   5.677
 3418SOL    HW111153   2.845   1.475   5.775
 3418SOL    HW211154   2.845   1.554   5.632
 3419SOL     OW11155   4.430   4.725   0.480
 3419SOL    HW111156   4.437   4.820   0.510
 3419SOL    HW211157   4.477   4.714   0.393
 3420SOL     OW11158   4.392   2.444   3.852
 3420SOL    HW111159   4.389   2.472   3.756
 3420SOL    HW211160   4.461   2.499   3.901
 3421SOL     OW11161   0.057   5.879   5.203
 3421SOL    HW111162   0.001   5.832   5.271
 3421SOL    HW211163   0.087   5.967   5.239
 3422SOL     OW11164   3.742   1.401   2.240
 3422SOL    HW111165   3.663   1.419   2.299
 3422SOL    HW211166   3.747   1.304   2.219
 3423SOL     OW11167   2.444   0.341   1.200
 3423SOL    HW111168   2.362   0.392   1.175
 3423SOL    HW211169   2.483   0.381   1.283
 3424SOL     OW11170   4.761   0.940   3.180
 3424SOL    HW111171   4.688   0.980   3.236
 3424SOL    HW211172   4.821   0.884   3.237
 3425SOL     OW11173   4.651   4.436   1.803
 3425SOL    HW111174   4.600   4.363   1.847
 3425SOL    HW211175   4.596   4.477   1.730
 3426SOL     OW11176   4.221   3.721   0.787
 3426SOL    HW111177   4.314   3.756   0.774
 3426SOL    HW211178   4.190   3.743   0.880
 3427SOL     OW11179   0.805   1.283   0.200
 3427SOL    HW111180   0.785   1.354   0.268
 3427SOL    HW211181   0.895   1.244   0.219
 3428SOL     OW11182   4.213   4.611   2.031
 3428SOL    HW111183   4.172   4.523   2.054
 3428SOL    HW211184   4.142   4.681   2.024
 3429SOL     OW11185   1.580   3.294   0.060
 3429SOL    HW111186   1.554   3.349   6.999
 3429SOL    HW211187   1.601   3.354   0.137
 3430SOL     OW11188   1.788   6.627   0.205
 3430SOL    HW111189   1.740   6.540   0.211
 3430SOL    HW211190   1.747   6.692   0.269
 3431SOL     OW11191   0.836   5.930   0.422
 3431SOL    HW111192   0.853   5.878   0.339
 3431SOL    HW211193   0.922   5.970   0.454
 3432SOL     OW11194   3.224   1.728   5.975
 3432SOL    HW111195   3.165   1.793   5.926
 3432SOL    HW211196   3.204   1.732   6.073
 3433SOL     OW11197   3.524   1.171   5.100
 3433SOL    HW111198   3.543   1.127   5.187
 3433SOL    HW211199   3.427   1.162   5.078
 3434SOL     OW11200   4.711   2.708   2.014
 3434SOL    HW111201   4.721   2.796   2.062
 3434SOL    HW211202   4.765   2.709   1.931
 3435SOL     OW11203   0.173   1.788   1.841
 3435SOL    HW111204   0.230   1.868   1.820
 3435SOL    HW211205   0.232   1.709   1.858
 3436SOL     OW11206   4.282   6.903   4.376
 3436SOL    HW111207   4.313   6.936   4.465
 3436SOL    HW211208   4.203   6.843   4.390
 3437SOL     OW11209   4.130   6.966   5.447
 3437SOL    HW111210   4.132   0.036   5.493
 3437SOL    HW211211   4.122   6.893   5.516
 3438SOL     OW11212   1.172   2.872   6.685
 3438SOL    HW111213   1.129   2.918   6.607
 3438SOL    HW211214   1.248   2.928   6.718
 3439SOL     OW11215   2.586   6.241   4.067
 3439SOL    HW111216   2.586   6.275   4.161
 3439SOL    HW211217   2.623   6.311   4.006
 3440SOL     OW11218   4.875   3.280   0.660
 3440SOL    HW111219   4.840   3.297   0.568
 3440SOL    HW211220   4.876   3.365   0.712
 3441SOL     OW11221   2.913   0.368   3.860
 3441SOL    HW111222   3.013   0.374   3.852
 3441SOL    HW211223   2.873   0.376   3.769
 3442SOL     OW11224   1.909   4.643   3.610
 3442SOL    HW111225   1.828   4.609   3.657
 3442SOL    HW211226   1.938   4.730   3.650
 3443SOL     OW11227   6.110   1.321   2.735
 3443SOL    HW111228   6.048   1.244   2.724
 3443SOL    HW211229   6.118   1.370   2.648
 3444SOL     OW11230   4.979   5.427   0.202
 3444SOL    HW111231   4.997   5.489   0.278
 3444SOL    HW211232   4.984   5.332   0.234
 3445SOL     OW11233   6.673   4.650   4.044
 3445SOL    HW111234   6.707   4.594   4.119
 3445SOL    HW211235   6.732   4.640   3.965
 3446SOL     OW11236   3.849   0.047   2.538
 3446SOL    HW111237   3.810   0.081   2.624
 3446SOL    HW211238   3.855   6.966   2.541
 3447SOL     OW11239   5.530   6.145   6.762
 3447SOL    HW111240   5.583   6.069   6.798
 3447SOL    HW211241   5.473   6.183   6.834
 3448SOL     OW11242   3.292   1.231   1.714
 3448SOL    HW111243   3.231   1.164   1.671
 3448SOL    HW211244   3.358   1.183   1.773
 3449SOL     OW11245   0.024   6.501   3.289
 3449SOL    HW111246   6.995   6.554   3.218
 3449SOL    HW211247   0.063   6.419   3.248
 3450SOL     OW11248   1.024   1.480   1.630
 3450SOL    HW111249   1.052   1.416   1.559
 3450SOL    HW211250   1.069   1.568   1.615
 3451SOL     OW11251   0.857   5.833   3.982
 3451SOL    HW111252   0.834   5.914   4.037
 3451SOL    HW211253   0.930   5.782   4.028
 3452SOL     OW11254   5.956   1.258   0.546
 3452SOL    HW111255   6.029   1.216   0.492
 3452SOL    HW211256   5.896   1.310   0.486
 3453SOL     OW11257   5.544   5.560   4.898
 3453SOL    HW111258   5.504   5.534   4.986
 3453SOL    HW211259   5.564   5.658   4.898
 3454SOL     OW11260   0.873   0.779   0.634
 3454SOL    HW111261   0.831   0.695   0.599
 3454SOL    HW211262   0.878   0.775   0.733
 3455SOL     OW11263   2.040   2.436   4.360
 3455SOL    HW111264   2.102   2.458   4.436
 3455SOL    HW211265   1.981   2.514   4.341
 3456SOL     OW11266   5.569   6.853   1.527
 3456SOL    HW111267   5.518   6.884   1.447
 3456SOL    HW211268   5.658   6.900   1.530
 3457SOL     OW11269   2.454   4.716   3.360
 3457SOL    HW111270   2.468   4.809   3.394
 3457SOL    HW211271   2.537   4.663   3.375
 3458SOL     OW11272   5.489   6.709   0.460
 3458SOL    HW111273   5.411   6.763   0.428
 3458SOL    HW211274   5.530   6.660   0.382
 3459SOL     OW11275   0.479   5.199   3.856
 3459SOL    HW111276   0.508   5.288   3.822
 3459SOL    HW211277   0.424   5.153   3.786
 3460SOL     OW11278   4.571   2.954   6.782
 3460SOL    HW111279   4.608   2.926   6.870
 3460SOL    HW211280   4.524   3.042   6.792
 3461SOL     OW11281   3.825   6.048   3.688
 3461SOL    HW111282   3.910   6.072   3.735
 3461SOL    HW211283   3.810   6.112   3.613
 3462SOL     OW11284   4.928   3.415   3.025
 3462SOL    HW111285   4.895   3.498   3.071
 3462SOL    HW211286   4.977   3.440   2.942
 3463SOL     OW11287   2.215   3.013   1.318
 3463SOL    HW111288   2.282   3.065   1.372
 3463SOL    HW211289   2.135   2.994   1.375
 3464SOL     OW11290   5.045   3.155   6.368
 3464SOL    HW111291   5.141   3.131   6.350
 3464SOL    HW211292   5.013   3.105   6.449
 3465SOL     OW11293   1.962   3.548   1.905
 3465SOL    HW111294   2.037   3.507   1.958
 3465SOL    HW211295   2.000   3.597   1.827
 3466SOL     OW11296   6.297   4.976   4.606
 3466SOL    HW111297   6.373   5.034   4.576
 3466SOL    HW211298   6.256   4.931   4.526
 3467SOL     OW11299   2.660   2.594   1.004
 3467SOL    HW111300   2.604   2.577   1.085
 3467SOL    HW211301   2.744   2.641   1.031
 3468SOL     OW11302   4.527   1.499   1.321
 3468SOL    HW111303   4.505   1.595   1.306
 3468SOL    HW211304   4.615   1.478   1.280
 3469SOL     OW11305   4.481   6.651   5.317
 3469SOL    HW111306   4.419   6.678   5.391
 3469SOL    HW211307   4.570   6.695   5.330
 3470SOL     OW11308   0.361   2.651   2.207
 3470SOL    HW111309   0.303   2.730   2.229
 3470SOL    HW211310   0.446   2.683   2.165
 3471SOL     OW11311   4.713   4.163   2.923
 3471SOL    HW111312   4.766   4.217   2.989
 3471SOL    HW211313   4.615   4.173   2.943
 3472SOL     OW11314   4.564   1.993   3.452
 3472SOL    HW111315   4.519   2.009   3.541
 3472SOL    HW211316   4.661   2.017   3.459
 3473SOL     OW11317   6.748   3.949   3.172
 3473SOL    HW111318   6.785   3.899   3.094
 3473SOL    HW211319   6.670   3.900   3.210
 3474SOL     OW11320   6.351   5.451   4.515
 3474SOL    HW111321   6.415   5.527   4.525
 3474SOL    HW211322   6.315   5.451   4.421
 3475SOL     OW11323   6.785   3.987   4.615
 3475SOL    HW111324   6.800   4.043   4.697
 3475SOL    HW211325   6.848   3.910   4.615
 3476SOL     OW11326   1.442   2.078   3.138
 3476SOL    HW111327   1.345   2.091   3.118
 3476SOL    HW211328   1.465   1.981   3.130
 3477SOL     OW11329   0.603   3.771   1.308
 3477SOL    HW111330   0.584   3.829   1.228
 3477SOL    HW211331   0.697   3.784   1.337
 3478SOL     OW11332   2.505   0.008   0.104
 3478SOL    HW111333   2.555   6.956   0.153
 3478SOL    HW211334   2.504   0.093   0.157
 3479SOL     OW11335   0.476   3.327   4.035
 3479SOL    HW111336   0.528   3.374   3.964
 3479SOL    HW211337   0.517   3.237   4.052
 3480SOL     OW11338   1.188   5.557   0.063
 3480SOL    HW111339   1.102   5.593   0.026
 3480SOL    HW211340   1.177   5.459   0.084
 3481SOL     OW11341   6.468   0.561   6.276
 3481SOL    HW111342   6.402   0.618   6.325
 3481SOL    HW211343   6.424   0.519   6.197
 3482SOL     OW11344   5.995   3.996   4.460
 3482SOL    HW111345   6.092   3.975   4.458
 3482SOL    HW211346   5.973   4.063   4.389
 3483SOL     OW11347   4.660   2.250   3.574
 3483SOL    HW111348   4.638   2.269   3.670
 3483SOL    HW211349   4.650   2.333   3.520
 3484SOL     OW11350   2.100   3.560   6.065
 3484SOL    HW111351   2.037   3.636   6.047
 3484SOL    HW211352   2.194   3.593   6.057
 3485SOL     OW11353   0.108   1.936   5.893
 3485SOL    HW111354   0.166   1.930   5.974
 3485SOL    HW211355   0.105   1.847   5.847
 3486SOL     OW11356   2.216   0.353   4.722
 3486SOL    HW111357   2.151   0.278   4.738
 3486SOL    HW211358   2.262   0.339   4.634
 3487SOL     OW11359   6.009   1.759   6.688
 3487SOL    HW111360   6.007   1.859   6.687
 3487SOL    HW211361   5.965   1.725   6.605
 3488SOL     OW11362   6.071   0.784   4.150
 3488SOL    HW111363   6.139   0.723   4.190
 3488SOL    HW211364   5.999   0.802   4.217
 3489SOL     OW11365   3.314   0.298   0.909
 3489SOL    HW111366   3.382   0.349   0.857
 3489SOL    HW211367   3.279   0.221   0.855
 3490SOL     OW11368   4.287   5.031   0.560
 3490SOL    HW111369   4.371   5.013   0.508
 3490SOL    HW211370   4.218   5.071   0.500
 3491SOL     OW11371   4.702   4.025   0.415
 3491SOL    HW111372   4.662   4.048   0.326
 3491SOL    HW211373   4.651   3.948   0.455
 3492SOL     OW11374   5.901   4.356   2.513
 3492SOL    HW111375   5.871   4.428   2.451
 3492SOL    HW211376   5.988   4.319   2.482
 3493SOL     OW11377   6.209   3.572   4.766
 3493SOL    HW111378   6.243   3.516   4.841
 3493SOL    HW211379   6.177   3.660   4.802
 3494SOL     OW11380   3.753   1.650   2.042
 3494SOL    HW111381   3.759   1.556   2.076
 3494SOL    HW211382   3.698   1.651   1.959
 3495SOL     OW11383   1.499   3.595   1.802
 3495SOL    HW111384   1.548   3.653   1.739
 3495SOL    HW211385   1.523   3.499   1.786
 3496SOL     OW11386   6.554   5.261   1.063
 3496SOL    HW111387   6.596   5.196   1.127
 3496SOL    HW211388   6.506   5.331   1.115
 3497SOL     OW11389   4.151   0.511   2.272
 3497SOL    HW111390   4.158   0.448   2.195
 3497SOL    HW211391   4.086   0.474   2.339
 3498SOL     OW11392   1.931   2.078   1.323
 3498SOL    HW111393   1.854   2.014   1.318
 3498SOL    HW211394   1.927   2.128   1.410
 3499SOL     OW11395   5.814   5.628   5.739
 3499SOL    HW111396   5.820   5.691   5.662
 3499SOL    HW211397   5.754   5.668   5.809
 3500SOL     OW11398   1.621   2.072   3.675
 3500SOL    HW111399   1.523   2.086   3.688
 3500SOL    HW211400   1.667   2.072   3.763
 3501SOL     OW11401   1.968   0.193   6.180
 3501SOL    HW111402   1.959   0.135   6.099
 3501SOL    HW211403   2.064   0.211   6.197
 3502SOL     OW11404   5.084   3.838   1.658
 3502SOL    HW111405   5.099   3.896   1.577
 3502SOL    HW211406   5.171   3.801   1.689
 3503SOL     OW11407   6.766   6.153   6.339
 3503SOL    HW111408   6.769   6.235   6.396
 3503SOL    HW211409   6.829   6.163   6.261
 3504SOL     OW11410   1.443   0.660   1.995
 3504SOL    HW111411   1.508   0.714   2.049
 3504SOL    HW211412   1.427   0.572   2.039
 3505SOL     OW11413   5.851   5.067   5.741
 3505SOL    HW111414   5.787   5.093   5.813
 3505SOL    HW211415   5.876   4.971   5.751
 3506SOL     OW11416   5.169   4.343   4.214
 3506SOL    HW111417   5.092   4.339   4.150
 3506SOL    HW211418   5.220   4.257   4.210
 3507SOL     OW11419   2.410   0.200   0.403
 3507SOL    HW111420   2.374   0.272   0.462
 3507SOL    HW211421   2.361   0.199   0.317
 3508SOL     OW11422   3.049   2.483   5.366
 3508SOL    HW111423   3.098   2.441   5.289
 3508SOL    HW211424   3.015   2.573   5.338
 3509SOL     OW11425   4.400   5.869   6.771
 3509SOL    HW111426   4.430   5.809   6.846
 3509SOL    HW211427   4.304   5.892   6.784
 3510SOL     OW11428   2.461   0.602   0.996
 3510SOL    HW111429   2.378   0.548   1.010
 3510SOL    HW211430   2.495   0.634   1.084
 3511SOL     OW11431   2.568   4.565   1.300
 3511SOL    HW111432   2.587   4.497   1.370
 3511SOL    HW211433   2.477   4.603   1.313
 3512SOL     OW11434   1.208   4.424   0.118
 3512SOL    HW111435   1.117   4.454   0.147
 3512SOL    HW211436   1.275   4.496   0.137
 3513SOL     OW11437   5.790   2.471   0.313
 3513SOL    HW111438   5.843   2.555   0.317
 3513SOL    HW211439   5.774   2.437   0.406
 3514SOL     OW11440   4.618   0.803   2.735
 3514SOL    HW111441   4.619   0.704   2.739
 3514SOL    HW211442   4.588   0.840   2.823
 3515SOL     OW11443   5.793   6.119   4.849
 3515SOL    HW111444   5.850   6.085   4.924
 3515SOL    HW211445   5.833   6.204   4.813
 3516SOL     OW11446   5.170   0.274   1.116
 3516SOL    HW111447   5.202   0.300   1.025
 3516SOL    HW211448   5.228   0.317   1.185
 3517SOL     OW11449   6.616   1.522   0.308
 3517SOL    HW111450   6.663   1.455   0.251
 3517SOL    HW211451   6.525   1.542   0.270
 3518SOL     OW11452   5.778   1.608   5.068
 3518SOL    HW111453   5.801   1.527   5.122
 3518SOL    HW211454   5.729   1.580   4.985
 3519SOL     OW11455   3.254   0.808   0.662
 3519SOL    HW111456   3.341   0.761   0.645
 3519SOL    HW211457   3.252   0.841   0.756
 3520SOL     OW11458   3.286   5.648   4.964
 3520SOL    HW111459   3.196   5.622   4.999
 3520SOL    HW211460   3.276   5.710   4.887
 3521SOL     OW11461   2.940   3.126   6.739
 3521SOL    HW111462   2.897   3.054   6.795
 3521SOL    HW211463   3.026   3.153   6.782
 3522SOL     OW11464   6.902   5.471   0.124
 3522SOL    HW111465   6.906   5.403   0.050
 3522SOL    HW211466   6.807   5.479   0.156
 3523SOL     OW11467   0.917   5.305   5.854
 3523SOL    HW111468   0.840   5.243   5.849
 3523SOL    HW211469   0.953   5.307   5.947
 3524SOL     OW11470   6.326   1.781   2.948
 3524SOL    HW111471   6.341   1.712   3.019
 3524SOL    HW211472   6.415   1.816   2.917
 3525SOL     OW11473   6.111   4.678   3.773
 3525SOL    HW111474   6.208   4.681   3.797
 3525SOL    HW211475   6.056   4.686   3.856
 3526SOL     OW11476   1.043   5.758   3.491
 3526SOL    HW111477   1.029   5.830   3.423
 3526SOL    HW211478   1.019   5.793   3.582
 3527SOL     OW11479   6.960   3.009   6.073
 3527SOL    HW111480   6.875   3.063   6.069
 3527SOL    HW211481   0.018   3.065   6.040
 3528SOL     OW11482   2.659   6.417   5.393
 3528SOL    HW111483   2.753   6.428   5.427
 3528SOL    HW211484   2.659   6.429   5.293
 3529SOL     OW11485   5.123   5.704   6.749
 3529SOL    HW111486   5.096   5.658   6.664
 3529SOL    HW211487   5.209   5.753   6.735
 3530SOL     OW11488   0.182   6.449   1.851
 3530SOL    HW111489   0.136   6.519   1.906
 3530SOL    HW211490   0.250   6.403   1.907
 3531SOL     OW11491   4.632   1.485   1.714
 3531SOL    HW111492   4.699   1.424   1.673
 3531SOL    HW211493   4.566   1.431   1.767
 3532SOL     OW11494   2.442   1.154   2.474
 3532SOL    HW111495   2.397   1.131   2.388
 3532SOL    HW211496   2.375   1.195   2.536
 3533SOL     OW11497   6.647   1.330   2.129
 3533SOL    HW111498   6.571   1.268   2.111
 3533SOL    HW211499   6.732   1.277   2.136
 3534SOL     OW11500   0.259   1.996   1.682
 3534SOL    HW111501   0.339   1.940   1.659
 3534SOL    HW211502   0.276   2.091   1.654
 3535SOL     OW11503   2.725   5.269   4.979
 3535SOL    HW111504   2.729   5.183   4.927
 3535SOL    HW211505   2.809   5.280   5.032
 3536SOL     OW11506   3.145   2.046   2.482
 3536SOL    HW111507   3.155   1.966   2.422
 3536SOL    HW211508   3.093   2.117   2.434
 3537SOL     OW11509   1.655   5.804   2.790
 3537SOL    HW111510   1.711   5.765   2.864
 3537SOL    HW211511   1.609   5.729   2.741
 3538SOL     OW11512   3.103   5.318   4.902
 3538SOL    HW111513   3.032   5.333   4.970
 3538SOL    HW211514   3.188   5.363   4.931
 3539SOL     OW11515   4.050   3.904   4.352
 3539SOL    HW111516   4.105   3.973   4.304
 3539SOL    HW211517   4.036   3.933   4.447
 3540SOL     OW11518   2.126   1.959   4.155
 3540SOL    HW111519   2.090   1.866   4.161
 3540SOL    HW211520   2.067   2.014   4.096
 3541SOL     OW11521   3.090   3.604   5.171
 3541SOL    HW111522   3.009   3.553   5.141
 3541SOL    HW211523   3.132   3.648   5.092
 3542SOL     OW11524   1.429   4.686   2.523
 3542SOL    HW111525   1.463   4.600   2.487
 3542SOL    HW211526   1.367   4.669   2.600
 3543SOL     OW11527   5.539   2.693   4.139
 3543SOL    HW111528   5.502   2.628   4.206
 3543SOL    HW211529   5.482   2.693   4.057
 3544SOL     OW11530   2.106   4.467   6.110
 3544SOL    HW111531   2.160   4.512   6.182
 3544SOL    HW211532   2.072   4.379   6.143
 3545SOL     OW11533   4.408   5.723   6.135
 3545SOL    HW111534   4.408   5.742   6.233
 3545SOL    HW211535   4.339   5.653   6.115
 3546SOL     OW11536   6.732   5.820   3.264
 3546SOL    HW111537   6.773   5.788   3.349
 3546SOL    HW211538   6.675   5.747   3.226
 3547SOL     OW11539   4.656   5.157   4.589
 3547SOL    HW111540   4.671   5.060   4.573
 3547SOL    HW211541   4.744   5.205   4.592
 3548SOL     OW11542   4.952   2.913   5.387
 3548SOL    HW111543   5.046   2.946   5.383
 3548SOL    HW211544   4.942   2.844   5.458
 3549SOL     OW11545   6.162   4.661   3.049
 3549SOL    HW111546   6.262   4.653   3.046
 3549SOL    HW211547   6.136   4.734   3.112
 3550SOL     OW11548   5.095   2.003   2.904
 3550SOL    HW111549   5.129   1.983   2.812
 3550SOL    HW211550   5.049   2.092   2.903
 3551SOL     OW11551   3.054   6.766   2.742
 3551SOL    HW111552   3.085   6.758   2.647
 3551SOL    HW211553   3.131   6.792   2.800
 3552SOL     OW11554   5.527   6.074   2.964
 3552SOL    HW111555   5.627   6.066   2.962
 3552SOL    HW211556   5.500   6.150   3.022
 3553SOL     OW11557   5.343   2.277   2.390
 3553SOL    HW111558   5.269   2.312   2.332
 3553SOL    HW211559   5.431   2.309   2.354
 3554SOL     OW11560   4.027   4.749   6.788
 3554SOL    HW111561   4.025   4.812   6.865
 3554SOL    HW211562   4.045   4.656   6.820
 3555SOL     OW11563   1.119   2.921   3.232
 3555SOL    HW111564   1.203   2.882   3.270
 3555SOL    HW211565   1.099   2.877   3.144
 3556SOL     OW11566   3.012   0.628   5.613
 3556SOL    HW111567   3.053   0.597   5.528
 3556SOL    HW211568   3.060   0.586   5.690
 3557SOL     OW11569   1.918   0.361   4.480
 3557SOL    HW111570   1.922   0.309   4.566
 3557SOL    HW211571   1.986   0.326   4.416
 3558SOL     OW11572   7.018   6.216   2.072
 3558SOL    HW111573   0.035   6.250   1.985
 3558SOL    HW211574   0.019   6.118   2.080
 3559SOL     OW11575   0.623   1.325   4.766
 3559SOL    HW111576   0.565   1.406   4.759
 3559SOL    HW211577   0.676   1.329   4.850
 3560SOL     OW11578   0.565   5.813   1.549
 3560SOL    HW111579   0.590   5.755   1.472
 3560SOL    HW211580   0.634   5.885   1.561
 3561SOL     OW11581   5.140   4.715   5.574
 3561SOL    HW111582   5.091   4.628   5.567
 3561SOL    HW211583   5.184   4.721   5.663
 3562SOL     OW11584   5.594   0.456   3.479
 3562SOL    HW111585   5.526   0.409   3.423
 3562SOL    HW211586   5.686   0.423   3.456
 3563SOL     OW11587   5.001   0.900   1.211
 3563SOL    HW111588   5.016   0.941   1.301
 3563SOL    HW211589   5.032   0.963   1.140
 3564SOL     OW11590   0.044   4.397   4.324
 3564SOL    HW111591   6.987   4.459   4.299
 3564SOL    HW211592   0.117   4.406   4.257
 3565SOL     OW11593   2.789   0.653   4.753
 3565SOL    HW111594   2.800   0.613   4.843
 3565SOL    HW211595   2.805   0.584   4.683
 3566SOL     OW11596   0.182   3.087   6.238
 3566SOL    HW111597   0.089   3.103   6.270
 3566SOL    HW211598   0.191   3.122   6.144
 3567SOL     OW11599   0.045   3.247   0.658
 3567SOL    HW111600   0.137   3.220   0.686
 3567SOL    HW211601   7.006   3.261   0.739
 3568SOL     OW11602   4.481   4.475   3.497
 3568SOL    HW111603   4.539   4.547   3.535
 3568SOL    HW211604   4.525   4.387   3.511
 3569SOL     OW11605   3.303   4.017   4.451
 3569SOL    HW111606   3.263   4.075   4.522
 3569SOL    HW211607   3.392   3.984   4.481
 3570SOL     OW11608   0.132   1.556   6.189
 3570SOL    HW111609   0.043   1.526   6.155
 3570SOL    HW211610   0.129   1.561   6.289
 3571SOL     OW11611   2.291   6.564   5.395
 3571SOL    HW111612   2.315   6.556   5.298
 3571SOL    HW211613   2.277   6.660   5.418
 3572SOL     OW11614   5.111   4.592   1.597
 3572SOL    HW111615   5.081   4.507   1.555
 3572SOL    HW211616   5.187   4.573   1.660
 3573SOL     OW11617   6.752   3.642   2.631
 3573SOL    HW111618   6.775   3.669   2.538
 3573SOL    HW211619   6.663   3.681   2.656
 3574SOL     OW11620   2.781   2.979   6.036
 3574SOL    HW111621   2.774   3.055   6.101
 3574SOL    HW211622   2.760   3.012   5.944
 3575SOL     OW11623   5.468   7.003   6.979
 3575SOL    HW111624   5.371   6.992   6.958
 3575SOL    HW211625   5.488   0.082   6.993
 3576SOL     OW11626   0.995   3.084   6.842
 3576SOL    HW111627   1.019   3.065   6.937
 3576SOL    HW211628   1.007   3.182   6.824
 3577SOL     OW11629   2.701   2.513   5.432
 3577SOL    HW111630   2.759   2.443   5.473
 3577SOL    HW211631   2.619   2.525   5.488
 3578SOL     OW11632   3.276   3.079   6.712
 3578SOL    HW111633   3.283   2.988   6.671
 3578SOL    HW211634   3.361   3.129   6.695
 3579SOL     OW11635   0.419   3.229   2.670
 3579SOL    HW111636   0.364   3.232   2.587
 3579SOL    HW211637   0.508   3.270   2.653
 3580SOL     OW11638   0.319   3.793   1.650
 3580SOL    HW111639   0.237   3.831   1.693
 3580SOL    HW211640   0.294   3.714   1.594
 3581SOL     OW11641   0.646   0.305   2.630
 3581SOL    HW111642   0.603   0.389   2.597
 3581SOL    HW211643   0.632   0.231   2.564
 3582SOL     OW11644   3.687   3.999   6.073
 3582SOL    HW111645   3.690   3.948   5.987
 3582SOL    HW211646   3.621   4.073   6.066
 3583SOL     OW11647   0.706   4.960   0.800
 3583SOL    HW111648   0.613   4.975   0.834
 3583SOL    HW211649   0.755   4.899   0.862
 3584SOL     OW11650   5.692   4.508   4.520
 3584SOL    HW111651   5.692   4.529   4.422
 3584SOL    HW211652   5.621   4.563   4.565
 3585SOL     OW11653   2.565   1.856   3.362
 3585SOL    HW111654   2.479   1.898   3.331
 3585SOL    HW211655   2.609   1.916   3.429
 3586SOL     OW11656   6.441   2.641   4.605
 3586SOL    HW111657   6.505   2.715   4.586
 3586SOL    HW211658   6.401   2.609   4.519
 3587SOL     OW11659   3.278   6.709   6.331
 3587SOL    HW111660   3.215   6.757   6.392
 3587SOL    HW211661   3.225   6.654   6.266
 3588SOL     OW11662   6.569   4.005   4.411
 3588SOL    HW111663   6.629   4.014   4.490
 3588SOL    HW211664   6.527   3.914   4.410
 3589SOL     OW11665   0.230   0.107   6.280
 3589SOL    HW111666   0.147   0.156   6.307
 3589SOL    HW211667   0.268   0.059   6.359
 3590SOL     OW11668   6.887   4.844   0.660
 3590SOL    HW111669   6.956   4.772   0.658
 3590SOL    HW211670   6.814   4.822   0.596
 3591SOL     OW11671   5.488   2.360   6.848
 3591SOL    HW111672   5.492   2.353   6.748
 3591SOL    HW211673   5.537   2.442   6.877
 3592SOL     OW11674   1.581   6.902   1.744
 3592SOL    HW111675   1.661   6.963   1.747
 3592SOL    HW211676   1.564   6.874   1.650
 3593SOL     OW11677   5.036   3.231   6.098
 3593SOL    HW111678   5.073   3.164   6.034
 3593SOL    HW211679   5.059   3.204   6.192
 3594SOL     OW11680   4.366   5.145   4.547
 3594SOL    HW111681   4.460   5.171   4.522
 3594SOL    HW211682   4.365   5.051   4.579
 3595SOL     OW11683   5.524   6.242   5.891
 3595SOL    HW111684   5.550   6.187   5.812
 3595SOL    HW211685   5.432   6.278   5.878
 3596SOL     OW11686   3.946   1.634   3.742
 3596SOL    HW111687   3.974   1.676   3.656
 3596SOL    HW211688   3.849   1.611   3.738
 3597SOL     OW11689   2.152   3.350   5.179
 3597SOL    HW111690   2.187   3.257   5.183
 3597SOL    HW211691   2.206   3.408   5.240
 3598SOL     OW11692   1.557   5.171   4.719
 3598SOL    HW111693   1.574   5.085   4.767
 3598SOL    HW211694   1.504   5.232   4.779
 3599SOL     OW11695   4.513   1.468   4.922
 3599SOL    HW111696   4.581   1.532   4.887
 3599SOL    HW211697   4.533   1.448   5.018
 3600SOL     OW11698   3.456   3.266   0.576
 3600SOL    HW111699   3.532   3.311   0.624
 3600SOL    HW211700   3.389   3.335   0.549
 3601SOL     OW11701   5.283   0.891   5.308
 3601SOL    HW111702   5.187   0.866   5.322
 3601SOL    HW211703   5.289   0.988   5.284
 3602SOL     OW11704   2.091   2.266   1.219
 3602SOL    HW111705   2.186   2.240   1.202
 3602SOL    HW211706   2.040   2.187   1.252
 3603SOL     OW11707   2.855   1.126   5.928
 3603SOL    HW111708   2.944   1.090   5.955
 3603SOL    HW211709   2.836   1.100   5.834
 3604SOL     OW11710   6.788   0.653   3.745
 3604SOL    HW111711   6.707   0.711   3.729
 3604SOL    HW211712   6.838   0.687   3.824
 3605SOL     OW11713   0.805   5.582   3.652
 3605SOL    HW111714   0.831   5.677   3.637
 3605SOL    HW211715   0.770   5.572   3.745
 3606SOL     OW11716   2.527   6.372   1.978
 3606SOL    HW111717   2.460   6.329   1.917
 3606SOL    HW211718   2.569   6.450   1.933
 3607SOL     OW11719   5.103   2.811   3.065
 3607SOL    HW111720   5.119   2.793   3.162
 3607SOL    HW211721   5.038   2.744   3.029
 3608SOL     OW11722   3.015   2.029   5.079
 3608SOL    HW111723   3.038   2.003   5.172
 3608SOL    HW211724   3.054   2.118   5.058
 3609SOL     OW11725   2.398   0.048   4.395
 3609SOL    HW111726   2.462   7.002   4.438
 3609SOL    HW211727   2.393   0.029   4.297
 3610SOL     OW11728   2.590   6.763   4.835
 3610SOL    HW111729   2.513   6.699   4.827
 3610SOL    HW211730   2.561   6.854   4.804
 3611SOL     OW11731   5.279   4.831   3.059
 3611SOL    HW111732   5.194   4.810   3.011
 3611SOL    HW211733   5.304   4.754   3.118
 3612SOL     OW11734   6.184   1.523   6.452
 3612SOL    HW111735   6.261   1.474   6.492
 3612SOL    HW211736   6.098   1.490   6.492
 3613SOL     OW11737   4.009   5.438   1.304
 3613SOL    HW111738   3.924   5.489   1.289
 3613SOL    HW211739   4.018   5.367   1.235
 3614SOL     OW11740   4.036   4.637   6.512
 3614SOL    HW111741   4.056   4.711   6.576
 3614SOL    HW211742   3.982   4.672   6.436
 3615SOL     OW11743   5.858   2.378   5.566
 3615SOL    HW111744   5.765   2.413   5.553
 3615SOL    HW211745   5.870   2.350   5.661
 3616SOL     OW11746   1.413   1.784   6.886
 3616SOL    HW111747   1.350   1.842   6.835
 3616SOL    HW211748   1.494   1.838   6.910
 3617SOL     OW11749   3.423   6.322   6.417
 3617SOL    HW111750   3.427   6.420   6.438
 3617SOL    HW211751   3.503   6.297   6.363
 3618SOL     OW11752   2.154   4.428   4.670
 3618SOL    HW111753   2.116   4.398   4.582
 3618SOL    HW211754   2.184   4.348   4.723
 3619SOL     OW11755   5.875   2.963   1.193
 3619SOL    HW111756   5.971   2.989   1.203
 3619SOL    HW211757   5.837   2.941   1.283
 3620SOL     OW11758   6.029   6.255   5.031
 3620SOL    HW111759   5.954   6.318   5.051
 3620SOL    HW211760   6.070   6.224   5.117
 3621SOL     OW11761   2.920   3.469   3.633
 3621SOL    HW111762   2.958   3.381   3.605
 3621SOL    HW211763   2.894   3.521   3.551
 3622SOL     OW11764   0.932   6.589   0.057
 3622SOL    HW111765   0.930   6.688   0.045
 3622SOL    HW211766   0.839   6.554   0.069
 3623SOL     OW11767   0.891   4.792   6.481
 3623SOL    HW111768   0.921   4.705   6.520
 3623SOL    HW211769   0.853   4.777   6.390
 3624SOL     OW11770   3.172   1.412   1.888
 3624SOL    HW111771   3.202   1.507   1.872
 3624SOL    HW211772   3.218   1.352   1.823
 3625SOL     OW11773   6.725   2.507   0.702
 3625SOL    HW111774   6.656   2.435   0.704
 3625SOL    HW211775   6.802   2.481   0.761
 3626SOL     OW11776   1.120   2.305   4.955
 3626SOL    HW111777   1.219   2.313   4.936
 3626SOL    HW211778   1.070   2.320   4.870
 3627SOL     OW11779   3.868   2.118   1.763
 3627SOL    HW111780   3.825   2.205   1.734
 3627SOL    HW211781   3.811   2.074   1.832
 3628SOL     OW11782   6.538   1.941   1.753
 3628SOL    HW111783   6.576   1.917   1.842
 3628SOL    HW211784   6.469   1.873   1.726
 3629SOL     OW11785   1.520   1.628   4.439
 3629SOL    HW111786   1.479   1.719   4.435
 3629SOL    HW211787   1.493   1.583   4.523
 3630SOL     OW11788   6.910   2.376   3.434
 3630SOL    HW111789   6.902   2.281   3.463
 3630SOL    HW211790   6.830   2.401   3.380
 3631SOL     OW11791   1.875   6.667   2.518
 3631SOL    HW111792   1.846   6.595   2.455
 3631SOL    HW211793   1.832   6.654   2.607
 3632SOL     OW11794   4.707   4.135   0.774
 3632SOL    HW111795   4.725   4.184   0.860
 3632SOL    HW211796   4.747   4.186   0.698
 3633SOL     OW11797   3.526   3.137   6.553
 3633SOL    HW111798   3.523   3.043   6.520
 3633SOL    HW211799   3.517   3.200   6.475
 3634SOL     OW11800   3.472   5.643   6.933
 3634SOL    HW111801   3.468   5.743   6.928
 3634SOL    HW211802   3.390   5.609   6.978
 3635SOL     OW11803   2.525   6.982   1.364
 3635SOL    HW111804   2.455   7.009   1.298
 3635SOL    HW211805   2.483   6.926   1.436
 3636SOL     OW11806   1.131   4.887   6.891
 3636SOL    HW111807   1.137   4.791   6.918
 3636SOL    HW211808   1.128   4.894   6.792
 3637SOL     OW11809   6.533   3.101   6.947
 3637SOL    HW111810   6.622   3.136   6.918
 3637SOL    HW211811   6.516   3.128   0.023
 3638SOL     OW11812   5.723   4.660   2.900
 3638SOL    HW111813   5.776   4.607   2.966
 3638SOL    HW211814   5.736   4.623   2.809
 3639SOL     OW11815   3.672   3.527   4.148
 3639SOL    HW111816   3.749   3.583   4.179
 3639SOL    HW211817   3.587   3.566   4.183
 3640SOL     OW11818   5.307   2.295   0.586
 3640SOL    HW111819   5.310   2.324   0.490
 3640SOL    HW211820   5.217   2.315   0.624
 3641SOL     OW11821   5.977   3.506   2.397
 3641SOL    HW111822   5.882   3.475   2.391
 3641SOL    HW211823   5.989   3.588   2.340
 3642SOL     OW11824   5.980   3.109   6.178
 3642SOL    HW111825   6.026   3.076   6.096
 3642SOL    HW211826   5.969   3.208   6.174
 3643SOL     OW11827   3.969   5.628   5.403
 3643SOL    HW111828   4.043   5.599   5.342
 3643SOL    HW211829   3.881   5.608   5.360
 3644SOL     OW11830   2.650   0.887   1.560
 3644SOL    HW111831   2.691   0.816   1.503
 3644SOL    HW211832   2.598   0.844   1.634
 3645SOL     OW11833   1.241   4.378   3.447
 3645SOL    HW111834   1.269   4.474   3.453
 3645SOL    HW211835   1.292   4.334   3.373
 3646SOL     OW11836   2.098   4.528   4.952
 3646SOL    HW111837   2.055   4.439   4.966
 3646SOL    HW211838   2.193   4.514   4.923
 3647SOL     OW11839   3.464   0.030   6.799
 3647SOL    HW111840   3.547   6.996   6.820
 3647SOL    HW211841   3.485   0.128   6.802
 3648SOL     OW11842   4.343   5.461   3.468
 3648SOL    HW111843   4.363   5.548   3.512
 3648SOL    HW211844   4.280   5.476   3.392
 3649SOL     OW11845   5.848   2.717   0.016
 3649SOL    HW111846   5.860   2.619   0.009
 3649SOL    HW211847   5.895   2.751   0.098
 3650SOL     OW11848   5.356   5.586   0.135
 3650SOL    HW111849   5.317   5.678   0.133
 3650SOL    HW211850   5.292   5.522   0.094
 3651SOL     OW11851   1.090   2.060   5.666
 3651SOL    HW111852   1.125   2.065   5.759
 3651SOL    HW211853   1.070   1.965   5.643
 3652SOL     OW11854   4.250   1.438   2.008
 3652SOL    HW111855   4.210   1.407   2.094
 3652SOL    HW211856   4.205   1.392   1.931
 3653SOL     OW11857   0.790   1.297   0.934
 3653SOL    HW111858   0.696   1.319   0.956
 3653SOL    HW211859   0.848   1.311   1.014
 3654SOL     OW11860   5.420   0.025   0.419
 3654SOL    HW111861   5.388   6.971   0.358
 3654SOL    HW211862   5.365   0.024   0.503
 3655SOL     OW11863   1.880   2.215   4.222
 3655SOL    HW111864   1.920   2.188   4.134
 3655SOL    HW211865   1.932   2.292   4.259
 3656SOL     OW11866   6.636   6.922   1.594
 3656SOL    HW111867   6.595   6.831   1.581
 3656SOL    HW211868   6.720   6.913   1.648
 3657SOL     OW11869   5.030   5.906   4.989
 3657SOL    HW111870   5.098   5.972   4.955
 3657SOL    HW211871   5.001   5.846   4.914
 3658SOL     OW11872   1.792   4.823   5.794
 3658SOL    HW111873   1.859   4.815   5.720
 3658SOL    HW211874   1.804   4.910   5.841
 3659SOL     OW11875   6.967   1.958   6.236
 3659SOL    HW111876   0.043   1.991   6.226
 3659SOL    HW211877   6.906   2.016   6.184
 3660SOL     OW11878   5.832   5.588   6.801
 3660SOL    HW111879   5.843   5.604   6.703
 3660SOL    HW211880   5.741   5.619   6.830
 3661SOL     OW11881   0.163   2.038   5.061
 3661SOL    HW111882   0.097   1.980   5.014
 3661SOL    HW211883   0.115   2.100   5.124
 3662SOL     OW11884   2.962   1.786   5.924
 3662SOL    HW111885   2.890   1.855   5.920
 3662SOL    HW211886   2.922   1.698   5.950
 3663SOL     OW11887   2.796   2.195   6.640
 3663SOL    HW111888   2.754   2.205   6.730
 3663SOL    HW211889   2.872   2.131   6.646
 3664SOL     OW11890   4.040   1.287   1.880
 3664SOL    HW111891   4.002   1.364   1.829
 3664SOL    HW211892   3.992   1.203   1.854
 3665SOL     OW11893   1.007   5.744   5.912
 3665SOL    HW111894   0.981   5.655   5.877
 3665SOL    HW211895   0.967   5.816   5.856
 3666SOL     OW11896   2.086   2.645   4.558
 3666SOL    HW111897   2.002   2.698   4.543
 3666SOL    HW211898   2.164   2.707   4.565
 3667SOL     OW11899   1.833   0.295   1.645
 3667SOL    HW111900   1.838   0.235   1.565
 3667SOL    HW211901   1.851   0.242   1.728
 3668SOL     OW11902   0.493   1.261   1.833
 3668SOL    HW111903   0.403   1.285   1.871
 3668SOL    HW211904   0.523   1.174   1.871
 3669SOL     OW11905   0.514   1.383   3.427
 3669SOL    HW111906   0.463   1.358   3.509
 3669SOL    HW211907   0.538   1.300   3.376
 3670SOL     OW11908   3.010   5.987   1.880
 3670SOL    HW111909   2.921   6.032   1.871
 3670SOL    HW211910   3.038   5.989   1.976
 3671SOL     OW11911   6.234   0.570   3.923
 3671SOL    HW111912   6.166   0.556   3.851
 3671SOL    HW211913   6.307   0.502   3.914
 3672SOL     OW11914   3.983   6.700   2.728
 3672SOL    HW111915   3.914   6.757   2.772
 3672SOL    HW211916   3.962   6.691   2.631
 3673SOL     OW11917   3.707   5.924   1.081
 3673SOL    HW111918   3.625   5.959   1.126
 3673SOL    HW211919   3.722   5.975   0.996
 3674SOL     OW11920   1.351   4.829   5.988
 3674SOL    HW111921   1.360   4.730   5.985
 3674SOL    HW211922   1.442   4.871   5.983
 3675SOL     OW11923   1.542   0.718   4.188
 3675SOL    HW111924   1.465   0.738   4.126
 3675SOL    HW211925   1.538   0.778   4.267
 3676SOL     OW11926   4.103   1.967   4.283
 3676SOL    HW111927   4.193   2.005   4.260
 3676SOL    HW211928   4.113   1.899   4.355
 3677SOL     OW11929   2.330   0.570   3.799
 3677SOL    HW111930   2.291   0.478   3.801
 3677SOL    HW211931   2.257   0.637   3.787
 3678SOL     OW11932   1.039   0.964   3.740
 3678SOL    HW111933   1.095   1.039   3.774
 3678SOL    HW211934   1.098   0.889   3.710
 3679SOL     OW11935   4.386   0.662   2.316
 3679SOL    HW111936   4.300   0.611   2.323
 3679SOL    HW211937   4.462   0.599   2.300
 3680SOL     OW11938   3.499   1.249   4.492
 3680SOL    HW111939   3.499   1.262   4.591
 3680SOL    HW211940   3.410   1.274   4.455
 3681SOL     OW11941   1.719   6.255   4.618
 3681SOL    HW111942   1.817   6.235   4.625
 3681SOL    HW211943   1.668   6.180   4.660
 3682SOL     OW11944   5.426   1.460   1.632
 3682SOL    HW111945   5.454   1.507   1.716
 3682SOL    HW211946   5.329   1.440   1.636
 3683SOL     OW11947   5.762   1.526   5.816
 3683SOL    HW111948   5.735   1.621   5.826
 3683SOL    HW211949   5.862   1.519   5.816
 3684SOL     OW11950   1.935   6.591   5.798
 3684SOL    HW111951   2.011   6.607   5.735
 3684SOL    HW211952   1.963   6.526   5.868
 3685SOL     OW11953   2.170   6.305   5.374
 3685SOL    HW111954   2.244   6.241   5.355
 3685SOL    HW211955   2.207   6.397   5.384
 3686SOL     OW11956   0.506   3.901   2.833
 3686SOL    HW111957   0.507   3.829   2.763
 3686SOL    HW211958   0.599   3.934   2.848
 3687SOL     OW11959   5.571   5.694   4.368
 3687SOL    HW111960   5.496   5.641   4.330
 3687SOL    HW211961   5.569   5.787   4.331
 3688SOL     OW11962   6.008   2.508   0.546
 3688SOL    HW111963   6.095   2.468   0.576
 3688SOL    HW211964   5.936   2.478   0.607
 3689SOL     OW11965   1.382   6.581   5.613
 3689SOL    HW111966   1.471   6.603   5.572
 3689SOL    HW211967   1.376   6.620   5.704
 3690SOL     OW11968   5.066   5.547   1.478
 3690SOL    HW111969   5.057   5.602   1.396
 3690SOL    HW211970   5.162   5.524   1.493
 3691SOL     OW11971   1.591   2.905   0.790
 3691SOL    HW111972   1.648   2.840   0.739
 3691SOL    HW211973   1.495   2.886   0.773
 3692SOL     OW11974   0.950   3.259   5.748
 3692SOL    HW111975   0.996   3.347   5.738
 3692SOL    HW211976   0.943   3.236   5.845
 3693SOL     OW11977   6.472   0.895   2.126
 3693SOL    HW111978   6.401   0.856   2.184
 3693SOL    HW211979   6.514   0.822   2.072
 3694SOL     OW11980   6.607   0.550   2.870
 3694SOL    HW111981   6.507   0.555   2.875
 3694SOL    HW211982   6.634   0.462   2.830
 3695SOL     OW11983   5.807   3.219   2.985
 3695SOL    HW111984   5.883   3.159   2.960
 3695SOL    HW211985   5.722   3.165   2.989
 3696SOL     OW11986   4.164   0.589   4.441
 3696SOL    HW111987   4.139   0.630   4.354
 3696SOL    HW211988   4.257   0.615   4.466
 3697SOL     OW11989   0.190   6.369   3.125
 3697SOL    HW111990   0.265   6.309   3.150
 3697SOL    HW211991   0.146   6.334   3.042
 3698SOL     OW11992   1.692   0.251   3.167
 3698SOL    HW111993   1.664   0.156   3.185
 3698SOL    HW211994   1.627   0.313   3.210
 3699SOL     OW11995   2.626   2.497   3.508
 3699SOL    HW111996   2.683   2.458   3.435
 3699SOL    HW211997   2.648   2.452   3.594
 3700SOL     OW11998   0.990   5.324   4.250
 3700SOL    HW111999   0.899   5.283   4.247
 3700SOL    HW212000   0.981   5.423   4.263
 3701SOL     OW12001   1.377   0.461   2.168
 3701SOL    HW112002   1.280   0.451   2.150
 3701SOL    HW212003   1.392   0.470   2.267
 3702SOL     OW12004   5.312   4.605   3.187
 3702SOL    HW112005   5.356   4.540   3.125
 3702SOL    HW212006   5.314   4.568   3.280
 3703SOL     OW12007   1.178   1.377   4.284
 3703SOL    HW112008   1.153   1.470   4.257
 3703SOL    HW212009   1.167   1.368   4.383
 3704SOL     OW12010   6.372   2.431   0.771
 3704SOL    HW112011   6.409   2.441   0.863
 3704SOL    HW212012   6.280   2.392   0.775
 3705SOL     OW12013   5.069   4.838   2.834
 3705SOL    HW112014   5.052   4.914   2.772
 3705SOL    HW212015   4.982   4.806   2.873
 3706SOL     OW12016   0.450   3.978   0.160
 3706SOL    HW112017   0.518   3.911   0.188
 3706SOL    HW212018   0.483   4.028   0.080
 3707SOL     OW12019   1.383   4.733   3.580
 3707SOL    HW112020   1.311   4.671   3.609
 3707SOL    HW212021   1.470   4.684   3.577
 3708SOL     OW12022   2.835   6.662   0.919
 3708SOL    HW112023   2.839   6.608   1.003
 3708SOL    HW212024   2.747   6.646   0.874
 3709SOL     OW12025   1.778   1.493   2.241
 3709SOL    HW112026   1.841   1.462   2.313
 3709SOL    HW212027   1.731   1.576   2.271
 3710SOL     OW12028   0.353   4.515   5.328
 3710SOL    HW112029   0.294   4.571   5.386
 3710SOL    HW212030   0.420   4.574   5.282
 3711SOL     OW12031   1.471   5.527   4.472
 3711SOL    HW112032   1.528   5.584   4.413
 3711SOL    HW212033   1.516   5.439   4.488
 3712SOL     OW12034   2.048   5.479   4.306
 3712SOL    HW112035   2.011   5.399   4.259
 3712SOL    HW212036   1.982   5.513   4.373
 3713SOL     OW12037   5.682   0.512   4.045
 3713SOL    HW112038   5.652   0.442   3.980
 3713SOL    HW212039   5.782   0.511   4.052
 3714SOL     OW12040   0.416   4.659   0.733
 3714SOL    HW112041   0.460   4.684   0.819
 3714SOL    HW212042   0.407   4.740   0.675
 3715SOL     OW12043   5.438   5.548   3.749
 3715SOL    HW112044   5.473   5.486   3.678
 3715SOL    HW212045   5.382   5.619   3.706
 3716SOL     OW12046   4.990   5.873   4.299
 3716SOL    HW112047   4.994   5.780   4.262
 3716SOL    HW212048   4.965   5.936   4.226
 3717SOL     OW12049   4.421   1.036   0.813
 3717SOL    HW112050   4.437   1.018   0.910
 3717SOL    HW212051   4.455   1.127   0.790
 3718SOL     OW12052   6.661   6.857   5.759
 3718SOL    HW112053   6.683   6.937   5.702
 3718SOL    HW212054   6.672   6.774   5.704
 3719SOL     OW12055   3.585   4.092   0.162
 3719SOL    HW112056   3.620   4.143   0.240
 3719SOL    HW212057   3.502   4.136   0.127
 3720SOL     OW12058   0.351   3.271   1.357
 3720SOL    HW112059   0.375   3.329   1.435
 3720SOL    HW212060   0.369   3.322   1.272
 3721SOL     OW12061   6.561   5.769   5.795
 3721SOL    HW112062   6.555   5.865   5.822
 3721SOL    HW212063   6.579   5.713   5.876
 3722SOL     OW12064   4.760   6.168   2.829
 3722SOL    HW112065   4.850   6.210   2.821
 3722SOL    HW212066   4.749   6.131   2.922
 3723SOL     OW12067   4.567   3.688   0.164
 3723SOL    HW112068   4.503   3.619   0.129
 3723SOL    HW212069   4.515   3.759   0.212
 3724SOL     OW12070   1.195   4.907   4.677
 3724SOL    HW112071   1.259   4.889   4.751
 3724SOL    HW212072   1.109   4.858   4.694
 3725SOL     OW12073   0.882   5.399   7.013
 3725SOL    HW112074   0.836   5.323   6.969
 3725SOL    HW212075   0.858   5.484   6.966
 3726SOL     OW12076   6.084   3.843   4.816
 3726SOL    HW112077   5.992   3.806   4.829
 3726SOL    HW212078   6.077   3.940   4.792
 3727SOL     OW12079   6.516   3.554   3.951
 3727SOL    HW112080   6.610   3.586   3.937
 3727SOL    HW212081   6.493   3.485   3.883
 3728SOL     OW12082   3.146   2.506   0.228
 3728SOL    HW112083   3.183   2.448   0.300
 3728SOL    HW212084   3.078   2.455   0.176
 3729SOL     OW12085   0.633   0.575   5.487
 3729SOL    HW112086   0.697   0.629   5.434
 3729SOL    HW212087   0.657   0.478   5.479
 3730SOL     OW12088   4.256   5.630   4.021
 3730SOL    HW112089   4.247   5.610   4.118
 3730SOL    HW212090   4.272   5.545   3.970
 3731SOL     OW12091   0.337   2.329   6.806
 3731SOL    HW112092   0.376   2.252   6.756
 3731SOL    HW212093   0.246   2.349   6.771
 3732SOL     OW12094   3.402   2.298   6.532
 3732SOL    HW112095   3.452   2.280   6.617
 3732SOL    HW212096   3.309   2.264   6.540
 3733SOL     OW12097   2.164   0.981   3.989
 3733SOL    HW112098   2.214   0.898   4.015
 3733SOL    HW212099   2.171   1.048   4.063
 3734SOL     OW12100   3.859   6.532   0.804
 3734SOL    HW112101   3.929   6.485   0.858
 3734SOL    HW212102   3.878   6.630   0.803
 3735SOL     OW12103   4.127   0.023   2.732
 3735SOL    HW112104   4.107   0.086   2.657
 3735SOL    HW212105   4.043   6.993   2.757
 3736SOL     OW12106   6.595   0.937   0.744
 3736SOL    HW112107   6.634   1.029   0.753
 3736SOL    HW212108   6.561   0.906   0.833
 3737SOL     OW12109   6.823   2.371   2.802
 3737SOL    HW112110   6.888   2.417   2.864
 3737SOL    HW212111   6.870   2.346   2.718
 3738SOL     OW12112   6.754   6.665   1.259
 3738SOL    HW112113   6.818   6.705   1.325
 3738SOL    HW212114   6.698   6.736   1.218
 3739SOL     OW12115   3.127   3.844   0.416
 3739SOL    HW112116   3.134   3.875   0.511
 3739SOL    HW212117   3.189   3.768   0.401
 3740SOL     OW12118   5.206   5.596   6.069
 3740SOL    HW112119   5.138   5.528   6.041
 3740SOL    HW212120   5.159   5.677   6.104
 3741SOL     OW12121   5.385   3.248   0.489
 3741SOL    HW112122   5.373   3.250   0.390
 3741SOL    HW212123   5.344   3.330   0.529
 3742SOL     OW12124   3.650   5.450   0.363
 3742SOL    HW112125   3.670   5.511   0.439
 3742SOL    HW212126   3.690   5.486   0.279
 3743SOL     OW12127   4.064   3.654   1.524
 3743SOL    HW112128   3.998   3.585   1.494
 3743SOL    HW212129   4.077   3.647   1.623
 3744SOL     OW12130   0.514   0.039   2.086
 3744SOL    HW112131   0.429   0.092   2.088
 3744SOL    HW212132   0.574   0.074   2.015
 3745SOL     OW12133   4.903   3.695   1.988
 3745SOL    HW112134   4.928   3.698   2.085
 3745SOL    HW212135   4.985   3.703   1.932
 3746SOL     OW12136   6.080   0.859   4.538
 3746SOL    HW112137   6.097   0.901   4.626
 3746SOL    HW212138   5.983   0.835   4.531
 3747SOL     OW12139   3.509   6.947   5.914
 3747SOL    HW112140   3.531   6.966   5.818
 3747SOL    HW212141   3.579   6.985   5.974
 3748SOL     OW12142   4.692   1.913   2.940
 3748SOL    HW112143   4.667   1.841   2.876
 3748SOL    HW212144   4.752   1.877   3.011
 3749SOL     OW12145   6.982   6.541   2.475
 3749SOL    HW112146   0.018   6.509   2.397
 3749SOL    HW212147   6.904   6.480   2.488
 3750SOL     OW12148   5.897   4.130   0.734
 3750SOL    HW112149   5.800   4.155   0.724
 3750SOL    HW212150   5.928   4.085   0.650
 3751SOL     OW12151   1.649   3.484   2.166
 3751SOL    HW112152   1.696   3.469   2.079
 3751SOL    HW212153   1.711   3.528   2.230
 3752SOL     OW12154   0.648   6.414   6.771
 3752SOL    HW112155   0.586   6.340   6.745
 3752SOL    HW212156   0.728   6.414   6.711
 3753SOL     OW12157   6.690   6.713   4.746
 3753SOL    HW112158   6.638   6.704   4.661
 3753SOL    HW212159   6.728   6.624   4.772
 3754SOL     OW12160   6.339   6.683   1.144
 3754SOL    HW112161   6.260   6.659   1.089
 3754SOL    HW212162   6.423   6.669   1.092
 3755SOL     OW12163   5.428   3.690   3.060
 3755SOL    HW112164   5.445   3.691   3.159
 3755SOL    HW212165   5.410   3.597   3.030
 3756SOL     OW12166   3.285   0.456   0.211
 3756SOL    HW112167   3.271   0.485   0.116
 3756SOL    HW212168   3.372   0.491   0.245
 3757SOL     OW12169   3.157   5.544   6.434
 3757SOL    HW112170   3.257   5.532   6.439
 3757SOL    HW212171   3.126   5.598   6.512
 3758SOL     OW12172   1.893   1.557   4.373
 3758SOL    HW112173   1.841   1.555   4.458
 3758SOL    HW212174   1.837   1.521   4.298
 3759SOL     OW12175   4.689   4.787   6.172
 3759SOL    HW112176   4.595   4.787   6.136
 3759SOL    HW212177   4.704   4.871   6.225
 3760SOL     OW12178   1.430   2.500   4.901
 3760SOL    HW112179   1.467   2.593   4.894
 3760SOL    HW212180   1.444   2.466   4.993
 3761SOL     OW12181   0.274   6.485   4.407
 3761SOL    HW112182   0.193   6.525   4.451
 3761SOL    HW212183   0.297   6.399   4.453
 3762SOL     OW12184   0.249   4.133   0.105
 3762SOL    HW112185   0.319   4.068   0.136
 3762SOL    HW212186   0.165   4.083   0.083
 3763SOL     OW12187   6.815   3.532   6.466
 3763SOL    HW112188   6.830   3.591   6.545
 3763SOL    HW212189   6.782   3.443   6.497
 3764SOL     OW12190   2.595   6.989   3.656
 3764SOL    HW112191   2.666   6.924   3.629
 3764SOL    HW212192   2.636   0.062   3.665
 3765SOL     OW12193   5.796   0.783   4.556
 3765SOL    HW112194   5.783   0.830   4.469
 3765SOL    HW212195   5.752   0.834   4.629
 3766SOL     OW12196   1.347   0.680   5.261
 3766SOL    HW112197   1.347   0.602   5.324
 3766SOL    HW212198   1.437   0.688   5.218
 3767SOL     OW12199   1.084   5.191   0.924
 3767SOL    HW112200   1.099   5.124   0.996
 3767SOL    HW212201   1.080   5.283   0.963
 3768SOL     OW12202   4.442   6.494   0.546
 3768SOL    HW112203   4.372   6.531   0.485
 3768SOL    HW212204   4.500   6.569   0.579
 3769SOL     OW12205   4.408   6.486   4.972
 3769SOL    HW112206   4.378   6.423   4.901
 3769SOL    HW212207   4.385   6.449   5.062
 3770SOL     OW12208   1.772   2.183   6.954
 3770SOL    HW112209   1.854   2.180   6.897
 3770SOL    HW212210   1.691   2.168   6.897
 3771SOL     OW12211   5.556   2.384   5.835
 3771SOL    HW112212   5.630   2.395   5.900
 3771SOL    HW212213   5.520   2.474   5.809
 3772SOL     OW12214   4.821   1.214   2.561
 3772SOL    HW112215   4.751   1.166   2.508
 3772SOL    HW212216   4.790   1.306   2.582
 3773SOL     OW12217   6.877   2.802   6.746
 3773SOL    HW112218   6.836   2.753   6.823
 3773SOL    HW212219   6.852   2.757   6.660
 3774SOL     OW12220   0.392   1.064   1.601
 3774SOL    HW112221   0.306   1.102   1.567
 3774SOL    HW212222   0.436   1.130   1.662
 3775SOL     OW12223   5.589   3.919   3.728
 3775SOL    HW112224   5.665   3.950   3.672
 3775SOL    HW212225   5.577   3.820   3.716
 3776SOL     OW12226   2.405   3.343   0.452
 3776SOL    HW112227   2.315   3.327   0.493
 3776SOL    HW212228   2.414   3.440   0.429
 3777SOL     OW12229   2.135   4.203   3.600
 3777SOL    HW112230   2.094   4.284   3.557
 3777SOL    HW212231   2.208   4.232   3.662
 3778SOL     OW12232   2.485   5.535   2.015
 3778SOL    HW112233   2.487   5.619   2.069
 3778SOL    HW212234   2.393   5.496   2.019
 3779SOL     OW12235   3.032   5.310   6.499
 3779SOL    HW112236   3.011   5.299   6.596
 3779SOL    HW212237   3.078   5.398   6.485
 3780SOL     OW12238   3.187   6.679   4.759
 3780SOL    HW112239   3.227   6.722   4.839
 3780SOL    HW212240   3.111   6.734   4.725
 3781SOL     OW12241   3.040   5.622   5.069
 3781SOL    HW112242   2.984   5.583   5.142
 3781SOL    HW212243   2.986   5.689   5.017
 3782SOL     OW12244   2.136   1.893   3.556
 3782SOL    HW112245   2.073   1.815   3.550
 3782SOL    HW212246   2.182   1.892   3.645
 3783SOL     OW12247   5.305   6.172   5.318
 3783SOL    HW112248   5.316   6.203   5.412
 3783SOL    HW212249   5.367   6.221   5.258
 3784SOL     OW12250   5.603   1.630   3.441
 3784SOL    HW112251   5.558   1.674   3.519
 3784SOL    HW212252   5.702   1.645   3.448
 3785SOL     OW12253   2.053   1.624   1.396
 3785SOL    HW112254   2.019   1.597   1.486
 3785SOL    HW212255   2.053   1.724   1.390
 3786SOL     OW12256   3.245   5.556   3.177
 3786SOL    HW112257   3.341   5.536   3.160
 3786SOL    HW212258   3.191   5.472   3.168
 3787SOL     OW12259   3.902   1.260   4.167
 3787SOL    HW112260   3.804   1.272   4.150
 3787SOL    HW212261   3.950   1.345   4.147
 3788SOL     OW12262   5.349   3.306   2.203
 3788SOL    HW112263   5.444   3.281   2.186
 3788SOL    HW212264   5.307   3.336   2.117
 3789SOL     OW12265   1.401   4.997   3.188
 3789SOL    HW112266   1.369   4.973   3.279
 3789SOL    HW212267   1.497   4.970   3.178
 3790SOL     OW12268   1.915   3.070   3.411
 3790SOL    HW112269   1.867   3.157   3.428
 3790SOL    HW212270   2.002   3.088   3.367
 3791SOL     OW12271   4.567   0.272   1.549
 3791SOL    HW112272   4.605   0.224   1.628
 3791SOL    HW212273   4.483   0.227   1.519
 3792SOL     OW12274   7.012   6.536   5.278
 3792SOL    HW112275   7.004   6.557   5.375
 3792SOL    HW212276   6.925   6.557   5.232
 3793SOL     OW12277   1.946   0.724   2.448
 3793SOL    HW112278   1.989   0.692   2.364
 3793SOL    HW212279   1.962   0.658   2.521
 3794SOL     OW12280   4.537   6.336   1.620
 3794SOL    HW112281   4.588   6.253   1.595
 3794SOL    HW212282   4.521   6.337   1.718
 3795SOL     OW12283   5.477   6.999   6.490
 3795SOL    HW112284   5.514   0.040   6.561
 3795SOL    HW212285   5.549   6.977   6.424
 3796SOL     OW12286   1.446   3.202   2.410
 3796SOL    HW112287   1.522   3.166   2.463
 3796SOL    HW212288   1.459   3.301   2.396
 3797SOL     OW12289   0.520   4.865   2.699
 3797SOL    HW112290   0.589   4.843   2.630
 3797SOL    HW212291   0.498   4.784   2.752
 3798SOL     OW12292   1.749   4.715   1.987
 3798SOL    HW112293   1.710   4.717   2.079
 3798SOL    HW212294   1.764   4.809   1.956
 3799SOL     OW12295   2.321   0.131   5.813
 3799SOL    HW112296   2.284   0.079   5.737
 3799SOL    HW212297   2.355   0.219   5.780
 3800SOL     OW12298   4.506   2.542   4.614
 3800SOL    HW112299   4.520   2.580   4.523
 3800SOL    HW212300   4.506   2.617   4.681
 3801SOL     OW12301   0.365   6.745   5.792
 3801SOL    HW112302   0.285   6.766   5.849
 3801SOL    HW212303   0.374   6.815   5.721
 3802SOL     OW12304   1.687   1.917   5.484
 3802SOL    HW112305   1.606   1.936   5.539
 3802SOL    HW212306   1.768   1.916   5.542
 3803SOL     OW12307   3.489   1.000   1.344
 3803SOL    HW112308   3.466   0.972   1.438
 3803SOL    HW212309   3.406   1.033   1.298
 3804SOL     OW12310   4.679   2.023   4.294
 3804SOL    HW112311   4.686   1.943   4.354
 3804SOL    HW212312   4.632   2.097   4.343
 3805SOL     OW12313   2.619   4.361   1.469
 3805SOL    HW112314   2.712   4.397   1.464
 3805SOL    HW212315   2.583   4.372   1.562
 3806SOL     OW12316   2.711   1.618   0.219
 3806SOL    HW112317   2.617   1.587   0.236
 3806SOL    HW212318   2.736   1.597   0.124
 3807SOL     OW12319   1.711   6.545   3.841
 3807SOL    HW112320   1.739   6.628   3.792
 3807SOL    HW212321   1.615   6.525   3.820
 3808SOL     OW12322   2.928   0.084   1.524
 3808SOL    HW112323   2.870   0.090   1.443
 3808SOL    HW212324   2.906   0.158   1.587
 3809SOL     OW12325   4.968   1.033   6.532
 3809SOL    HW112326   4.997   1.014   6.437
 3809SOL    HW212327   5.042   1.081   6.580
 3810SOL     OW12328   2.909   3.067   5.270
 3810SOL    HW112329   2.992   3.054   5.326
 3810SOL    HW212330   2.931   3.123   5.190
 3811SOL     OW12331   0.481   5.473   5.261
 3811SOL    HW112332   0.478   5.573   5.254
 3811SOL    HW212333   0.427   5.444   5.340
 3812SOL     OW12334   5.425   1.782   5.103
 3812SOL    HW112335   5.417   1.881   5.092
 3812SOL    HW212336   5.510   1.760   5.151
 3813SOL     OW12337   3.454   5.279   1.384
 3813SOL    HW112338   3.497   5.367   1.364
 3813SOL    HW212339   3.376   5.294   1.445
 3814SOL     OW12340   0.373   6.502   2.327
 3814SOL    HW112341   0.373   6.592   2.370
 3814SOL    HW212342   0.398   6.511   2.230
 3815SOL     OW12343   5.177   2.222   1.349
 3815SOL    HW112344   5.203   2.167   1.428
 3815SOL    HW212345   5.131   2.305   1.380
 3816SOL     OW12346   1.381   6.734   0.950
 3816SOL    HW112347   1.379   6.651   0.893
 3816SOL    HW212348   1.470   6.779   0.940
 3817SOL     OW12349   5.408   2.238   5.488
 3817SOL    HW112350   5.322   2.245   5.437
 3817SOL    HW212351   5.442   2.330   5.508
 3818SOL     OW12352   4.791   5.303   1.840
 3818SOL    HW112353   4.821   5.273   1.749
 3818SOL    HW212354   4.862   5.284   1.907
 3819SOL     OW12355   5.414   4.583   0.108
 3819SOL    HW112356   5.399   4.595   0.010
 3819SOL    HW212357   5.394   4.669   0.155
 3820SOL     OW12358   5.089   6.530   4.142
 3820SOL    HW112359   5.174   6.584   4.143
 3820SOL    HW212360   5.023   6.573   4.081
 3821SOL     OW12361   1.170   4.000   2.260
 3821SOL    HW112362   1.147   3.930   2.327
 3821SOL    HW212363   1.221   3.959   2.185
 3822SOL     OW12364   2.552   5.598   1.726
 3822SOL    HW112365   2.650   5.608   1.741
 3822SOL    HW212366   2.504   5.603   1.813
 3823SOL     OW12367   3.388   2.737   5.377
 3823SOL    HW112368   3.462   2.784   5.330
 3823SOL    HW212369   3.302   2.756   5.330
 3824SOL     OW12370   0.162   2.417   6.255
 3824SOL    HW112371   0.139   2.456   6.344
 3824SOL    HW212372   0.261   2.421   6.241
 3825SOL     OW12373   6.601   6.840   6.344
 3825SOL    HW112374   6.644   6.922   6.381
 3825SOL    HW212375   6.670   6.780   6.303
 3826SOL     OW12376   6.938   2.733   1.691
 3826SOL    HW112377   6.849   2.693   1.715
 3826SOL    HW212378   6.936   2.763   1.595
 3827SOL     OW12379   4.488   3.275   0.830
 3827SOL    HW112380   4.411   3.233   0.878
 3827SOL    HW212381   4.453   3.345   0.767
 3828SOL     OW12382   4.283   0.844   2.523
 3828SOL    HW112383   4.266   0.784   2.444
 3828SOL    HW212384   4.211   0.831   2.591
 3829SOL     OW12385   2.214   5.113   3.786
 3829SOL    HW112386   2.130   5.119   3.840
 3829SOL    HW212387   2.293   5.130   3.845
 3830SOL     OW12388   2.752   0.778   5.219
 3830SOL    HW112389   2.817   0.852   5.204
 3830SOL    HW212390   2.688   0.803   5.292
 3831SOL     OW12391   4.039   1.373   2.258
 3831SOL    HW112392   3.944   1.367   2.227
 3831SOL    HW212393   4.059   1.467   2.286
 3832SOL     OW12394   6.732   0.632   2.485
 3832SOL    HW112395   6.766   0.634   2.391
 3832SOL    HW212396   6.634   0.610   2.485
 3833SOL     OW12397   1.439   4.589   0.119
 3833SOL    HW112398   1.465   4.680   0.088
 3833SOL    HW212399   1.451   4.583   0.218
 3834SOL     OW12400   2.652   2.175   6.876
 3834SOL    HW112401   2.696   2.112   6.940
 3834SOL    HW212402   2.659   2.268   6.910
 3835SOL     OW12403   3.500   5.543   5.515
 3835SOL    HW112404   3.566   5.544   5.590
 3835SOL    HW212405   3.474   5.449   5.494
 3836SOL     OW12406   0.982   3.458   6.083
 3836SOL    HW112407   0.952   3.538   6.031
 3836SOL    HW212408   0.943   3.461   6.175
 3837SOL     OW12409   3.641   3.071   0.445
 3837SOL    HW112410   3.581   3.133   0.497
 3837SOL    HW212411   3.585   3.007   0.392
 3838SOL     OW12412   6.355   3.245   5.732
 3838SOL    HW112413   6.370   3.146   5.740
 3838SOL    HW212414   6.257   3.262   5.721
 3839SOL     OW12415   6.187   6.624   6.192
 3839SOL    HW112416   6.153   6.534   6.218
 3839SOL    HW212417   6.201   6.627   6.093
 3840SOL     OW12418   1.793   0.993   4.371
 3840SOL    HW112419   1.828   1.080   4.406
 3840SOL    HW212420   1.693   0.996   4.366
 3841SOL     OW12421   0.499   3.573   4.815
 3841SOL    HW112422   0.406   3.591   4.782
 3841SOL    HW212423   0.566   3.608   4.749
 3842SOL     OW12424   1.039   5.628   6.838
 3842SOL    HW112425   0.947   5.653   6.868
 3842SOL    HW212426   1.092   5.711   6.820
 3843SOL     OW12427   5.802   3.271   0.957
 3843SOL    HW112428   5.762   3.183   0.980
 3843SOL    HW212429   5.829   3.318   1.042
 3844SOL     OW12430   1.949   4.850   6.166
 3844SOL    HW112431   1.994   4.780   6.110
 3844SOL    HW212432   1.855   4.822   6.184
 3845SOL     OW12433   3.895   3.880   4.017
 3845SOL    HW112434   3.870   3.939   4.093
 3845SOL    HW212435   3.825   3.884   3.946
 3846SOL     OW12436   6.987   4.521   3.597
 3846SOL    HW112437   7.011   4.427   3.572
 3846SOL    HW212438   0.027   4.585   3.547
 3847SOL     OW12439   0.666   0.209   0.363
 3847SOL    HW112440   0.597   0.251   0.421
 3847SOL    HW212441   0.639   0.217   0.267
 3848SOL     OW12442   3.118   5.260   0.547
 3848SOL    HW112443   3.057   5.237   0.471
 3848SOL    HW212444   3.212   5.262   0.514
 3849SOL     OW12445   1.756   2.044   5.996
 3849SOL    HW112446   1.666   2.087   5.999
 3849SOL    HW212447   1.767   1.983   6.074
 3850SOL     OW12448   2.614   3.795   1.702
 3850SOL    HW112449   2.688   3.753   1.753
 3850SOL    HW212450   2.620   3.895   1.708
 3851SOL     OW12451   2.699   2.688   1.426
 3851SOL    HW112452   2.798   2.687   1.414
 3851SOL    HW212453   2.657   2.740   1.351
 3852SOL     OW12454   3.853   0.841   5.038
 3852SOL    HW112455   3.937   0.788   5.049
 3852SOL    HW212456   3.807   0.813   4.953
 3853SOL     OW12457   1.580   2.963   1.900
 3853SOL    HW112458   1.653   2.948   1.966
 3853SOL    HW212459   1.617   2.957   1.807
 3854SOL     OW12460   1.378   3.331   4.078
 3854SOL    HW112461   1.450   3.262   4.084
 3854SOL    HW212462   1.309   3.302   4.011
 3855SOL     OW12463   0.060   2.232   5.235
 3855SOL    HW112464   0.075   2.213   5.332
 3855SOL    HW212465   0.034   2.328   5.224
 3856SOL     OW12466   0.877   6.506   5.696
 3856SOL    HW112467   0.953   6.502   5.761
 3856SOL    HW212468   0.878   6.594   5.649
 3857SOL     OW12469   0.649   6.789   5.871
 3857SOL    HW112470   0.709   6.824   5.799
 3857SOL    HW212471   0.558   6.771   5.833
 3858SOL     OW12472   2.179   5.587   0.259
 3858SOL    HW112473   2.091   5.544   0.275
 3858SOL    HW212474   2.180   5.678   0.303
 3859SOL     OW12475   0.107   2.522   2.156
 3859SOL    HW112476   0.130   2.521   2.059
 3859SOL    HW212477   0.159   2.595   2.202
 3860SOL     OW12478   2.383   6.132   5.379
 3860SOL    HW112479   2.476   6.096   5.386
 3860SOL    HW212480   2.331   6.079   5.312
 3861SOL     OW12481   4.474   4.630   0.883
 3861SOL    HW112482   4.450   4.620   0.979
 3861SOL    HW212483   4.400   4.679   0.836
 3862SOL     OW12484   1.465   5.285   6.012
 3862SOL    HW112485   1.499   5.195   5.987
 3862SOL    HW212486   1.451   5.340   5.930
 3863SOL     OW12487   3.119   2.675   0.832
 3863SOL    HW112488   3.050   2.748   0.829
 3863SOL    HW212489   3.199   2.706   0.884
 3864SOL     OW12490   3.739   1.671   6.950
 3864SOL    HW112491   3.733   1.616   6.866
 3864SOL    HW212492   3.727   1.767   6.928
 3865SOL     OW12493   4.631   0.529   2.795
 3865SOL    HW112494   4.702   0.458   2.791
 3865SOL    HW212495   4.552   0.494   2.845
 3866SOL     OW12496   4.014   6.208   6.444
 3866SOL    HW112497   4.093   6.242   6.392
 3866SOL    HW212498   3.972   6.132   6.394
 3867SOL     OW12499   1.756   3.024   3.642
 3867SOL    HW112500   1.829   3.028   3.574
 3867SOL    HW212501   1.724   2.929   3.652
 3868SOL     OW12502   1.559   5.504   2.717
 3868SOL    HW112503   1.480   5.448   2.692
 3868SOL    HW212504   1.593   5.474   2.807
 3869SOL     OW12505   1.289   2.403   3.250
 3869SOL    HW112506   1.306   2.360   3.339
 3869SOL    HW212507   1.377   2.432   3.210
 3870SOL     OW12508   3.085   4.811   0.312
 3870SOL    HW112509   3.023   4.802   0.235
 3870SOL    HW212510   3.168   4.858   0.283
 3871SOL     OW12511   2.451   1.388   4.365
 3871SOL    HW112512   2.526   1.445   4.400
 3871SOL    HW212513   2.382   1.447   4.323
 3872SOL     OW12514   4.178   3.655   0.320
 3872SOL    HW112515   4.082   3.657   0.346
 3872SOL    HW212516   4.220   3.570   0.353
 3873SOL     OW12517   5.019   4.454   2.057
 3873SOL    HW112518   5.007   4.417   1.964
 3873SOL    HW212519   5.100   4.512   2.059
 3874SOL     OW12520   4.676   6.160   5.988
 3874SOL    HW112521   4.589   6.168   5.939
 3874SOL    HW212522   4.751   6.182   5.926
 3875SOL     OW12523   2.049   3.982   0.703
 3875SOL    HW112524   2.020   4.049   0.771
 3875SOL    HW212525   1.997   3.995   0.618
 3876SOL     OW12526   5.092   3.868   2.643
 3876SOL    HW112527   5.190   3.865   2.624
 3876SOL    HW212528   5.073   3.822   2.729
 3877SOL     OW12529   5.430   0.633   2.569
 3877SOL    HW112530   5.492   0.626   2.491
 3877SOL    HW212531   5.338   0.655   2.537
 3878SOL     OW12532   3.913   5.881   4.843
 3878SOL    HW112533   3.995   5.938   4.838
 3878SOL    HW212534   3.911   5.833   4.931
 3879SOL     OW12535   3.062   5.740   1.234
 3879SOL    HW112536   2.985   5.802   1.250
 3879SOL    HW212537   3.066   5.716   1.137
 3880SOL     OW12538   5.612   2.414   3.899
 3880SOL    HW112539   5.666   2.494   3.871
 3880SOL    HW212540   5.614   2.346   3.826
 3881SOL     OW12541   0.566   5.186   1.033
 3881SOL    HW112542   0.575   5.227   1.124
 3881SOL    HW212543   0.538   5.090   1.043
 3882SOL     OW12544   0.131   6.937   6.590
 3882SOL    HW112545   0.069   6.928   6.667
 3882SOL    HW212546   0.151   6.847   6.552
 3883SOL     OW12547   3.160   1.186   6.229
 3883SOL    HW112548   3.179   1.272   6.181
 3883SOL    HW212549   3.226   1.116   6.200
 3884SOL     OW12550   1.259   4.703   5.406
 3884SOL    HW112551   1.239   4.699   5.504
 3884SOL    HW212552   1.341   4.649   5.387
 3885SOL     OW12553   0.328   1.994   5.286
 3885SOL    HW112554   0.288   1.997   5.195
 3885SOL    HW212555   0.277   2.055   5.347
 3886SOL     OW12556   6.876   5.570   4.609
 3886SOL    HW112557   6.906   5.636   4.540
 3886SOL    HW212558   6.944   5.565   4.682
 3887SOL     OW12559   5.209   3.036   5.389
 3887SOL    HW112560   5.204   2.977   5.308
 3887SOL    HW212561   5.145   3.113   5.378
 3888SOL     OW12562   5.265   2.111   1.750
 3888SOL    HW112563   5.313   2.130   1.836
 3888SOL    HW212564   5.176   2.157   1.750
 3889SOL     OW12565   0.060   5.366   0.323
 3889SOL    HW112566   0.130   5.319   0.269
 3889SOL    HW212567   7.008   5.404   0.262
 3890SOL     OW12568   6.665   3.246   1.800
 3890SOL    HW112569   6.582   3.243   1.855
 3890SOL    HW212570   6.676   3.159   1.752
 3891SOL     OW12571   5.654   5.488   6.376
 3891SOL    HW112572   5.682   5.403   6.330
 3891SOL    HW212573   5.667   5.565   6.314
 3892SOL     OW12574   5.433   6.104   3.950
 3892SOL    HW112575   5.362   6.082   3.883
 3892SOL    HW212576   5.519   6.062   3.923
 3893SOL     OW12577   2.925   6.162   4.089
 3893SOL    HW112578   2.861   6.093   4.055
 3893SOL    HW212579   2.933   6.236   4.022
 3894SOL     OW12580   5.344   5.372   6.218
 3894SOL    HW112581   5.308   5.286   6.181
 3894SOL    HW212582   5.310   5.448   6.163
 3895SOL     OW12583   1.625   1.432   5.895
 3895SOL    HW112584   1.636   1.360   5.964
 3895SOL    HW212585   1.647   1.521   5.935
 3896SOL     OW12586   6.955   2.520   6.078
 3896SOL    HW112587   6.925   2.425   6.077
 3896SOL    HW212588   0.008   2.532   6.148
 3897SOL     OW12589   3.392   6.701   2.648
 3897SOL    HW112590   3.455   6.768   2.610
 3897SOL    HW212591   3.349   6.739   2.730
 3898SOL     OW12592   3.431   3.937   4.948
 3898SOL    HW112593   3.342   3.911   4.910
 3898SOL    HW212594   3.453   3.878   5.026
 3899SOL     OW12595   5.114   1.947   4.956
 3899SOL    HW112596   5.146   1.982   5.044
 3899SOL    HW212597   5.072   2.021   4.904
 3900SOL     OW12598   6.602   2.773   4.236
 3900SOL    HW112599   6.512   2.734   4.215
 3900SOL    HW212600   6.633   2.737   4.324
 3901SOL     OW12601   2.550   5.466   4.840
 3901SOL    HW112602   2.464   5.427   4.809
 3901SOL    HW212603   2.612   5.392   4.868
 3902SOL     OW12604   3.835   4.876   2.058
 3902SOL    HW112605   3.745   4.834   2.050
 3902SOL    HW212606   3.825   4.974   2.069
 3903SOL     OW12607   4.585   2.467   6.213
 3903SOL    HW112608   4.585   2.512   6.302
 3903SOL    HW212609   4.553   2.531   6.143
 3904SOL     OW12610   2.414   5.823   1.004
 3904SOL    HW112611   2.386   5.881   1.080
 3904SOL    HW212612   2.500   5.777   1.027
 3905SOL     OW12613   0.074   0.441   6.048
 3905SOL    HW112614   0.016   0.506   5.999
 3905SOL    HW212615   0.131   0.392   5.983
 3906SOL     OW12616   0.741   6.254   4.754
 3906SOL    HW112617   0.801   6.318   4.803
 3906SOL    HW212618   0.763   6.160   4.781
 3907SOL     OW12619   1.097   1.386   5.197
 3907SOL    HW112620   1.052   1.297   5.202
 3907SOL    HW212621   1.033   1.457   5.225
 3908SOL     OW12622   2.189   0.921   4.369
 3908SOL    HW112623   2.246   0.874   4.301
 3908SOL    HW212624   2.175   1.016   4.341
 3909SOL     OW12625   4.930   2.876   1.379
 3909SOL    HW112626   5.024   2.904   1.398
 3909SOL    HW212627   4.931   2.785   1.336
 3910SOL     OW12628   3.465   1.966   0.892
 3910SOL    HW112629   3.369   1.978   0.918
 3910SOL    HW212630   3.471   1.950   0.793
 3911SOL     OW12631   6.825   0.745   1.328
 3911SOL    HW112632   6.860   0.669   1.274
 3911SOL    HW212633   6.791   0.816   1.266
 3912SOL     OW12634   4.076   3.371   6.715
 3912SOL    HW112635   4.089   3.302   6.785
 3912SOL    HW212636   4.158   3.429   6.710
 3913SOL     OW12637   4.203   5.561   1.696
 3913SOL    HW112638   4.217   5.618   1.777
 3913SOL    HW212639   4.199   5.619   1.615
 3914SOL     OW12640   6.743   1.950   6.907
 3914SOL    HW112641   6.804   1.932   6.830
 3914SOL    HW212642   6.794   1.942   6.993
 3915SOL     OW12643   5.610   6.893   5.201
 3915SOL    HW112644   5.695   6.884   5.253
 3915SOL    HW212645   5.627   6.949   5.120
 3916SOL     OW12646   1.843   1.954   2.539
 3916SOL    HW112647   1.878   1.975   2.448
 3916SOL    HW212648   1.894   1.877   2.578
 3917SOL     OW12649   3.551   4.868   1.389
 3917SOL    HW112650   3.597   4.833   1.471
 3917SOL    HW212651   3.468   4.814   1.372
 3918SOL     OW12652   4.835   0.478   6.769
 3918SOL    HW112653   4.873   0.531   6.693
 3918SOL    HW212654   4.825   0.537   6.849
 3919SOL     OW12655   4.097   6.164   2.623
 3919SOL    HW112656   4.169   6.113   2.575
 3919SOL    HW212657   4.101   6.260   2.596
 3920SOL     OW12658   3.280   1.845   5.511
 3920SOL    HW112659   3.232   1.849   5.423
 3920SOL    HW212660   3.215   1.829   5.584
 3921SOL     OW12661   0.960   2.678   6.339
 3921SOL    HW112662   0.964   2.599   6.400
 3921SOL    HW212663   1.050   2.691   6.296
 3922SOL     OW12664   4.883   4.600   2.756
 3922SOL    HW112665   4.799   4.603   2.810
 3922SOL    HW212666   4.959   4.572   2.814
 3923SOL     OW12667   5.140   1.383   1.635
 3923SOL    HW112668   5.141   1.402   1.733
 3923SOL    HW212669   5.078   1.447   1.589
 3924SOL     OW12670   5.130   5.165   4.146
 3924SOL    HW112671   5.098   5.204   4.060
 3924SOL    HW212672   5.229   5.174   4.152
 3925SOL     OW12673   4.936   4.945   1.093
 3925SOL    HW112674   4.948   4.846   1.087
 3925SOL    HW212675   4.978   4.988   1.014
 3926SOL     OW12676   0.808   5.354   4.823
 3926SOL    HW112677   0.779   5.431   4.766
 3926SOL    HW212678   0.729   5.296   4.843
 3927SOL     OW12679   6.047   1.598   5.603
 3927SOL    HW112680   6.058   1.499   5.602
 3927SOL    HW212681   6.130   1.641   5.568
 3928SOL     OW12682   3.449   5.849   2.251
 3928SOL    HW112683   3.432   5.751   2.243
 3928SOL    HW212684   3.547   5.867   2.241
 3929SOL     OW12685   1.001   1.550   5.779
 3929SOL    HW112686   0.954   1.481   5.724
 3929SOL    HW212687   1.083   1.510   5.820
 3930SOL     OW12688   1.790   4.341   3.726
 3930SOL    HW112689   1.832   4.317   3.638
 3930SOL    HW212690   1.815   4.273   3.794
 3931SOL     OW12691   1.337   2.506   0.379
 3931SOL    HW112692   1.412   2.512   0.444
 3931SOL    HW212693   1.296   2.597   0.367
 3932SOL     OW12694   2.293   4.442   3.222
 3932SOL    HW112695   2.250   4.531   3.210
 3932SOL    HW212696   2.384   4.443   3.181
 3933SOL     OW12697   1.776   6.442   1.305
 3933SOL    HW112698   1.801   6.539   1.313
 3933SOL    HW212699   1.693   6.434   1.251
 3934SOL     OW12700   1.743   6.716   1.180
 3934SOL    HW112701   1.760   6.673   1.091
 3934SOL    HW212702   1.801   6.797   1.189
 3935SOL     OW12703   0.040   3.955   5.231
 3935SOL    HW112704   0.133   3.919   5.222
 3935SOL    HW212705   7.010   3.945   5.144
 3936SOL     OW12706   6.966   3.796   4.974
 3936SOL    HW112707   7.010   3.851   4.903
 3936SOL    HW212708   6.979   3.699   4.955
 3937SOL     OW12709   0.442   5.760   1.198
 3937SOL    HW112710   0.358   5.792   1.242
 3937SOL    HW212711   0.420   5.723   1.108
 3938SOL     OW12712   0.834   3.287   0.788
 3938SOL    HW112713   0.911   3.247   0.838
 3938SOL    HW212714   0.749   3.250   0.824
 3939SOL     OW12715   1.014   6.971   3.137
 3939SOL    HW112716   0.968   6.882   3.140
 3939SOL    HW212717   1.091   6.972   3.201
 3940SOL     OW12718   3.131   6.048   0.027
 3940SOL    HW112719   3.083   6.013   0.107
 3940SOL    HW212720   3.196   6.119   0.056
 3941SOL     OW12721   5.077   6.131   2.065
 3941SOL    HW112722   5.012   6.078   2.118
 3941SOL    HW212723   5.050   6.131   1.969
 3942SOL     OW12724   6.898   6.073   5.725
 3942SOL    HW112725   6.892   5.973   5.714
 3942SOL    HW212726   6.905   6.095   5.822
 3943SOL     OW12727   2.231   3.346   0.207
 3943SOL    HW112728   2.244   3.255   0.167
 3943SOL    HW212729   2.248   3.415   0.137
 3944SOL     OW12730   4.588   3.012   6.479
 3944SOL    HW112731   4.572   2.950   6.556
 3944SOL    HW212732   4.598   3.105   6.513
 3945SOL     OW12733   5.484   0.636   3.903
 3945SOL    HW112734   5.559   0.599   3.958
 3945SOL    HW212735   5.443   0.714   3.951
 3946SOL     OW12736   6.858   4.171   0.620
 3946SOL    HW112737   6.924   4.161   0.694
 3946SOL    HW212738   6.905   4.200   0.536
 3947SOL     OW12739   5.831   6.110   1.904
 3947SOL    HW112740   5.753   6.107   1.966
 3947SOL    HW212741   5.830   6.196   1.852
 3948SOL     OW12742   1.596   2.707   5.371
 3948SOL    HW112743   1.590   2.609   5.393
 3948SOL    HW212744   1.532   2.758   5.428
 3949SOL     OW12745   6.169   0.387   1.901
 3949SOL    HW112746   6.117   0.472   1.895
 3949SOL    HW212747   6.151   0.331   1.820
 3950SOL     OW12748   2.959   4.389   1.631
 3950SOL    HW112749   2.918   4.442   1.556
 3950SOL    HW212750   2.923   4.422   1.718
 3951SOL     OW12751   0.688   2.633   4.833
 3951SOL    HW112752   0.719   2.568   4.763
 3951SOL    HW212753   0.751   2.710   4.837
 3952SOL     OW12754   5.798   3.842   0.285
 3952SOL    HW112755   5.725   3.844   0.217
 3952SOL    HW212756   5.834   3.749   0.292
 3953SOL     OW12757   2.974   3.832   6.923
 3953SOL    HW112758   3.025   3.871   6.846
 3953SOL    HW212759   2.978   3.732   6.918
 3954SOL     OW12760   0.860   3.454   5.348
 3954SOL    HW112761   0.881   3.357   5.334
 3954SOL    HW212762   0.772   3.475   5.305
 3955SOL     OW12763   6.368   3.797   0.528
 3955SOL    HW112764   6.340   3.701   0.534
 3955SOL    HW212765   6.288   3.854   0.509
 3956SOL     OW12766   6.879   2.921   5.527
 3956SOL    HW112767   6.949   2.878   5.584
 3956SOL    HW212768   6.836   2.995   5.577
 3957SOL     OW12769   0.777   1.740   2.261
 3957SOL    HW112770   0.703   1.673   2.257
 3957SOL    HW212771   0.747   1.819   2.315
 3958SOL     OW12772   5.569   0.248   6.994
 3958SOL    HW112773   5.652   0.247   6.938
 3958SOL    HW212774   5.556   0.340   0.014
 3959SOL     OW12775   2.341   5.946   1.226
 3959SOL    HW112776   2.399   6.024   1.249
 3959SOL    HW212777   2.265   5.941   1.290
 3960SOL     OW12778   5.257   3.749   0.908
 3960SOL    HW112779   5.225   3.836   0.871
 3960SOL    HW212780   5.190   3.713   0.972
 3961SOL     OW12781   5.975   0.086   1.233
 3961SOL    HW112782   5.965   0.182   1.259
 3961SOL    HW212783   5.959   0.077   1.134
 3962SOL     OW12784   0.530   6.037   5.839
 3962SOL    HW112785   0.517   6.114   5.778
 3962SOL    HW212786   0.526   6.068   5.934
 3963SOL     OW12787   4.730   4.854   2.979
 3963SOL    HW112788   4.689   4.849   2.888
 3963SOL    HW212789   4.680   4.793   3.041
 3964SOL     OW12790   5.943   5.962   6.833
 3964SOL    HW112791   5.963   5.951   6.930
 3964SOL    HW212792   6.006   6.028   6.793
 3965SOL     OW12793   3.323   3.648   0.819
 3965SOL    HW112794   3.416   3.640   0.856
 3965SOL    HW212795   3.323   3.713   0.744
 3966SOL     OW12796   6.274   3.886   5.304
 3966SOL    HW112797   6.356   3.929   5.266
 3966SOL    HW212798   6.273   3.789   5.280
 3967SOL     OW12799   1.931   6.956   6.748
 3967SOL    HW112800   1.912   6.939   6.845
 3967SOL    HW212801   1.994   6.885   6.714
 3968SOL     OW12802   4.529   1.668   0.916
 3968SOL    HW112803   4.539   1.686   1.014
 3968SOL    HW212804   4.619   1.675   0.872
 3969SOL     OW12805   0.522   6.268   1.291
 3969SOL    HW112806   0.586   6.209   1.242
 3969SOL    HW212807   0.552   6.278   1.386
 3970SOL     OW12808   5.005   3.957   4.332
 3970SOL    HW112809   4.985   3.868   4.290
 3970SOL    HW212810   4.983   3.954   4.429
 3971SOL     OW12811   0.641   6.107   3.789
 3971SOL    HW112812   0.571   6.175   3.811
 3971SOL    HW212813   0.729   6.136   3.827
 3972SOL     OW12814   1.007   0.413   6.808
 3972SOL    HW112815   0.995   0.434   6.711
 3972SOL    HW212816   0.978   0.492   6.863
 3973SOL     OW12817   3.083   3.104   3.782
 3973SOL    HW112818   3.099   3.196   3.820
 3973SOL    HW212819   3.041   3.047   3.852
 3974SOL     OW12820   5.642   0.550   6.715
 3974SOL    HW112821   5.663   0.486   6.641
 3974SOL    HW212822   5.557   0.521   6.759
 3975SOL     OW12823   6.968   5.917   4.944
 3975SOL    HW112824   6.987   5.885   5.037
 3975SOL    HW212825   6.902   5.855   4.901
 3976SOL     OW12826   0.768   3.034   6.974
 3976SOL    HW112827   0.849   3.057   6.921
 3976SOL    HW212828   0.742   3.111   0.013
 3977SOL     OW12829   3.392   5.383   4.931
 3977SOL    HW112830   3.380   5.482   4.924
 3977SOL    HW212831   3.397   5.343   4.840
 3978SOL     OW12832   6.490   4.233   6.393
 3978SOL    HW112833   6.537   4.223   6.305
 3978SOL    HW212834   6.392   4.214   6.382
 3979SOL     OW12835   0.988   6.563   3.348
 3979SOL    HW112836   1.073   6.559   3.400
 3979SOL    HW212837   0.914   6.596   3.407
 3980SOL     OW12838   4.875   3.747   4.759
 3980SOL    HW112839   4.901   3.690   4.682
 3980SOL    HW212840   4.808   3.699   4.815
 3981SOL     OW12841   6.581   1.725   5.434
 3981SOL    HW112842   6.501   1.696   5.486
 3981SOL    HW212843   6.659   1.734   5.496
 3982SOL     OW12844   2.364   2.734   4.080
 3982SOL    HW112845   2.388   2.764   4.173
 3982SOL    HW212846   2.405   2.645   4.063
 3983SOL     OW12847   3.166   0.406   3.550
 3983SOL    HW112848   3.176   0.365   3.641
 3983SOL    HW212849   3.106   0.350   3.494
 3984SOL     OW12850   1.776   6.881   1.980
 3984SOL    HW112851   1.860   6.893   2.033
 3984SOL    HW212852   1.700   6.858   2.041
 3985SOL     OW12853   1.861   3.264   1.613
 3985SOL    HW112854   1.940   3.325   1.601
 3985SOL    HW212855   1.787   3.292   1.552
 3986SOL     OW12856   1.768   1.925   1.684
 3986SOL    HW112857   1.831   1.999   1.658
 3986SOL    HW212858   1.803   1.838   1.649
 3987SOL     OW12859   1.359   3.924   5.478
 3987SOL    HW112860   1.337   3.833   5.514
 3987SOL    HW212861   1.457   3.930   5.463
 3988SOL     OW12862   5.063   0.576   0.125
 3988SOL    HW112863   4.984   0.529   0.163
 3988SOL    HW212864   5.121   0.610   0.199
 3989SOL     OW12865   4.335   0.944   6.252
 3989SOL    HW112866   4.404   0.924   6.182
 3989SOL    HW212867   4.350   1.035   6.289
 3990SOL     OW12868   0.903   2.275   4.117
 3990SOL    HW112869   0.882   2.328   4.035
 3990SOL    HW212870   0.996   2.239   4.110
 3991SOL     OW12871   0.657   1.505   3.933
 3991SOL    HW112872   0.598   1.460   3.866
 3991SOL    HW212873   0.618   1.595   3.956
 3992SOL     OW12874   6.024   3.832   6.486
 3992SOL    HW112875   6.012   3.739   6.452
 3992SOL    HW212876   6.085   3.831   6.565
 3993SOL     OW12877   1.816   0.554   4.303
 3993SOL    HW112878   1.831   0.650   4.278
 3993SOL    HW212879   1.882   0.527   4.373
 3994SOL     OW12880   2.548   2.066   2.703
 3994SOL    HW112881   2.614   2.124   2.750
 3994SOL    HW212882   2.536   1.980   2.754
 3995SOL     OW12883   1.098   3.474   2.648
 3995SOL    HW112884   1.138   3.453   2.559
 3995SOL    HW212885   1.171   3.502   2.711
 3996SOL     OW12886   5.929   6.514   4.492
 3996SOL    HW112887   5.968   6.593   4.445
 3996SOL    HW212888   5.830   6.510   4.473
 3997SOL     OW12889   4.885   3.503   2.521
 3997SOL    HW112890   4.916   3.595   2.499
 3997SOL    HW212891   4.806   3.508   2.582
 3998SOL     OW12892   5.091   2.334   3.084
 3998SOL    HW112893   5.160   2.278   3.039
 3998SOL    HW212894   5.059   2.404   3.020
 3999SOL     OW12895   4.242   2.867   1.142
 3999SOL    HW112896   4.173   2.904   1.204
 3999SOL    HW212897   4.293   2.942   1.099
 4000SOL     OW12898   2.699   4.938   2.482
 4000SOL    HW112899   2.709   5.016   2.543
 4000SOL    HW212900   2.604   4.929   2.453
 4001SOL     OW12901   1.151   5.276   4.031
 4001SOL    HW112902   1.242   5.319   4.027
 4001SOL    HW212903   1.096   5.321   4.101
 4002SOL     OW12904   3.540   4.094   3.905
 4002SOL    HW112905   3.451   4.126   3.873
 4002SOL    HW212906   3.532   3.999   3.936
 4003SOL     OW12907   1.812   0.688   5.087
 4003SOL    HW112908   1.788   0.592   5.106
 4003SOL    HW212909   1.886   0.716   5.147
 4004SOL     OW12910   0.867   3.509   3.839
 4004SOL    HW112911   0.901   3.564   3.763
 4004SOL    HW212912   0.941   3.492   3.904
 4005SOL     OW12913   5.191   3.090   0.250
 4005SOL    HW112914   5.246   3.030   0.308
 4005SOL    HW212915   5.251   3.144   0.192
 4006SOL     OW12916   5.815   5.355   2.567
 4006SOL    HW112917   5.783   5.285   2.503
 4006SOL    HW212918   5.740   5.382   2.627
 4007SOL     OW12919   0.008   0.391   2.790
 4007SOL    HW112920   0.107   0.392   2.805
 4007SOL    HW212921   6.986   0.476   2.822
 4008SOL     OW12922   2.731   1.202   0.808
 4008SOL    HW112923   2.798   1.136   0.774
 4008SOL    HW212924   2.643   1.157   0.821
 4009SOL     OW12925   4.922   2.253   0.912
 4009SOL    HW112926   4.983   2.183   0.875
 4009SOL    HW212927   4.939   2.340   0.866
 4010SOL     OW12928   2.274   5.151   1.585
 4010SOL    HW112929   2.288   5.157   1.684
 4010SOL    HW212930   2.316   5.067   1.550
 4011SOL     OW12931   5.409   6.503   6.209
 4011SOL    HW112932   5.370   6.595   6.213
 4011SOL    HW212933   5.343   6.438   6.247
 4012SOL     OW12934   4.973   6.884   2.590
 4012SOL    HW112935   4.894   6.855   2.644
 4012SOL    HW212936   4.984   6.823   2.512
 4013SOL     OW12937   6.998   1.028   5.763
 4013SOL    HW112938   6.941   1.006   5.684
 4013SOL    HW212939   6.983   1.123   5.789
 4014SOL     OW12940   2.913   5.077   2.753
 4014SOL    HW112941   2.826   5.121   2.730
 4014SOL    HW212942   2.985   5.112   2.693
 4015SOL     OW12943   4.067   4.889   5.805
 4015SOL    HW112944   3.979   4.934   5.788
 4015SOL    HW212945   4.099   4.845   5.721
 4016SOL     OW12946   4.606   5.182   5.195
 4016SOL    HW112947   4.690   5.131   5.214
 4016SOL    HW212948   4.527   5.125   5.218
 4017SOL     OW12949   0.985   4.928   5.817
 4017SOL    HW112950   0.967   4.861   5.745
 4017SOL    HW212951   0.926   5.008   5.804
 4018SOL     OW12952   3.868   5.832   1.266
 4018SOL    HW112953   3.886   5.902   1.334
 4018SOL    HW212954   3.814   5.870   1.192
 4019SOL     OW12955   5.400   3.942   2.714
 4019SOL    HW112956   5.464   3.874   2.751
 4019SOL    HW212957   5.356   3.991   2.789
 4020SOL     OW12958   0.293   5.548   4.485
 4020SOL    HW112959   0.283   5.449   4.490
 4020SOL    HW212960   0.361   5.579   4.551
 4021SOL     OW12961   4.283   3.838   6.209
 4021SOL    HW112962   4.340   3.785   6.272
 4021SOL    HW212963   4.335   3.857   6.126
 4022SOL     OW12964   2.245   0.169   1.627
 4022SOL    HW112965   2.204   0.260   1.632
 4022SOL    HW212966   2.339   0.177   1.592
 4023SOL     OW12967   0.385   1.366   4.459
 4023SOL    HW112968   0.442   1.379   4.541
 4023SOL    HW212969   0.440   1.385   4.378
 4024SOL     OW12970   0.966   6.106   4.427
 4024SOL    HW112971   0.976   6.139   4.333
 4024SOL    HW212972   0.987   6.009   4.430
 4025SOL     OW12973   0.055   5.607   3.380
 4025SOL    HW112974   7.018   5.547   3.321
 4025SOL    HW212975   0.142   5.626   3.335
 4026SOL     OW12976   0.458   0.394   4.065
 4026SOL    HW112977   0.361   0.376   4.049
 4026SOL    HW212978   0.469   0.483   4.110
 4027SOL     OW12979   3.103   4.233   5.868
 4027SOL    HW112980   3.175   4.297   5.893
 4027SOL    HW212981   3.131   4.140   5.889
 4028SOL     OW12982   4.773   1.507   3.480
 4028SOL    HW112983   4.863   1.481   3.515
 4028SOL    HW212984   4.709   1.515   3.556
 4029SOL     OW12985   1.751   6.138   6.727
 4029SOL    HW112986   1.762   6.176   6.819
 4029SOL    HW212987   1.663   6.090   6.722
 4030SOL     OW12988   0.024   1.126   2.587
 4030SOL    HW112989   0.058   1.199   2.647
 4030SOL    HW212990   6.955   1.153   2.548
 4031SOL     OW12991   6.280   6.112   0.391
 4031SOL    HW112992   6.353   6.174   0.420
 4031SOL    HW212993   6.318   6.020   0.378
 4032SOL     OW12994   5.159   0.985   2.432
 4032SOL    HW112995   5.083   0.982   2.497
 4032SOL    HW212996   5.187   0.892   2.408
 4033SOL     OW12997   2.108   2.401   2.623
 4033SOL    HW112998   2.177   2.342   2.666
 4033SOL    HW212999   2.140   2.496   2.624
 4034SOL     OW13000   0.238   3.283   5.735
 4034SOL    HW113001   0.146   3.303   5.702
 4034SOL    HW213002   0.305   3.319   5.670
 4035SOL     OW13003   4.315   1.802   1.531
 4035SOL    HW113004   4.261   1.739   1.587
 4035SOL    HW213005   4.412   1.791   1.552
 4036SOL     OW13006   3.065   5.463   2.682
 4036SOL    HW113007   3.139   5.434   2.742
 4036SOL    HW213008   3.084   5.555   2.647
 4037SOL     OW13009   2.735   1.960   5.875
 4037SOL    HW113010   2.693   2.023   5.941
 4037SOL    HW213011   2.696   1.975   5.785
 4038SOL     OW13012   3.413   3.856   6.200
 4038SOL    HW113013   3.504   3.817   6.185
 4038SOL    HW213014   3.352   3.826   6.127
 4039SOL     OW13015   5.666   5.147   1.382
 4039SOL    HW113016   5.728   5.086   1.430
 4039SOL    HW213017   5.615   5.203   1.448
 4040SOL     OW13018   3.103   6.364   4.840
 4040SOL    HW113019   3.113   6.309   4.757
 4040SOL    HW213020   3.122   6.460   4.819
 4041SOL     OW13021   2.578   6.556   0.848
 4041SOL    HW113022   2.494   6.539   0.899
 4041SOL    HW213023   2.561   6.541   0.750
 4042SOL     OW13024   6.565   1.057   3.003
 4042SOL    HW113025   6.565   0.958   3.021
 4042SOL    HW213026   6.592   1.074   2.909
 4043SOL     OW13027   5.870   3.508   6.649
 4043SOL    HW113028   5.951   3.539   6.698
 4043SOL    HW213029   5.793   3.568   6.670
 4044SOL     OW13030   4.910   5.272   3.120
 4044SOL    HW113031   5.002   5.250   3.152
 4044SOL    HW213032   4.855   5.304   3.197
 4045SOL     OW13033   4.999   0.840   5.338
 4045SOL    HW113034   4.949   0.917   5.379
 4045SOL    HW213035   4.953   0.812   5.253
 4046SOL     OW13036   5.934   1.836   2.460
 4046SOL    HW113037   6.013   1.794   2.504
 4046SOL    HW213038   5.870   1.868   2.530
 4047SOL     OW13039   2.596   3.491   6.965
 4047SOL    HW113040   2.685   3.507   7.008
 4047SOL    HW213041   2.606   3.493   6.866
 4048SOL     OW13042   4.237   1.958   2.331
 4048SOL    HW113043   4.271   1.934   2.240
 4048SOL    HW213044   4.297   1.918   2.400
 4049SOL     OW13045   4.172   4.815   0.095
 4049SOL    HW113046   4.228   4.895   0.116
 4049SOL    HW213047   4.077   4.843   0.082
 4050SOL     OW13048   0.735   5.908   1.873
 4050SOL    HW113049   0.830   5.939   1.873
 4050SOL    HW213050   0.679   5.973   1.923
 4051SOL     OW13051   5.374   1.245   5.025
 4051SOL    HW113052   5.305   1.221   4.957
 4051SOL    HW213053   5.453   1.285   4.980
 4052SOL     OW13054   6.164   2.218   3.295
 4052SOL    HW113055   6.133   2.287   3.230
 4052SOL    HW213056   6.146   2.126   3.258
 4053SOL     OW13057   1.966   5.269   4.156
 4053SOL    HW113058   1.883   5.282   4.102
 4053SOL    HW213059   1.951   5.196   4.223
 4054SOL     OW13060   4.016   4.074   1.023
 4054SOL    HW113061   4.060   3.986   1.002
 4054SOL    HW213062   4.085   4.146   1.022
 4055SOL     OW13063   0.626   4.559   1.283
 4055SOL    HW113064   0.558   4.548   1.212
 4055SOL    HW213065   0.710   4.512   1.257
 4056SOL     OW13066   5.054   3.499   0.519
 4056SOL    HW113067   5.035   3.416   0.467
 4056SOL    HW213068   5.033   3.484   0.615
 4057SOL     OW13069   6.929   3.782   0.096
 4057SOL    HW113070   6.889   3.871   0.119
 4057SOL    HW213071   6.908   3.716   0.168
 4058SOL     OW13072   3.379   6.925   6.176
 4058SOL    HW113073   3.344   6.841   6.218
 4058SOL    HW213074   3.386   6.911   6.077
 4059SOL     OW13075   0.617   2.021   3.955
 4059SOL    HW113076   0.705   2.007   4.000
 4059SOL    HW213077   0.617   1.974   3.866
 4060SOL     OW13078   5.799   5.815   5.503
 4060SOL    HW113079   5.720   5.823   5.443
 4060SOL    HW213080   5.883   5.817   5.449
 4061SOL     OW13081   1.865   5.526   0.797
 4061SOL    HW113082   1.825   5.436   0.812
 4061SOL    HW213083   1.896   5.564   0.884
 4062SOL     OW13084   1.616   2.522   1.066
 4062SOL    HW113085   1.684   2.449   1.061
 4062SOL    HW213086   1.627   2.573   1.151
 4063SOL     OW13087   4.654   0.889   0.086
 4063SOL    HW113088   4.615   0.974   0.051
 4063SOL    HW213089   4.732   0.862   0.030
 4064SOL     OW13090   2.212   1.663   5.465
 4064SOL    HW113091   2.173   1.725   5.533
 4064SOL    HW213092   2.289   1.613   5.505
 4065SOL     OW13093   2.595   6.527   1.252
 4065SOL    HW113094   2.674   6.484   1.209
 4065SOL    HW213095   2.515   6.469   1.239
 4066SOL     OW13096   0.166   4.145   3.729
 4066SOL    HW113097   0.149   4.141   3.827
 4066SOL    HW213098   0.265   4.146   3.713
 4067SOL     OW13099   4.893   4.966   0.664
 4067SOL    HW113100   4.932   5.000   0.750
 4067SOL    HW213101   4.953   4.896   0.626
 4068SOL     OW13102   2.236   2.510   5.037
 4068SOL    HW113103   2.272   2.602   5.056
 4068SOL    HW213104   2.230   2.496   4.939
 4069SOL     OW13105   4.395   6.843   6.679
 4069SOL    HW113106   4.423   6.747   6.670
 4069SOL    HW213107   4.347   6.856   6.765
 4070SOL     OW13108   1.406   2.711   3.775
 4070SOL    HW113109   1.367   2.798   3.747
 4070SOL    HW213110   1.486   2.690   3.719
 4071SOL     OW13111   1.189   0.393   3.940
 4071SOL    HW113112   1.113   0.362   3.883
 4071SOL    HW213113   1.158   0.407   4.034
 4072SOL     OW13114   2.723   5.943   3.089
 4072SOL    HW113115   2.715   6.016   3.157
 4072SOL    HW213116   2.638   5.890   3.089
 4073SOL     OW13117   2.916   4.811   0.114
 4073SOL    HW113118   2.837   4.836   0.171
 4073SOL    HW213119   2.889   4.813   0.018
 4074SOL     OW13120   1.609   5.405   2.951
 4074SOL    HW113121   1.551   5.369   3.024
 4074SOL    HW213122   1.701   5.420   2.986
 4075SOL     OW13123   6.197   0.970   0.787
 4075SOL    HW113124   6.109   1.017   0.784
 4075SOL    HW213125   6.209   0.927   0.877
 4076SOL     OW13126   2.486   4.120   5.360
 4076SOL    HW113127   2.479   4.070   5.273
 4076SOL    HW213128   2.487   4.056   5.436
 4077SOL     OW13129   2.285   1.295   1.547
 4077SOL    HW113130   2.310   1.310   1.643
 4077SOL    HW213131   2.200   1.242   1.543
 4078SOL     OW13132   2.708   4.785   2.804
 4078SOL    HW113133   2.663   4.735   2.730
 4078SOL    HW213134   2.776   4.848   2.766
 4079SOL     OW13135   0.769   2.480   4.577
 4079SOL    HW113136   0.737   2.409   4.514
 4079SOL    HW213137   0.729   2.568   4.552
 4080SOL     OW13138   6.194   1.830   4.746
 4080SOL    HW113139   6.148   1.906   4.793
 4080SOL    HW213140   6.125   1.766   4.712
 4081SOL     OW13141   1.794   3.239   4.099
 4081SOL    HW113142   1.812   3.305   4.026
 4081SOL    HW213143   1.828   3.275   4.186
 4082SOL     OW13144   1.253   3.607   0.899
 4082SOL    HW113145   1.240   3.511   0.923
 4082SOL    HW213146   1.340   3.618   0.851
 4083SOL     OW13147   5.479   2.514   4.922
 4083SOL    HW113148   5.382   2.534   4.913
 4083SOL    HW213149   5.500   2.426   4.879
 4084SOL     OW13150   0.772   1.288   4.061
 4084SOL    HW113151   0.784   1.274   4.159
 4084SOL    HW213152   0.733   1.379   4.045
 4085SOL     OW13153   3.409   6.647   6.927
 4085SOL    HW113154   3.465   6.638   7.009
 4085SOL    HW213155   3.420   6.566   6.869
 4086SOL     OW13156   1.617   4.658   0.683
 4086SOL    HW113157   1.521   4.634   0.669
 4086SOL    HW213158   1.633   4.752   0.653
 4087SOL     OW13159   1.622   1.338   2.993
 4087SOL    HW113160   1.717   1.345   3.022
 4087SOL    HW213161   1.569   1.292   3.065
 4088SOL     OW13162   6.577   1.653   1.067
 4088SOL    HW113163   6.510   1.692   1.130
 4088SOL    HW213164   6.658   1.711   1.064
 4089SOL     OW13165   0.894   0.965   4.479
 4089SOL    HW113166   0.977   0.956   4.535
 4089SOL    HW213167   0.813   0.948   4.536
 4090SOL     OW13168   1.783   4.189   5.307
 4090SOL    HW113169   1.683   4.196   5.300
 4090SOL    HW213170   1.818   4.132   5.233
 4091SOL     OW13171   4.563   5.933   0.331
 4091SOL    HW113172   4.491   5.994   0.299
 4091SOL    HW213173   4.651   5.981   0.329
 4092SOL     OW13174   0.085   2.839   4.906
 4092SOL    HW113175   0.110   2.934   4.928
 4092SOL    HW213176   0.030   2.838   4.822
 4093SOL     OW13177   5.745   0.953   3.949
 4093SOL    HW113178   5.728   1.043   3.910
 4093SOL    HW213179   5.658   0.908   3.970
 4094SOL     OW13180   2.105   4.087   5.189
 4094SOL    HW113181   2.181   4.063   5.128
 4094SOL    HW213182   2.062   4.004   5.223
 4095SOL     OW13183   1.330   3.303   6.255
 4095SOL    HW113184   1.283   3.232   6.203
 4095SOL    HW213185   1.416   3.267   6.291
 4096SOL     OW13186   3.800   4.216   0.952
 4096SOL    HW113187   3.793   4.253   0.859
 4096SOL    HW213188   3.887   4.170   0.963
 4097SOL     OW13189   3.462   3.604   5.562
 4097SOL    HW113190   3.458   3.558   5.474
 4097SOL    HW213191   3.449   3.538   5.636
 4098SOL     OW13192   0.364   1.792   2.860
 4098SOL    HW113193   0.295   1.856   2.895
 4098SOL    HW213194   0.325   1.740   2.784
 4099SOL     OW13195   4.628   5.937   1.948
 4099SOL    HW113196   4.571   5.857   1.967
 4099SOL    HW213197   4.706   5.910   1.892
 4100SOL     OW13198   3.708   5.659   3.459
 4100SOL    HW113199   3.677   5.732   3.520
 4100SOL    HW213200   3.656   5.576   3.478
 4101SOL     OW13201   6.121   1.498   6.149
 4101SOL    HW113202   6.123   1.591   6.184
 4101SOL    HW213203   6.188   1.442   6.199
 4102SOL     OW13204   6.056   1.480   0.278
 4102SOL    HW113205   5.962   1.458   0.306
 4102SOL    HW213206   6.057   1.498   0.179
 4103SOL     OW13207   0.518   0.345   2.278
 4103SOL    HW113208   0.617   0.353   2.294
 4103SOL    HW213209   0.502   0.297   2.192
 4104SOL     OW13210   1.216   4.890   2.568
 4104SOL    HW113211   1.235   4.872   2.664
 4104SOL    HW213212   1.121   4.863   2.548
 4105SOL     OW13213   4.563   5.085   0.001
 4105SOL    HW113214   4.492   5.034   0.051
 4105SOL    HW213215   4.640   5.024   7.001
 4106SOL     OW13216   6.915   3.736   4.658
 4106SOL    HW113217   6.822   3.710   4.633
 4106SOL    HW213218   6.958   3.662   4.710
 4107SOL     OW13219   6.873   0.567   1.107
 4107SOL    HW113220   6.836   0.623   1.033
 4107SOL    HW213221   6.950   0.513   1.072
 4108SOL     OW13222   6.206   3.800   5.937
 4108SOL    HW113223   6.260   3.856   6.000
 4108SOL    HW213224   6.121   3.772   5.981
 4109SOL     OW13225   3.206   6.313   3.472
 4109SOL    HW113226   3.130   6.378   3.466
 4109SOL    HW213227   3.201   6.248   3.396
 4110SOL     OW13228   4.804   3.603   6.065
 4110SOL    HW113229   4.763   3.694   6.068
 4110SOL    HW213230   4.796   3.566   5.972
 4111SOL     OW13231   4.152   3.114   6.799
 4111SOL    HW113232   4.243   3.113   6.840
 4111SOL    HW213233   4.157   3.082   6.704
 4112SOL     OW13234   3.133   1.298   3.856
 4112SOL    HW113235   3.134   1.381   3.911
 4112SOL    HW213236   3.041   1.282   3.821
 4113SOL     OW13237   3.484   4.992   4.766
 4113SOL    HW113238   3.584   4.988   4.773
 4113SOL    HW213239   3.458   5.080   4.726
 4114SOL     OW13240   3.109   2.162   2.979
 4114SOL    HW113241   3.040   2.193   3.043
 4114SOL    HW213242   3.131   2.066   2.997
 4115SOL     OW13243   5.278   4.918   1.772
 4115SOL    HW113244   5.226   4.841   1.809
 4115SOL    HW213245   5.296   4.903   1.675
 4116SOL     OW13246   3.276   1.655   1.753
 4116SOL    HW113247   3.359   1.710   1.763
 4116SOL    HW213248   3.260   1.637   1.655
 4117SOL     OW13249   1.192   5.221   1.424
 4117SOL    HW113250   1.118   5.165   1.388
 4117SOL    HW213251   1.199   5.306   1.372
 4118SOL     OW13252   1.821   5.792   0.551
 4118SOL    HW113253   1.818   5.809   0.453
 4118SOL    HW213254   1.755   5.852   0.597
 4119SOL     OW13255   3.631   0.555   4.052
 4119SOL    HW113256   3.635   0.649   4.084
 4119SOL    HW213257   3.721   0.528   4.017
 4120SOL     OW13258   3.262   0.489   1.544
 4120SOL    HW113259   3.237   0.412   1.603
 4120SOL    HW213260   3.213   0.482   1.457
 4121SOL     OW13261   6.729   3.251   4.980
 4121SOL    HW113262   6.692   3.338   5.010
 4121SOL    HW213263   6.755   3.196   5.060
 4122SOL     OW13264   1.430   5.493   5.801
 4122SOL    HW113265   1.517   5.540   5.782
 4122SOL    HW213266   1.365   5.558   5.840
 4123SOL     OW13267   4.664   4.137   6.461
 4123SOL    HW113268   4.639   4.220   6.510
 4123SOL    HW213269   4.728   4.084   6.516
 4124SOL     OW13270   5.570   6.976   4.016
 4124SOL    HW113271   5.624   6.931   4.087
 4124SOL    HW213272   5.542   0.048   4.048
 4125SOL     OW13273   4.186   0.946   0.709
 4125SOL    HW113274   4.179   1.003   0.627
 4125SOL    HW213275   4.274   0.964   0.754
 4126SOL     OW13276   2.047   3.903   4.573
 4126SOL    HW113277   2.093   3.891   4.660
 4126SOL    HW213278   2.076   3.831   4.509
 4127SOL     OW13279   5.810   3.503   5.710
 4127SOL    HW113280   5.889   3.550   5.748
 4127SOL    HW213281   5.733   3.567   5.705
 4128SOL     OW13282   0.737   2.707   2.371
 4128SOL    HW113283   0.689   2.620   2.380
 4128SOL    HW213284   0.835   2.691   2.370
 4129SOL     OW13285   5.784   2.499   6.008
 4129SOL    HW113286   5.857   2.436   6.037
 4129SOL    HW213287   5.804   2.532   5.916
 4130SOL     OW13288   5.971   4.123   0.359
 4130SOL    HW113289   5.925   4.035   0.347
 4130SOL    HW213290   6.041   4.114   0.430
 4131SOL     OW13291   6.368   4.770   3.903
 4131SOL    HW113292   6.455   4.818   3.893
 4131SOL    HW213293   6.377   4.698   3.972
 4132SOL     OW13294   5.335   2.337   3.434
 4132SOL    HW113295   5.352   2.412   3.370
 4132SOL    HW213296   5.343   2.250   3.387
 4133SOL     OW13297   2.859   1.163   1.267
 4133SOL    HW113298   2.812   1.241   1.226
 4133SOL    HW213299   2.957   1.182   1.271
 4134SOL     OW13300   1.289   1.812   0.183
 4134SOL    HW113301   1.301   1.810   0.282
 4134SOL    HW213302   1.368   1.769   0.139
 4135SOL     OW13303   1.856   1.400   1.989
 4135SOL    HW113304   1.816   1.311   1.967
 4135SOL    HW213305   1.837   1.421   2.085
 4136SOL     OW13306   0.425   2.206   4.053
 4136SOL    HW113307   0.496   2.164   3.997
 4136SOL    HW213308   0.387   2.139   4.116
 4137SOL     OW13309   3.158   4.145   6.675
 4137SOL    HW113310   3.217   4.073   6.712
 4137SOL    HW213311   3.194   4.176   6.587
 4138SOL     OW13312   4.166   4.790   3.462
 4138SOL    HW113313   4.118   4.803   3.549
 4138SOL    HW213314   4.142   4.863   3.399
 4139SOL     OW13315   2.034   2.026   6.306
 4139SOL    HW113316   1.949   1.988   6.269
 4139SOL    HW213317   2.079   2.082   6.237
 4140SOL     OW13318   4.610   1.038   4.914
 4140SOL    HW113319   4.634   0.943   4.893
 4140SOL    HW213320   4.593   1.047   5.012
 4141SOL     OW13321   5.501   5.671   0.669
 4141SOL    HW113322   5.526   5.648   0.575
 4141SOL    HW213323   5.509   5.770   0.682
 4142SOL     OW13324   6.863   4.168   1.710
 4142SOL    HW113325   6.823   4.094   1.765
 4142SOL    HW213326   6.826   4.165   1.618
 4143SOL     OW13327   6.812   3.013   0.894
 4143SOL    HW113328   6.749   3.063   0.834
 4143SOL    HW213329   6.775   2.922   0.912
 4144SOL     OW13330   4.978   1.006   2.614
 4144SOL    HW113331   4.939   1.097   2.598
 4144SOL    HW213332   4.996   0.994   2.712
 4145SOL     OW13333   2.231   6.708   1.988
 4145SOL    HW113334   2.191   6.714   1.897
 4145SOL    HW213335   2.227   6.613   2.020
 4146SOL     OW13336   4.790   6.577   0.172
 4146SOL    HW113337   4.839   6.570   0.259
 4146SOL    HW213338   4.777   6.673   0.149
 4147SOL     OW13339   3.465   1.447   5.668
 4147SOL    HW113340   3.442   1.399   5.583
 4147SOL    HW213341   3.381   1.473   5.715
 4148SOL     OW13342   6.443   0.611   3.626
 4148SOL    HW113343   6.499   0.529   3.638
 4148SOL    HW213344   6.479   0.684   3.685
 4149SOL     OW13345   5.992   3.704   2.217
 4149SOL    HW113346   5.970   3.799   2.240
 4149SOL    HW213347   5.943   3.677   2.134
 4150SOL     OW13348   5.905   0.520   6.877
 4150SOL    HW113349   5.924   0.559   6.787
 4150SOL    HW213350   5.867   0.428   6.866
 4151SOL     OW13351   0.269   5.374   0.932
 4151SOL    HW113352   0.355   5.411   0.895
 4151SOL    HW213353   0.242   5.294   0.878
 4152SOL     OW13354   4.053   4.608   1.732
 4152SOL    HW113355   3.970   4.556   1.713
 4152SOL    HW213356   4.129   4.544   1.748
 4153SOL     OW13357   6.297   4.821   6.197
 4153SOL    HW113358   6.388   4.850   6.227
 4153SOL    HW213359   6.263   4.751   6.260
 4154SOL     OW13360   5.854   3.017   5.817
 4154SOL    HW113361   5.908   2.947   5.769
 4154SOL    HW213362   5.786   2.972   5.875
 4155SOL     OW13363   1.151   3.445   1.534
 4155SOL    HW113364   1.137   3.540   1.506
 4155SOL    HW213365   1.247   3.429   1.554
 4156SOL     OW13366   5.858   6.703   5.316
 4156SOL    HW113367   5.901   6.649   5.243
 4156SOL    HW213368   5.851   6.646   5.399
 4157SOL     OW13369   3.750   0.178   4.827
 4157SOL    HW113370   3.683   0.209   4.895
 4157SOL    HW213371   3.724   0.210   4.737
 4158SOL     OW13372   0.641   6.466   3.766
 4158SOL    HW113373   0.657   6.411   3.684
 4158SOL    HW213374   0.725   6.471   3.820
 4159SOL     OW13375   1.169   2.595   5.087
 4159SOL    HW113376   1.133   2.601   4.994
 4159SOL    HW213377   1.262   2.633   5.090
 4160SOL     OW13378   0.649   0.778   1.613
 4160SOL    HW113379   0.699   0.861   1.639
 4160SOL    HW213380   0.597   0.795   1.529
 4161SOL     OW13381   6.328   1.686   0.486
 4161SOL    HW113382   6.403   1.670   0.550
 4161SOL    HW213383   6.313   1.784   0.476
 4162SOL     OW13384   6.071   6.840   5.105
 4162SOL    HW113385   5.995   6.781   5.077
 4162SOL    HW213386   6.143   6.784   5.146
 4163SOL     OW13387   5.639   1.599   4.425
 4163SOL    HW113388   5.713   1.533   4.439
 4163SOL    HW213389   5.674   1.677   4.373
 4164SOL     OW13390   1.848   0.325   6.862
 4164SOL    HW113391   1.758   0.336   6.820
 4164SOL    HW213392   1.877   0.412   6.903
 4165SOL     OW13393   3.999   6.875   1.658
 4165SOL    HW113394   4.073   6.851   1.720
 4165SOL    HW213395   3.916   6.825   1.684
 4166SOL     OW13396   5.144   3.099   0.818
 4166SOL    HW113397   5.128   3.170   0.887
 4166SOL    HW213398   5.132   3.009   0.860
 4167SOL     OW13399   2.568   2.863   1.253
 4167SOL    HW113400   2.472   2.844   1.232
 4167SOL    HW213401   2.615   2.894   1.170
 4168SOL     OW13402   1.117   5.281   1.682
 4168SOL    HW113403   1.056   5.204   1.700
 4168SOL    HW213404   1.149   5.277   1.588
 4169SOL     OW13405   5.238   3.155   4.174
 4169SOL    HW113406   5.248   3.240   4.227
 4169SOL    HW213407   5.234   3.178   4.076
 4170SOL     OW13408   4.072   2.848   5.571
 4170SOL    HW113409   4.030   2.778   5.629
 4170SOL    HW213410   4.171   2.848   5.584
 4171SOL     OW13411   5.345   3.589   1.431
 4171SOL    HW113412   5.296   3.516   1.382
 4171SOL    HW213413   5.296   3.675   1.419
 4172SOL     OW13414   0.961   1.986   0.901
 4172SOL    HW113415   0.985   1.982   0.998
 4172SOL    HW213416   1.037   1.952   0.846
 4173SOL     OW13417   5.152   3.443   5.322
 4173SOL    HW113418   5.097   3.418   5.242
 4173SOL    HW213419   5.116   3.527   5.362
 4174SOL     OW13420   4.664   0.837   4.458
 4174SOL    HW113421   4.689   0.927   4.421
 4174SOL    HW213422   4.740   0.802   4.514
 4175SOL     OW13423   3.068   0.575   2.655
 4175SOL    HW113424   3.056   0.671   2.627
 4175SOL    HW213425   3.077   0.570   2.754
 4176SOL     OW13426   5.400   6.105   3.267
 4176SOL    HW113427   5.384   6.009   3.290
 4176SOL    HW213428   5.390   6.161   3.349
 4177SOL     OW13429   0.486   6.311   2.865
 4177SOL    HW113430   0.425   6.232   2.870
 4177SOL    HW213431   0.492   6.342   2.771
 4178SOL     OW13432   3.575   2.252   5.515
 4178SOL    HW113433   3.539   2.182   5.577
 4178SOL    HW213434   3.514   2.263   5.437
 4179SOL     OW13435   5.545   3.950   5.469
 4179SOL    HW113436   5.590   3.866   5.441
 4179SOL    HW213437   5.511   3.941   5.562
 4180SOL     OW13438   4.446   4.292   1.571
 4180SOL    HW113439   4.452   4.210   1.515
 4180SOL    HW213440   4.439   4.267   1.667
 4181SOL     OW13441   0.948   0.981   0.429
 4181SOL    HW113442   0.869   0.993   0.369
 4181SOL    HW213443   0.922   0.921   0.505
 4182SOL     OW13444   5.639   0.549   2.717
 4182SOL    HW113445   5.635   0.449   2.720
 4182SOL    HW213446   5.559   0.584   2.669
 4183SOL     OW13447   1.487   1.767   1.518
 4183SOL    HW113448   1.425   1.698   1.480
 4183SOL    HW213449   1.498   1.751   1.616
 4184SOL     OW13450   4.349   5.434   0.112
 4184SOL    HW113451   4.326   5.531   0.109
 4184SOL    HW213452   4.437   5.420   0.066
 4185SOL     OW13453   0.234   0.148   3.850
 4185SOL    HW113454   0.318   0.185   3.809
 4185SOL    HW213455   0.186   0.221   3.899
 4186SOL     OW13456   2.689   4.031   0.998
 4186SOL    HW113457   2.669   4.089   1.077
 4186SOL    HW213458   2.670   3.935   1.021
 4187SOL     OW13459   4.088   3.588   6.477
 4187SOL    HW113460   4.067   3.636   6.392
 4187SOL    HW213461   4.095   3.654   6.552
 4188SOL     OW13462   4.881   0.193   4.754
 4188SOL    HW113463   4.974   0.232   4.757
 4188SOL    HW213464   4.885   0.097   4.781
 4189SOL     OW13465   2.257   1.871   3.817
 4189SOL    HW113466   2.334   1.813   3.840
 4189SOL    HW213467   2.287   1.966   3.811
 4190SOL     OW13468   2.542   1.022   0.866
 4190SOL    HW113469   2.494   0.985   0.946
 4190SOL    HW213470   2.484   1.011   0.785
 4191SOL     OW13471   6.559   1.593   1.857
 4191SOL    HW113472   6.624   1.642   1.915
 4191SOL    HW213473   6.599   1.505   1.831
 4192SOL     OW13474   6.168   1.077   3.221
 4192SOL    HW113475   6.106   1.151   3.248
 4192SOL    HW213476   6.210   1.099   3.133
 4193SOL     OW13477   1.795   6.845   2.278
 4193SOL    HW113478   1.793   6.785   2.358
 4193SOL    HW213479   1.886   6.842   2.236
 4194SOL     OW13480   0.654   0.879   4.033
 4194SOL    HW113481   0.691   0.867   4.126
 4194SOL    HW213482   0.610   0.968   4.025
 4195SOL     OW13483   4.708   0.356   1.313
 4195SOL    HW113484   4.693   0.296   1.392
 4195SOL    HW213485   4.767   0.310   1.247
 4196SOL     OW13486   4.995   2.484   3.296
 4196SOL    HW113487   5.054   2.423   3.243
 4196SOL    HW213488   4.936   2.535   3.233
 4197SOL     OW13489   4.595   4.432   4.219
 4197SOL    HW113490   4.625   4.451   4.126
 4197SOL    HW213491   4.614   4.336   4.241
 4198SOL     OW13492   6.253   3.396   6.733
 4198SOL    HW113493   6.174   3.456   6.746
 4198SOL    HW213494   6.242   3.313   6.788
 4199SOL     OW13495   3.034   3.740   5.744
 4199SOL    HW113496   3.009   3.828   5.705
 4199SOL    HW213497   3.129   3.742   5.776
 4200SOL     OW13498   2.002   0.194   6.665
 4200SOL    HW113499   1.994   0.094   6.657
 4200SOL    HW213500   1.946   0.226   6.741
 4201SOL     OW13501   5.685   6.044   3.900
 4201SOL    HW113502   5.722   6.137   3.898
 4201SOL    HW213503   5.701   6.000   3.812
 4202SOL     OW13504   5.482   4.652   4.660
 4202SOL    HW113505   5.438   4.708   4.589
 4202SOL    HW213506   5.538   4.711   4.718
 4203SOL     OW13507   5.274   5.738   3.591
 4203SOL    HW113508   5.243   5.815   3.647
 4203SOL    HW213509   5.256   5.758   3.495
 4204SOL     OW13510   3.456   3.482   1.451
 4204SOL    HW113511   3.434   3.549   1.381
 4204SOL    HW213512   3.448   3.523   1.542
 4205SOL     OW13513   2.855   4.825   3.567
 4205SOL    HW113514   2.906   4.811   3.652
 4205SOL    HW213515   2.824   4.737   3.533
 4206SOL     OW13516   5.610   7.017   4.446
 4206SOL    HW113517   5.606   0.098   4.435
 4206SOL    HW213518   5.519   6.982   4.472
 4207SOL     OW13519   1.326   1.213   1.667
 4207SOL    HW113520   1.356   1.219   1.762
 4207SOL    HW213521   1.347   1.299   1.620
 4208SOL     OW13522   0.751   3.714   1.047
 4208SOL    HW113523   0.838   3.686   1.005
 4208SOL    HW213524   0.695   3.633   1.066
 4209SOL     OW13525   2.908   0.625   5.024
 4209SOL    HW113526   2.993   0.676   5.029
 4209SOL    HW213527   2.845   0.658   5.094
 4210SOL     OW13528   5.159   2.864   0.521
 4210SOL    HW113529   5.138   2.943   0.579
 4210SOL    HW213530   5.096   2.861   0.444
 4211SOL     OW13531   4.588   4.699   3.166
 4211SOL    HW113532   4.628   4.717   3.256
 4211SOL    HW213533   4.505   4.644   3.177
 4212SOL     OW13534   6.133   0.598   2.973
 4212SOL    HW113535   6.048   0.555   2.943
 4212SOL    HW213536   6.177   0.541   3.042
 4213SOL     OW13537   1.255   0.681   2.651
 4213SOL    HW113538   1.186   0.609   2.650
 4213SOL    HW213539   1.213   0.768   2.623
 4214SOL     OW13540   1.541   2.987   4.686
 4214SOL    HW113541   1.532   3.072   4.634
 4214SOL    HW213542   1.574   3.007   4.778
 4215SOL     OW13543   1.067   5.526   4.557
 4215SOL    HW113544   1.132   5.513   4.483
 4215SOL    HW213545   0.974   5.507   4.524
 4216SOL     OW13546   1.558   3.217   5.478
 4216SOL    HW113547   1.578   3.261   5.565
 4216SOL    HW213548   1.512   3.130   5.494
 4217SOL     OW13549   0.110   0.245   3.080
 4217SOL    HW113550   0.150   0.319   3.026
 4217SOL    HW213551   0.165   0.162   3.069
 4218SOL     OW13552   4.150   0.096   2.212
 4218SOL    HW113553   4.178   0.183   2.172
 4218SOL    HW213554   4.063   0.067   2.173
 4219SOL     OW13555   4.497   6.526   3.165
 4219SOL    HW113556   4.400   6.504   3.166
 4219SOL    HW213557   4.514   6.609   3.218
 4220SOL     OW13558   6.660   2.983   3.173
 4220SOL    HW113559   6.754   2.982   3.139
 4220SOL    HW213560   6.655   2.934   3.260
 4221SOL     OW13561   5.272   5.852   5.662
 4221SOL    HW113562   5.176   5.821   5.668
 4221SOL    HW213563   5.297   5.862   5.566
 4222SOL     OW13564   4.629   2.485   0.680
 4222SOL    HW113565   4.537   2.511   0.648
 4222SOL    HW213566   4.623   2.403   0.736
 4223SOL     OW13567   3.436   4.095   2.699
 4223SOL    HW113568   3.482   4.113   2.612
 4223SOL    HW213569   3.503   4.085   2.772
 4224SOL     OW13570   4.299   2.299   4.870
 4224SOL    HW113571   4.252   2.210   4.868
 4224SOL    HW213572   4.261   2.355   4.944
 4225SOL     OW13573   5.878   0.639   4.784
 4225SOL    HW113574   5.875   0.702   4.707
 4225SOL    HW213575   5.844   0.550   4.755
 4226SOL     OW13576   1.086   1.319   4.028
 4226SOL    HW113577   1.143   1.335   4.108
 4226SOL    HW213578   1.033   1.236   4.041
 4227SOL     OW13579   5.898   4.115   6.844
 4227SOL    HW113580   5.974   4.051   6.856
 4227SOL    HW213581   5.922   4.203   6.885
 4228SOL     OW13582   6.052   5.101   2.215
 4228SOL    HW113583   6.034   5.166   2.141
 4228SOL    HW213584   5.994   5.020   2.203
 4229SOL     OW13585   5.344   4.703   5.769
 4229SOL    HW113586   5.387   4.737   5.685
 4229SOL    HW213587   5.369   4.608   5.783
 4230SOL     OW13588   2.978   0.042   4.616
 4230SOL    HW113589   2.980   6.961   4.607
 4230SOL    HW213590   3.069   0.075   4.639
 4231SOL     OW13591   4.346   6.788   5.536
 4231SOL    HW113592   4.278   6.801   5.464
 4231SOL    HW213593   4.371   6.876   5.576
 4232SOL     OW13594   2.305   4.152   1.975
 4232SOL    HW113595   2.288   4.085   2.048
 4232SOL    HW213596   2.223   4.207   1.961
 4233SOL     OW13597   5.762   6.993   0.708
 4233SOL    HW113598   5.736   0.024   0.625
 4233SOL    HW213599   5.732   6.898   0.701
 4234SOL     OW13600   2.747   4.596   5.639
 4234SOL    HW113601   2.648   4.599   5.650
 4234SOL    HW213602   2.791   4.593   5.729
 4235SOL     OW13603   6.495   3.767   5.544
 4235SOL    HW113604   6.564   3.826   5.501
 4235SOL    HW213605   6.512   3.672   5.519
 4236SOL     OW13606   1.290   3.369   4.611
 4236SOL    HW113607   1.263   3.379   4.515
 4236SOL    HW213608   1.212   3.389   4.670
 4237SOL     OW13609   5.265   3.629   4.877
 4237SOL    HW113610   5.310   3.629   4.966
 4237SOL    HW213611   5.185   3.569   4.880
 4238SOL     OW13612   4.445   5.195   4.196
 4238SOL    HW113613   4.464   5.107   4.240
 4238SOL    HW213614   4.352   5.195   4.160
 4239SOL     OW13615   5.052   5.379   5.682
 4239SOL    HW113616   4.995   5.461   5.691
 4239SOL    HW213617   5.088   5.375   5.589
 4240SOL     OW13618   2.814   4.877   6.363
 4240SOL    HW113619   2.722   4.866   6.401
 4240SOL    HW213620   2.824   4.970   6.327
 4241SOL     OW13621   3.647   0.866   6.707
 4241SOL    HW113622   3.726   0.875   6.646
 4241SOL    HW213623   3.650   0.778   6.753
 4242SOL     OW13624   1.709   0.532   2.378
 4242SOL    HW113625   1.777   0.516   2.449
 4242SOL    HW213626   1.617   0.522   2.417
 4243SOL     OW13627   1.531   2.648   2.959
 4243SOL    HW113628   1.494   2.740   2.973
 4243SOL    HW213629   1.462   2.591   2.915
 4244SOL     OW13630   3.966   6.528   1.923
 4244SOL    HW113631   3.902   6.528   1.846
 4244SOL    HW213632   4.060   6.519   1.888
 4245SOL     OW13633   6.489   3.641   1.468
 4245SOL    HW113634   6.414   3.691   1.512
 4245SOL    HW213635   6.571   3.645   1.525
 4246SOL     OW13636   4.455   1.690   3.710
 4246SOL    HW113637   4.544   1.678   3.754
 4246SOL    HW213638   4.427   1.786   3.716
 4247SOL     OW13639   1.345   5.046   6.192
 4247SOL    HW113640   1.292   5.016   6.272
 4247SOL    HW213641   1.330   4.983   6.116
 4248SOL     OW13642   1.870   0.858   3.554
 4248SOL    HW113643   1.917   0.823   3.473
 4248SOL    HW213644   1.901   0.951   3.573
 4249SOL     OW13645   6.423   6.744   4.864
 4249SOL    HW113646   6.419   6.823   4.925
 4249SOL    HW213647   6.517   6.731   4.832
 4250SOL     OW13648   0.001   5.521   3.982
 4250SOL    HW113649   0.061   5.463   3.928
 4250SOL    HW213650   6.983   5.469   4.059
 4251SOL     OW13651   6.203   2.400   5.586
 4251SOL    HW113652   6.154   2.443   5.510
 4251SOL    HW213653   6.224   2.469   5.655
 4252SOL     OW13654   0.020   6.715   6.926
 4252SOL    HW113655   0.023   6.635   6.866
 4252SOL    HW213656   7.009   6.795   6.874
 4253SOL     OW13657   4.807   5.485   2.586
 4253SOL    HW113658   4.722   5.434   2.604
 4253SOL    HW213659   4.790   5.583   2.596
 4254SOL     OW13660   1.730   2.949   6.752
 4254SOL    HW113661   1.781   3.035   6.749
 4254SOL    HW213662   1.697   2.933   6.845
 4255SOL     OW13663   1.218   3.327   3.372
 4255SOL    HW113664   1.144   3.285   3.320
 4255SOL    HW213665   1.187   3.416   3.408
 4256SOL     OW13666   0.714   6.183   1.983
 4256SOL    HW113667   0.665   6.157   2.066
 4256SOL    HW213668   0.709   6.282   1.971
 4257SOL     OW13669   6.218   0.264   4.176
 4257SOL    HW113670   6.223   0.164   4.177
 4257SOL    HW213671   6.122   0.292   4.167
 4258SOL     OW13672   3.198   5.916   0.869
 4258SOL    HW113673   3.200   5.893   0.772
 4258SOL    HW213674   3.162   5.839   0.921
 4259SOL     OW13675   1.052   0.056   1.381
 4259SOL    HW113676   0.971   0.010   1.345
 4259SOL    HW213677   1.063   0.034   1.478
 4260SOL     OW13678   5.120   1.496   4.825
 4260SOL    HW113679   5.175   1.531   4.901
 4260SOL    HW213680   5.141   1.400   4.809
 4261SOL     OW13681   2.453   6.037   4.173
 4261SOL    HW113682   2.447   6.067   4.269
 4261SOL    HW213683   2.522   6.090   4.126
 4262SOL     OW13684   2.559   4.113   6.577
 4262SOL    HW113685   2.605   4.147   6.660
 4262SOL    HW213686   2.558   4.184   6.508
 4263SOL     OW13687   2.260   1.086   3.759
 4263SOL    HW113688   2.356   1.114   3.764
 4263SOL    HW213689   2.235   1.034   3.840
 4264SOL     OW13690   5.015   1.599   5.528
 4264SOL    HW113691   5.059   1.661   5.462
 4264SOL    HW213692   4.926   1.571   5.493
 4265SOL     OW13693   2.567   6.833   6.646
 4265SOL    HW113694   2.520   6.822   6.733
 4265SOL    HW213695   2.504   6.812   6.571
 4266SOL     OW13696   1.428   5.324   1.217
 4266SOL    HW113697   1.472   5.385   1.151
 4266SOL    HW213698   1.330   5.342   1.218
 4267SOL     OW13699   1.473   4.285   4.903
 4267SOL    HW113700   1.506   4.254   4.814
 4267SOL    HW213701   1.551   4.310   4.960
 4268SOL     OW13702   1.168   4.210   6.671
 4268SOL    HW113703   1.134   4.162   6.590
 4268SOL    HW213704   1.268   4.216   6.667
 4269SOL     OW13705   2.779   1.059   5.280
 4269SOL    HW113706   2.767   1.136   5.344
 4269SOL    HW213707   2.696   1.047   5.226
 4270SOL     OW13708   3.388   3.202   0.889
 4270SOL    HW113709   3.297   3.239   0.909
 4270SOL    HW213710   3.381   3.131   0.819
 4271SOL     OW13711   0.142   1.168   1.556
 4271SOL    HW113712   0.134   1.124   1.467
 4271SOL    HW213713   0.059   1.149   1.610
 4272SOL     OW13714   0.441   1.174   6.922
 4272SOL    HW113715   0.376   1.198   6.994
 4272SOL    HW213716   0.534   1.171   6.960
 4273SOL     OW13717   3.089   5.956   4.546
 4273SOL    HW113718   2.992   5.970   4.528
 4273SOL    HW213719   3.127   5.892   4.479
 4274SOL     OW13720   6.652   1.327   1.827
 4274SOL    HW113721   6.616   1.338   1.919
 4274SOL    HW213722   6.726   1.259   1.827
 4275SOL     OW13723   0.112   2.462   3.545
 4275SOL    HW113724   0.078   2.539   3.598
 4275SOL    HW213725   0.039   2.427   3.486
 4276SOL     OW13726   2.179   5.934   3.496
 4276SOL    HW113727   2.273   5.909   3.471
 4276SOL    HW213728   2.120   5.927   3.415
 4277SOL     OW13729   5.976   5.541   2.503
 4277SOL    HW113730   5.911   5.610   2.470
 4277SOL    HW213731   5.926   5.462   2.538
 4278SOL     OW13732   1.569   6.756   2.116
 4278SOL    HW113733   1.469   6.752   2.125
 4278SOL    HW213734   1.609   6.780   2.204
 4279SOL     OW13735   1.205   1.520   3.537
 4279SOL    HW113736   1.246   1.608   3.511
 4279SOL    HW213737   1.193   1.517   3.636
 4280SOL     OW13738   1.343   6.873   6.432
 4280SOL    HW113739   1.316   6.777   6.424
 4280SOL    HW213740   1.277   6.931   6.384
 4281SOL     OW13741   5.268   5.861   3.328
 4281SOL    HW113742   5.182   5.892   3.287
 4281SOL    HW213743   5.307   5.788   3.272
 4282SOL     OW13744   3.894   4.478   1.044
 4282SOL    HW113745   3.911   4.501   0.949
 4282SOL    HW213746   3.845   4.391   1.050
 4283SOL     OW13747   4.791   1.354   4.670
 4283SOL    HW113748   4.699   1.326   4.643
 4283SOL    HW213749   4.858   1.309   4.612
 4284SOL     OW13750   4.979   5.425   6.043
 4284SOL    HW113751   4.884   5.454   6.033
 4284SOL    HW213752   4.983   5.329   6.071
 4285SOL     OW13753   3.457   0.762   5.557
 4285SOL    HW113754   3.415   0.678   5.592
 4285SOL    HW213755   3.472   0.753   5.458
 4286SOL     OW13756   6.013   0.520   6.194
 4286SOL    HW113757   6.063   0.459   6.255
 4286SOL    HW213758   5.919   0.487   6.184
 4287SOL     OW13759   3.900   6.942   0.684
 4287SOL    HW113760   3.850   6.930   0.598
 4287SOL    HW213761   3.984   6.888   0.682
 4288SOL     OW13762   0.003   6.708   2.697
 4288SOL    HW113763   7.012   6.663   2.608
 4288SOL    HW213764   6.994   6.803   2.690
 4289SOL     OW13765   0.504   4.334   4.107
 4289SOL    HW113766   0.471   4.365   4.018
 4289SOL    HW213767   0.457   4.385   4.179
 4290SOL     OW13768   0.751   1.530   3.382
 4290SOL    HW113769   0.809   1.551   3.461
 4290SOL    HW213770   0.670   1.480   3.413
 4291SOL     OW13771   4.281   3.607   5.903
 4291SOL    HW113772   4.290   3.698   5.943
 4291SOL    HW213773   4.370   3.577   5.868
 4292SOL     OW13774   6.158   2.301   1.478
 4292SOL    HW113775   6.078   2.320   1.535
 4292SOL    HW213776   6.197   2.212   1.503
 4293SOL     OW13777   4.126   3.607   0.020
 4293SOL    HW113778   4.038   3.566   7.014
 4293SOL    HW213779   4.119   3.648   0.111
 4294SOL     OW13780   2.085   2.211   6.490
 4294SOL    HW113781   2.144   2.272   6.436
 4294SOL    HW213782   2.066   2.128   6.437
 4295SOL     OW13783   3.903   6.044   3.078
 4295SOL    HW113784   3.914   6.019   3.174
 4295SOL    HW213785   3.809   6.026   3.050
 4296SOL     OW13786   3.120   6.889   3.142
 4296SOL    HW113787   3.080   6.801   3.114
 4296SOL    HW213788   3.134   6.946   3.061
 4297SOL     OW13789   5.640   4.951   0.432
 4297SOL    HW113790   5.568   5.007   0.472
 4297SOL    HW213791   5.684   4.896   0.504
 4298SOL     OW13792   1.926   6.682   0.688
 4298SOL    HW113793   2.025   6.695   0.697
 4298SOL    HW213794   1.883   6.770   0.664
 4299SOL     OW13795   0.584   2.730   6.818
 4299SOL    HW113796   0.485   2.723   6.834
 4299SOL    HW213797   0.619   2.813   6.861
 4300SOL     OW13798   2.502   0.766   1.241
 4300SOL    HW113799   2.574   0.835   1.230
 4300SOL    HW213800   2.415   0.811   1.259
 4301SOL     OW13801   2.702   6.295   0.308
 4301SOL    HW113802   2.608   6.325   0.325
 4301SOL    HW213803   2.716   6.206   0.351
 4302SOL     OW13804   2.255   5.483   5.940
 4302SOL    HW113805   2.242   5.563   5.881
 4302SOL    HW213806   2.171   5.430   5.943
 4303SOL     OW13807   5.870   5.556   3.090
 4303SOL    HW113808   5.803   5.488   3.062
 4303SOL    HW213809   5.958   5.535   3.046
 4304SOL     OW13810   3.589   3.653   1.105
 4304SOL    HW113811   3.589   3.583   1.034
 4304SOL    HW213812   3.518   3.632   1.172
 4305SOL     OW13813   1.174   6.748   5.524
 4305SOL    HW113814   1.216   6.667   5.565
 4305SOL    HW213815   1.084   6.723   5.487
 4306SOL     OW13816   5.798   4.212   5.218
 4306SOL    HW113817   5.843   4.125   5.239
 4306SOL    HW213818   5.865   4.276   5.181
 4307SOL     OW13819   0.377   1.341   6.131
 4307SOL    HW113820   0.460   1.306   6.088
 4307SOL    HW213821   0.402   1.398   6.210
 4308SOL     OW13822   4.856   5.962   6.618
 4308SOL    HW113823   4.815   5.992   6.532
 4308SOL    HW213824   4.798   5.893   6.661
 4309SOL     OW13825   0.741   1.805   0.596
 4309SOL    HW113826   0.742   1.902   0.574
 4309SOL    HW213827   0.817   1.759   0.550
 4310SOL     OW13828   6.883   2.261   2.538
 4310SOL    HW113829   6.969   2.215   2.517
 4310SOL    HW213830   6.854   2.316   2.460
 4311SOL     OW13831   0.504   0.247   1.699
 4311SOL    HW113832   0.561   0.169   1.724
 4311SOL    HW213833   0.563   0.325   1.677
 4312SOL     OW13834   6.977   4.973   2.441
 4312SOL    HW113835   0.057   4.977   2.459
 4312SOL    HW213836   6.928   4.957   2.527
 4313SOL     OW13837   0.262   2.993   6.633
 4313SOL    HW113838   0.240   2.921   6.567
 4313SOL    HW213839   0.291   2.951   6.719
 4314SOL     OW13840   0.513   1.097   5.961
 4314SOL    HW113841   0.591   1.113   5.901
 4314SOL    HW213842   0.527   1.011   6.011
 4315SOL     OW13843   2.798   1.064   4.481
 4315SOL    HW113844   2.743   1.004   4.538
 4315SOL    HW213845   2.744   1.095   4.403
 4316SOL     OW13846   5.088   6.072   1.240
 4316SOL    HW113847   5.103   6.056   1.337
 4316SOL    HW213848   5.033   6.154   1.226
 4317SOL     OW13849   4.787   0.850   5.949
 4317SOL    HW113850   4.877   0.814   5.972
 4317SOL    HW213851   4.721   0.775   5.945
 4318SOL     OW13852   0.886   0.184   4.277
 4318SOL    HW113853   0.954   0.113   4.255
 4318SOL    HW213854   0.798   0.141   4.294
 4319SOL     OW13855   1.700   4.795   2.626
 4319SOL    HW113856   1.674   4.713   2.575
 4319SOL    HW213857   1.641   4.871   2.599
 4320SOL     OW13858   3.171   6.924   1.194
 4320SOL    HW113859   3.190   6.979   1.112
 4320SOL    HW213860   3.123   6.840   1.167
 4321SOL     OW13861   6.783   6.665   2.855
 4321SOL    HW113862   6.875   6.656   2.819
 4321SOL    HW213863   6.717   6.643   2.784
 4322SOL     OW13864   1.578   2.761   4.905
 4322SOL    HW113865   1.671   2.749   4.869
 4322SOL    HW213866   1.570   2.851   4.947
 4323SOL     OW13867   4.342   5.017   0.155
 4323SOL    HW113868   4.389   5.018   0.243
 4323SOL    HW213869   4.289   5.101   0.144
 4324SOL     OW13870   0.718   4.604   5.915
 4324SOL    HW113871   0.743   4.525   5.860
 4324SOL    HW213872   0.704   4.683   5.856
 4325SOL     OW13873   2.378   0.676   2.630
 4325SOL    HW113874   2.449   0.740   2.601
 4325SOL    HW213875   2.415   0.617   2.702
 4326SOL     OW13876   5.214   2.041   2.612
 4326SOL    HW113877   5.202   2.037   2.513
 4326SOL    HW213878   5.149   2.106   2.651
 4327SOL     OW13879   2.608   6.184   3.621
 4327SOL    HW113880   2.652   6.125   3.553
 4327SOL    HW213881   2.576   6.268   3.576
 4328SOL     OW13882   6.571   0.107   4.183
 4328SOL    HW113883   6.559   0.008   4.196
 4328SOL    HW213884   6.624   0.123   4.100
 4329SOL     OW13885   0.189   1.819   6.403
 4329SOL    HW113886   0.220   1.724   6.407
 4329SOL    HW213887   0.091   1.821   6.380
 4330SOL     OW13888   3.045   4.869   4.452
 4330SOL    HW113889   3.066   4.966   4.439
 4330SOL    HW213890   3.055   4.846   4.549
 4331SOL     OW13891   5.580   1.101   2.115
 4331SOL    HW113892   5.503   1.038   2.124
 4331SOL    HW213893   5.545   1.195   2.112
 4332SOL     OW13894   0.555   5.436   1.997
 4332SOL    HW113895   0.543   5.496   1.918
 4332SOL    HW213896   0.652   5.427   2.019
 4333SOL     OW13897   4.015   1.967   5.782
 4333SOL    HW113898   4.033   2.066   5.774
 4333SOL    HW213899   3.979   1.948   5.873
 4334SOL     OW13900   0.205   2.948   4.592
 4334SOL    HW113901   0.235   3.041   4.613
 4334SOL    HW213902   0.112   2.951   4.555
 4335SOL     OW13903   2.680   3.750   1.435
 4335SOL    HW113904   2.597   3.697   1.421
 4335SOL    HW213905   2.684   3.781   1.531
 4336SOL     OW13906   2.556   5.709   5.673
 4336SOL    HW113907   2.465   5.707   5.716
 4336SOL    HW213908   2.546   5.720   5.574
 4337SOL     OW13909   1.213   5.117   3.766
 4337SOL    HW113910   1.140   5.159   3.713
 4337SOL    HW213911   1.211   5.151   3.860
 4338SOL     OW13912   3.581   1.142   5.719
 4338SOL    HW113913   3.644   1.216   5.698
 4338SOL    HW213914   3.502   1.178   5.770
 4339SOL     OW13915   3.868   3.863   6.236
 4339SOL    HW113916   3.851   3.945   6.182
 4339SOL    HW213917   3.843   3.782   6.183
 4340SOL     OW13918   6.237   4.048   1.170
 4340SOL    HW113919   6.168   3.977   1.181
 4340SOL    HW213920   6.204   4.118   1.106
 4341SOL     OW13921   6.358   6.910   2.456
 4341SOL    HW113922   6.271   6.870   2.484
 4341SOL    HW213923   6.416   6.924   2.536
 4342SOL     OW13924   4.931   3.763   2.458
 4342SOL    HW113925   4.977   3.829   2.518
 4342SOL    HW213926   4.864   3.812   2.401
 4343SOL     OW13927   4.141   6.576   5.867
 4343SOL    HW113928   4.086   6.653   5.901
 4343SOL    HW213929   4.232   6.609   5.843
 4344SOL     OW13930   6.828   3.367   3.896
 4344SOL    HW113931   6.815   3.463   3.869
 4344SOL    HW213932   6.877   3.319   3.824
 4345SOL     OW13933   3.092   3.084   2.666
 4345SOL    HW113934   3.066   3.160   2.726
 4345SOL    HW213935   3.095   3.116   2.571
 4346SOL     OW13936   1.333   3.163   2.730
 4346SOL    HW113937   1.256   3.178   2.791
 4346SOL    HW213938   1.396   3.240   2.736
 4347SOL     OW13939   6.397   5.869   0.426
 4347SOL    HW113940   6.371   5.777   0.395
 4347SOL    HW213941   6.490   5.889   0.395
 4348SOL     OW13942   5.507   5.088   3.738
 4348SOL    HW113943   5.576   5.085   3.810
 4348SOL    HW213944   5.440   5.160   3.757
 4349SOL     OW13945   0.173   3.695   4.116
 4349SOL    HW113946   0.095   3.660   4.168
 4349SOL    HW213947   0.258   3.660   4.155
 4350SOL     OW13948   3.830   1.583   4.896
 4350SOL    HW113949   3.875   1.611   4.981
 4350SOL    HW213950   3.898   1.567   4.825
 4351SOL     OW13951   1.074   6.063   0.455
 4351SOL    HW113952   1.071   6.149   0.506
 4351SOL    HW213953   1.105   5.990   0.516
 4352SOL     OW13954   3.559   4.295   1.034
 4352SOL    HW113955   3.653   4.291   1.001
 4352SOL    HW213956   3.498   4.248   0.970
 4353SOL     OW13957   2.894   2.728   1.048
 4353SOL    HW113958   2.902   2.729   1.148
 4353SOL    HW213959   2.985   2.730   1.008
 4354SOL     OW13960   5.913   0.085   3.304
 4354SOL    HW113961   5.830   0.038   3.334
 4354SOL    HW213962   5.992   0.024   3.313
 4355SOL     OW13963   1.940   5.593   2.772
 4355SOL    HW113964   1.924   5.545   2.859
 4355SOL    HW213965   1.884   5.551   2.701
 4356SOL     OW13966   5.572   2.482   5.544
 4356SOL    HW113967   5.525   2.537   5.613
 4356SOL    HW213968   5.576   2.533   5.458
 4357SOL     OW13969   5.834   0.476   2.100
 4357SOL    HW113970   5.736   0.480   2.114
 4357SOL    HW213971   5.870   0.391   2.138
 4358SOL     OW13972   2.823   0.190   6.987
 4358SOL    HW113973   2.764   0.263   0.003
 4358SOL    HW213974   2.798   0.168   6.893
 4359SOL     OW13975   2.670   1.876   0.146
 4359SOL    HW113976   2.663   1.799   0.209
 4359SOL    HW213977   2.617   1.857   0.064
 4360SOL     OW13978   1.852   4.123   3.889
 4360SOL    HW113979   1.765   4.083   3.859
 4360SOL    HW213980   1.923   4.053   3.891
 4361SOL     OW13981   6.544   1.694   0.701
 4361SOL    HW113982   6.554   1.610   0.754
 4361SOL    HW213983   6.633   1.721   0.664
 4362SOL     OW13984   0.946   5.440   3.420
 4362SOL    HW113985   0.898   5.494   3.489
 4362SOL    HW213986   1.024   5.393   3.462
 4363SOL     OW13987   4.549   0.926   2.527
 4363SOL    HW113988   4.592   0.880   2.604
 4363SOL    HW213989   4.452   0.903   2.524
 4364SOL     OW13990   4.050   3.505   2.618
 4364SOL    HW113991   4.075   3.592   2.661
 4364SOL    HW213992   3.950   3.501   2.607
 4365SOL     OW13993   2.390   1.972   1.498
 4365SOL    HW113994   2.391   2.071   1.506
 4365SOL    HW213995   2.458   1.942   1.430
 4366SOL     OW13996   4.567   6.054   4.853
 4366SOL    HW113997   4.482   6.003   4.844
 4366SOL    HW213998   4.587   6.102   4.768
 4367SOL     OW13999   2.750   5.650   3.182
 4367SOL    HW114000   2.697   5.622   3.101
 4367SOL    HW214001   2.822   5.713   3.154
 4368SOL     OW14002   4.780   4.098   3.446
 4368SOL    HW114003   4.752   4.107   3.541
 4368SOL    HW214004   4.770   4.185   3.399
 4369SOL     OW14005   4.729   4.742   3.392
 4369SOL    HW114006   4.822   4.759   3.422
 4369SOL    HW214007   4.667   4.749   3.470
 4370SOL     OW14008   3.752   4.508   1.666
 4370SOL    HW114009   3.739   4.416   1.702
 4370SOL    HW214010   3.682   4.569   1.705
 4371SOL     OW14011   2.937   1.811   0.786
 4371SOL    HW114012   2.891   1.863   0.715
 4371SOL    HW214013   2.888   1.822   0.873
 4372SOL     OW14014   1.822   3.146   4.729
 4372SOL    HW114015   1.906   3.193   4.704
 4372SOL    HW214016   1.748   3.213   4.741
 4373SOL     OW14017   3.752   1.041   6.443
 4373SOL    HW114018   3.784   1.053   6.349
 4373SOL    HW214019   3.778   1.121   6.497
 4374SOL     OW14020   2.213   0.426   1.530
 4374SOL    HW114021   2.305   0.448   1.498
 4374SOL    HW214022   2.146   0.477   1.476
 4375SOL     OW14023   4.380   1.718   4.396
 4375SOL    HW114024   4.369   1.653   4.321
 4375SOL    HW214025   4.304   1.707   4.461
 4376SOL     OW14026   1.933   6.334   6.993
 4376SOL    HW114027   1.981   6.336   6.906
 4376SOL    HW214028   1.845   6.287   6.981
 4377SOL     OW14029   5.807   0.167   6.472
 4377SOL    HW114030   5.783   0.089   6.530
 4377SOL    HW214031   5.887   0.145   6.417
 4378SOL     OW14032   2.840   5.472   2.250
 4378SOL    HW114033   2.803   5.524   2.328
 4378SOL    HW214034   2.898   5.398   2.284
 4379SOL     OW14035   1.198   0.304   1.670
 4379SOL    HW114036   1.100   0.324   1.676
 4379SOL    HW214037   1.249   0.381   1.708
 4380SOL     OW14038   2.208   5.108   4.478
 4380SOL    HW114039   2.145   5.082   4.550
 4380SOL    HW214040   2.212   5.208   4.472
 4381SOL     OW14041   4.367   6.182   5.587
 4381SOL    HW114042   4.445   6.141   5.540
 4381SOL    HW214043   4.284   6.166   5.535
 4382SOL     OW14044   4.861   3.641   3.409
 4382SOL    HW114045   4.778   3.637   3.465
 4382SOL    HW214046   4.872   3.733   3.371
 4383SOL     OW14047   1.580   2.355   0.249
 4383SOL    HW114048   1.484   2.373   0.266
 4383SOL    HW214049   1.592   2.259   0.224
 4384SOL     OW14050   3.727   6.300   1.074
 4384SOL    HW114051   3.779   6.356   1.010
 4384SOL    HW214052   3.650   6.353   1.110
 4385SOL     OW14053   6.969   1.699   2.507
 4385SOL    HW114054   0.013   1.752   2.448
 4385SOL    HW214055   6.914   1.762   2.562
 4386SOL     OW14056   1.280   3.835   6.579
 4386SOL    HW114057   1.259   3.874   6.669
 4386SOL    HW214058   1.215   3.762   6.558
 4387SOL     OW14059   6.946   3.117   1.972
 4387SOL    HW114060   6.926   3.094   1.876
 4387SOL    HW214061   6.887   3.063   2.032
 4388SOL     OW14062   3.066   1.469   5.306
 4388SOL    HW114063   3.094   1.390   5.362
 4388SOL    HW214064   2.968   1.464   5.288
 4389SOL     OW14065   4.580   2.183   2.683
 4389SOL    HW114066   4.616   2.140   2.600
 4389SOL    HW214067   4.632   2.152   2.762
 4390SOL     OW14068   4.555   2.474   2.000
 4390SOL    HW114069   4.620   2.418   2.051
 4390SOL    HW214070   4.600   2.558   1.971
 4391SOL     OW14071   0.876   5.887   0.901
 4391SOL    HW114072   0.923   5.925   0.980
 4391SOL    HW214073   0.866   5.958   0.830
 4392SOL     OW14074   5.492   3.510   4.745
 4392SOL    HW114075   5.458   3.417   4.731
 4392SOL    HW214076   5.424   3.563   4.796
 4393SOL     OW14077   4.761   6.684   3.436
 4393SOL    HW114078   4.849   6.674   3.389
 4393SOL    HW214079   4.776   6.722   3.527
 4394SOL     OW14080   4.929   1.057   1.984
 4394SOL    HW114081   4.907   1.063   2.081
 4394SOL    HW214082   4.960   0.964   1.962
 4395SOL     OW14083   4.700   1.727   1.840
 4395SOL    HW114084   4.619   1.785   1.848
 4395SOL    HW214085   4.681   1.652   1.776
 4396SOL     OW14086   1.576   0.951   3.946
 4396SOL    HW114087   1.600   0.890   3.871
 4396SOL    HW214088   1.509   0.907   4.005
 4397SOL     OW14089   6.329   0.807   6.332
 4397SOL    HW114090   6.408   0.852   6.289
 4397SOL    HW214091   6.250   0.815   6.271
 4398SOL     OW14092   6.303   4.784   4.333
 4398SOL    HW114093   6.271   4.731   4.411
 4398SOL    HW214094   6.317   4.724   4.255
 4399SOL     OW14095   2.293   1.757   1.894
 4399SOL    HW114096   2.370   1.714   1.941
 4399SOL    HW214097   2.219   1.775   1.959
 4400SOL     OW14098   3.409   6.099   4.527
 4400SOL    HW114099   3.359   6.170   4.575
 4400SOL    HW214100   3.371   6.087   4.435
 4401SOL     OW14101   5.403   6.572   4.501
 4401SOL    HW114102   5.393   6.663   4.541
 4401SOL    HW214103   5.320   6.550   4.449
 4402SOL     OW14104   6.771   0.578   3.481
 4402SOL    HW114105   6.777   0.604   3.578
 4402SOL    HW214106   6.754   0.480   3.474
 4403SOL     OW14107   0.773   6.695   2.801
 4403SOL    HW114108   0.860   6.744   2.807
 4403SOL    HW214109   0.706   6.753   2.754
 4404SOL     OW14110   1.533   4.007   3.517
 4404SOL    HW114111   1.588   4.088   3.498
 4404SOL    HW214112   1.586   3.925   3.494
 4405SOL     OW14113   3.824   4.359   5.798
 4405SOL    HW114114   3.727   4.374   5.815
 4405SOL    HW214115   3.846   4.262   5.812
 4406SOL     OW14116   5.153   3.779   1.326
 4406SOL    HW114117   5.120   3.863   1.371
 4406SOL    HW214118   5.105   3.767   1.239
 4407SOL     OW14119   6.893   6.487   6.859
 4407SOL    HW114120   6.894   6.395   6.819
 4407SOL    HW214121   6.825   6.543   6.812
 4408SOL     OW14122   4.883   5.993   0.076
 4408SOL    HW114123   4.947   6.047   0.022
 4408SOL    HW214124   4.887   6.022   0.172
 4409SOL     OW14125   3.013   1.473   2.395
 4409SOL    HW114126   2.942   1.541   2.409
 4409SOL    HW214127   3.098   1.505   2.437
 4410SOL     OW14128   2.215   5.409   1.910
 4410SOL    HW114129   2.204   5.494   1.858
 4410SOL    HW214130   2.290   5.356   1.871
 4411SOL     OW14131   3.772   3.201   2.339
 4411SOL    HW114132   3.818   3.116   2.312
 4411SOL    HW214133   3.837   3.276   2.337
 4412SOL     OW14134   3.556   2.053   6.381
 4412SOL    HW114135   3.461   2.027   6.395
 4412SOL    HW214136   3.560   2.133   6.321
 4413SOL     OW14137   3.632   5.634   4.334
 4413SOL    HW114138   3.705   5.675   4.280
 4413SOL    HW214139   3.578   5.706   4.377
 4414SOL     OW14140   3.699   5.190   2.268
 4414SOL    HW114141   3.639   5.121   2.306
 4414SOL    HW214142   3.691   5.275   2.320
 4415SOL     OW14143   5.021   2.508   0.387
 4415SOL    HW114144   4.956   2.579   0.413
 4415SOL    HW214145   5.015   2.491   0.289
 4416SOL     OW14146   4.044   0.758   3.459
 4416SOL    HW114147   4.077   0.698   3.532
 4416SOL    HW214148   4.041   0.852   3.492
 4417SOL     OW14149   0.378   0.370   1.348
 4417SOL    HW114150   0.428   0.444   1.393
 4417SOL    HW214151   0.280   0.391   1.348
 4418SOL     OW14152   3.728   0.132   3.431
 4418SOL    HW114153   3.778   0.046   3.443
 4418SOL    HW214154   3.789   0.208   3.449
 4419SOL     OW14155   0.217   5.236   0.132
 4419SOL    HW114156   0.212   5.200   0.039
 4419SOL    HW214157   0.296   5.297   0.140
 4420SOL     OW14158   4.951   1.321   6.330
 4420SOL    HW114159   4.896   1.385   6.276
 4420SOL    HW214160   4.945   1.229   6.290
 4421SOL     OW14161   2.082   1.436   3.467
 4421SOL    HW114162   2.086   1.400   3.560
 4421SOL    HW214163   2.172   1.427   3.424
 4422SOL     OW14164   2.212   3.776   5.892
 4422SOL    HW114165   2.229   3.782   5.794
 4422SOL    HW214166   2.285   3.723   5.936
 4423SOL     OW14167   0.923   1.659   6.604
 4423SOL    HW114168   0.872   1.708   6.675
 4423SOL    HW214169   0.868   1.583   6.569
 4424SOL     OW14170   0.257   6.749   3.546
 4424SOL    HW114171   0.277   6.840   3.508
 4424SOL    HW214172   0.278   6.679   3.478
 4425SOL     OW14173   4.705   4.288   0.018
 4425SOL    HW114174   4.793   4.289   6.988
 4425SOL    HW214175   4.630   4.301   6.972
 4426SOL     OW14176   1.015   0.719   5.482
 4426SOL    HW114177   1.071   0.650   5.528
 4426SOL    HW214178   1.071   0.799   5.461
 4427SOL     OW14179   0.932   0.021   3.705
 4427SOL    HW114180   0.920   6.942   3.688
 4427SOL    HW214181   0.848   0.069   3.678
 4428SOL     OW14182   3.143   5.872   3.225
 4428SOL    HW114183   3.101   5.818   3.152
 4428SOL    HW214184   3.148   5.818   3.309
 4429SOL     OW14185   4.065   6.972   3.178
 4429SOL    HW114186   4.084   6.946   3.273
 4429SOL    HW214187   4.151   6.993   3.132
 4430SOL     OW14188   1.298   0.958   1.716
 4430SOL    HW114189   1.313   1.051   1.683
 4430SOL    HW214190   1.315   0.893   1.641
 4431SOL     OW14191   1.821   1.974   2.949
 4431SOL    HW114192   1.810   1.977   3.049
 4431SOL    HW214193   1.910   2.011   2.924
 4432SOL     OW14194   2.946   3.447   3.024
 4432SOL    HW114195   2.977   3.540   3.004
 4432SOL    HW214196   2.944   3.435   3.124
 4433SOL     OW14197   6.493   0.410   3.285
 4433SOL    HW114198   6.568   0.393   3.221
 4433SOL    HW214199   6.479   0.508   3.295
 4434SOL     OW14200   5.367   2.160   4.285
 4434SOL    HW114201   5.328   2.095   4.350
 4434SOL    HW214202   5.295   2.221   4.252
 4435SOL     OW14203   3.598   2.823   1.857
 4435SOL    HW114204   3.559   2.760   1.790
 4435SOL    HW214205   3.537   2.831   1.936
 4436SOL     OW14206   4.934   0.808   6.966
 4436SOL    HW114207   4.986   0.728   6.999
 4436SOL    HW214208   4.917   0.798   6.869
 4437SOL     OW14209   3.752   6.836   4.502
 4437SOL    HW114210   3.759   6.927   4.461
 4437SOL    HW214211   3.732   6.845   4.599
 4438SOL     OW14212   3.797   3.633   6.079
 4438SOL    HW114213   3.784   3.567   6.005
 4438SOL    HW214214   3.724   3.624   6.146
 4439SOL     OW14215   2.159   5.380   2.187
 4439SOL    HW114216   2.096   5.452   2.215
 4439SOL    HW214217   2.164   5.376   2.087
 4440SOL     OW14218   0.212   0.732   6.194
 4440SOL    HW114219   0.222   0.710   6.291
 4440SOL    HW214220   0.117   0.757   6.175
 4441SOL     OW14221   5.832   2.462   2.891
 4441SOL    HW114222   5.792   2.418   2.971
 4441SOL    HW214223   5.777   2.441   2.810
 4442SOL     OW14224   2.661   6.363   2.839
 4442SOL    HW114225   2.703   6.432   2.779
 4442SOL    HW214226   2.609   6.409   2.911
 4443SOL     OW14227   2.614   1.679   5.352
 4443SOL    HW114228   2.567   1.737   5.286
 4443SOL    HW214229   2.572   1.589   5.353
 4444SOL     OW14230   5.105   0.593   2.581
 4444SOL    HW114231   5.090   0.495   2.592
 4444SOL    HW214232   5.017   0.639   2.575
 4445SOL     OW14233   1.569   1.152   6.627
 4445SOL    HW114234   1.606   1.244   6.619
 4445SOL    HW214235   1.508   1.134   6.549
 4446SOL     OW14236   6.526   6.181   4.104
 4446SOL    HW114237   6.477   6.187   4.192
 4446SOL    HW214238   6.530   6.272   4.062
 4447SOL     OW14239   4.915   3.393   5.190
 4447SOL    HW114240   4.825   3.379   5.232
 4447SOL    HW214241   4.912   3.472   5.129
 4448SOL     OW14242   2.813   2.779   6.203
 4448SOL    HW114243   2.911   2.762   6.195
 4448SOL    HW214244   2.786   2.850   6.138
 4449SOL     OW14245   0.936   1.592   5.294
 4449SOL    HW114246   0.907   1.677   5.337
 4449SOL    HW214247   0.856   1.543   5.258
 4450SOL     OW14248   3.922   3.961   3.364
 4450SOL    HW114249   3.913   4.024   3.287
 4450SOL    HW214250   3.832   3.946   3.405
 4451SOL     OW14251   6.166   4.398   2.270
 4451SOL    HW114252   6.234   4.436   2.332
 4451SOL    HW214253   6.208   4.380   2.181
 4452SOL     OW14254   6.361   5.620   6.386
 4452SOL    HW114255   6.392   5.546   6.444
 4452SOL    HW214256   6.393   5.605   6.292
 4453SOL     OW14257   5.498   1.760   1.529
 4453SOL    HW114258   5.587   1.715   1.522
 4453SOL    HW214259   5.454   1.762   1.439
 4454SOL     OW14260   5.004   3.290   1.436
 4454SOL    HW114261   5.005   3.240   1.522
 4454SOL    HW214262   5.016   3.388   1.454
 4455SOL     OW14263   4.245   1.603   1.706
 4455SOL    HW114264   4.322   1.546   1.732
 4455SOL    HW214265   4.215   1.658   1.784
 4456SOL     OW14266   0.973   5.616   3.224
 4456SOL    HW114267   0.949   5.710   3.245
 4456SOL    HW214268   0.960   5.559   3.305
 4457SOL     OW14269   5.172   2.098   6.408
 4457SOL    HW114270   5.114   2.173   6.440
 4457SOL    HW214271   5.268   2.124   6.418
 4458SOL     OW14272   3.641   1.712   6.417
 4458SOL    HW114273   3.610   1.643   6.353
 4458SOL    HW214274   3.621   1.803   6.381
 4459SOL     OW14275   4.863   6.233   5.518
 4459SOL    HW114276   4.807   6.300   5.468
 4459SOL    HW214277   4.958   6.241   5.490
 4460SOL     OW14278   1.898   1.513   6.393
 4460SOL    HW114279   1.962   1.580   6.355
 4460SOL    HW214280   1.949   1.434   6.429
 4461SOL     OW14281   2.452   0.214   2.145
 4461SOL    HW114282   2.535   0.159   2.128
 4461SOL    HW214283   2.420   0.253   2.058
 4462SOL     OW14284   6.584   5.637   1.673
 4462SOL    HW114285   6.606   5.542   1.653
 4462SOL    HW214286   6.641   5.669   1.749
 4463SOL     OW14287   1.606   3.564   6.104
 4463SOL    HW114288   1.629   3.488   6.043
 4463SOL    HW214289   1.511   3.556   6.132
 4464SOL     OW14290   5.947   3.340   6.435
 4464SOL    HW114291   5.911   3.370   6.523
 4464SOL    HW214292   5.945   3.240   6.431
 4465SOL     OW14293   1.342   6.049   2.514
 4465SOL    HW114294   1.340   5.998   2.428
 4465SOL    HW214295   1.257   6.100   2.525
 4466SOL     OW14296   0.551   2.361   3.740
 4466SOL    HW114297   0.474   2.420   3.716
 4466SOL    HW214298   0.525   2.265   3.731
 4467SOL     OW14299   0.985   6.913   2.852
 4467SOL    HW114300   0.962   7.002   2.813
 4467SOL    HW214301   1.023   6.925   2.944
 4468SOL     OW14302   1.626   2.836   0.416
 4468SOL    HW114303   1.719   2.799   0.415
 4468SOL    HW214304   1.629   2.936   0.411
 4469SOL     OW14305   4.534   0.213   6.956
 4469SOL    HW114306   4.508   0.255   0.025
 4469SOL    HW214307   4.597   0.137   6.973
 4470SOL     OW14308   4.799   4.588   1.438
 4470SOL    HW114309   4.701   4.571   1.441
 4470SOL    HW214310   4.818   4.681   1.469
 4471SOL     OW14311   6.584   3.576   0.357
 4471SOL    HW114312   6.632   3.658   0.386
 4471SOL    HW214313   6.513   3.599   0.290
 4472SOL     OW14314   1.527   4.982   1.569
 4472SOL    HW114315   1.477   4.961   1.484
 4472SOL    HW214316   1.597   4.913   1.585
 4473SOL     OW14317   0.637   6.441   5.533
 4473SOL    HW114318   0.717   6.467   5.587
 4473SOL    HW214319   0.659   6.447   5.436
 4474SOL     OW14320   5.229   0.825   3.549
 4474SOL    HW114321   5.179   0.740   3.567
 4474SOL    HW214322   5.305   0.806   3.486
 4475SOL     OW14323   1.652   4.111   0.246
 4475SOL    HW114324   1.712   4.179   0.288
 4475SOL    HW214325   1.557   4.132   0.270
 4476SOL     OW14326   4.700   6.753   2.023
 4476SOL    HW114327   4.625   6.695   2.055
 4476SOL    HW214328   4.732   6.719   1.935
 4477SOL     OW14329   1.402   1.140   0.378
 4477SOL    HW114330   1.447   1.202   0.442
 4477SOL    HW214331   1.425   1.167   0.284
 4478SOL     OW14332   1.655   5.479   2.292
 4478SOL    HW114333   1.567   5.464   2.337
 4478SOL    HW214334   1.662   5.575   2.264
 4479SOL     OW14335   0.472   0.264   5.135
 4479SOL    HW114336   0.473   0.227   5.227
 4479SOL    HW214337   0.539   0.216   5.078
 4480SOL     OW14338   0.668   4.588   3.331
 4480SOL    HW114339   0.733   4.521   3.367
 4480SOL    HW214340   0.648   4.656   3.402
 4481SOL     OW14341   1.025   0.313   4.491
 4481SOL    HW114342   1.085   0.234   4.477
 4481SOL    HW214343   0.937   0.296   4.447
 4482SOL     OW14344   6.828   3.968   3.913
 4482SOL    HW114345   6.787   3.878   3.932
 4482SOL    HW214346   6.900   3.986   3.979
 4483SOL     OW14347   5.414   2.434   2.063
 4483SOL    HW114348   5.396   2.336   2.056
 4483SOL    HW214349   5.335   2.485   2.028
 4484SOL     OW14350   3.982   2.536   5.667
 4484SOL    HW114351   3.882   2.540   5.675
 4484SOL    HW214352   4.007   2.497   5.578
 4485SOL     OW14353   5.245   1.390   6.584
 4485SOL    HW114354   5.298   1.369   6.667
 4485SOL    HW214355   5.233   1.489   6.577
 4486SOL     OW14356   6.327   2.517   4.377
 4486SOL    HW114357   6.401   2.449   4.375
 4486SOL    HW214358   6.335   2.576   4.296
 4487SOL     OW14359   3.149   3.074   6.450
 4487SOL    HW114360   3.188   3.099   6.539
 4487SOL    HW214361   3.208   3.109   6.377
 4488SOL     OW14362   0.707   1.484   5.219
 4488SOL    HW114363   0.669   1.574   5.200
 4488SOL    HW214364   0.641   1.431   5.273
 4489SOL     OW14365   6.310   0.334   3.722
 4489SOL    HW114366   6.308   0.254   3.782
 4489SOL    HW214367   6.402   0.346   3.684
 4490SOL     OW14368   6.767   2.196   3.798
 4490SOL    HW114369   6.864   2.180   3.778
 4490SOL    HW214370   6.711   2.145   3.732
 4491SOL     OW14371   1.404   3.184   3.010
 4491SOL    HW114372   1.495   3.222   2.994
 4491SOL    HW214373   1.365   3.224   3.093
 4492SOL     OW14374   4.632   3.556   6.589
 4492SOL    HW114375   4.574   3.476   6.572
 4492SOL    HW214376   4.666   3.593   6.503
 4493SOL     OW14377   6.028   5.195   3.935
 4493SOL    HW114378   5.964   5.125   3.967
 4493SOL    HW214379   6.011   5.213   3.839
 4494SOL     OW14380   5.922   3.701   3.831
 4494SOL    HW114381   5.878   3.631   3.775
 4494SOL    HW214382   6.012   3.670   3.859
 4495SOL     OW14383   4.960   6.297   1.200
 4495SOL    HW114384   4.883   6.360   1.197
 4495SOL    HW214385   4.994   6.281   1.107
 4496SOL     OW14386   5.006   4.446   5.535
 4496SOL    HW114387   4.921   4.403   5.503
 4496SOL    HW214388   4.992   4.480   5.629
 4497SOL     OW14389   5.829   4.985   0.734
 4497SOL    HW114390   5.868   4.967   0.644
 4497SOL    HW214391   5.851   5.078   0.762
 4498SOL     OW14392   0.191   4.206   6.818
 4498SOL    HW114393   0.241   4.121   6.805
 4498SOL    HW214394   0.221   4.250   6.903
 4499SOL     OW14395   6.892   3.129   6.552
 4499SOL    HW114396   6.990   3.136   6.569
 4499SOL    HW214397   6.863   3.033   6.556
 4500SOL     OW14398   3.777   4.047   4.401
 4500SOL    HW114399   3.871   4.066   4.431
 4500SOL    HW214400   3.767   4.072   4.305
 4501SOL     OW14401   0.701   4.228   4.846
 4501SOL    HW114402   0.705   4.250   4.749
 4501SOL    HW214403   0.652   4.141   4.858
 4502SOL     OW14404   0.059   3.423   0.418
 4502SOL    HW114405   0.047   3.375   0.505
 4502SOL    HW214406   0.129   3.377   0.364
 4503SOL     OW14407   1.513   1.957   3.415
 4503SOL    HW114408   1.504   2.010   3.331
 4503SOL    HW214409   1.599   1.980   3.460
 4504SOL     OW14410   5.041   2.479   4.804
 4504SOL    HW114411   4.958   2.432   4.831
 4504SOL    HW214412   5.065   2.454   4.711
 4505SOL     OW14413   1.740   5.117   5.700
 4505SOL    HW114414   1.661   5.138   5.642
 4505SOL    HW214415   1.824   5.140   5.653
 4506SOL     OW14416   3.981   0.396   5.377
 4506SOL    HW114417   3.962   0.462   5.450
 4506SOL    HW214418   4.071   0.415   5.338
 4507SOL     OW14419   6.439   4.246   0.831
 4507SOL    HW114420   6.497   4.167   0.853
 4507SOL    HW214421   6.469   4.325   0.884
 4508SOL     OW14422   1.535   3.732   0.505
 4508SOL    HW114423   1.507   3.645   0.546
 4508SOL    HW214424   1.634   3.744   0.515
 4509SOL     OW14425   1.437   1.584   3.831
 4509SOL    HW114426   1.494   1.534   3.896
 4509SOL    HW214427   1.473   1.571   3.739
 4510SOL     OW14428   4.068   6.526   4.969
 4510SOL    HW114429   4.028   6.480   5.048
 4510SOL    HW214430   4.039   6.622   4.968
 4511SOL     OW14431   5.929   2.465   0.052
 4511SOL    HW114432   5.871   2.386   0.033
 4511SOL    HW214433   5.961   2.461   0.147
 4512SOL     OW14434   2.719   5.149   0.065
 4512SOL    HW114435   2.803   5.105   0.098
 4512SOL    HW214436   2.656   5.163   0.141
 4513SOL     OW14437   5.072   0.794   1.977
 4513SOL    HW114438   5.134   0.763   2.048
 4513SOL    HW214439   5.099   0.754   1.889
 4514SOL     OW14440   3.637   1.379   4.958
 4514SOL    HW114441   3.716   1.425   5.000
 4514SOL    HW214442   3.599   1.314   5.023
 4515SOL     OW14443   0.650   4.857   1.281
 4515SOL    HW114444   0.562   4.887   1.244
 4515SOL    HW214445   0.647   4.758   1.297
 4516SOL     OW14446   1.217   0.444   5.113
 4516SOL    HW114447   1.152   0.395   5.054
 4516SOL    HW214448   1.201   0.543   5.104
 4517SOL     OW14449   3.629   6.659   5.171
 4517SOL    HW114450   3.619   6.563   5.148
 4517SOL    HW214451   3.608   6.673   5.268
 4518SOL     OW14452   1.073   1.611   4.480
 4518SOL    HW114453   1.106   1.621   4.386
 4518SOL    HW214454   1.012   1.687   4.502
 4519SOL     OW14455   6.287   2.900   4.055
 4519SOL    HW114456   6.277   2.979   4.116
 4519SOL    HW214457   6.252   2.923   3.965
 4520SOL     OW14458   6.853   3.893   2.855
 4520SOL    HW114459   6.901   3.902   2.767
 4520SOL    HW214460   6.880   3.807   2.899
 4521SOL     OW14461   6.226   2.090   6.433
 4521SOL    HW114462   6.144   2.142   6.457
 4521SOL    HW214463   6.274   2.063   6.517
 4522SOL     OW14464   5.941   0.772   3.900
 4522SOL    HW114465   5.865   0.835   3.912
 4522SOL    HW214466   6.000   0.773   3.981
 4523SOL     OW14467   3.844   3.486   6.970
 4523SOL    HW114468   3.788   3.520   0.027
 4523SOL    HW214469   3.868   3.390   6.986
 4524SOL     OW14470   5.917   0.008   4.841
 4524SOL    HW114471   5.971   0.087   4.870
 4524SOL    HW214472   5.977   6.947   4.829
 4525SOL     OW14473   6.707   1.603   5.037
 4525SOL    HW114474   6.633   1.541   5.012
 4525SOL    HW214475   6.749   1.572   5.123
 4526SOL     OW14476   4.234   0.648   0.980
 4526SOL    HW114477   4.195   0.730   1.022
 4526SOL    HW214478   4.160   0.588   0.948
 4527SOL     OW14479   4.549   0.910   2.969
 4527SOL    HW114480   4.504   0.997   2.947
 4527SOL    HW214481   4.630   0.928   3.025
 4528SOL     OW14482   6.230   0.749   6.663
 4528SOL    HW114483   6.151   0.689   6.648
 4528SOL    HW214484   6.208   0.842   6.635
 4529SOL     OW14485   3.565   6.403   2.834
 4529SOL    HW114486   3.587   6.387   2.738
 4529SOL    HW214487   3.467   6.394   2.848
 4530SOL     OW14488   0.723   3.588   5.596
 4530SOL    HW114489   0.719   3.488   5.589
 4530SOL    HW214490   0.699   3.616   5.689
 4531SOL     OW14491   0.132   3.809   3.869
 4531SOL    HW114492   0.166   3.784   3.778
 4531SOL    HW214493   0.158   3.739   3.935
 4532SOL     OW14494   5.917   1.853   1.300
 4532SOL    HW114495   5.839   1.916   1.309
 4532SOL    HW214496   5.885   1.766   1.262
 4533SOL     OW14497   2.558   6.055   2.853
 4533SOL    HW114498   2.581   6.150   2.834
 4533SOL    HW214499   2.626   6.016   2.915
 4534SOL     OW14500   5.727   4.228   5.676
 4534SOL    HW114501   5.653   4.183   5.626
 4534SOL    HW214502   5.798   4.256   5.611
 4535SOL     OW14503   4.900   2.908   1.856
 4535SOL    HW114504   4.987   2.930   1.901
 4535SOL    HW214505   4.824   2.930   1.918
 4536SOL     OW14506   6.498   1.153   4.363
 4536SOL    HW114507   6.408   1.112   4.352
 4536SOL    HW214508   6.511   1.182   4.458
 4537SOL     OW14509   3.605   3.056   5.944
 4537SOL    HW114510   3.555   3.141   5.962
 4537SOL    HW214511   3.612   3.003   6.029
 4538SOL     OW14512   2.938   1.069   2.856
 4538SOL    HW114513   2.864   1.004   2.871
 4538SOL    HW214514   2.994   1.075   2.939
 4539SOL     OW14515   1.828   1.562   2.662
 4539SOL    HW114516   1.860   1.574   2.757
 4539SOL    HW214517   1.788   1.647   2.630
 4540SOL     OW14518   3.517   2.925   4.547
 4540SOL    HW114519   3.582   2.876   4.605
 4540SOL    HW214520   3.567   2.990   4.490
 4541SOL     OW14521   5.091   1.476   1.301
 4541SOL    HW114522   5.180   1.432   1.307
 4541SOL    HW214523   5.081   1.543   1.375
 4542SOL     OW14524   4.512   0.376   3.408
 4542SOL    HW114525   4.579   0.448   3.392
 4542SOL    HW214526   4.420   0.415   3.404
 4543SOL     OW14527   5.283   1.682   1.938
 4543SOL    HW114528   5.196   1.636   1.956
 4543SOL    HW214529   5.273   1.742   1.859
 4544SOL     OW14530   3.535   4.715   6.214
 4544SOL    HW114531   3.550   4.698   6.116
 4544SOL    HW214532   3.497   4.807   6.226
 4545SOL     OW14533   4.327   2.330   5.588
 4545SOL    HW114534   4.328   2.429   5.584
 4545SOL    HW214535   4.294   2.293   5.501
 4546SOL     OW14536   1.366   6.702   5.852
 4546SOL    HW114537   1.445   6.759   5.829
 4546SOL    HW214538   1.338   6.721   5.946
 4547SOL     OW14539   4.741   2.363   2.177
 4547SOL    HW114540   4.724   2.285   2.237
 4547SOL    HW214541   4.764   2.443   2.233
 4548SOL     OW14542   1.154   3.426   3.681
 4548SOL    HW114543   1.106   3.338   3.677
 4548SOL    HW214544   1.251   3.410   3.695
 4549SOL     OW14545   5.733   2.536   2.347
 4549SOL    HW114546   5.705   2.441   2.334
 4549SOL    HW214547   5.833   2.543   2.336
 4550SOL     OW14548   1.246   5.946   4.211
 4550SOL    HW114549   1.174   5.877   4.214
 4550SOL    HW214550   1.330   5.905   4.176
 4551SOL     OW14551   0.989   2.992   5.627
 4551SOL    HW114552   1.020   2.964   5.718
 4551SOL    HW214553   0.968   3.090   5.628
 4552SOL     OW14554   0.169   3.401   4.521
 4552SOL    HW114555   0.112   3.353   4.455
 4552SOL    HW214556   0.259   3.417   4.480
 4553SOL     OW14557   4.869   4.817   0.329
 4553SOL    HW114558   4.790   4.763   0.301
 4553SOL    HW214559   4.949   4.757   0.337
 4554SOL     OW14560   5.251   0.035   2.451
 4554SOL    HW114561   5.335   0.082   2.478
 4554SOL    HW214562   5.275   6.977   2.390
 4555SOL     OW14563   5.273   1.835   0.127
 4555SOL    HW114564   5.259   1.779   0.045
 4555SOL    HW214565   5.190   1.835   0.182
 4556SOL     OW14566   4.723   1.102   4.049
 4556SOL    HW114567   4.632   1.081   4.085
 4556SOL    HW214568   4.788   1.033   4.080
 4557SOL     OW14569   5.140   0.338   5.516
 4557SOL    HW114570   5.056   0.344   5.570
 4557SOL    HW214571   5.158   0.242   5.493
 4558SOL     OW14572   6.410   3.066   6.229
 4558SOL    HW114573   6.455   3.014   6.301
 4558SOL    HW214574   6.350   3.135   6.271
 4559SOL     OW14575   1.105   6.802   0.899
 4559SOL    HW114576   1.199   6.802   0.933
 4559SOL    HW214577   1.069   6.895   0.900
 4560SOL     OW14578   5.059   3.457   2.796
 4560SOL    HW114579   5.060   3.529   2.727
 4560SOL    HW214580   5.070   3.368   2.752
 4561SOL     OW14581   2.961   6.914   6.910
 4561SOL    HW114582   3.045   6.968   6.912
 4561SOL    HW214583   2.941   6.881   7.002
 4562SOL     OW14584   3.209   5.138   6.300
 4562SOL    HW114585   3.159   5.068   6.248
 4562SOL    HW214586   3.144   5.194   6.352
 4563SOL     OW14587   6.032   2.248   6.487
 4563SOL    HW114588   5.951   2.306   6.480
 4563SOL    HW214589   6.113   2.306   6.495
 4564SOL     OW14590   1.577   5.588   0.226
 4564SOL    HW114591   1.521   5.521   0.274
 4564SOL    HW214592   1.528   5.619   0.144
 4565SOL     OW14593   2.318   0.297   5.240
 4565SOL    HW114594   2.273   0.377   5.279
 4565SOL    HW214595   2.302   0.218   5.299
 4566SOL     OW14596   0.279   1.894   7.003
 4566SOL    HW114597   0.255   1.977   0.036
 4566SOL    HW214598   0.376   1.898   6.977
 4567SOL     OW14599   0.037   1.093   0.703
 4567SOL    HW114600   6.981   1.151   0.737
 4567SOL    HW214601   0.122   1.117   0.750
 4568SOL     OW14602   3.463   4.676   5.331
 4568SOL    HW114603   3.369   4.641   5.329
 4568SOL    HW214604   3.461   4.776   5.328
 4569SOL     OW14605   0.320   2.025   4.830
 4569SOL    HW114606   0.267   2.065   4.904
 4569SOL    HW214607   0.395   2.087   4.806
 4570SOL     OW14608   0.195   5.138   4.066
 4570SOL    HW114609   0.103   5.168   4.040
 4570SOL    HW214610   0.238   5.094   3.987
 4571SOL     OW14611   3.748   2.913   4.680
 4571SOL    HW114612   3.703   2.910   4.769
 4571SOL    HW214613   3.847   2.911   4.693
 4572SOL     OW14614   1.671   5.957   0.948
 4572SOL    HW114615   1.676   5.968   0.849
 4572SOL    HW214616   1.740   5.890   0.977
 4573SOL     OW14617   5.139   6.991   0.905
 4573SOL    HW114618   5.112   0.053   0.958
 4573SOL    HW214619   5.196   0.000   0.828
 4574SOL     OW14620   0.258   4.393   2.537
 4574SOL    HW114621   0.188   4.383   2.608
 4574SOL    HW214622   0.328   4.323   2.550
 4575SOL     OW14623   6.190   0.163   2.654
 4575SOL    HW114624   6.182   0.072   2.697
 4575SOL    HW214625   6.100   0.203   2.642
 4576SOL     OW14626   2.738   5.839   5.161
 4576SOL    HW114627   2.834   5.851   5.136
 4576SOL    HW214628   2.682   5.836   5.078
 4577SOL     OW14629   0.655   2.866   3.614
 4577SOL    HW114630   0.689   2.879   3.708
 4577SOL    HW214631   0.721   2.812   3.563
 4578SOL     OW14632   6.411   3.831   4.045
 4578SOL    HW114633   6.497   3.783   4.064
 4578SOL    HW214634   6.337   3.791   4.099
 4579SOL     OW14635   5.699   1.848   4.003
 4579SOL    HW114636   5.750   1.896   3.931
 4579SOL    HW214637   5.611   1.893   4.018
 4580SOL     OW14638   6.971   5.588   0.559
 4580SOL    HW114639   0.029   5.552   0.506
 4580SOL    HW214640   6.910   5.512   0.584
 4581SOL     OW14641   3.479   5.770   2.873
 4581SOL    HW114642   3.434   5.815   2.796
 4581SOL    HW214643   3.478   5.831   2.952
 4582SOL     OW14644   4.475   6.599   2.117
 4582SOL    HW114645   4.495   6.620   2.212
 4582SOL    HW214646   4.377   6.612   2.100
 4583SOL     OW14647   4.570   1.552   5.577
 4583SOL    HW114648   4.525   1.592   5.496
 4583SOL    HW214649   4.502   1.502   5.631
 4584SOL     OW14650   0.465   5.080   5.459
 4584SOL    HW114651   0.390   5.073   5.524
 4584SOL    HW214652   0.482   5.176   5.437
 4585SOL     OW14653   4.117   6.424   2.530
 4585SOL    HW114654   4.102   6.477   2.614
 4585SOL    HW214655   4.211   6.392   2.528
 4586SOL     OW14656   3.564   5.314   2.492
 4586SOL    HW114657   3.470   5.331   2.463
 4586SOL    HW214658   3.606   5.399   2.523
 4587SOL     OW14659   2.123   4.086   1.585
 4587SOL    HW114660   2.221   4.097   1.567
 4587SOL    HW214661   2.071   4.123   1.509
 4588SOL     OW14662   4.214   3.653   5.223
 4588SOL    HW114663   4.209   3.604   5.137
 4588SOL    HW214664   4.173   3.744   5.212
 4589SOL     OW14665   6.603   2.159   4.603
 4589SOL    HW114666   6.580   2.132   4.697
 4589SOL    HW214667   6.668   2.093   4.565
 4590SOL     OW14668   4.903   5.752   2.598
 4590SOL    HW114669   4.905   5.764   2.499
 4590SOL    HW214670   4.841   5.819   2.638
 4591SOL     OW14671   5.522   5.841   5.396
 4591SOL    HW114672   5.506   5.769   5.464
 4591SOL    HW214673   5.457   5.830   5.320
 4592SOL     OW14674   3.967   1.922   6.072
 4592SOL    HW114675   3.882   1.924   6.125
 4592SOL    HW214676   4.023   2.001   6.095
 4593SOL     OW14677   4.006   5.821   2.805
 4593SOL    HW114678   3.976   5.916   2.789
 4593SOL    HW214679   3.938   5.774   2.861
 4594SOL     OW14680   2.690   1.052   2.162
 4594SOL    HW114681   2.655   0.959   2.146
 4594SOL    HW214682   2.650   1.114   2.095
 4595SOL     OW14683   4.108   2.216   5.736
 4595SOL    HW114684   4.039   2.278   5.699
 4595SOL    HW214685   4.199   2.256   5.726
 4596SOL     OW14686   5.785   0.006   1.471
 4596SOL    HW114687   5.845   0.021   1.549
 4596SOL    HW214688   5.828   0.042   1.388
 4597SOL     OW14689   6.331   4.649   6.734
 4597SOL    HW114690   6.309   4.601   6.819
 4597SOL    HW214691   6.407   4.711   6.750
 4598SOL     OW14692   2.740   4.891   6.902
 4598SOL    HW114693   2.662   4.944   6.868
 4598SOL    HW214694   2.725   4.794   6.885
 4599SOL     OW14695   1.258   4.518   0.567
 4599SOL    HW114696   1.242   4.600   0.512
 4599SOL    HW214697   1.242   4.538   0.663
 4600SOL     OW14698   3.058   5.497   1.344
 4600SOL    HW114699   3.068   5.594   1.323
 4600SOL    HW214700   2.965   5.479   1.375
 4601SOL     OW14701   2.026   6.506   4.894
 4601SOL    HW114702   1.930   6.511   4.867
 4601SOL    HW214703   2.074   6.586   4.860
 4602SOL     OW14704   1.748   0.380   1.110
 4602SOL    HW114705   1.780   0.469   1.142
 4602SOL    HW214706   1.652   0.388   1.084
 4603SOL     OW14707   3.558   6.866   1.944
 4603SOL    HW114708   3.532   6.869   1.848
 4603SOL    HW214709   3.573   6.771   1.972
 4604SOL     OW14710   3.681   6.604   2.285
 4604SOL    HW114711   3.645   6.696   2.271
 4604SOL    HW214712   3.621   6.554   2.348
 4605SOL     OW14713   4.879   0.147   5.312
 4605SOL    HW114714   4.897   0.048   5.314
 4605SOL    HW214715   4.838   0.172   5.224
 4606SOL     OW14716   6.970   6.270   5.284
 4606SOL    HW114717   6.999   6.365   5.270
 4606SOL    HW214718   6.925   6.263   5.373
 4607SOL     OW14719   2.755   2.312   1.057
 4607SOL    HW114720   2.710   2.287   1.143
 4607SOL    HW214721   2.837   2.366   1.077
 4608SOL     OW14722   1.628   3.786   5.709
 4608SOL    HW114723   1.568   3.731   5.767
 4608SOL    HW214724   1.723   3.763   5.728
 4609SOL     OW14725   4.455   6.793   6.189
 4609SOL    HW114726   4.374   6.818   6.241
 4609SOL    HW214727   4.530   6.771   6.252
 4610SOL     OW14728   0.820   3.144   6.403
 4610SOL    HW114729   0.776   3.117   6.317
 4610SOL    HW214730   0.776   3.096   6.479
 4611SOL     OW14731   0.837   4.077   0.026
 4611SOL    HW114732   0.855   4.164   6.998
 4611SOL    HW214733   0.837   4.091   0.125
 4612SOL     OW14734   2.182   0.370   6.576
 4612SOL    HW114735   2.125   0.298   6.615
 4612SOL    HW214736   2.277   0.339   6.572
 4613SOL     OW14737   3.026   5.202   2.107
 4613SOL    HW114738   3.066   5.135   2.045
 4613SOL    HW214739   2.928   5.183   2.119
 4614SOL     OW14740   1.798   5.587   6.992
 4614SOL    HW114741   1.756   5.664   6.944
 4614SOL    HW214742   1.773   5.590   0.070
 4615SOL     OW14743   0.262   2.531   0.509
 4615SOL    HW114744   0.298   2.558   0.420
 4615SOL    HW214745   0.207   2.447   0.498
 4616SOL     OW14746   5.943   1.075   6.433
 4616SOL    HW114747   5.883   1.077   6.512
 4616SOL    HW214748   5.892   1.102   6.351
 4617SOL     OW14749   0.226   2.869   2.250
 4617SOL    HW114750   0.225   2.969   2.246
 4617SOL    HW214751   0.157   2.838   2.316
 4618SOL     OW14752   0.943   2.133   5.979
 4618SOL    HW114753   0.892   2.132   5.894
 4618SOL    HW214754   0.906   2.065   6.042
 4619SOL     OW14755   3.566   0.815   3.700
 4619SOL    HW114756   3.637   0.749   3.675
 4619SOL    HW214757   3.608   0.904   3.717
 4620SOL     OW14758   2.180   3.850   6.486
 4620SOL    HW114759   2.237   3.834   6.567
 4620SOL    HW214760   2.179   3.768   6.430
 4621SOL     OW14761   0.317   5.934   6.221
 4621SOL    HW114762   0.396   5.874   6.235
 4621SOL    HW214763   0.235   5.889   6.257
 4622SOL     OW14764   2.279   3.511   1.098
 4622SOL    HW114765   2.240   3.470   1.180
 4622SOL    HW214766   2.285   3.610   1.109
 4623SOL     OW14767   5.983   4.543   2.121
 4623SOL    HW114768   6.044   4.500   2.187
 4623SOL    HW214769   6.036   4.596   2.056
 4624SOL     OW14770   4.835   6.739   5.068
 4624SOL    HW114771   4.746   6.723   5.025
 4624SOL    HW214772   4.907   6.700   5.011
 4625SOL     OW14773   0.908   3.468   0.013
 4625SOL    HW114774   0.888   3.496   6.937
 4625SOL    HW214775   0.868   3.378   0.030
 4626SOL     OW14776   6.275   4.925   1.366
 4626SOL    HW114777   6.257   4.905   1.270
 4626SOL    HW214778   6.189   4.935   1.415
 4627SOL     OW14779   2.720   0.038   6.777
 4627SOL    HW114780   2.656   6.987   6.744
 4627SOL    HW214781   2.801   7.011   6.814
 4628SOL     OW14782   0.104   3.909   1.785
 4628SOL    HW114783   0.005   3.923   1.789
 4628SOL    HW214784   0.137   3.880   1.875
 4629SOL     OW14785   2.729   5.002   5.521
 4629SOL    HW114786   2.810   4.966   5.474
 4629SOL    HW214787   2.658   4.932   5.523
 4630SOL     OW14788   1.948   6.840   2.927
 4630SOL    HW114789   1.925   6.744   2.907
 4630SOL    HW214790   2.012   6.843   3.003
 4631SOL     OW14791   2.763   6.918   2.192
 4631SOL    HW114792   2.739   6.908   2.289
 4631SOL    HW214793   2.703   6.860   2.137
 4632SOL     OW14794   5.038   5.624   4.216
 4632SOL    HW114795   5.050   5.540   4.268
 4632SOL    HW214796   5.011   5.602   4.122
 4633SOL     OW14797   6.231   2.204   5.026
 4633SOL    HW114798   6.240   2.230   5.123
 4633SOL    HW214799   6.287   2.266   4.970
 4634SOL     OW14800   3.275   4.184   0.609
 4634SOL    HW114801   3.181   4.175   0.578
 4634SOL    HW214802   3.336   4.132   0.549
 4635SOL     OW14803   5.424   4.085   1.345
 4635SOL    HW114804   5.492   4.017   1.316
 4635SOL    HW214805   5.350   4.089   1.278
 4636SOL     OW14806   2.024   5.136   0.677
 4636SOL    HW114807   2.045   5.233   0.663
 4636SOL    HW214808   2.060   5.106   0.765
 4637SOL     OW14809   1.382   0.954   5.119
 4637SOL    HW114810   1.419   0.866   5.092
 4637SOL    HW214811   1.431   1.027   5.071
 4638SOL     OW14812   5.122   3.625   5.627
 4638SOL    HW114813   5.079   3.690   5.690
 4638SOL    HW214814   5.148   3.543   5.678
 4639SOL     OW14815   6.789   3.655   5.216
 4639SOL    HW114816   6.745   3.731   5.169
 4639SOL    HW214817   6.849   3.690   5.288
 4640SOL     OW14818   5.809   4.031   2.850
 4640SOL    HW114819   5.764   4.112   2.813
 4640SOL    HW214820   5.886   4.059   2.908
 4641SOL     OW14821   2.051   4.767   5.706
 4641SOL    HW114822   2.089   4.849   5.664
 4641SOL    HW214823   2.050   4.692   5.639
 4642SOL     OW14824   5.465   6.191   4.225
 4642SOL    HW114825   5.443   6.170   4.129
 4642SOL    HW214826   5.522   6.118   4.263
 4643SOL     OW14827   4.069   2.288   1.232
 4643SOL    HW114828   4.012   2.297   1.150
 4643SOL    HW214829   4.153   2.342   1.220
 4644SOL     OW14830   2.271   5.559   4.744
 4644SOL    HW114831   2.273   5.471   4.791
 4644SOL    HW214832   2.328   5.625   4.794
 4645SOL     OW14833   1.740   5.996   4.974
 4645SOL    HW114834   1.733   5.919   4.911
 4645SOL    HW214835   1.741   5.962   5.068
 4646SOL     OW14836   3.531   0.541   1.531
 4646SOL    HW114837   3.433   0.522   1.535
 4646SOL    HW214838   3.550   0.608   1.459
 4647SOL     OW14839   6.642   0.336   4.652
 4647SOL    HW114840   6.641   0.309   4.749
 4647SOL    HW214841   6.553   0.317   4.611
 4648SOL     OW14842   2.193   5.717   2.650
 4648SOL    HW114843   2.152   5.788   2.593
 4648SOL    HW214844   2.123   5.649   2.673
 4649SOL     OW14845   5.503   0.027   5.626
 4649SOL    HW114846   5.495   0.079   5.711
 4649SOL    HW214847   5.421   6.989   5.614
 4650SOL     OW14848   6.693   4.587   2.218
 4650SOL    HW114849   6.735   4.590   2.309
 4650SOL    HW214850   6.688   4.680   2.180
 4651SOL     OW14851   0.071   2.169   1.388
 4651SOL    HW114852   0.084   2.260   1.429
 4651SOL    HW214853   0.158   2.120   1.389
 4652SOL     OW14854   0.094   6.114   6.126
 4652SOL    HW114855   0.102   6.205   6.086
 4652SOL    HW214856   0.105   6.119   6.225
 4653SOL     OW14857   0.366   5.865   6.966
 4653SOL    HW114858   0.365   5.766   6.976
 4653SOL    HW214859   0.292   5.905   0.002
 4654SOL     OW14860   0.919   1.395   6.811
 4654SOL    HW114861   0.938   1.492   6.794
 4654SOL    HW214862   0.929   1.343   6.726
 4655SOL     OW14863   0.320   5.113   3.662
 4655SOL    HW114864   0.220   5.112   3.657
 4655SOL    HW214865   0.357   5.156   3.580
 4656SOL     OW14866   1.803   6.460   3.409
 4656SOL    HW114867   1.877   6.396   3.432
 4656SOL    HW214868   1.826   6.551   3.444
 4657SOL     OW14869   6.228   0.288   6.982
 4657SOL    HW114870   6.162   0.280   0.038
 4657SOL    HW214871   6.319   0.260   7.015
 4658SOL     OW14872   5.459   0.823   3.306
 4658SOL    HW114873   5.528   0.856   3.371
 4658SOL    HW214874   5.503   0.802   3.219
 4659SOL     OW14875   2.298   2.242   4.733
 4659SOL    HW114876   2.212   2.293   4.737
 4659SOL    HW214877   2.280   2.144   4.744
 4660SOL     OW14878   6.962   0.664   5.877
 4660SOL    HW114879   6.970   0.758   5.911
 4660SOL    HW214880   6.868   0.647   5.848
 4661SOL     OW14881   4.019   3.467   3.377
 4661SOL    HW114882   4.008   3.560   3.412
 4661SOL    HW214883   4.073   3.469   3.293
 4662SOL     OW14884   4.664   0.757   4.898
 4662SOL    HW114885   4.724   0.685   4.862
 4662SOL    HW214886   4.571   0.721   4.907
 4663SOL     OW14887   0.166   2.187   2.574
 4663SOL    HW114888   0.194   2.262   2.634
 4663SOL    HW214889   0.237   2.116   2.574
 4664SOL     OW14890   3.148   2.133   6.607
 4664SOL    HW114891   3.188   2.081   6.532
 4664SOL    HW214892   3.127   2.226   6.576
 4665SOL     OW14893   5.794   0.727   0.197
 4665SOL    HW114894   5.894   0.725   0.187
 4665SOL    HW214895   5.752   0.699   0.111
 4666SOL     OW14896   1.912   1.322   0.787
 4666SOL    HW114897   1.862   1.236   0.798
 4666SOL    HW214898   2.006   1.303   0.762
 4667SOL     OW14899   0.651   5.523   5.916
 4667SOL    HW114900   0.725   5.550   5.855
 4667SOL    HW214901   0.682   5.451   5.977
 4668SOL     OW14902   6.267   1.719   4.034
 4668SOL    HW114903   6.181   1.767   4.020
 4668SOL    HW214904   6.252   1.642   4.096
 4669SOL     OW14905   2.483   0.433   0.649
 4669SOL    HW114906   2.446   0.374   0.721
 4669SOL    HW214907   2.583   0.425   0.649
 4670SOL     OW14908   2.519   1.446   4.101
 4670SOL    HW114909   2.421   1.437   4.083
 4670SOL    HW214910   2.539   1.541   4.127
 4671SOL     OW14911   5.492   3.717   1.036
 4671SOL    HW114912   5.399   3.738   1.005
 4671SOL    HW214913   5.553   3.713   0.957
 4672SOL     OW14914   2.325   3.755   5.649
 4672SOL    HW114915   2.367   3.664   5.651
 4672SOL    HW214916   2.303   3.780   5.554
 4673SOL     OW14917   3.931   0.624   2.648
 4673SOL    HW114918   3.886   0.693   2.592
 4673SOL    HW214919   3.871   0.599   2.724
 4674SOL     OW14920   4.558   6.111   6.231
 4674SOL    HW114921   4.610   6.115   6.145
 4674SOL    HW214922   4.621   6.096   6.307
 4675SOL     OW14923   1.148   4.167   6.992
 4675SOL    HW114924   1.134   4.262   0.001
 4675SOL    HW214925   1.146   4.160   6.892
 4676SOL     OW14926   0.767   5.425   3.968
 4676SOL    HW114927   0.797   5.477   4.048
 4676SOL    HW214928   0.772   5.327   3.988
 4677SOL     OW14929   1.366   3.162   0.325
 4677SOL    HW114930   1.321   3.249   0.349
 4677SOL    HW214931   1.465   3.175   0.326
 4678SOL     OW14932   2.665   4.679   2.252
 4678SOL    HW114933   2.695   4.641   2.165
 4678SOL    HW214934   2.717   4.763   2.272
 4679SOL     OW14935   5.148   0.021   1.262
 4679SOL    HW114936   5.064   7.003   1.302
 4679SOL    HW214937   5.136   0.117   1.240
 4680SOL     OW14938   2.034   1.182   1.401
 4680SOL    HW114939   1.971   1.147   1.332
 4680SOL    HW214940   2.029   1.123   1.482
 4681SOL     OW14941   4.777   4.884   1.452
 4681SOL    HW114942   4.700   4.838   1.408
 4681SOL    HW214943   4.793   4.972   1.407
 4682SOL     OW14944   3.746   3.885   6.785
 4682SOL    HW114945   3.706   3.861   6.873
 4682SOL    HW214946   3.786   3.977   6.790
 4683SOL     OW14947   6.465   4.306   3.501
 4683SOL    HW114948   6.560   4.327   3.481
 4683SOL    HW214949   6.407   4.335   3.425
 4684SOL     OW14950   5.248   6.823   0.177
 4684SOL    HW114951   5.315   6.751   0.194
 4684SOL    HW214952   5.208   6.811   0.086
 4685SOL     OW14953   3.029   3.469   5.666
 4685SOL    HW114954   2.978   3.459   5.581
 4685SOL    HW214955   3.059   3.564   5.675
 4686SOL     OW14956   2.971   5.387   0.192
 4686SOL    HW114957   2.931   5.472   0.157
 4686SOL    HW214958   3.033   5.349   0.123
 4687SOL     OW14959   2.835   0.611   2.862
 4687SOL    HW114960   2.820   0.699   2.907
 4687SOL    HW214961   2.811   0.619   2.765
 4688SOL     OW14962   6.084   3.216   5.709
 4688SOL    HW114963   6.014   3.145   5.720
 4688SOL    HW214964   6.060   3.275   5.632
 4689SOL     OW14965   5.753   0.926   2.279
 4689SOL    HW114966   5.784   1.006   2.330
 4689SOL    HW214967   5.713   0.955   2.192
 4690SOL     OW14968   2.539   2.148   0.325
 4690SOL    HW114969   2.589   2.102   0.398
 4690SOL    HW214970   2.441   2.132   0.336
 4691SOL     OW14971   6.786   4.220   2.239
 4691SOL    HW114972   6.719   4.292   2.217
 4691SOL    HW214973   6.760   4.176   2.325
 4692SOL     OW14974   5.519   3.697   2.014
 4692SOL    HW114975   5.553   3.736   2.100
 4692SOL    HW214976   5.531   3.763   1.940
 4693SOL     OW14977   1.630   1.179   4.071
 4693SOL    HW114978   1.631   1.105   4.003
 4693SOL    HW214979   1.547   1.173   4.126
 4694SOL     OW14980   1.798   1.443   0.006
 4694SOL    HW114981   1.857   1.362   0.013
 4694SOL    HW214982   1.752   1.443   6.936
 4695SOL     OW14983   1.232   6.044   1.614
 4695SOL    HW114984   1.240   6.111   1.540
 4695SOL    HW214985   1.238   5.952   1.575
 4696SOL     OW14986   1.175   5.470   5.638
 4696SOL    HW114987   1.257   5.470   5.695
 4696SOL    HW214988   1.135   5.379   5.637
 4697SOL     OW14989   3.858   4.795   0.558
 4697SOL    HW114990   3.770   4.753   0.580
 4697SOL    HW214991   3.844   4.889   0.529
 4698SOL     OW14992   5.532   1.325   3.374
 4698SOL    HW114993   5.531   1.422   3.354
 4698SOL    HW214994   5.441   1.286   3.364
 4699SOL     OW14995   1.290   0.147   2.726
 4699SOL    HW114996   1.296   0.047   2.727
 4699SOL    HW214997   1.379   0.185   2.752
 4700SOL     OW14998   6.397   2.141   2.497
 4700SOL    HW114999   6.343   2.082   2.557
 4700SOL    HW215000   6.491   2.107   2.493
 4701SOL     OW15001   3.258   2.212   1.750
 4701SOL    HW115002   3.195   2.269   1.697
 4701SOL    HW215003   3.351   2.226   1.716
 4702SOL     OW15004   5.347   4.712   6.498
 4702SOL    HW115005   5.434   4.754   6.473
 4702SOL    HW215006   5.281   4.726   6.424
 4703SOL     OW15007   0.725   5.250   3.628
 4703SOL    HW115008   0.694   5.343   3.648
 4703SOL    HW215009   0.701   5.226   3.534
 4704SOL     OW15010   0.972   4.784   5.085
 4704SOL    HW115011   0.915   4.717   5.038
 4704SOL    HW215012   0.953   4.876   5.049
 4705SOL     OW15013   3.513   2.198   1.636
 4705SOL    HW115014   3.578   2.238   1.701
 4705SOL    HW215015   3.562   2.159   1.558
 4706SOL     OW15016   2.197   0.704   0.587
 4706SOL    HW115017   2.205   0.682   0.685
 4706SOL    HW215018   2.104   0.734   0.567
 4707SOL     OW15019   1.693   5.883   1.649
 4707SOL    HW115020   1.753   5.928   1.715
 4707SOL    HW215021   1.600   5.881   1.684
 4708SOL     OW15022   0.879   3.074   4.337
 4708SOL    HW115023   0.785   3.075   4.373
 4708SOL    HW215024   0.896   2.988   4.289
 4709SOL     OW15025   4.747   3.878   5.227
 4709SOL    HW115026   4.822   3.874   5.161
 4709SOL    HW215027   4.695   3.793   5.222
 4710SOL     OW15028   6.569   6.330   4.477
 4710SOL    HW115029   6.504   6.358   4.407
 4710SOL    HW215030   6.520   6.298   4.558
 4711SOL     OW15031   5.528   3.406   3.227
 4711SOL    HW115032   5.556   3.491   3.273
 4711SOL    HW215033   5.429   3.396   3.235
 4712SOL     OW15034   4.657   4.113   5.312
 4712SOL    HW115035   4.581   4.092   5.373
 4712SOL    HW215036   4.684   4.030   5.263
 4713SOL     OW15037   6.071   4.312   1.334
 4713SOL    HW115038   6.071   4.231   1.274
 4713SOL    HW215039   6.001   4.301   1.405
 4714SOL     OW15040   5.690   1.552   6.098
 4714SOL    HW115041   5.705   1.520   6.005
 4714SOL    HW215042   5.593   1.544   6.121
 4715SOL     OW15043   6.394   1.188   2.102
 4715SOL    HW115044   6.333   1.183   2.023
 4715SOL    HW215045   6.382   1.106   2.158
 4716SOL     OW15046   4.165   4.653   6.097
 4716SOL    HW115047   4.095   4.710   6.054
 4716SOL    HW215048   4.202   4.588   6.030
 4717SOL     OW15049   2.597   5.451   5.439
 4717SOL    HW115050   2.621   5.437   5.343
 4717SOL    HW215051   2.500   5.473   5.447
 4718SOL     OW15052   4.489   4.475   0.628
 4718SOL    HW115053   4.475   4.502   0.724
 4718SOL    HW215054   4.459   4.549   0.568
 4719SOL     OW15055   0.086   4.070   3.981
 4719SOL    HW115056   0.142   4.088   4.062
 4719SOL    HW215057   0.104   3.978   3.947
 4720SOL     OW15058   2.218   3.753   6.781
 4720SOL    HW115059   2.290   3.747   6.850
 4720SOL    HW215060   2.176   3.843   6.784
 4721SOL     OW15061   6.094   2.994   3.596
 4721SOL    HW115062   6.061   3.079   3.639
 4721SOL    HW215063   6.016   2.941   3.563
 4722SOL     OW15064   1.576   4.785   7.006
 4722SOL    HW115065   1.622   4.746   6.926
 4722SOL    HW215066   1.603   4.881   7.017
 4723SOL     OW15067   4.027   4.163   6.876
 4723SOL    HW115068   4.030   4.210   6.965
 4723SOL    HW215069   4.093   4.088   6.876
 4724SOL     OW15070   1.252   6.427   4.724
 4724SOL    HW115071   1.236   6.329   4.710
 4724SOL    HW215072   1.165   6.475   4.724
 4725SOL     OW15073   5.104   6.148   0.451
 4725SOL    HW115074   5.036   6.166   0.379
 4725SOL    HW215075   5.173   6.084   0.417
 4726SOL     OW15076   1.290   3.203   5.904
 4726SOL    HW115077   1.203   3.193   5.954
 4726SOL    HW215078   1.324   3.113   5.878
 4727SOL     OW15079   0.801   5.632   1.143
 4727SOL    HW115080   0.814   5.541   1.105
 4727SOL    HW215081   0.789   5.698   1.069
 4728SOL     OW15082   6.501   2.105   4.853
 4728SOL    HW115083   6.542   2.019   4.885
 4728SOL    HW215084   6.402   2.093   4.843
 4729SOL     OW15085   5.783   1.460   1.991
 4729SOL    HW115086   5.685   1.453   2.010
 4729SOL    HW215087   5.799   1.529   1.920
 4730SOL     OW15088   3.491   0.032   4.693
 4730SOL    HW115089   3.499   0.030   4.793
 4730SOL    HW215090   3.474   6.957   4.660
 4731SOL     OW15091   3.383   0.007   0.346
 4731SOL    HW115092   3.315   7.005   0.276
 4731SOL    HW215093   3.431   0.092   0.322
 4732SOL     OW15094   0.364   4.724   4.079
 4732SOL    HW115095   0.324   4.758   3.994
 4732SOL    HW215096   0.455   4.765   4.091
 4733SOL     OW15097   1.906   3.650   3.595
 4733SOL    HW115098   1.888   3.618   3.688
 4733SOL    HW215099   1.988   3.605   3.559
 4734SOL     OW15100   4.793   3.157   0.200
 4734SOL    HW115101   4.849   3.144   0.119
 4734SOL    HW215102   4.697   3.140   0.177
 4735SOL     OW15103   0.090   0.401   5.179
 4735SOL    HW115104   0.007   0.353   5.150
 4735SOL    HW215105   0.157   0.400   5.105
 4736SOL     OW15106   6.550   2.318   3.516
 4736SOL    HW115107   6.451   2.322   3.501
 4736SOL    HW215108   6.593   2.268   3.441
 4737SOL     OW15109   2.054   4.762   0.951
 4737SOL    HW115110   2.057   4.692   0.880
 4737SOL    HW215111   1.959   4.789   0.967
 4738SOL     OW15112   1.790   6.278   3.950
 4738SOL    HW115113   1.885   6.298   3.971
 4738SOL    HW215114   1.744   6.361   3.917
 4739SOL     OW15115   5.810   3.491   3.723
 4739SOL    HW115116   5.732   3.448   3.677
 4739SOL    HW215117   5.843   3.431   3.796
 4740SOL     OW15118   0.886   1.118   1.422
 4740SOL    HW115119   0.980   1.143   1.447
 4740SOL    HW215120   0.885   1.077   1.331
 4741SOL     OW15121   4.268   4.460   1.769
 4741SOL    HW115122   4.311   4.374   1.796
 4741SOL    HW215123   4.335   4.535   1.777
 4742SOL     OW15124   2.773   6.180   1.958
 4742SOL    HW115125   2.707   6.162   1.885
 4742SOL    HW215126   2.725   6.186   2.046
 4743SOL     OW15127   2.680   2.445   0.125
 4743SOL    HW115128   2.600   2.408   0.078
 4743SOL    HW215129   2.653   2.481   0.214
 4744SOL     OW15130   1.790   3.130   5.251
 4744SOL    HW115131   1.700   3.151   5.287
 4744SOL    HW215132   1.848   3.212   5.256
 4745SOL     OW15133   3.065   5.656   4.686
 4745SOL    HW115134   3.126   5.731   4.711
 4745SOL    HW215135   2.989   5.651   4.752
 4746SOL     OW15136   6.117   0.775   0.602
 4746SOL    HW115137   6.191   0.716   0.571
 4746SOL    HW215138   6.154   0.850   0.657
 4747SOL     OW15139   6.219   2.434   1.244
 4747SOL    HW115140   6.197   2.370   1.319
 4747SOL    HW215141   6.158   2.416   1.167
 4748SOL     OW15142   1.421   0.530   1.753
 4748SOL    HW115143   1.437   0.604   1.817
 4748SOL    HW215144   1.393   0.568   1.664
 4749SOL     OW15145   1.644   6.821   6.750
 4749SOL    HW115146   1.631   6.722   6.749
 4749SOL    HW215147   1.734   6.842   6.789
 4750SOL     OW15148   0.141   1.081   4.343
 4750SOL    HW115149   0.107   1.012   4.407
 4750SOL    HW215150   0.221   1.045   4.294
 4751SOL     OW15151   0.844   3.775   6.495
 4751SOL    HW115152   0.944   3.771   6.504
 4751SOL    HW215153   0.810   3.690   6.456
 4752SOL     OW15154   2.738   5.674   1.446
 4752SOL    HW115155   2.779   5.700   1.534
 4752SOL    HW215156   2.755   5.577   1.429
 4753SOL     OW15157   6.791   6.563   5.102
 4753SOL    HW115158   6.831   6.476   5.073
 4753SOL    HW215159   6.694   6.564   5.080
 4754SOL     OW15160   1.053   0.349   5.787
 4754SOL    HW115161   0.987   0.387   5.723
 4754SOL    HW215162   1.024   0.369   5.881
 4755SOL     OW15163   2.551   1.874   6.914
 4755SOL    HW115164   2.523   1.958   6.959
 4755SOL    HW215165   2.541   1.885   6.815
 4756SOL     OW15166   5.215   2.970   1.387
 4756SOL    HW115167   5.238   3.020   1.471
 4756SOL    HW215168   5.259   2.881   1.388
 4757SOL     OW15169   1.802   2.315   1.139
 4757SOL    HW115170   1.895   2.280   1.135
 4757SOL    HW215171   1.740   2.252   1.091
 4758SOL     OW15172   5.464   4.764   5.517
 4758SOL    HW115173   5.558   4.790   5.498
 4758SOL    HW215174   5.402   4.813   5.455
 4759SOL     OW15175   5.571   5.244   5.525
 4759SOL    HW115176   5.640   5.315   5.512
 4759SOL    HW215177   5.614   5.154   5.525
 4760SOL     OW15178   1.334   2.034   1.011
 4760SOL    HW115179   1.409   2.075   1.063
 4760SOL    HW215180   1.316   2.089   0.930
 4761SOL     OW15181   0.811   6.253   5.759
 4761SOL    HW115182   0.754   6.262   5.840
 4761SOL    HW215183   0.832   6.343   5.722
 4762SOL     OW15184   2.814   6.039   2.605
 4762SOL    HW115185   2.831   5.989   2.690
 4762SOL    HW215186   2.724   6.015   2.570
 4763SOL     OW15187   5.977   5.668   4.088
 4763SOL    HW115188   5.878   5.671   4.080
 4763SOL    HW215189   6.006   5.722   4.167
 4764SOL     OW15190   3.694   3.391   3.925
 4764SOL    HW115191   3.599   3.402   3.894
 4764SOL    HW215192   3.701   3.417   4.021
 4765SOL     OW15193   5.794   5.445   5.047
 4765SOL    HW115194   5.741   5.389   4.983
 4765SOL    HW215195   5.734   5.511   5.091
 4766SOL     OW15196   3.389   0.753   2.867
 4766SOL    HW115197   3.390   0.680   2.798
 4766SOL    HW215198   3.453   0.825   2.839
 4767SOL     OW15199   4.176   5.611   6.620
 4767SOL    HW115200   4.135   5.699   6.645
 4767SOL    HW215201   4.187   5.607   6.521
 4768SOL     OW15202   0.047   0.750   5.051
 4768SOL    HW115203   0.137   0.733   5.011
 4768SOL    HW215204   0.044   0.715   5.144
 4769SOL     OW15205   3.723   0.112   1.731
 4769SOL    HW115206   3.785   0.152   1.664
 4769SOL    HW215207   3.766   0.112   1.821
 4770SOL     OW15208   2.443   0.113   3.223
 4770SOL    HW115209   2.521   0.172   3.199
 4770SOL    HW215210   2.360   0.149   3.180
 4771SOL     OW15211   3.792   4.300   5.454
 4771SOL    HW115212   3.745   4.347   5.379
 4771SOL    HW215213   3.725   4.275   5.524
 4772SOL     OW15214   2.662   2.430   1.525
 4772SOL    HW115215   2.662   2.438   1.625
 4772SOL    HW215216   2.661   2.521   1.484
 4773SOL     OW15217   6.979   6.112   3.895
 4773SOL    HW115218   6.929   6.028   3.877
 4773SOL    HW215219   0.045   6.091   3.945
 4774SOL     OW15220   0.653   4.248   1.421
 4774SOL    HW115221   0.592   4.313   1.466
 4774SOL    HW215222   0.647   4.258   1.322
 4775SOL     OW15223   3.466   0.957   1.606
 4775SOL    HW115224   3.400   0.889   1.640
 4775SOL    HW215225   3.484   1.025   1.677
 4776SOL     OW15226   3.117   5.462   2.002
 4776SOL    HW115227   3.095   5.368   2.031
 4776SOL    HW215228   3.181   5.502   2.068
 4777SOL     OW15229   3.098   4.192   1.209
 4777SOL    HW115230   3.102   4.289   1.234
 4777SOL    HW215231   3.037   4.181   1.130
 4778SOL     OW15232   5.013   3.982   1.876
 4778SOL    HW115233   4.923   3.985   1.921
 4778SOL    HW215234   5.009   3.919   1.799
 4779SOL     OW15235   5.280   0.661   2.812
 4779SOL    HW115236   5.345   0.667   2.736
 4779SOL    HW215237   5.189   0.642   2.777
 4780SOL     OW15238   1.521   6.566   6.213
 4780SOL    HW115239   1.536   6.513   6.130
 4780SOL    HW215240   1.441   6.625   6.202
 4781SOL     OW15241   1.858   5.810   2.099
 4781SOL    HW115242   1.834   5.835   2.193
 4781SOL    HW215243   1.953   5.838   2.081
 4782SOL     OW15244   5.560   6.391   6.668
 4782SOL    HW115245   5.563   6.394   6.568
 4782SOL    HW215246   5.586   6.300   6.699
 4783SOL     OW15247   6.016   4.632   1.521
 4783SOL    HW115248   5.940   4.683   1.480
 4783SOL    HW215249   5.983   4.544   1.555
 4784SOL     OW15250   5.665   5.172   4.607
 4784SOL    HW115251   5.675   5.183   4.706
 4784SOL    HW215252   5.683   5.259   4.562
 4785SOL     OW15253   6.452   0.791   0.944
 4785SOL    HW115254   6.488   0.778   1.036
 4785SOL    HW215255   6.406   0.707   0.914
 4786SOL     OW15256   1.784   2.916   2.112
 4786SOL    HW115257   1.710   2.860   2.149
 4786SOL    HW215258   1.832   2.865   2.040
 4787SOL     OW15259   3.721   2.005   2.917
 4787SOL    HW115260   3.779   1.955   2.852
 4787SOL    HW215261   3.636   2.032   2.872
 4788SOL     OW15262   1.344   5.053   4.201
 4788SOL    HW115263   1.316   4.965   4.162
 4788SOL    HW215264   1.280   5.124   4.173
 4789SOL     OW15265   6.017   0.549   0.707
 4789SOL    HW115266   6.057   0.633   0.670
 4789SOL    HW215267   6.063   0.470   0.666
 4790SOL     OW15268   5.448   1.637   6.509
 4790SOL    HW115269   5.349   1.641   6.491
 4790SOL    HW215270   5.469   1.686   6.593
 4791SOL     OW15271   5.087   6.675   2.403
 4791SOL    HW115272   5.009   6.678   2.340
 4791SOL    HW215273   5.156   6.741   2.373
 4792SOL     OW15274   2.439   2.689   1.862
 4792SOL    HW115275   2.457   2.764   1.926
 4792SOL    HW215276   2.521   2.631   1.855
 4793SOL     OW15277   1.313   6.733   6.140
 4793SOL    HW115278   1.232   6.685   6.105
 4793SOL    HW215279   1.284   6.802   6.207
 4794SOL     OW15280   3.114   0.921   2.140
 4794SOL    HW115281   3.188   0.973   2.182
 4794SOL    HW215282   3.042   0.983   2.110
 4795SOL     OW15283   6.233   3.136   4.267
 4795SOL    HW115284   6.205   3.173   4.356
 4795SOL    HW215285   6.332   3.125   4.265
 4796SOL     OW15286   5.895   4.142   1.175
 4796SOL    HW115287   5.920   4.073   1.243
 4796SOL    HW215288   5.849   4.097   1.098
 4797SOL     OW15289   0.248   5.048   4.818
 4797SOL    HW115290   0.162   5.097   4.802
 4797SOL    HW215291   0.323   5.096   4.772
 4798SOL     OW15292   6.773   3.975   4.236
 4798SOL    HW115293   6.856   4.024   4.260
 4798SOL    HW215294   6.698   4.006   4.295
 4799SOL     OW15295   3.592   1.690   4.823
 4799SOL    HW115296   3.632   1.768   4.775
 4799SOL    HW215297   3.660   1.649   4.883
 4800SOL     OW15298   2.003   1.963   4.724
 4800SOL    HW115299   1.915   1.985   4.767
 4800SOL    HW215300   2.014   2.016   4.640
 4801SOL     OW15301   0.828   2.576   0.982
 4801SOL    HW115302   0.825   2.538   0.890
 4801SOL    HW215303   0.847   2.674   0.978
 4802SOL     OW15304   2.693   0.770   2.099
 4802SOL    HW115305   2.709   0.755   2.002
 4802SOL    HW215306   2.781   0.771   2.147
 4803SOL     OW15307   0.845   6.642   0.401
 4803SOL    HW115308   0.916   6.574   0.385
 4803SOL    HW215309   0.888   6.729   0.429
 4804SOL     OW15310   4.159   5.259   6.542
 4804SOL    HW115311   4.228   5.277   6.612
 4804SOL    HW215312   4.149   5.160   6.531
 4805SOL     OW15313   0.143   1.735   0.982
 4805SOL    HW115314   0.129   1.710   0.887
 4805SOL    HW215315   0.077   1.687   1.040
 4806SOL     OW15316   0.867   2.583   2.724
 4806SOL    HW115317   0.785   2.610   2.673
 4806SOL    HW215318   0.840   2.532   2.806
 4807SOL     OW15319   6.958   6.844   1.389
 4807SOL    HW115320   0.008   6.904   1.349
 4807SOL    HW215321   6.896   6.897   1.448
 4808SOL     OW15322   4.816   3.234   1.234
 4808SOL    HW115323   4.751   3.160   1.255
 4808SOL    HW215324   4.880   3.244   1.310
 4809SOL     OW15325   3.949   5.508   6.750
 4809SOL    HW115326   3.925   5.422   6.705
 4809SOL    HW215327   4.041   5.535   6.724
 4810SOL     OW15328   0.731   0.226   1.370
 4810SOL    HW115329   0.654   0.254   1.313
 4810SOL    HW215330   0.777   0.308   1.406
 4811SOL     OW15331   4.270   5.788   2.138
 4811SOL    HW115332   4.341   5.857   2.148
 4811SOL    HW215333   4.260   5.738   2.225
 4812SOL     OW15334   6.703   5.905   4.480
 4812SOL    HW115335   6.671   5.984   4.429
 4812SOL    HW215336   6.801   5.916   4.500
 4813SOL     OW15337   5.913   2.629   3.287
 4813SOL    HW115338   5.888   2.715   3.332
 4813SOL    HW215339   5.830   2.585   3.253
 4814SOL     OW15340   0.226   3.173   1.913
 4814SOL    HW115341   0.216   3.162   1.814
 4814SOL    HW215342   0.166   3.107   1.959
 4815SOL     OW15343   4.505   6.199   1.164
 4815SOL    HW115344   4.590   6.147   1.168
 4815SOL    HW215345   4.444   6.159   1.096
 4816SOL     OW15346   5.619   5.181   3.327
 4816SOL    HW115347   5.716   5.174   3.350
 4816SOL    HW215348   5.594   5.106   3.266
 4817SOL     OW15349   0.304   1.627   6.757
 4817SOL    HW115350   0.372   1.658   6.823
 4817SOL    HW215351   0.249   1.554   6.797
 4818SOL     OW15352   0.760   0.439   4.256
 4818SOL    HW115353   0.777   0.490   4.171
 4818SOL    HW215354   0.809   0.352   4.252
 4819SOL     OW15355   1.787   3.446   0.449
 4819SOL    HW115356   1.860   3.492   0.500
 4819SOL    HW215357   1.733   3.390   0.512
 4820SOL     OW15358   6.815   2.828   2.117
 4820SOL    HW115359   6.815   2.738   2.073
 4820SOL    HW215360   6.736   2.881   2.086
 4821SOL     OW15361   6.992   5.718   2.800
 4821SOL    HW115362   0.020   5.709   2.712
 4821SOL    HW215363   6.898   5.686   2.790
 4822SOL     OW15364   1.796   3.935   4.104
 4822SOL    HW115365   1.696   3.939   4.093
 4822SOL    HW215366   1.838   3.920   4.014
 4823SOL     OW15367   1.670   3.285   1.399
 4823SOL    HW115368   1.581   3.253   1.430
 4823SOL    HW215369   1.697   3.234   1.317
 4824SOL     OW15370   6.565   1.565   5.798
 4824SOL    HW115371   6.627   1.633   5.760
 4824SOL    HW215372   6.617   1.489   5.836
 4825SOL     OW15373   1.629   6.980   3.967
 4825SOL    HW115374   1.646   6.885   3.992
 4825SOL    HW215375   1.683   0.022   4.025
 4826SOL     OW15376   3.733   0.491   1.714
 4826SOL    HW115377   3.815   0.544   1.695
 4826SOL    HW215378   3.668   0.503   1.639
 4827SOL     OW15379   6.434   1.776   1.273
 4827SOL    HW115380   6.368   1.750   1.343
 4827SOL    HW215381   6.454   1.874   1.282
 4828SOL     OW15382   4.949   0.953   4.037
 4828SOL    HW115383   4.932   0.859   4.068
 4828SOL    HW215384   5.029   0.990   4.085
 4829SOL     OW15385   4.327   6.716   4.803
 4829SOL    HW115386   4.360   6.658   4.877
 4829SOL    HW215387   4.227   6.716   4.802
 4830SOL     OW15388   3.130   6.320   3.059
 4830SOL    HW115389   3.186   6.397   3.088
 4830SOL    HW215390   3.097   6.270   3.139
 4831SOL     OW15391   2.887   4.654   5.407
 4831SOL    HW115392   2.890   4.595   5.326
 4831SOL    HW215393   2.820   4.618   5.472
 4832SOL     OW15394   3.999   3.132   4.702
 4832SOL    HW115395   3.943   3.182   4.637
 4832SOL    HW215396   4.080   3.186   4.726
 4833SOL     OW15397   6.818   3.434   4.476
 4833SOL    HW115398   6.813   3.347   4.525
 4833SOL    HW215399   6.790   3.508   4.537
 4834SOL     OW15400   0.898   5.380   1.292
 4834SOL    HW115401   0.863   5.309   1.232
 4834SOL    HW215402   0.845   5.381   1.377
 4835SOL     OW15403   6.706   2.359   5.355
 4835SOL    HW115404   6.648   2.435   5.326
 4835SOL    HW215405   6.660   2.272   5.336
 4836SOL     OW15406   5.145   1.261   5.790
 4836SOL    HW115407   5.101   1.172   5.781
 4836SOL    HW215408   5.243   1.252   5.770
 4837SOL     OW15409   0.512   4.087   3.892
 4837SOL    HW115410   0.499   4.123   3.800
 4837SOL    HW215411   0.472   4.151   3.958
 4838SOL     OW15412   2.470   4.395   6.182
 4838SOL    HW115413   2.530   4.407   6.103
 4838SOL    HW215414   2.381   4.437   6.164
 4839SOL     OW15415   2.495   1.505   0.531
 4839SOL    HW115416   2.401   1.492   0.562
 4839SOL    HW215417   2.496   1.524   0.432
 4840SOL     OW15418   5.759   3.874   3.961
 4840SOL    HW115419   5.803   3.791   3.926
 4840SOL    HW215420   5.673   3.890   3.913
 4841SOL     OW15421   3.310   6.419   2.744
 4841SOL    HW115422   3.213   6.420   2.768
 4841SOL    HW215423   3.334   6.506   2.701
 4842SOL     OW15424   3.247   5.361   2.843
 4842SOL    HW115425   3.235   5.346   2.941
 4842SOL    HW215426   3.343   5.346   2.819
 4843SOL     OW15427   0.334   2.132   0.918
 4843SOL    HW115428   0.325   2.051   0.975
 4843SOL    HW215429   0.244   2.155   0.879
 4844SOL     OW15430   1.840   5.294   5.233
 4844SOL    HW115431   1.761   5.244   5.268
 4844SOL    HW215432   1.819   5.328   5.141
 4845SOL     OW15433   4.898   3.935   4.977
 4845SOL    HW115434   4.939   4.016   4.935
 4845SOL    HW215435   4.907   3.858   4.914
 4846SOL     OW15436   6.673   3.639   4.614
 4846SOL    HW115437   6.617   3.587   4.678
 4846SOL    HW215438   6.621   3.657   4.531
 4847SOL     OW15439   2.824   5.919   6.302
 4847SOL    HW115440   2.847   5.963   6.389
 4847SOL    HW215441   2.793   5.826   6.319
 4848SOL     OW15442   3.480   0.684   4.778
 4848SOL    HW115443   3.464   0.630   4.695
 4848SOL    HW215444   3.573   0.721   4.776
 4849SOL     OW15445   2.078   6.730   1.764
 4849SOL    HW115446   1.983   6.699   1.769
 4849SOL    HW215447   2.079   6.825   1.731
 4850SOL     OW15448   4.251   0.069   0.507
 4850SOL    HW115449   4.334   0.108   0.548
 4850SOL    HW215450   4.171   0.120   0.538
 4851SOL     OW15451   3.987   4.385   6.597
 4851SOL    HW115452   4.017   4.469   6.552
 4851SOL    HW215453   4.006   4.391   6.695
 4852SOL     OW15454   5.587   5.292   4.897
 4852SOL    HW115455   5.521   5.348   4.846
 4852SOL    HW215456   5.543   5.208   4.929
 4853SOL     OW15457   4.136   6.874   2.349
 4853SOL    HW115458   4.219   6.824   2.373
 4853SOL    HW215459   4.153   6.930   2.268
 4854SOL     OW15460   5.112   6.717   1.489
 4854SOL    HW115461   5.136   6.739   1.394
 4854SOL    HW215462   5.096   6.802   1.539
 4855SOL     OW15463   5.296   4.865   5.992
 4855SOL    HW115464   5.391   4.889   6.010
 4855SOL    HW215465   5.289   4.818   5.904
 4856SOL     OW15466   0.295   3.633   3.046
 4856SOL    HW115467   0.240   3.600   2.969
 4856SOL    HW215468   0.268   3.586   3.129
 4857SOL     OW15469   2.662   1.962   4.883
 4857SOL    HW115470   2.670   1.961   4.783
 4857SOL    HW215471   2.610   2.043   4.911
 4858SOL     OW15472   0.832   6.003   4.759
 4858SOL    HW115473   0.796   5.926   4.812
 4858SOL    HW215474   0.883   5.968   4.680
 4859SOL     OW15475   0.254   6.460   2.626
 4859SOL    HW115476   0.207   6.512   2.555
 4859SOL    HW215477   0.207   6.472   2.714
 4860SOL     OW15478   4.568   5.210   1.270
 4860SOL    HW115479   4.617   5.284   1.318
 4860SOL    HW215480   4.634   5.153   1.221
 4861SOL     OW15481   0.444   4.149   6.191
 4861SOL    HW115482   0.357   4.194   6.213
 4861SOL    HW215483   0.456   4.146   6.092
 4862SOL     OW15484   2.479   5.663   5.103
 4862SOL    HW115485   2.482   5.739   5.039
 4862SOL    HW215486   2.464   5.697   5.196
 4863SOL     OW15487   4.605   2.296   3.080
 4863SOL    HW115488   4.538   2.227   3.051
 4863SOL    HW215489   4.680   2.251   3.129
 4864SOL     OW15490   1.776   1.293   1.174
 4864SOL    HW115491   1.696   1.353   1.179
 4864SOL    HW215492   1.859   1.349   1.171
 4865SOL     OW15493   3.871   6.205   5.505
 4865SOL    HW115494   3.891   6.220   5.602
 4865SOL    HW215495   3.864   6.107   5.487
 4866SOL     OW15496   0.004   4.427   2.196
 4866SOL    HW115497   6.973   4.434   2.109
 4866SOL    HW215498   0.016   4.330   2.219
 4867SOL     OW15499   4.634   5.494   3.593
 4867SOL    HW115500   4.679   5.471   3.680
 4867SOL    HW215501   4.553   5.549   3.611
 4868SOL     OW15502   0.958   6.283   1.335
 4868SOL    HW115503   0.918   6.365   1.375
 4868SOL    HW215504   0.903   6.203   1.360
 4869SOL     OW15505   6.434   1.216   0.799
 4869SOL    HW115506   6.408   1.131   0.753
 4869SOL    HW215507   6.359   1.282   0.792
 4870SOL     OW15508   6.710   0.039   1.383
 4870SOL    HW115509   6.677   0.132   1.400
 4870SOL    HW215510   6.670   6.995   1.450
 4871SOL     OW15511   1.012   3.300   4.243
 4871SOL    HW115512   1.055   3.260   4.162
 4871SOL    HW215513   0.953   3.233   4.287
 4872SOL     OW15514   0.859   0.755   3.553
 4872SOL    HW115515   0.929   0.685   3.562
 4872SOL    HW215516   0.843   0.797   3.642
 4873SOL     OW15517   0.907   6.128   5.026
 4873SOL    HW115518   0.901   6.228   5.017
 4873SOL    HW215519   0.933   6.088   4.938
 4874SOL     OW15520   5.167   3.461   3.474
 4874SOL    HW115521   5.082   3.515   3.479
 4874SOL    HW215522   5.161   3.385   3.539
 4875SOL     OW15523   6.152   3.097   6.584
 4875SOL    HW115524   6.062   3.119   6.546
 4875SOL    HW215525   6.188   3.016   6.539
 4876SOL     OW15526   0.584   1.597   6.844
 4876SOL    HW115527   0.614   1.610   6.750
 4876SOL    HW215528   0.658   1.559   6.898
 4877SOL     OW15529   6.580   1.454   0.812
 4877SOL    HW115530   6.614   1.455   0.906
 4877SOL    HW215531   6.517   1.378   0.800
 4878SOL     OW15532   6.441   2.150   1.449
 4878SOL    HW115533   6.492   2.188   1.526
 4878SOL    HW215534   6.352   2.118   1.481
 4879SOL     OW15535   4.220   6.094   3.059
 4879SOL    HW115536   4.141   6.032   3.057
 4879SOL    HW215537   4.189   6.188   3.047
 4880SOL     OW15538   5.853   1.945   6.437
 4880SOL    HW115539   5.834   1.888   6.357
 4880SOL    HW215540   5.951   1.944   6.456
 4881SOL     OW15541   3.074   5.786   6.911
 4881SOL    HW115542   3.117   5.876   6.913
 4881SOL    HW215543   3.135   5.719   6.954
 4882SOL     OW15544   5.190   0.727   5.836
 4882SOL    HW115545   5.237   0.644   5.866
 4882SOL    HW215546   5.164   0.717   5.739
 4883SOL     OW15547   6.878   6.319   0.896
 4883SOL    HW115548   6.950   6.287   0.957
 4883SOL    HW215549   6.790   6.315   0.943
 4884SOL     OW15550   3.603   6.539   1.893
 4884SOL    HW115551   3.673   6.495   1.838
 4884SOL    HW215552   3.512   6.513   1.859
 4885SOL     OW15553   2.211   0.114   2.227
 4885SOL    HW115554   2.168   0.185   2.282
 4885SOL    HW215555   2.298   0.148   2.192
 4886SOL     OW15556   6.130   0.767   6.120
 4886SOL    HW115557   6.104   0.671   6.130
 4886SOL    HW215558   6.210   0.774   6.060
 4887SOL     OW15559   0.616   2.041   5.210
 4887SOL    HW115560   0.613   2.119   5.148
 4887SOL    HW215561   0.522   2.016   5.237
 4888SOL     OW15562   2.911   5.397   1.784
 4888SOL    HW115563   2.832   5.398   1.845
 4888SOL    HW215564   2.995   5.406   1.838
 4889SOL     OW15565   1.460   2.692   6.890
 4889SOL    HW115566   1.425   2.783   6.912
 4889SOL    HW215567   1.544   2.674   6.942
 4890SOL     OW15568   1.424   0.271   5.027
 4890SOL    HW115569   1.362   0.341   5.063
 4890SOL    HW215570   1.407   0.258   4.929
 4891SOL     OW15571   1.041   3.862   0.797
 4891SOL    HW115572   0.993   3.788   0.845
 4891SOL    HW215573   1.110   3.902   0.857
 4892SOL     OW15574   1.697   6.123   1.174
 4892SOL    HW115575   1.680   6.059   1.099
 4892SOL    HW215576   1.768   6.188   1.148
 4893SOL     OW15577   1.164   3.365   6.463
 4893SOL    HW115578   1.231   3.348   6.391
 4893SOL    HW215579   1.072   3.348   6.428
 4894SOL     OW15580   2.065   1.321   3.738
 4894SOL    HW115581   2.103   1.283   3.822
 4894SOL    HW215582   2.011   1.251   3.691
 4895SOL     OW15583   6.091   3.945   6.942
 4895SOL    HW115584   6.145   3.989   7.015
 4895SOL    HW215585   6.039   3.869   6.980
 4896SOL     OW15586   4.566   5.879   3.401
 4896SOL    HW115587   4.493   5.897   3.336
 4896SOL    HW215588   4.605   5.788   3.385
 4897SOL     OW15589   3.014   5.863   5.722
 4897SOL    HW115590   2.972   5.773   5.722
 4897SOL    HW215591   3.108   5.856   5.687
 4898SOL     OW15592   5.306   2.491   5.307
 4898SOL    HW115593   5.403   2.466   5.310
 4898SOL    HW215594   5.264   2.448   5.228
 4899SOL     OW15595   5.396   4.369   4.664
 4899SOL    HW115596   5.398   4.349   4.566
 4899SOL    HW215597   5.426   4.463   4.679
 4900SOL     OW15598   1.281   6.778   5.169
 4900SOL    HW115599   1.257   6.740   5.258
 4900SOL    HW215600   1.198   6.800   5.119
 4901SOL     OW15601   1.345   6.362   3.271
 4901SOL    HW115602   1.384   6.296   3.207
 4901SOL    HW215603   1.418   6.420   3.309
 4902SOL     OW15604   3.053   4.731   1.738
 4902SOL    HW115605   3.151   4.718   1.752
 4902SOL    HW215606   3.004   4.648   1.764
 4903SOL     OW15607   5.163   6.356   6.330
 4903SOL    HW115608   5.138   6.370   6.426
 4903SOL    HW215609   5.080   6.350   6.275
 4904SOL     OW15610   3.480   6.218   3.475
 4904SOL    HW115611   3.385   6.249   3.471
 4904SOL    HW215612   3.541   6.297   3.486
 4905SOL     OW15613   6.345   3.241   3.263
 4905SOL    HW115614   6.302   3.160   3.301
 4905SOL    HW215615   6.443   3.239   3.281
 4906SOL     OW15616   5.696   1.028   1.572
 4906SOL    HW115617   5.716   0.930   1.562
 4906SOL    HW215618   5.694   1.052   1.669
 4907SOL     OW15619   2.719   1.391   2.599
 4907SOL    HW115620   2.776   1.337   2.538
 4907SOL    HW215621   2.642   1.429   2.548
 4908SOL     OW15622   3.652   5.501   0.079
 4908SOL    HW115623   3.707   5.423   0.052
 4908SOL    HW215624   3.603   5.536   7.017
 4909SOL     OW15625   6.482   6.871   5.356
 4909SOL    HW115626   6.441   6.918   5.278
 4909SOL    HW215627   6.464   6.773   5.349
 4910SOL     OW15628   6.032   0.552   5.546
 4910SOL    HW115629   5.950   0.536   5.601
 4910SOL    HW215630   6.102   0.596   5.602
 4911SOL     OW15631   0.485   2.970   6.123
 4911SOL    HW115632   0.568   3.022   6.101
 4911SOL    HW215633   0.449   3.001   6.210
 4912SOL     OW15634   2.697   2.262   2.186
 4912SOL    HW115635   2.768   2.301   2.128
 4912SOL    HW215636   2.739   2.208   2.259
 4913SOL     OW15637   2.911   3.316   2.509
 4913SOL    HW115638   2.892   3.257   2.587
 4913SOL    HW215639   2.950   3.403   2.540
 4914SOL     OW15640   1.538   6.368   3.479
 4914SOL    HW115641   1.504   6.369   3.573
 4914SOL    HW215642   1.600   6.445   3.465
 4915SOL     OW15643   3.376   5.917   3.080
 4915SOL    HW115644   3.353   5.993   3.019
 4915SOL    HW215645   3.300   5.899   3.141
 4916SOL     OW15646   2.135   1.612   2.531
 4916SOL    HW115647   2.047   1.570   2.511
 4916SOL    HW215648   2.176   1.569   2.611
 4917SOL     OW15649   1.973   5.139   6.971
 4917SOL    HW115650   1.911   5.077   6.922
 4917SOL    HW215651   2.019   5.199   6.906
 4918SOL     OW15652   2.656   0.448   2.221
 4918SOL    HW115653   2.629   0.377   2.286
 4918SOL    HW215654   2.736   0.417   2.169
 4919SOL     OW15655   2.470   2.896   1.541
 4919SOL    HW115656   2.509   2.899   1.449
 4919SOL    HW215657   2.545   2.895   1.608
 4920SOL     OW15658   4.261   0.776   0.182
 4920SOL    HW115659   4.314   0.723   0.115
 4920SOL    HW215660   4.182   0.722   0.211
 4921SOL     OW15661   1.631   4.550   1.527
 4921SOL    HW115662   1.668   4.470   1.574
 4921SOL    HW215663   1.531   4.549   1.534
 4922SOL     OW15664   1.060   2.925   5.869
 4922SOL    HW115665   0.984   2.966   5.920
 4922SOL    HW215666   1.062   2.826   5.888
 4923SOL     OW15667   3.781   1.425   0.809
 4923SOL    HW115668   3.714   1.499   0.807
 4923SOL    HW215669   3.868   1.458   0.773
 4924SOL     OW15670   0.550   4.025   4.505
 4924SOL    HW115671   0.573   4.088   4.431
 4924SOL    HW215672   0.499   4.075   4.575
 4925SOL     OW15673   4.680   5.703   6.169
 4925SOL    HW115674   4.581   5.700   6.164
 4925SOL    HW215675   4.713   5.789   6.129
 4926SOL     OW15676   4.312   2.404   1.788
 4926SOL    HW115677   4.361   2.411   1.701
 4926SOL    HW215678   4.376   2.423   1.863
 4927SOL     OW15679   3.675   4.078   2.884
 4927SOL    HW115680   3.654   4.101   2.979
 4927SOL    HW215681   3.754   4.131   2.854
 4928SOL     OW15682   0.329   6.114   1.023
 4928SOL    HW115683   0.413   6.103   1.075
 4928SOL    HW215684   0.334   6.197   0.968
 4929SOL     OW15685   0.817   4.897   4.294
 4929SOL    HW115686   0.849   4.835   4.366
 4929SOL    HW215687   0.890   4.962   4.273
 4930SOL     OW15688   6.688   2.110   0.802
 4930SOL    HW115689   6.651   2.193   0.760
 4930SOL    HW215690   6.747   2.063   0.737
 4931SOL     OW15691   0.298   0.681   1.377
 4931SOL    HW115692   0.398   0.676   1.374
 4931SOL    HW215693   0.261   0.667   1.285
 4932SOL     OW15694   3.737   1.992   0.933
 4932SOL    HW115695   3.638   1.982   0.921
 4932SOL    HW215696   3.765   2.084   0.906
 4933SOL     OW15697   2.388   0.813   5.268
 4933SOL    HW115698   2.325   0.854   5.202
 4933SOL    HW215699   2.432   0.734   5.225
 4934SOL     OW15700   1.330   6.257   5.237
 4934SOL    HW115701   1.304   6.253   5.334
 4934SOL    HW215702   1.413   6.312   5.228
 4935SOL     OW15703   1.605   0.959   0.755
 4935SOL    HW115704   1.674   0.937   0.686
 4935SOL    HW215705   1.647   1.010   0.830
 4936SOL     OW15706   3.909   5.809   0.778
 4936SOL    HW115707   3.919   5.720   0.822
 4936SOL    HW215708   3.994   5.831   0.729
 4937SOL     OW15709   1.238   3.031   6.220
 4937SOL    HW115710   1.202   2.938   6.215
 4937SOL    HW215711   1.169   3.095   6.188
 4938SOL     OW15712   3.321   4.698   1.322
 4938SOL    HW115713   3.293   4.643   1.400
 4938SOL    HW215714   3.240   4.734   1.275
 4939SOL     OW15715   1.258   1.967   2.140
 4939SOL    HW115716   1.256   1.928   2.047
 4939SOL    HW215717   1.170   1.952   2.184
 4940SOL     OW15718   6.947   2.134   4.859
 4940SOL    HW115719   0.011   2.188   4.875
 4940SOL    HW215720   6.904   2.112   4.946
 4941SOL     OW15721   4.356   1.869   5.444
 4941SOL    HW115722   4.413   1.947   5.470
 4941SOL    HW215723   4.403   1.816   5.373
 4942SOL     OW15724   0.413   1.646   3.319
 4942SOL    HW115725   0.450   1.631   3.228
 4942SOL    HW215726   0.430   1.565   3.376
 4943SOL     OW15727   5.068   2.842   6.816
 4943SOL    HW115728   5.031   2.885   6.898
 4943SOL    HW215729   5.153   2.888   6.790
 4944SOL     OW15730   0.822   4.913   0.240
 4944SOL    HW115731   0.751   4.861   0.193
 4944SOL    HW215732   0.791   4.934   0.333
 4945SOL     OW15733   2.234   0.546   5.325
 4945SOL    HW115734   2.158   0.600   5.287
 4945SOL    HW215735   2.284   0.603   5.390
 4946SOL     OW15736   3.049   5.133   0.253
 4946SOL    HW115737   3.035   5.231   0.263
 4946SOL    HW215738   3.000   5.084   0.325
 4947SOL     OW15739   1.220   0.848   1.948
 4947SOL    HW115740   1.261   0.866   1.858
 4947SOL    HW215741   1.288   0.802   2.006
 4948SOL     OW15742   1.852   2.536   1.883
 4948SOL    HW115743   1.824   2.578   1.797
 4948SOL    HW215744   1.903   2.602   1.937
 4949SOL     OW15745   0.027   4.881   6.786
 4949SOL    HW115746   0.062   4.821   6.715
 4949SOL    HW215747   6.974   4.833   6.838
 4950SOL     OW15748   3.219   3.730   5.954
 4950SOL    HW115749   3.159   3.683   6.019
 4950SOL    HW215750   3.314   3.715   5.980
 4951SOL     OW15751   5.190   5.296   3.519
 4951SOL    HW115752   5.146   5.223   3.570
 4951SOL    HW215753   5.129   5.327   3.446
 4952SOL     OW15754   0.485   6.837   6.389
 4952SOL    HW115755   0.536   6.870   6.309
 4952SOL    HW215756   0.405   6.895   6.404
 4953SOL     OW15757   0.746   1.863   4.771
 4953SOL    HW115758   0.783   1.869   4.864
 4953SOL    HW215759   0.675   1.932   4.759
 4954SOL     OW15760   3.156   4.084   4.704
 4954SOL    HW115761   3.066   4.113   4.671
 4954SOL    HW215762   3.165   4.104   4.801
 4955SOL     OW15763   4.074   5.326   5.738
 4955SOL    HW115764   4.102   5.419   5.714
 4955SOL    HW215765   4.053   5.274   5.655
 4956SOL     OW15766   2.553   0.255   4.731
 4956SOL    HW115767   2.572   0.277   4.827
 4956SOL    HW215768   2.521   0.338   4.684
 4957SOL     OW15769   5.867   4.642   6.433
 4957SOL    HW115770   5.866   4.614   6.337
 4957SOL    HW215771   5.881   4.562   6.491
 4958SOL     OW15772   3.522   6.468   0.383
 4958SOL    HW115773   3.462   6.388   0.384
 4958SOL    HW215774   3.608   6.445   0.430
 4959SOL     OW15775   0.782   2.000   2.707
 4959SOL    HW115776   0.759   2.022   2.801
 4959SOL    HW215777   0.839   2.073   2.668
 4960SOL     OW15778   4.417   4.601   4.280
 4960SOL    HW115779   4.481   4.525   4.268
 4960SOL    HW215780   4.374   4.594   4.371
 4961SOL     OW15781   3.451   1.068   0.961
 4961SOL    HW115782   3.367   1.025   0.993
 4961SOL    HW215783   3.455   1.163   0.992
 4962SOL     OW15784   1.280   3.978   0.914
 4962SOL    HW115785   1.340   3.909   0.873
 4962SOL    HW215786   1.325   4.067   0.910
 4963SOL     OW15787   1.095   3.643   6.494
 4963SOL    HW115788   1.103   3.672   6.399
 4963SOL    HW215789   1.104   3.544   6.500
 4964SOL     OW15790   2.575   6.900   4.539
 4964SOL    HW115791   2.640   6.971   4.513
 4964SOL    HW215792   2.624   6.814   4.557
 4965SOL     OW15793   1.625   6.159   3.336
 4965SOL    HW115794   1.623   6.074   3.389
 4965SOL    HW215795   1.619   6.237   3.398
 4966SOL     OW15796   2.787   0.020   4.430
 4966SOL    HW115797   2.829   6.992   4.352
 4966SOL    HW215798   2.856   0.038   4.500
 4967SOL     OW15799   4.301   4.802   5.095
 4967SOL    HW115800   4.393   4.837   5.108
 4967SOL    HW215801   4.305   4.711   5.055
 4968SOL     OW15802   6.411   2.626   3.104
 4968SOL    HW115803   6.430   2.718   3.070
 4968SOL    HW215804   6.410   2.627   3.204
 4969SOL     OW15805   0.717   6.343   3.538
 4969SOL    HW115806   0.681   6.292   3.460
 4969SOL    HW215807   0.810   6.312   3.559
 4970SOL     OW15808   0.866   1.343   1.201
 4970SOL    HW115809   0.817   1.419   1.244
 4970SOL    HW215810   0.837   1.257   1.243
 4971SOL     OW15811   6.901   6.151   2.712
 4971SOL    HW115812   6.976   6.168   2.649
 4971SOL    HW215813   6.932   6.088   2.784
 4972SOL     OW15814   0.499   4.554   1.044
 4972SOL    HW115815   0.588   4.580   1.006
 4972SOL    HW215816   0.459   4.480   0.990
 4973SOL     OW15817   6.831   0.803   0.585
 4973SOL    HW115818   6.870   0.879   0.533
 4973SOL    HW215819   6.757   0.837   0.643
 4974SOL     OW15820   3.804   5.884   5.207
 4974SOL    HW115821   3.727   5.850   5.153
 4974SOL    HW215822   3.773   5.902   5.301
 4975SOL     OW15823   5.477   4.339   0.893
 4975SOL    HW115824   5.381   4.346   0.865
 4975SOL    HW215825   5.483   4.338   0.992
 4976SOL     OW15826   1.655   6.667   3.126
 4976SOL    HW115827   1.641   6.587   3.068
 4976SOL    HW215828   1.684   6.745   3.069
 4977SOL     OW15829   1.795   4.572   5.905
 4977SOL    HW115830   1.713   4.521   5.881
 4977SOL    HW215831   1.784   4.668   5.878
 4978SOL     OW15832   5.104   4.488   4.712
 4978SOL    HW115833   5.008   4.516   4.705
 4978SOL    HW215834   5.147   4.500   4.623
 4979SOL     OW15835   2.370   6.858   5.975
 4979SOL    HW115836   2.365   6.879   6.073
 4979SOL    HW215837   2.443   6.912   5.933
 4980SOL     OW15838   5.363   3.671   3.676
 4980SOL    HW115839   5.281   3.729   3.675
 4980SOL    HW215840   5.344   3.586   3.628
 4981SOL     OW15841   3.243   4.836   2.287
 4981SOL    HW115842   3.221   4.852   2.384
 4981SOL    HW215843   3.231   4.739   2.266
 4982SOL     OW15844   3.960   1.495   5.857
 4982SOL    HW115845   4.027   1.526   5.924
 4982SOL    HW215846   3.879   1.554   5.861
 4983SOL     OW15847   5.746   5.809   2.991
 4983SOL    HW115848   5.671   5.846   3.047
 4983SOL    HW215849   5.763   5.714   3.016
 4984SOL     OW15850   4.700   4.361   3.342
 4984SOL    HW115851   4.642   4.441   3.355
 4984SOL    HW215852   4.728   4.355   3.246
 4985SOL     OW15853   5.234   6.419   2.399
 4985SOL    HW115854   5.207   6.400   2.305
 4985SOL    HW215855   5.194   6.505   2.430
 4986SOL     OW15856   0.444   5.213   2.134
 4986SOL    HW115857   0.451   5.251   2.226
 4986SOL    HW215858   0.465   5.283   2.066
 4987SOL     OW15859   0.746   0.872   2.228
 4987SOL    HW115860   0.684   0.836   2.297
 4987SOL    HW215861   0.789   0.956   2.262
 4988SOL     OW15862   6.217   6.460   3.439
 4988SOL    HW115863   6.210   6.430   3.344
 4988SOL    HW215864   6.286   6.532   3.447
 4989SOL     OW15865   4.662   0.028   2.861
 4989SOL    HW115866   4.572   0.040   2.904
 4989SOL    HW215867   4.722   6.994   2.922
 4990SOL     OW15868   4.766   2.420   4.906
 4990SOL    HW115869   4.710   2.365   4.845
 4990SOL    HW215870   4.708   2.486   4.954
 4991SOL     OW15871   1.539   4.890   5.238
 4991SOL    HW115872   1.453   4.940   5.234
 4991SOL    HW215873   1.566   4.877   5.334
 4992SOL     OW15874   0.703   2.711   4.034
 4992SOL    HW115875   0.623   2.693   4.091
 4992SOL    HW215876   0.730   2.627   3.987
 4993SOL     OW15877   3.211   6.174   3.742
 4993SOL    HW115878   3.191   6.244   3.812
 4993SOL    HW215879   3.183   6.208   3.652
 4994SOL     OW15880   3.290   4.237   5.364
 4994SOL    HW115881   3.209   4.292   5.383
 4994SOL    HW215882   3.282   4.197   5.273
 4995SOL     OW15883   0.857   0.087   5.996
 4995SOL    HW115884   0.883   0.180   6.023
 4995SOL    HW215885   0.761   0.086   5.968
 4996SOL     OW15886   6.748   1.366   4.436
 4996SOL    HW115887   6.814   1.439   4.417
 4996SOL    HW215888   6.674   1.401   4.492
 4997SOL     OW15889   3.721   1.864   1.298
 4997SOL    HW115890   3.651   1.818   1.243
 4997SOL    HW215891   3.794   1.896   1.239
 4998SOL     OW15892   7.005   3.738   3.495
 4998SOL    HW115893   0.070   3.749   3.549
 4998SOL    HW215894   6.936   3.803   3.525
 4999SOL     OW15895   0.897   3.375   4.478
 4999SOL    HW115896   0.952   3.382   4.395
 4999SOL    HW215897   0.944   3.422   4.553
 5000SOL     OW15898   3.065   5.224   2.549
 5000SOL    HW115899   2.995   5.210   2.479
 5000SOL    HW215900   3.062   5.318   2.582
 5001SOL     OW15901   0.354   5.780   3.395
 5001SOL    HW115902   0.448   5.757   3.416
 5001SOL    HW215903   0.323   5.853   3.456
 5002SOL     OW15904   0.474   3.299   3.507
 5002SOL    HW115905   0.548   3.299   3.573
 5002SOL    HW215906   0.461   3.206   3.471
 5003SOL     OW15907   4.109   0.370   3.962
 5003SOL    HW115908   4.184   0.362   3.895
 5003SOL    HW215909   4.122   0.302   4.034
 5004SOL     OW15910   2.544   5.650   6.718
 5004SOL    HW115911   2.494   5.575   6.676
 5004SOL    HW215912   2.597   5.698   6.648
 5005SOL     OW15913   3.216   2.292   0.617
 5005SOL    HW115914   3.313   2.287   0.640
 5005SOL    HW215915   3.194   2.221   0.551
 5006SOL     OW15916   4.906   1.423   2.216
 5006SOL    HW115917   4.944   1.506   2.257
 5006SOL    HW215918   4.935   1.344   2.269
 5007SOL     OW15919   6.079   6.489   2.093
 5007SOL    HW115920   6.145   6.485   2.168
 5007SOL    HW215921   6.060   6.585   2.070
 5008SOL     OW15922   5.538   6.770   2.251
 5008SOL    HW115923   5.540   6.702   2.178
 5008SOL    HW215924   5.608   6.748   2.318
 5009SOL     OW15925   6.939   2.431   0.880
 5009SOL    HW115926   6.857   2.424   0.936
 5009SOL    HW215927   6.972   2.525   0.881
 5010SOL     OW15928   3.834   3.509   0.895
 5010SOL    HW115929   3.897   3.571   0.848
 5010SOL    HW215930   3.885   3.453   0.961
 5011SOL     OW15931   2.397   3.159   6.681
 5011SOL    HW115932   2.335   3.158   6.603
 5011SOL    HW215933   2.490   3.136   6.650
 5012SOL     OW15934   6.237   2.263   5.287
 5012SOL    HW115935   6.145   2.249   5.324
 5012SOL    HW215936   6.305   2.251   5.360
 5013SOL     OW15937   6.135   0.049   5.939
 5013SOL    HW115938   6.088   0.115   5.881
 5013SOL    HW215939   6.124   6.975   5.901
 5014SOL     OW15940   6.594   3.628   1.731
 5014SOL    HW115941   6.689   3.628   1.700
 5014SOL    HW215942   6.587   3.582   1.819
 5015SOL     OW15943   5.357   6.386   3.803
 5015SOL    HW115944   5.363   6.486   3.813
 5015SOL    HW215945   5.431   6.343   3.854
 5016SOL     OW15946   1.939   3.829   5.608
 5016SOL    HW115947   1.921   3.922   5.577
 5016SOL    HW215948   1.973   3.774   5.532
 5017SOL     OW15949   0.378   3.334   1.618
 5017SOL    HW115950   0.431   3.250   1.630
 5017SOL    HW215951   0.404   3.400   1.688
 5018SOL     OW15952   0.727   0.184   1.080
 5018SOL    HW115953   0.735   0.126   0.999
 5018SOL    HW215954   0.634   0.181   1.114
 5019SOL     OW15955   0.803   5.305   5.524
 5019SOL    HW115956   0.822   5.224   5.469
 5019SOL    HW215957   0.706   5.307   5.549
 5020SOL     OW15958   2.110   0.032   4.512
 5020SOL    HW115959   2.208   0.031   4.492
 5020SOL    HW215960   2.096   0.033   4.611
 5021SOL     OW15961   1.424   1.332   0.949
 5021SOL    HW115962   1.479   1.275   1.010
 5021SOL    HW215963   1.340   1.358   0.996
 5022SOL     OW15964   0.097   3.304   1.542
 5022SOL    HW115965   0.183   3.317   1.591
 5022SOL    HW215966   0.021   3.329   1.602
 5023SOL     OW15967   6.707   4.726   2.830
 5023SOL    HW115968   6.695   4.780   2.914
 5023SOL    HW215969   6.718   4.630   2.854
 5024SOL     OW15970   4.587   3.400   1.411
 5024SOL    HW115971   4.541   3.488   1.406
 5024SOL    HW215972   4.673   3.403   1.360
 5025SOL     OW15973   3.910   0.973   4.011
 5025SOL    HW115974   3.970   1.046   4.043
 5025SOL    HW215975   3.844   1.010   3.946
 5026SOL     OW15976   4.371   0.102   4.797
 5026SOL    HW115977   4.448   0.056   4.842
 5026SOL    HW215978   4.290   0.045   4.804
 5027SOL     OW15979   5.072   0.193   0.130
 5027SOL    HW115980   5.150   0.242   0.090
 5027SOL    HW215981   4.993   0.200   0.070
 5028SOL     OW15982   0.397   2.021   2.672
 5028SOL    HW115983   0.410   1.935   2.721
 5028SOL    HW215984   0.397   2.097   2.737
 5029SOL     OW15985   6.155   1.729   2.748
 5029SOL    HW115986   6.078   1.670   2.773
 5029SOL    HW215987   6.213   1.742   2.828
 5030SOL     OW15988   0.260   4.514   6.316
 5030SOL    HW115989   0.287   4.565   6.398
 5030SOL    HW215990   0.270   4.416   6.333
 5031SOL     OW15991   6.846   0.408   6.437
 5031SOL    HW115992   6.897   0.352   6.502
 5031SOL    HW215993   6.748   0.401   6.458
 5032SOL     OW15994   2.904   3.437   5.413
 5032SOL    HW115995   2.885   3.531   5.386
 5032SOL    HW215996   2.862   3.374   5.347
 5033SOL     OW15997   1.681   1.138   0.251
 5033SOL    HW115998   1.617   1.212   0.231
 5033SOL    HW215999   1.662   1.061   0.191
 5034SOL     OW16000   4.140   6.455   3.736
 5034SOL    HW116001   4.112   6.534   3.789
 5034SOL    HW216002   4.227   6.474   3.690
 5035SOL     OW16003   1.513   4.348   3.643
 5035SOL    HW116004   1.493   4.290   3.564
 5035SOL    HW216005   1.606   4.331   3.675
 5036SOL     OW16006   5.964   2.757   5.284
 5036SOL    HW116007   5.947   2.736   5.188
 5036SOL    HW216008   5.931   2.849   5.305
 5037SOL     OW16009   4.328   4.120   0.741
 5037SOL    HW116010   4.390   4.198   0.736
 5037SOL    HW216011   4.290   4.113   0.833
 5038SOL     OW16012   3.539   3.805   3.931
 5038SOL    HW116013   3.457   3.809   3.989
 5038SOL    HW216014   3.592   3.724   3.955
 5039SOL     OW16015   0.746   3.379   6.762
 5039SOL    HW116016   0.785   3.331   6.683
 5039SOL    HW216017   0.778   3.473   6.763
 5040SOL     OW16018   0.747   6.185   6.451
 5040SOL    HW116019   0.697   6.099   6.445
 5040SOL    HW216020   0.794   6.189   6.540
 5041SOL     OW16021   0.224   3.489   2.229
 5041SOL    HW116022   0.250   3.485   2.133
 5041SOL    HW216023   0.126   3.472   2.238
 5042SOL     OW16024   0.615   2.704   6.032
 5042SOL    HW116025   0.669   2.646   6.093
 5042SOL    HW216026   0.579   2.782   6.084
 5043SOL     OW16027   3.663   6.675   1.012
 5043SOL    HW116028   3.711   6.760   0.990
 5043SOL    HW216029   3.713   6.597   0.974
 5044SOL     OW16030   5.869   5.239   0.881
 5044SOL    HW116031   5.784   5.189   0.894
 5044SOL    HW216032   5.873   5.275   0.788
 5045SOL     OW16033   6.615   3.402   6.041
 5045SOL    HW116034   6.515   3.409   6.044
 5045SOL    HW216035   6.655   3.457   6.115
 5046SOL     OW16036   3.367   3.187   3.388
 5046SOL    HW116037   3.271   3.199   3.415
 5046SOL    HW216038   3.397   3.095   3.412
 5047SOL     OW16039   1.089   3.838   3.126
 5047SOL    HW116040   1.102   3.891   3.210
 5047SOL    HW216041   1.124   3.745   3.140
 5048SOL     OW16042   1.362   1.134   5.813
 5048SOL    HW116043   1.382   1.230   5.799
 5048SOL    HW216044   1.374   1.084   5.727
 5049SOL     OW16045   5.649   0.795   6.312
 5049SOL    HW116046   5.709   0.870   6.284
 5049SOL    HW216047   5.644   0.791   6.411
 5050SOL     OW16048   1.549   0.600   1.410
 5050SOL    HW116049   1.553   0.625   1.313
 5050SOL    HW216050   1.637   0.564   1.439
 5051SOL     OW16051   3.923   5.120   1.240
 5051SOL    HW116052   3.974   5.146   1.322
 5051SOL    HW216053   3.828   5.103   1.265
 5052SOL     OW16054   2.743   1.039   6.154
 5052SOL    HW116055   2.759   1.086   6.067
 5052SOL    HW216056   2.802   0.959   6.161
 5053SOL     OW16057   0.501   6.552   2.096
 5053SOL    HW116058   0.545   6.514   2.015
 5053SOL    HW216059   0.570   6.579   2.163
 5054SOL     OW16060   4.226   4.906   4.265
 5054SOL    HW116061   4.190   4.907   4.359
 5054SOL    HW216062   4.326   4.907   4.268
 5055SOL     OW16063   6.459   2.927   6.460
 5055SOL    HW116064   6.513   2.991   6.514
 5055SOL    HW216065   6.392   2.881   6.519
 5056SOL     OW16066   5.237   4.202   5.031
 5056SOL    HW116067   5.185   4.193   5.116
 5056SOL    HW216068   5.267   4.111   5.001
 5057SOL     OW16069   1.005   6.540   2.937
 5057SOL    HW116070   0.928   6.571   2.881
 5057SOL    HW216071   0.969   6.503   3.024
 5058SOL     OW16072   2.861   4.610   5.871
 5058SOL    HW116073   2.842   4.570   5.961
 5058SOL    HW216074   2.916   4.693   5.883
 5059SOL     OW16075   0.583   0.829   2.459
 5059SOL    HW116076   0.632   0.908   2.496
 5059SOL    HW216077   0.499   0.814   2.512
 5060SOL     OW16078   6.586   2.380   5.698
 5060SOL    HW116079   6.647   2.404   5.773
 5060SOL    HW216080   6.542   2.293   5.717
 5061SOL     OW16081   5.566   3.892   0.127
 5061SOL    HW116082   5.562   3.962   0.056
 5061SOL    HW216083   5.479   3.889   0.177
 5062SOL     OW16084   0.284   6.689   1.233
 5062SOL    HW116085   0.186   6.705   1.245
 5062SOL    HW216086   0.330   6.775   1.213
 5063SOL     OW16087   1.069   6.508   1.868
 5063SOL    HW116088   1.160   6.532   1.833
 5063SOL    HW216089   1.051   6.411   1.850
 5064SOL     OW16090   4.518   3.041   0.101
 5064SOL    HW116091   4.460   2.984   0.159
 5064SOL    HW216092   4.603   2.991   0.080
 5065SOL     OW16093   2.203   6.589   5.669
 5065SOL    HW116094   2.265   6.577   5.592
 5065SOL    HW216095   2.254   6.585   5.754
 5066SOL     OW16096   5.637   4.813   1.038
 5066SOL    HW116097   5.604   4.728   1.078
 5066SOL    HW216098   5.711   4.793   0.974
 5067SOL     OW16099   5.018   1.260   0.440
 5067SOL    HW116100   4.962   1.239   0.360
 5067SOL    HW216101   5.073   1.180   0.465
 5068SOL     OW16102   2.516   4.885   0.894
 5068SOL    HW116103   2.440   4.950   0.885
 5068SOL    HW216104   2.600   4.934   0.916
 5069SOL     OW16105   0.539   4.547   3.085
 5069SOL    HW116106   0.592   4.566   3.167
 5069SOL    HW216107   0.468   4.479   3.106
 5070SOL     OW16108   5.543   2.782   3.509
 5070SOL    HW116109   5.587   2.843   3.443
 5070SOL    HW216110   5.524   2.833   3.593
 5071SOL     OW16111   4.442   1.801   0.089
 5071SOL    HW116112   4.496   1.717   0.084
 5071SOL    HW216113   4.464   1.859   0.011
 5072SOL     OW16114   1.134   4.345   1.592
 5072SOL    HW116115   1.036   4.326   1.587
 5072SOL    HW216116   1.169   4.318   1.682
 5073SOL     OW16117   4.536   0.860   3.400
 5073SOL    HW116118   4.478   0.833   3.477
 5073SOL    HW216119   4.529   0.958   3.384
 5074SOL     OW16120   2.524   4.128   6.228
 5074SOL    HW116121   2.580   4.104   6.149
 5074SOL    HW216122   2.510   4.227   6.231
 5075SOL     OW16123   0.573   5.901   4.522
 5075SOL    HW116124   0.634   5.976   4.546
 5075SOL    HW216125   0.496   5.899   4.586
 5076SOL     OW16126   3.150   0.151   1.330
 5076SOL    HW116127   3.163   0.069   1.274
 5076SOL    HW216128   3.066   0.141   1.384
 5077SOL     OW16129   0.246   2.396   3.117
 5077SOL    HW116130   0.270   2.370   3.210
 5077SOL    HW216131   0.267   2.493   3.104
 5078SOL     OW16132   1.026   1.820   3.853
 5078SOL    HW116133   1.031   1.726   3.887
 5078SOL    HW216134   1.050   1.821   3.755
 5079SOL     OW16135   3.466   5.239   5.518
 5079SOL    HW116136   3.539   5.230   5.452
 5079SOL    HW216137   3.487   5.185   5.600
 5080SOL     OW16138   6.161   6.545   5.677
 5080SOL    HW116139   6.151   6.643   5.696
 5080SOL    HW216140   6.238   6.508   5.730
 5081SOL     OW16141   3.784   3.555   3.675
 5081SOL    HW116142   3.725   3.524   3.750
 5081SOL    HW216143   3.787   3.655   3.675
 5082SOL     OW16144   5.582   5.936   4.817
 5082SOL    HW116145   5.649   6.006   4.791
 5082SOL    HW216146   5.529   5.968   4.896
 5083SOL     OW16147   1.809   5.989   1.874
 5083SOL    HW116148   1.830   5.906   1.925
 5083SOL    HW216149   1.730   6.035   1.915
 5084SOL     OW16150   1.702   5.842   3.126
 5084SOL    HW116151   1.778   5.858   3.190
 5084SOL    HW216152   1.617   5.836   3.178
 5085SOL     OW16153   6.317   2.550   6.604
 5085SOL    HW116154   6.395   2.510   6.557
 5085SOL    HW216155   6.295   2.495   6.685
 5086SOL     OW16156   6.767   5.131   3.263
 5086SOL    HW116157   6.856   5.095   3.292
 5086SOL    HW216158   6.777   5.174   3.174
 5087SOL     OW16159   0.185   5.604   5.808
 5087SOL    HW116160   0.266   5.572   5.857
 5087SOL    HW216161   0.142   5.678   5.860
 5088SOL     OW16162   5.674   0.396   6.510
 5088SOL    HW116163   5.714   0.306   6.491
 5088SOL    HW216164   5.595   0.410   6.451
 5089SOL     OW16165   5.291   3.911   3.016
 5089SOL    HW116166   5.354   3.835   3.030
 5089SOL    HW216167   5.340   3.997   3.031
 5090SOL     OW16168   1.544   5.034   0.884
 5090SOL    HW116169   1.501   5.106   0.828
 5090SOL    HW216170   1.476   4.993   0.944
 5091SOL     OW16171   1.663   6.051   2.911
 5091SOL    HW116172   1.748   6.042   2.963
 5091SOL    HW216173   1.638   5.962   2.872
 5092SOL     OW16174   4.297   2.464   1.395
 5092SOL    HW116175   4.317   2.560   1.376
 5092SOL    HW216176   4.214   2.457   1.449
 5093SOL     OW16177   0.818   2.015   1.417
 5093SOL    HW116178   0.789   1.930   1.461
 5093SOL    HW216179   0.917   2.024   1.425
 5094SOL     OW16180   0.616   0.041   5.701
 5094SOL    HW116181   0.582   0.047   5.795
 5094SOL    HW216182   0.544   0.007   5.641
 5095SOL     OW16183   2.866   6.951   5.125
 5095SOL    HW116184   2.853   0.018   5.174
 5095SOL    HW216185   2.843   6.963   5.028
 5096SOL     OW16186   4.161   4.587   1.061
 5096SOL    HW116187   4.154   4.627   0.970
 5096SOL    HW216188   4.091   4.516   1.072
 5097SOL     OW16189   1.534   0.058   6.027
 5097SOL    HW116190   1.548   0.014   6.115
 5097SOL    HW216191   1.595   0.137   6.019
 5098SOL     OW16192   0.303   1.905   2.449
 5098SOL    HW116193   0.357   1.824   2.428
 5098SOL    HW216194   0.336   1.946   2.535
 5099SOL     OW16195   1.176   0.334   5.364
 5099SOL    HW116196   1.205   0.238   5.374
 5099SOL    HW216197   1.190   0.362   5.269
 5100SOL     OW16198   5.181   6.980   6.191
 5100SOL    HW116199   5.196   6.977   6.092
 5100SOL    HW216200   5.083   6.985   6.210
 5101SOL     OW16201   3.909   5.963   0.435
 5101SOL    HW116202   3.901   5.908   0.353
 5101SOL    HW216203   3.819   5.998   0.462
 5102SOL     OW16204   3.492   6.419   5.113
 5102SOL    HW116205   3.484   6.403   5.014
 5102SOL    HW216206   3.468   6.336   5.162
 5103SOL     OW16207   0.813   0.866   4.260
 5103SOL    HW116208   0.891   0.823   4.212
 5103SOL    HW216209   0.844   0.900   4.348
 5104SOL     OW16210   1.460   0.197   1.247
 5104SOL    HW116211   1.405   0.189   1.330
 5104SOL    HW216212   1.459   0.292   1.216
 5105SOL     OW16213   2.993   3.853   6.635
 5105SOL    HW116214   2.914   3.793   6.624
 5105SOL    HW216215   2.966   3.947   6.612
 5106SOL     OW16216   3.126   0.233   2.068
 5106SOL    HW116217   3.061   0.242   2.144
 5106SOL    HW216218   3.189   0.311   2.068
 5107SOL     OW16219   1.671   6.599   5.510
 5107SOL    HW116220   1.748   6.556   5.463
 5107SOL    HW216221   1.690   6.696   5.522
 5108SOL     OW16222   3.416   3.334   4.116
 5108SOL    HW116223   3.418   3.261   4.047
 5108SOL    HW216224   3.440   3.297   4.205
 5109SOL     OW16225   6.900   1.358   1.291
 5109SOL    HW116226   6.882   1.418   1.370
 5109SOL    HW216227   6.813   1.337   1.246
 5110SOL     OW16228   2.289   5.714   5.758
 5110SOL    HW116229   2.213   5.700   5.695
 5110SOL    HW216230   2.270   5.793   5.816
 5111SOL     OW16231   1.348   0.885   1.041
 5111SOL    HW116232   1.363   0.830   0.958
 5111SOL    HW216233   1.251   0.909   1.047
 5112SOL     OW16234   0.224   6.171   3.970
 5112SOL    HW116235   0.193   6.222   4.050
 5112SOL    HW216236   0.281   6.094   3.999
 5113SOL     OW16237   1.401   6.730   6.977
 5113SOL    HW116238   1.430   6.820   6.946
 5113SOL    HW216239   1.326   6.698   6.919
 5114SOL     OW16240   4.082   5.151   0.397
 5114SOL    HW116241   4.009   5.084   0.383
 5114SOL    HW216242   4.052   5.240   0.365
 5115SOL     OW16243   1.900   3.469   5.535
 5115SOL    HW116244   1.945   3.558   5.531
 5115SOL    HW216245   1.895   3.430   5.443
 5116SOL     OW16246   6.943   4.141   1.169
 5116SOL    HW116247   6.869   4.201   1.138
 5116SOL    HW216248   6.931   4.050   1.129
 5117SOL     OW16249   2.383   4.695   4.326
 5117SOL    HW116250   2.462   4.714   4.269
 5117SOL    HW216251   2.401   4.613   4.381
 5118SOL     OW16252   4.321   6.505   0.979
 5118SOL    HW116253   4.294   6.513   1.075
 5118SOL    HW216254   4.420   6.504   0.972
 5119SOL     OW16255   5.744   0.106   2.123
 5119SOL    HW116256   5.744   0.011   2.090
 5119SOL    HW216257   5.829   0.124   2.172
 5120SOL     OW16258   4.925   1.393   2.865
 5120SOL    HW116259   5.008   1.369   2.915
 5120SOL    HW216260   4.860   1.317   2.868
 5121SOL     OW16261   0.303   3.873   5.268
 5121SOL    HW116262   0.365   3.810   5.315
 5121SOL    HW216263   0.356   3.935   5.211
 5122SOL     OW16264   1.913   6.155   3.692
 5122SOL    HW116265   1.895   6.202   3.779
 5122SOL    HW216266   1.930   6.223   3.621
 5123SOL     OW16267   5.619   4.795   2.357
 5123SOL    HW116268   5.616   4.696   2.343
 5123SOL    HW216269   5.656   4.815   2.448
 5124SOL     OW16270   2.866   6.291   7.005
 5124SOL    HW116271   2.957   6.258   0.010
 5124SOL    HW216272   2.862   6.390   7.017
 5125SOL     OW16273   0.160   2.743   5.178
 5125SOL    HW116274   0.189   2.717   5.270
 5125SOL    HW216275   0.066   2.776   5.181
 5126SOL     OW16276   5.199   3.549   6.399
 5126SOL    HW116277   5.174   3.620   6.332
 5126SOL    HW216278   5.120   3.490   6.416
 5127SOL     OW16279   5.917   3.086   6.456
 5127SOL    HW116280   5.862   3.014   6.498
 5127SOL    HW216281   5.911   3.079   6.357
 5128SOL     OW16282   0.599   0.754   6.813
 5128SOL    HW116283   0.683   0.762   6.760
 5128SOL    HW216284   0.526   0.718   6.754
 5129SOL     OW16285   4.107   2.202   2.357
 5129SOL    HW116286   4.170   2.132   2.323
 5129SOL    HW216287   4.013   2.168   2.353
 5130SOL     OW16288   1.181   6.162   4.693
 5130SOL    HW116289   1.136   6.109   4.765
 5130SOL    HW216290   1.164   6.119   4.604
 5131SOL     OW16291   3.247   4.924   3.671
 5131SOL    HW116292   3.166   4.887   3.717
 5131SOL    HW216293   3.231   4.926   3.572
 5132SOL     OW16294   3.294   1.142   6.897
 5132SOL    HW116295   3.199   1.133   6.867
 5132SOL    HW216296   3.355   1.138   6.817
 5133SOL     OW16297   4.946   4.389   6.662
 5133SOL    HW116298   4.916   4.341   6.744
 5133SOL    HW216299   4.982   4.479   6.687
 5134SOL     OW16300   6.267   6.304   1.186
 5134SOL    HW116301   6.344   6.322   1.247
 5134SOL    HW216302   6.285   6.347   1.097
 5135SOL     OW16303   6.359   3.164   2.145
 5135SOL    HW116304   6.302   3.082   2.141
 5135SOL    HW216305   6.308   3.238   2.189
 5136SOL     OW16306   1.047   1.012   5.917
 5136SOL    HW116307   1.008   1.064   5.993
 5136SOL    HW216308   1.078   1.076   5.846
 5137SOL     OW16309   6.173   1.190   4.556
 5137SOL    HW116310   6.102   1.249   4.593
 5137SOL    HW216311   6.190   1.114   4.620
 5138SOL     OW16312   3.050   3.382   3.890
 5138SOL    HW116313   2.998   3.360   3.973
 5138SOL    HW216314   2.988   3.419   3.821
 5139SOL     OW16315   2.814   0.158   5.778
 5139SOL    HW116316   2.852   0.227   5.840
 5139SOL    HW216317   2.888   0.102   5.742
 5140SOL     OW16318   3.729   3.008   6.749
 5140SOL    HW116319   3.755   2.951   6.671
 5140SOL    HW216320   3.707   3.100   6.717
 5141SOL     OW16321   6.658   2.643   1.720
 5141SOL    HW116322   6.650   2.631   1.621
 5141SOL    HW216323   6.589   2.588   1.766
 5142SOL     OW16324   0.076   0.269   2.411
 5142SOL    HW116325   0.009   0.230   2.475
 5142SOL    HW216326   0.070   0.369   2.413
 5143SOL     OW16327   6.972   6.316   2.909
 5143SOL    HW116328   6.915   6.317   2.991
 5143SOL    HW216329   6.936   6.248   2.844
 5144SOL     OW16330   2.351   2.976   5.451
 5144SOL    HW116331   2.394   2.972   5.361
 5144SOL    HW216332   2.252   2.986   5.440
 5145SOL     OW16333   2.279   5.741   6.551
 5145SOL    HW116334   2.265   5.773   6.645
 5145SOL    HW216335   2.338   5.660   6.552
 5146SOL     OW16336   5.420   5.445   6.497
 5146SOL    HW116337   5.516   5.472   6.484
 5146SOL    HW216338   5.378   5.429   6.408
 5147SOL     OW16339   4.601   2.709   3.379
 5147SOL    HW116340   4.519   2.765   3.394
 5147SOL    HW216341   4.677   2.769   3.352
 5148SOL     OW16342   0.739   0.264   6.472
 5148SOL    HW116343   0.797   0.272   6.391
 5148SOL    HW216344   0.658   0.321   6.462
 5149SOL     OW16345   4.613   4.964   3.962
 5149SOL    HW116346   4.645   4.882   4.009
 5149SOL    HW216347   4.516   4.954   3.939
 5150SOL     OW16348   0.180   6.329   4.189
 5150SOL    HW116349   0.119   6.398   4.151
 5150SOL    HW216350   0.221   6.364   4.273
 5151SOL     OW16351   5.858   5.591   2.034
 5151SOL    HW116352   5.858   5.526   1.957
 5151SOL    HW216353   5.906   5.551   2.111
 5152SOL     OW16354   1.738   0.944   0.474
 5152SOL    HW116355   1.735   1.031   0.425
 5152SOL    HW216356   1.658   0.889   0.449
 5153SOL     OW16357   1.076   1.619   0.866
 5153SOL    HW116358   1.143   1.661   0.926
 5153SOL    HW216359   0.985   1.629   0.905
 5154SOL     OW16360   0.055   2.865   0.533
 5154SOL    HW116361   0.107   2.886   0.616
 5154SOL    HW216362   0.033   2.950   0.485
 5155SOL     OW16363   1.534   1.268   0.619
 5155SOL    HW116364   1.550   1.364   0.640
 5155SOL    HW216365   1.579   1.211   0.688
 5156SOL     OW16366   5.273   6.235   5.598
 5156SOL    HW116367   5.259   6.333   5.588
 5156SOL    HW216368   5.199   6.197   5.654
 5157SOL     OW16369   3.215   6.947   1.571
 5157SOL    HW116370   3.177   6.897   1.648
 5157SOL    HW216371   3.142   6.980   1.512
 5158SOL     OW16372   1.880   2.198   1.551
 5158SOL    HW116373   1.797   2.244   1.521
 5158SOL    HW216374   1.935   2.260   1.607
 5159SOL     OW16375   6.567   2.849   5.999
 5159SOL    HW116376   6.533   2.942   5.985
 5159SOL    HW216377   6.591   2.808   5.911
 5160SOL     OW16378   6.120   6.757   3.814
 5160SOL    HW116379   6.089   6.801   3.898
 5160SOL    HW216380   6.095   6.813   3.736
 5161SOL     OW16381   1.268   3.407   0.389
 5161SOL    HW116382   1.224   3.490   0.423
 5161SOL    HW216383   1.238   3.390   0.295
 5162SOL     OW16384   6.801   0.378   3.751
 5162SOL    HW116385   6.833   0.325   3.829
 5162SOL    HW216386   6.808   0.476   3.771
 5163SOL     OW16387   2.994   0.680   1.643
 5163SOL    HW116388   3.049   0.600   1.667
 5163SOL    HW216389   3.010   0.752   1.710
 5164SOL     OW16390   2.836   3.507   0.068
 5164SOL    HW116391   2.919   3.509   0.013
 5164SOL    HW216392   2.853   3.456   0.152
 5165SOL     OW16393   1.588   4.501   6.401
 5165SOL    HW116394   1.624   4.498   6.308
 5165SOL    HW216395   1.637   4.437   6.459
 5166SOL     OW16396   1.515   5.224   0.567
 5166SOL    HW116397   1.551   5.317   0.571
 5166SOL    HW216398   1.447   5.211   0.639
 5167SOL     OW16399   5.529   3.192   5.291
 5167SOL    HW116400   5.513   3.107   5.240
 5167SOL    HW216401   5.564   3.262   5.229
 5168SOL     OW16402   4.238   2.329   2.948
 5168SOL    HW116403   4.256   2.342   3.045
 5168SOL    HW216404   4.145   2.294   2.935
 5169SOL     OW16405   3.986   5.702   4.401
 5169SOL    HW116406   3.990   5.604   4.384
 5169SOL    HW216407   3.948   5.748   4.322
 5170SOL     OW16408   2.191   3.171   6.476
 5170SOL    HW116409   2.172   3.258   6.430
 5170SOL    HW216410   2.108   3.139   6.521
 5171SOL     OW16411   1.929   5.975   5.483
 5171SOL    HW116412   1.893   5.924   5.562
 5171SOL    HW216413   1.952   6.068   5.512
 5172SOL     OW16414   6.002   5.585   4.943
 5172SOL    HW116415   6.040   5.557   4.855
 5172SOL    HW216416   5.926   5.524   4.967
 5173SOL     OW16417   4.268   4.500   5.914
 5173SOL    HW116418   4.227   4.413   5.884
 5173SOL    HW216419   4.275   4.562   5.835
 5174SOL     OW16420   2.291   6.299   3.458
 5174SOL    HW116421   2.374   6.354   3.460
 5174SOL    HW216422   2.308   6.215   3.406
 5175SOL     OW16423   3.139   3.167   6.972
 5175SOL    HW116424   3.227   3.120   6.959
 5175SOL    HW216425   3.151   3.243   0.017
 5176SOL     OW16426   6.435   6.604   0.002
 5176SOL    HW116427   6.504   6.676   0.001
 5176SOL    HW216428   6.407   6.586   0.096
 5177SOL     OW16429   6.485   0.001   0.277
 5177SOL    HW116430   6.523   6.992   0.365
 5177SOL    HW216431   6.387   0.020   0.287
 5178SOL     OW16432   0.670   4.351   2.209
 5178SOL    HW116433   0.582   4.388   2.239
 5178SOL    HW216434   0.675   4.254   2.234
 5179SOL     OW16435   4.706   6.185   2.380
 5179SOL    HW116436   4.657   6.188   2.467
 5179SOL    HW216437   4.750   6.274   2.364
 5180SOL     OW16438   2.236   6.415   2.582
 5180SOL    HW116439   2.172   6.435   2.508
 5180SOL    HW216440   2.328   6.445   2.555
 5181SOL     OW16441   6.929   0.094   5.969
 5181SOL    HW116442   6.987   0.101   5.888
 5181SOL    HW216443   6.983   0.115   6.051
 5182SOL     OW16444   2.754   6.331   3.411
 5182SOL    HW116445   2.692   6.409   3.402
 5182SOL    HW216446   2.846   6.363   3.431
 5183SOL     OW16447   4.187   1.488   3.799
 5183SOL    HW116448   4.235   1.517   3.883
 5183SOL    HW216449   4.108   1.547   3.784
 5184SOL     OW16450   2.875   1.261   3.732
 5184SOL    HW116451   2.868   1.167   3.696
 5184SOL    HW216452   2.807   1.274   3.803
 5185SOL     OW16453   6.605   0.365   1.433
 5185SOL    HW116454   6.697   0.376   1.470
 5185SOL    HW216455   6.539   0.404   1.497
 5186SOL     OW16456   0.118   3.464   6.669
 5186SOL    HW116457   0.095   3.370   6.695
 5186SOL    HW216458   0.166   3.463   6.582
 5187SOL     OW16459   1.265   4.436   5.065
 5187SOL    HW116460   1.210   4.512   5.032
 5187SOL    HW216461   1.311   4.392   4.988
 5188SOL     OW16462   5.764   0.027   2.526
 5188SOL    HW116463   5.821   0.067   2.453
 5188SOL    HW216464   5.748   6.949   2.505
 5189SOL     OW16465   5.632   6.966   6.244
 5189SOL    HW116466   5.595   6.889   6.191
 5189SOL    HW216467   5.731   6.957   6.251
 5190SOL     OW16468   1.960   4.118   0.460
 5190SOL    HW116469   2.038   4.171   0.427
 5190SOL    HW216470   1.933   4.051   0.391
 5191SOL     OW16471   2.950   5.012   1.749
 5191SOL    HW116472   3.007   4.941   1.708
 5191SOL    HW216473   2.945   5.090   1.686
 5192SOL     OW16474   1.917   4.972   2.600
 5192SOL    HW116475   1.870   5.060   2.596
 5192SOL    HW216476   1.853   4.902   2.631
 5193SOL     OW16477   5.174   0.115   5.336
 5193SOL    HW116478   5.079   0.107   5.307
 5193SOL    HW216479   5.213   0.025   5.353
 5194SOL     OW16480   5.412   1.535   6.142
 5194SOL    HW116481   5.365   1.558   6.056
 5194SOL    HW216482   5.418   1.618   6.199
 5195SOL     OW16483   0.254   0.844   4.693
 5195SOL    HW116484   0.337   0.900   4.695
 5195SOL    HW216485   0.254   0.780   4.770
 5196SOL     OW16486   5.972   6.611   3.250
 5196SOL    HW116487   6.017   6.530   3.289
 5196SOL    HW216488   5.875   6.593   3.238
 5197SOL     OW16489   0.894   3.597   5.007
 5197SOL    HW116490   0.925   3.683   5.049
 5197SOL    HW216491   0.961   3.526   5.026
 5198SOL     OW16492   5.772   5.537   3.532
 5198SOL    HW116493   5.806   5.465   3.472
 5198SOL    HW216494   5.781   5.626   3.486
 5199SOL     OW16495   0.481   4.545   1.804
 5199SOL    HW116496   0.540   4.553   1.884
 5199SOL    HW216497   0.404   4.608   1.813
 5200SOL     OW16498   0.370   3.816   4.491
 5200SOL    HW116499   0.442   3.886   4.491
 5200SOL    HW216500   0.281   3.860   4.481
 5201SOL     OW16501   1.088   5.058   4.332
 5201SOL    HW116502   1.186   5.047   4.351
 5201SOL    HW216503   1.066   5.155   4.326
 5202SOL     OW16504   0.831   4.816   1.981
 5202SOL    HW116505   0.741   4.774   1.997
 5202SOL    HW216506   0.901   4.744   1.979
 5203SOL     OW16507   0.647   3.040   0.429
 5203SOL    HW116508   0.670   2.996   0.342
 5203SOL    HW216509   0.548   3.048   0.437
 5204SOL     OW16510   4.836   4.585   0.055
 5204SOL    HW116511   4.859   4.505   0.110
 5204SOL    HW216512   4.905   4.597   7.002
 5205SOL     OW16513   1.615   7.014   1.273
 5205SOL    HW116514   1.625   6.965   1.186
 5205SOL    HW216515   1.571   0.084   1.256
 5206SOL     OW16516   0.221   4.114   4.990
 5206SOL    HW116517   0.294   4.053   5.019
 5206SOL    HW216518   0.184   4.162   5.070
 5207SOL     OW16519   1.669   4.537   4.075
 5207SOL    HW116520   1.659   4.462   4.141
 5207SOL    HW216521   1.764   4.569   4.076
 5208SOL     OW16522   4.601   1.373   6.869
 5208SOL    HW116523   4.687   1.321   6.872
 5208SOL    HW216524   4.551   1.350   6.785
 5209SOL     OW16525   5.160   6.189   3.139
 5209SOL    HW116526   5.169   6.257   3.067
 5209SOL    HW216527   5.249   6.146   3.155
 5210SOL     OW16528   4.409   5.071   3.187
 5210SOL    HW116529   4.382   4.978   3.161
 5210SOL    HW216530   4.502   5.089   3.153
 5211SOL     OW16531   3.806   4.025   2.530
 5211SOL    HW116532   3.849   4.108   2.566
 5211SOL    HW216533   3.707   4.037   2.527
 5212SOL     OW16534   0.956   1.697   0.473
 5212SOL    HW116535   1.018   1.751   0.415
 5212SOL    HW216536   1.010   1.639   0.534
 5213SOL     OW16537   3.909   1.699   6.447
 5213SOL    HW116538   3.960   1.784   6.431
 5213SOL    HW216539   3.821   1.704   6.400
 5214SOL     OW16540   5.702   1.775   5.814
 5214SOL    HW116541   5.657   1.789   5.903
 5214SOL    HW216542   5.711   1.863   5.767
 5215SOL     OW16543   4.945   5.356   2.410
 5215SOL    HW116544   4.915   5.396   2.496
 5215SOL    HW216545   4.899   5.403   2.334
 5216SOL     OW16546   4.710   5.537   1.180
 5216SOL    HW116547   4.661   5.553   1.094
 5216SOL    HW216548   4.805   5.568   1.170
 5217SOL     OW16549   2.669   4.639   3.801
 5217SOL    HW116550   2.599   4.627   3.730
 5217SOL    HW216551   2.723   4.555   3.808
 5218SOL     OW16552   1.464   0.106   4.323
 5218SOL    HW116553   1.522   0.188   4.313
 5218SOL    HW216554   1.501   0.032   4.267
 5219SOL     OW16555   2.439   5.603   0.112
 5219SOL    HW116556   2.349   5.624   0.152
 5219SOL    HW216557   2.431   5.526   0.050
 5220SOL     OW16558   0.511   6.906   2.298
 5220SOL    HW116559   0.493   6.949   2.210
 5220SOL    HW216560   0.561   6.820   2.284
 5221SOL     OW16561   4.652   1.172   5.226
 5221SOL    HW116562   4.594   1.161   5.307
 5221SOL    HW216563   4.722   1.101   5.226
 5222SOL     OW16564   1.031   0.353   2.380
 5222SOL    HW116565   1.056   0.427   2.317
 5222SOL    HW216566   1.111   0.294   2.395
 5223SOL     OW16567   5.439   6.688   1.142
 5223SOL    HW116568   5.441   6.773   1.196
 5223SOL    HW216569   5.529   6.672   1.103
 5224SOL     OW16570   5.758   1.884   2.669
 5224SOL    HW116571   5.664   1.872   2.638
 5224SOL    HW216572   5.771   1.834   2.755
 5225SOL     OW16573   5.335   5.799   5.203
 5225SOL    HW116574   5.290   5.777   5.290
 5225SOL    HW216575   5.284   5.756   5.128
 5226SOL     OW16576   1.334   6.416   4.252
 5226SOL    HW116577   1.343   6.494   4.190
 5226SOL    HW216578   1.317   6.449   4.345
 5227SOL     OW16579   6.292   4.949   3.123
 5227SOL    HW116580   6.377   4.925   3.170
 5227SOL    HW216581   6.284   5.048   3.117
 5228SOL     OW16582   5.464   1.302   0.880
 5228SOL    HW116583   5.520   1.315   0.798
 5228SOL    HW216584   5.516   1.251   0.948
 5229SOL     OW16585   1.007   4.482   4.791
 5229SOL    HW116586   1.033   4.387   4.774
 5229SOL    HW216587   1.081   4.543   4.763
 5230SOL     OW16588   0.953   6.795   6.752
 5230SOL    HW116589   1.043   6.827   6.720
 5230SOL    HW216590   0.940   6.825   6.847
 5231SOL     OW16591   3.624   3.022   3.181
 5231SOL    HW116592   3.524   3.026   3.178
 5231SOL    HW216593   3.657   3.065   3.265
 5232SOL     OW16594   4.910   2.744   6.158
 5232SOL    HW116595   4.987   2.761   6.097
 5232SOL    HW216596   4.842   2.816   6.147
 5233SOL     OW16597   0.342   0.784   2.665
 5233SOL    HW116598   0.251   0.754   2.637
 5233SOL    HW216599   0.381   0.718   2.729
 5234SOL     OW16600   3.671   6.835   1.456
 5234SOL    HW116601   3.665   6.934   1.444
 5234SOL    HW216602   3.580   6.798   1.473
 5235SOL     OW16603   0.787   3.371   1.201
 5235SOL    HW116604   0.885   3.355   1.199
 5235SOL    HW216605   0.760   3.406   1.291
 5236SOL     OW16606   5.085   2.873   0.945
 5236SOL    HW116607   5.137   2.787   0.942
 5236SOL    HW216608   4.988   2.852   0.950
 5237SOL     OW16609   2.570   1.706   5.000
 5237SOL    HW116610   2.615   1.794   4.988
 5237SOL    HW216611   2.585   1.649   4.920
 5238SOL     OW16612   2.012   4.362   1.082
 5238SOL    HW116613   2.089   4.425   1.085
 5238SOL    HW216614   1.926   4.414   1.077
 5239SOL     OW16615   2.896   3.529   4.496
 5239SOL    HW116616   2.956   3.583   4.436
 5239SOL    HW216617   2.838   3.470   4.440
 5240SOL     OW16618   3.337   2.053   5.031
 5240SOL    HW116619   3.257   2.112   5.025
 5240SOL    HW216620   3.308   1.957   5.024
 5241SOL     OW16621   2.105   5.748   6.151
 5241SOL    HW116622   2.180   5.719   6.210
 5241SOL    HW216623   2.081   5.674   6.088
 5242SOL     OW16624   5.694   0.897   5.895
 5242SOL    HW116625   5.700   0.914   5.993
 5242SOL    HW216626   5.605   0.927   5.861
 5243SOL     OW16627   1.148   4.740   1.138
 5243SOL    HW116628   1.122   4.661   1.194
 5243SOL    HW216629   1.227   4.717   1.083
 5244SOL     OW16630   5.292   4.014   6.232
 5244SOL    HW116631   5.356   4.011   6.155
 5244SOL    HW216632   5.312   4.095   6.288
 5245SOL     OW16633   4.765   3.924   6.655
 5245SOL    HW116634   4.670   3.893   6.661
 5245SOL    HW216635   4.807   3.885   6.573
 5246SOL     OW16636   0.943   3.254   2.634
 5246SOL    HW116637   1.005   3.329   2.657
 5246SOL    HW216638   0.976   3.169   2.674
 5247SOL     OW16639   0.783   5.119   1.240
 5247SOL    HW116640   0.710   5.117   1.308
 5247SOL    HW216641   0.799   5.027   1.205
 5248SOL     OW16642   5.035   0.791   6.075
 5248SOL    HW116643   5.089   0.785   5.991
 5248SOL    HW216644   5.096   0.804   6.153
 5249SOL     OW16645   1.058   5.454   4.992
 5249SOL    HW116646   1.118   5.379   4.964
 5249SOL    HW216647   0.970   5.444   4.945
 5250SOL     OW16648   0.705   0.992   6.228
 5250SOL    HW116649   0.707   0.904   6.180
 5250SOL    HW216650   0.651   0.983   6.311
 5251SOL     OW16651   6.877   3.234   1.210
 5251SOL    HW116652   6.808   3.297   1.176
 5251SOL    HW216653   6.846   3.194   1.296
 5252SOL     OW16654   4.124   5.875   0.608
 5252SOL    HW116655   4.091   5.924   0.528
 5252SOL    HW216656   4.208   5.917   0.642
 5253SOL     OW16657   5.495   3.199   3.408
 5253SOL    HW116658   5.562   3.124   3.408
 5253SOL    HW216659   5.528   3.273   3.349
 5254SOL     OW16660   4.657   0.818   4.003
 5254SOL    HW116661   4.637   0.868   3.919
 5254SOL    HW216662   4.697   0.729   3.980
 5255SOL     OW16663   3.431   6.575   4.698
 5255SOL    HW116664   3.334   6.602   4.697
 5255SOL    HW216665   3.477   6.622   4.774
 5256SOL     OW16666   5.991   6.418   3.716
 5256SOL    HW116667   5.997   6.362   3.799
 5256SOL    HW216668   6.083   6.441   3.685
 5257SOL     OW16669   3.142   0.851   1.426
 5257SOL    HW116670   3.196   0.828   1.507
 5257SOL    HW216671   3.102   0.767   1.388
 5258SOL     OW16672   5.999   2.913   2.374
 5258SOL    HW116673   5.988   2.827   2.423
 5258SOL    HW216674   5.918   2.930   2.318
 5259SOL     OW16675   4.899   4.923   2.307
 5259SOL    HW116676   4.918   4.929   2.209
 5259SOL    HW216677   4.893   4.827   2.334
 5260SOL     OW16678   5.250   3.363   1.290
 5260SOL    HW116679   5.168   3.317   1.325
 5260SOL    HW216680   5.247   3.364   1.190
 5261SOL     OW16681   1.636   2.738   4.613
 5261SOL    HW116682   1.594   2.817   4.656
 5261SOL    HW216683   1.710   2.704   4.670
 5262SOL     OW16684   2.674   6.748   2.478
 5262SOL    HW116685   2.657   6.799   2.562
 5262SOL    HW216686   2.589   6.742   2.424
 5263SOL     OW16687   1.027   6.269   0.092
 5263SOL    HW116688   0.935   6.260   0.055
 5263SOL    HW216689   1.029   6.343   0.159
 5264SOL     OW16690   0.381   2.397   0.953
 5264SOL    HW116691   0.359   2.303   0.929
 5264SOL    HW216692   0.475   2.402   0.987
 5265SOL     OW16693   5.379   4.806   2.060
 5265SOL    HW116694   5.290   4.795   2.105
 5265SOL    HW216695   5.392   4.902   2.036
 5266SOL     OW16696   1.822   6.609   0.930
 5266SOL    HW116697   1.902   6.564   0.970
 5266SOL    HW216698   1.848   6.656   0.846
 5267SOL     OW16699   4.868   4.577   4.636
 5267SOL    HW116700   4.890   4.673   4.651
 5267SOL    HW216701   4.850   4.562   4.539
 5268SOL     OW16702   6.007   4.612   4.266
 5268SOL    HW116703   6.025   4.637   4.171
 5268SOL    HW216704   6.044   4.683   4.326
 5269SOL     OW16705   1.696   5.758   3.883
 5269SOL    HW116706   1.732   5.685   3.941
 5269SOL    HW216707   1.749   5.764   3.799
 5270SOL     OW16708   6.042   2.487   2.326
 5270SOL    HW116709   6.054   2.451   2.234
 5270SOL    HW216710   6.129   2.524   2.360
 5271SOL     OW16711   4.973   4.707   4.894
 5271SOL    HW116712   4.895   4.760   4.862
 5271SOL    HW216713   5.053   4.728   4.838
 5272SOL     OW16714   1.533   0.924   4.838
 5272SOL    HW116715   1.443   0.966   4.830
 5272SOL    HW216716   1.554   0.874   4.754
 5273SOL     OW16717   0.541   1.127   4.020
 5273SOL    HW116718   0.590   1.173   3.946
 5273SOL    HW216719   0.583   1.151   4.107
 5274SOL     OW16720   6.395   5.118   3.748
 5274SOL    HW116721   6.382   5.217   3.756
 5274SOL    HW216722   6.492   5.097   3.754
 5275SOL     OW16723   2.079   6.969   0.075
 5275SOL    HW116724   1.994   6.917   0.085
 5275SOL    HW216725   2.152   6.907   0.046
 5276SOL     OW16726   0.348   6.615   1.491
 5276SOL    HW116727   0.425   6.645   1.548
 5276SOL    HW216728   0.333   6.681   1.417
 5277SOL     OW16729   1.150   1.926   3.056
 5277SOL    HW116730   1.072   1.864   3.050
 5277SOL    HW216731   1.234   1.873   3.069
 5278SOL     OW16732   1.216   5.284   5.358
 5278SOL    HW116733   1.220   5.193   5.399
 5278SOL    HW216734   1.161   5.344   5.417
 5279SOL     OW16735   1.873   5.692   6.373
 5279SOL    HW116736   1.892   5.745   6.456
 5279SOL    HW216737   1.777   5.705   6.347
 5280SOL     OW16738   4.056   6.111   5.094
 5280SOL    HW116739   4.071   6.171   5.173
 5280SOL    HW216740   4.060   6.016   5.123
 5281SOL     OW16741   2.224   1.256   4.712
 5281SOL    HW116742   2.277   1.301   4.784
 5281SOL    HW216743   2.133   1.235   4.747
 5282SOL     OW16744   1.361   0.194   1.857
 5282SOL    HW116745   1.312   0.241   1.784
 5282SOL    HW216746   1.457   0.223   1.858
 5283SOL     OW16747   0.562   1.148   4.316
 5283SOL    HW116748   0.542   1.245   4.302
 5283SOL    HW216749   0.632   1.138   4.386
 5284SOL     OW16750   4.766   2.453   1.582
 5284SOL    HW116751   4.715   2.367   1.585
 5284SOL    HW216752   4.711   2.523   1.536
 5285SOL     OW16753   1.259   2.094   4.422
 5285SOL    HW116754   1.167   2.132   4.416
 5285SOL    HW216755   1.297   2.082   4.330
 5286SOL     OW16756   5.976   3.068   0.809
 5286SOL    HW116757   6.063   3.115   0.823
 5286SOL    HW216758   5.907   3.109   0.870
 5287SOL     OW16759   2.567   5.036   1.283
 5287SOL    HW116760   2.587   4.947   1.243
 5287SOL    HW216761   2.542   5.024   1.380
 5288SOL     OW16762   4.420   0.873   2.183
 5288SOL    HW116763   4.412   0.806   2.257
 5288SOL    HW216764   4.428   0.826   2.095
 5289SOL     OW16765   2.251   4.633   6.272
 5289SOL    HW116766   2.244   4.594   6.364
 5289SOL    HW216767   2.268   4.731   6.279
 5290SOL     OW16768   1.469   2.953   5.552
 5290SOL    HW116769   1.525   2.924   5.629
 5290SOL    HW216770   1.373   2.935   5.572
 5291SOL     OW16771   2.811   4.783   4.769
 5291SOL    HW116772   2.738   4.764   4.704
 5291SOL    HW216773   2.799   4.725   4.850
 5292SOL     OW16774   6.859   4.197   6.061
 5292SOL    HW116775   6.828   4.290   6.082
 5292SOL    HW216776   6.836   4.136   6.137
 5293SOL     OW16777   1.843   5.918   4.297
 5293SOL    HW116778   1.744   5.924   4.290
 5293SOL    HW216779   1.882   5.915   4.205
 5294SOL     OW16780   3.656   0.562   5.245
 5294SOL    HW116781   3.687   0.467   5.245
 5294SOL    HW216782   3.731   0.622   5.274
 5295SOL     OW16783   2.797   1.372   2.159
 5295SOL    HW116784   2.859   1.450   2.149
 5295SOL    HW216785   2.776   1.359   2.256
 5296SOL     OW16786   4.409   5.007   1.208
 5296SOL    HW116787   4.450   5.097   1.220
 5296SOL    HW216788   4.470   4.938   1.246
 5297SOL     OW16789   2.507   4.785   0.629
 5297SOL    HW116790   2.592   4.776   0.681
 5297SOL    HW216791   2.460   4.698   0.626
 5298SOL     OW16792   2.162   0.356   0.800
 5298SOL    HW116793   2.069   0.326   0.821
 5298SOL    HW216794   2.228   0.294   0.842
 5299SOL     OW16795   2.830   1.811   0.524
 5299SOL    HW116796   2.881   1.765   0.451
 5299SOL    HW216797   2.758   1.750   0.558
 5300SOL     OW16798   2.085   4.119   0.157
 5300SOL    HW116799   2.110   4.022   0.163
 5300SOL    HW216800   2.020   4.131   0.082
 5301SOL     OW16801   4.891   0.630   5.650
 5301SOL    HW116802   4.986   0.634   5.618
 5301SOL    HW216803   4.832   0.596   5.577
 5302SOL     OW16804   5.522   5.813   3.144
 5302SOL    HW116805   5.439   5.759   3.128
 5302SOL    HW216806   5.506   5.907   3.115
 5303SOL     OW16807   6.973   5.096   5.683
 5303SOL    HW116808   7.005   5.189   5.663
 5303SOL    HW216809   6.878   5.099   5.714
 5304SOL     OW16810   6.643   0.959   1.260
 5304SOL    HW116811   6.680   1.008   1.339
 5304SOL    HW216812   6.574   0.893   1.291
 5305SOL     OW16813   1.297   5.194   2.904
 5305SOL    HW116814   1.258   5.106   2.877
 5305SOL    HW216815   1.378   5.179   2.961
 5306SOL     OW16816   6.802   3.928   5.610
 5306SOL    HW116817   6.725   3.889   5.661
 5306SOL    HW216818   6.769   3.964   5.523
 5307SOL     OW16819   5.368   2.558   1.115
 5307SOL    HW116820   5.460   2.597   1.110
 5307SOL    HW216821   5.327   2.558   1.024
 5308SOL     OW16822   1.419   4.376   2.788
 5308SOL    HW116823   1.382   4.467   2.773
 5308SOL    HW216824   1.344   4.309   2.789
 5309SOL     OW16825   5.238   6.407   2.934
 5309SOL    HW116826   5.286   6.402   2.846
 5309SOL    HW216827   5.305   6.417   3.008
 5310SOL     OW16828   6.127   3.027   3.126
 5310SOL    HW116829   6.105   2.942   3.077
 5310SOL    HW216830   6.145   3.099   3.059
 5311SOL     OW16831   5.965   0.182   0.589
 5311SOL    HW116832   5.881   0.163   0.537
 5311SOL    HW216833   5.961   0.135   0.677
 5312SOL     OW16834   0.013   6.573   1.248
 5312SOL    HW116835   6.943   6.603   1.213
 5312SOL    HW216836   0.022   6.599   1.344
 5313SOL     OW16837   6.800   5.051   5.254
 5313SOL    HW116838   6.747   5.028   5.172
 5313SOL    HW216839   6.739   5.086   5.325
 5314SOL     OW16840   6.141   0.551   1.508
 5314SOL    HW116841   6.233   0.529   1.539
 5314SOL    HW216842   6.137   0.546   1.408
 5315SOL     OW16843   4.227   1.092   3.855
 5315SOL    HW116844   4.262   1.134   3.938
 5315SOL    HW216845   4.165   1.156   3.809
 5316SOL     OW16846   0.903   2.846   4.805
 5316SOL    HW116847   0.984   2.791   4.788
 5316SOL    HW216848   0.928   2.929   4.855
 5317SOL     OW16849   6.880   2.070   5.821
 5317SOL    HW116850   6.880   2.064   5.721
 5317SOL    HW216851   6.969   2.040   5.855
 5318SOL     OW16852   6.409   2.823   0.062
 5318SOL    HW116853   6.439   2.824   6.986
 5318SOL    HW216854   6.324   2.770   0.069
 5319SOL     OW16855   4.147   6.933   1.193
 5319SOL    HW116856   4.238   6.892   1.190
 5319SOL    HW216857   4.127   6.962   1.287
 5320SOL     OW16858   3.337   5.766   1.305
 5320SOL    HW116859   3.251   5.748   1.257
 5320SOL    HW216860   3.388   5.837   1.256
 5321SOL     OW16861   1.865   4.545   4.782
 5321SOL    HW116862   1.952   4.529   4.829
 5321SOL    HW216863   1.857   4.481   4.705
 5322SOL     OW16864   5.592   6.566   1.764
 5322SOL    HW116865   5.550   6.493   1.710
 5322SOL    HW216866   5.687   6.577   1.736
 5323SOL     OW16867   4.768   1.487   5.416
 5323SOL    HW116868   4.742   1.510   5.322
 5323SOL    HW216869   4.694   1.512   5.478
 5324SOL     OW16870   2.137   2.083   0.379
 5324SOL    HW116871   2.152   2.138   0.297
 5324SOL    HW216872   2.045   2.098   0.414
 5325SOL     OW16873   2.736   2.263   4.801
 5325SOL    HW116874   2.661   2.225   4.854
 5325SOL    HW216875   2.715   2.258   4.703
 5326SOL     OW16876   6.094   6.561   2.846
 5326SOL    HW116877   6.166   6.533   2.783
 5326SOL    HW216878   6.013   6.505   2.832
 5327SOL     OW16879   5.202   2.770   5.256
 5327SOL    HW116880   5.164   2.804   5.170
 5327SOL    HW216881   5.233   2.676   5.244
 5328SOL     OW16882   4.291   4.430   6.967
 5328SOL    HW116883   4.379   4.387   6.946
 5328SOL    HW216884   4.263   4.405   0.041
 5329SOL     OW16885   1.326   6.164   6.528
 5329SOL    HW116886   1.370   6.250   6.555
 5329SOL    HW216887   1.309   6.164   6.430
 5330SOL     OW16888   2.857   3.434   0.535
 5330SOL    HW116889   2.817   3.404   0.622
 5330SOL    HW216890   2.812   3.517   0.504
 5331SOL     OW16891   6.926   0.820   6.722
 5331SOL    HW116892   6.959   0.727   6.703
 5331SOL    HW216893   6.975   0.886   6.665
 5332SOL     OW16894   1.035   4.441   2.107
 5332SOL    HW116895   1.014   4.344   2.091
 5332SOL    HW216896   1.093   4.450   2.188
 5333SOL     OW16897   1.101   6.608   4.093
 5333SOL    HW116898   1.084   6.633   4.188
 5333SOL    HW216899   1.188   6.648   4.062
 5334SOL     OW16900   3.063   0.103   4.152
 5334SOL    HW116901   3.013   0.182   4.187
 5334SOL    HW216902   3.161   0.121   4.157
 5335SOL     OW16903   6.641   5.485   0.898
 5335SOL    HW116904   6.665   5.575   0.934
 5335SOL    HW216905   6.616   5.425   0.973
 5336SOL     OW16906   1.500   3.713   2.043
 5336SOL    HW116907   1.493   3.672   1.951
 5336SOL    HW216908   1.539   3.646   2.106
 5337SOL     OW16909   4.656   4.299   1.311
 5337SOL    HW116910   4.632   4.383   1.359
 5337SOL    HW216911   4.682   4.229   1.376
 5338SOL     OW16912   6.673   2.319   6.736
 5338SOL    HW116913   6.760   2.290   6.774
 5338SOL    HW216914   6.631   2.388   6.795
 5339SOL     OW16915   6.625   2.016   3.672
 5339SOL    HW116916   6.603   2.072   3.592
 5339SOL    HW216917   6.562   1.939   3.677
 5340SOL     OW16918   5.434   2.805   6.831
 5340SOL    HW116919   5.466   2.897   6.812
 5340SOL    HW216920   5.391   2.767   6.749
 5341SOL     OW16921   4.826   0.630   6.497
 5341SOL    HW116922   4.740   0.580   6.506
 5341SOL    HW216923   4.862   0.619   6.404
 5342SOL     OW16924   4.409   1.009   5.865
 5342SOL    HW116925   4.317   1.036   5.837
 5342SOL    HW216926   4.437   0.927   5.815
 5343SOL     OW16927   3.975   3.387   2.333
 5343SOL    HW116928   4.049   3.454   2.331
 5343SOL    HW216929   3.947   3.372   2.428
 5344SOL     OW16930   1.758   2.615   3.124
 5344SOL    HW116931   1.673   2.605   3.072
 5344SOL    HW216932   1.758   2.552   3.201
 5345SOL     OW16933   4.397   6.800   1.180
 5345SOL    HW116934   4.438   6.816   1.090
 5345SOL    HW216935   4.443   6.856   1.249
 5346SOL     OW16936   3.037   6.141   3.272
 5346SOL    HW116937   3.094   6.059   3.282
 5346SOL    HW216938   2.961   6.122   3.209
 5347SOL     OW16939   0.030   2.017   0.961
 5347SOL    HW116940   0.103   1.950   0.948
 5347SOL    HW216941   0.006   2.022   1.058
 5348SOL     OW16942   1.231   1.314   0.143
 5348SOL    HW116943   1.323   1.277   0.154
 5348SOL    HW216944   1.171   1.243   0.107
 5349SOL     OW16945   6.827   0.958   1.030
 5349SOL    HW116946   6.806   1.052   1.004
 5349SOL    HW216947   6.770   0.932   1.108
 5350SOL     OW16948   2.416   1.366   6.284
 5350SOL    HW116949   2.385   1.399   6.373
 5350SOL    HW216950   2.341   1.375   6.218
 5351SOL     OW16951   4.644   6.669   1.143
 5351SOL    HW116952   4.601   6.720   1.218
 5351SOL    HW216953   4.739   6.700   1.132
 5352SOL     OW16954   3.179   5.765   3.477
 5352SOL    HW116955   3.269   5.724   3.461
 5352SOL    HW216956   3.157   5.761   3.575
 5353SOL     OW16957   5.092   5.591   5.130
 5353SOL    HW116958   5.033   5.530   5.182
 5353SOL    HW216959   5.061   5.596   5.035
 5354SOL     OW16960   1.377   4.577   1.603
 5354SOL    HW116961   1.309   4.511   1.570
 5354SOL    HW216962   1.329   4.657   1.640
 5355SOL     OW16963   4.328   1.577   4.031
 5355SOL    HW116964   4.416   1.533   4.012
 5355SOL    HW216965   4.340   1.676   4.037
 5356SOL     OW16966   6.287   3.813   1.573
 5356SOL    HW116967   6.296   3.907   1.538
 5356SOL    HW216968   6.331   3.807   1.662
 5357SOL     OW16969   3.680   0.056   0.089
 5357SOL    HW116970   3.735   0.087   0.011
 5357SOL    HW216971   3.594   0.107   0.091
 5358SOL     OW16972   4.590   2.948   0.857
 5358SOL    HW116973   4.653   3.024   0.874
 5358SOL    HW216974   4.640   2.870   0.821
 5359SOL     OW16975   2.064   1.655   0.588
 5359SOL    HW116976   2.068   1.693   0.680
 5359SOL    HW216977   2.072   1.729   0.521
 5360SOL     OW16978   3.867   6.390   6.246
 5360SOL    HW116979   3.801   6.451   6.289
 5360SOL    HW216980   3.959   6.428   6.254
 5361SOL     OW16981   1.942   0.986   5.098
 5361SOL    HW116982   1.935   0.960   5.002
 5361SOL    HW216983   1.861   1.039   5.124
 5362SOL     OW16984   5.020   5.075   2.731
 5362SOL    HW116985   5.017   5.081   2.631
 5362SOL    HW216986   4.974   5.154   2.771
 5363SOL     OW16987   0.758   5.036   6.430
 5363SOL    HW116988   0.746   4.981   6.347
 5363SOL    HW216989   0.775   4.976   6.508
 5364SOL     OW16990   6.934   6.953   0.653
 5364SOL    HW116991   6.892   6.862   0.648
 5364SOL    HW216992   0.011   6.944   0.681
 5365SOL     OW16993   4.681   1.720   5.788
 5365SOL    HW116994   4.775   1.685   5.788
 5365SOL    HW216995   4.632   1.684   5.708
 5366SOL     OW16996   4.625   4.290   0.481
 5366SOL    HW116997   4.556   4.327   0.542
 5366SOL    HW216998   4.658   4.202   0.516
 5367SOL     OW16999   0.183   4.343   1.637
 5367SOL    HW117000   0.133   4.377   1.716
 5367SOL    HW217001   0.241   4.267   1.664
 5368SOL     OW17002   5.516   2.172   3.051
 5368SOL    HW117003   5.427   2.208   3.020
 5368SOL    HW217004   5.546   2.099   2.990
 5369SOL     OW17005   2.321   4.236   2.874
 5369SOL    HW117006   2.317   4.336   2.878
 5369SOL    HW217007   2.306   4.198   2.965
 5370SOL     OW17008   3.693   2.443   1.104
 5370SOL    HW117009   3.673   2.355   1.147
 5370SOL    HW217010   3.728   2.506   1.173
 5371SOL     OW17011   1.253   4.016   4.605
 5371SOL    HW117012   1.204   3.931   4.619
 5371SOL    HW217013   1.252   4.040   4.508
 5372SOL     OW17014   2.757   5.285   3.059
 5372SOL    HW117015   2.821   5.353   3.025
 5372SOL    HW217016   2.716   5.235   2.982
 5373SOL     OW17017   3.161   4.931   4.002
 5373SOL    HW117018   3.095   5.005   4.021
 5373SOL    HW217019   3.214   4.912   4.085
 5374SOL     OW17020   2.249   2.328   6.267
 5374SOL    HW117021   2.287   2.418   6.245
 5374SOL    HW217022   2.180   2.303   6.200
 5375SOL     OW17023   1.585   4.483   4.442
 5375SOL    HW117024   1.636   4.402   4.412
 5375SOL    HW217025   1.571   4.479   4.541
 5376SOL     OW17026   1.448   3.838   1.421
 5376SOL    HW117027   1.477   3.824   1.326
 5376SOL    HW217028   1.520   3.809   1.483
 5377SOL     OW17029   0.249   0.738   1.099
 5377SOL    HW117030   0.260   0.820   1.044
 5377SOL    HW217031   0.178   0.680   1.060
 5378SOL     OW17032   5.677   1.343   0.105
 5378SOL    HW117033   5.591   1.296   0.124
 5378SOL    HW217034   5.724   1.297   0.029
 5379SOL     OW17035   0.450   5.341   2.408
 5379SOL    HW117036   0.392   5.340   2.490
 5379SOL    HW217037   0.503   5.426   2.407
 5380SOL     OW17038   2.659   6.973   3.283
 5380SOL    HW117039   2.585   0.011   3.245
 5380SOL    HW217040   2.632   6.940   3.373
 5381SOL     OW17041   5.813   4.070   1.618
 5381SOL    HW117042   5.732   4.058   1.675
 5381SOL    HW217043   5.895   4.050   1.671
 5382SOL     OW17044   2.751   1.424   1.184
 5382SOL    HW117045   2.781   1.459   1.096
 5382SOL    HW217046   2.660   1.460   1.205
 5383SOL     OW17047   2.512   1.941   5.153
 5383SOL    HW117048   2.566   1.984   5.081
 5383SOL    HW217049   2.416   1.937   5.125
 5384SOL     OW17050   6.209   6.990   4.124
 5384SOL    HW117051   6.139   6.922   4.100
 5384SOL    HW217052   6.261   6.957   4.203
 5385SOL     OW17053   3.565   4.119   2.433
 5385SOL    HW117054   3.495   4.055   2.403
 5385SOL    HW217055   3.613   4.155   2.353
 5386SOL     OW17056   5.278   6.213   4.459
 5386SOL    HW117057   5.233   6.126   4.477
 5386SOL    HW217058   5.323   6.210   4.369
 5387SOL     OW17059   2.755   5.125   2.144
 5387SOL    HW117060   2.795   5.034   2.155
 5387SOL    HW217061   2.664   5.128   2.185
 5388SOL     OW17062   5.358   6.423   2.679
 5388SOL    HW117063   5.310   6.341   2.649
 5388SOL    HW217064   5.297   6.502   2.670
 5389SOL     OW17065   4.398   1.151   1.195
 5389SOL    HW117066   4.427   1.059   1.171
 5389SOL    HW217067   4.352   1.193   1.116
 5390SOL     OW17068   6.069   5.149   5.596
 5390SOL    HW117069   6.067   5.213   5.519
 5390SOL    HW217070   5.978   5.143   5.637
 5391SOL     OW17071   2.794   3.105   0.313
 5391SOL    HW117072   2.697   3.088   0.330
 5391SOL    HW217073   2.846   3.086   0.397
 5392SOL     OW17074   6.068   3.455   1.747
 5392SOL    HW117075   5.986   3.424   1.700
 5392SOL    HW217076   6.145   3.394   1.724
 5393SOL     OW17077   6.550   6.950   0.043
 5393SOL    HW117078   6.625   6.885   0.039
 5393SOL    HW217079   6.526   6.968   0.138
 5394SOL     OW17080   0.771   3.825   5.776
 5394SOL    HW117081   0.819   3.746   5.813
 5394SOL    HW217082   0.787   3.832   5.678
 5395SOL     OW17083   3.864   0.556   0.566
 5395SOL    HW117084   3.907   0.634   0.611
 5395SOL    HW217085   3.782   0.529   0.617
 5396SOL     OW17086   5.801   3.710   2.034
 5396SOL    HW117087   5.721   3.651   2.045
 5396SOL    HW217088   5.812   3.734   1.938
 5397SOL     OW17089   6.903   3.523   1.263
 5397SOL    HW117090   6.987   3.469   1.269
 5397SOL    HW217091   6.825   3.464   1.286
 5398SOL     OW17092   3.099   2.399   1.645
 5398SOL    HW117093   3.044   2.393   1.562
 5398SOL    HW217094   3.039   2.406   1.725
 5399SOL     OW17095   1.978   6.014   1.614
 5399SOL    HW117096   1.947   6.086   1.552
 5399SOL    HW217097   1.899   5.964   1.650
 5400SOL     OW17098   2.706   4.631   6.891
 5400SOL    HW117099   2.721   4.563   6.818
 5400SOL    HW217100   2.612   4.622   6.925
 5401SOL     OW17101   5.693   3.173   1.538
 5401SOL    HW117102   5.654   3.209   1.453
 5401SOL    HW217103   5.638   3.205   1.616
 5402SOL     OW17104   1.497   5.894   2.252
 5402SOL    HW117105   1.549   5.877   2.336
 5402SOL    HW217106   1.431   5.821   2.238
 5403SOL     OW17107   0.306   3.771   6.484
 5403SOL    HW117108   0.385   3.713   6.502
 5403SOL    HW217109   0.337   3.860   6.450
 5404SOL     OW17110   1.823   2.759   4.034
 5404SOL    HW117111   1.867   2.738   3.947
 5404SOL    HW217112   1.757   2.834   4.022
 5405SOL     OW17113   6.419   5.038   5.613
 5405SOL    HW117114   6.350   4.974   5.579
 5405SOL    HW217115   6.428   5.029   5.712
 5406SOL     OW17116   1.224   0.990   6.855
 5406SOL    HW117117   1.206   0.905   6.805
 5406SOL    HW217118   1.263   1.058   6.792
 5407SOL     OW17119   3.810   3.052   0.779
 5407SOL    HW117120   3.757   2.978   0.740
 5407SOL    HW217121   3.769   3.081   0.866
 5408SOL     OW17122   2.341   1.042   7.014
 5408SOL    HW117123   2.395   1.117   0.034
 5408SOL    HW217124   2.327   0.972   0.066
 5409SOL     OW17125   4.805   0.209   3.106
 5409SOL    HW117126   4.793   0.290   3.163
 5409SOL    HW217127   4.850   0.234   3.021
 5410SOL     OW17128   3.015   2.080   1.883
 5410SOL    HW117129   2.971   2.159   1.926
 5410SOL    HW217130   3.087   2.113   1.821
 5411SOL     OW17131   0.201   5.233   5.211
 5411SOL    HW117132   0.139   5.189   5.276
 5411SOL    HW217133   0.173   5.328   5.197
 5412SOL     OW17134   6.139   2.760   0.690
 5412SOL    HW117135   6.046   2.767   0.652
 5412SOL    HW217136   6.137   2.702   0.772
 5413SOL     OW17137   2.686   1.858   1.951
 5413SOL    HW117138   2.654   1.768   1.980
 5413SOL    HW217139   2.656   1.875   1.857
 5414SOL     OW17140   4.257   1.455   4.856
 5414SOL    HW117141   4.356   1.458   4.871
 5414SOL    HW217142   4.211   1.439   4.943
 5415SOL     OW17143   6.944   5.573   1.677
 5415SOL    HW117144   6.873   5.507   1.650
 5415SOL    HW217145   6.991   5.607   1.595
 5416SOL     OW17146   4.336   5.122   5.038
 5416SOL    HW117147   4.390   5.156   4.961
 5416SOL    HW217148   4.340   5.023   5.040
 5417SOL     OW17149   3.477   6.805   4.533
 5417SOL    HW117150   3.573   6.809   4.506
 5417SOL    HW217151   3.455   6.712   4.563
 5418SOL     OW17152   3.770   0.185   2.769
 5418SOL    HW117153   3.674   0.181   2.743
 5418SOL    HW217154   3.795   0.280   2.788
 5419SOL     OW17155   3.508   4.972   6.302
 5419SOL    HW117156   3.460   4.941   6.384
 5419SOL    HW217157   3.606   4.978   6.320
 5420SOL     OW17158   2.034   1.825   2.753
 5420SOL    HW117159   2.003   1.747   2.807
 5420SOL    HW217160   2.117   1.800   2.703
 5421SOL     OW17161   1.747   3.784   1.854
 5421SOL    HW117162   1.723   3.853   1.922
 5421SOL    HW217163   1.816   3.722   1.892
 5422SOL     OW17164   1.808   4.006   1.653
 5422SOL    HW117165   1.797   4.097   1.692
 5422SOL    HW217166   1.825   3.940   1.726
 5423SOL     OW17167   5.711   2.912   6.539
 5423SOL    HW117168   5.684   2.966   6.619
 5423SOL    HW217169   5.637   2.915   6.472
 5424SOL     OW17170   4.940   3.607   4.523
 5424SOL    HW117171   4.951   3.631   4.427
 5424SOL    HW217172   4.942   3.508   4.533
 5425SOL     OW17173   4.510   0.825   5.232
 5425SOL    HW117174   4.582   0.827   5.301
 5425SOL    HW217175   4.458   0.911   5.236
 5426SOL     OW17176   5.972   6.643   4.942
 5426SOL    HW117177   5.988   6.580   5.017
 5426SOL    HW217178   5.876   6.640   4.915
 5427SOL     OW17179   4.394   6.077   6.489
 5427SOL    HW117180   4.439   6.074   6.400
 5427SOL    HW217181   4.406   6.167   6.530
 5428SOL     OW17182   0.919   0.439   0.933
 5428SOL    HW117183   0.923   0.423   1.032
 5428SOL    HW217184   1.004   0.407   0.891
 5429SOL     OW17185   1.063   2.196   6.713
 5429SOL    HW117186   1.050   2.291   6.740
 5429SOL    HW217187   0.997   2.138   6.761
 5430SOL     OW17188   1.287   2.388   6.135
 5430SOL    HW117189   1.316   2.402   6.230
 5430SOL    HW217190   1.266   2.476   6.094
 5431SOL     OW17191   3.684   6.501   5.661
 5431SOL    HW117192   3.676   6.587   5.610
 5431SOL    HW217193   3.640   6.427   5.611
 5432SOL     OW17194   4.858   6.546   0.421
 5432SOL    HW117195   4.813   6.501   0.498
 5432SOL    HW217196   4.952   6.569   0.446
 5433SOL     OW17197   0.058   1.663   5.251
 5433SOL    HW117198   0.052   1.715   5.167
 5433SOL    HW217199   0.139   1.605   5.249
 5434SOL     OW17200   2.919   0.342   6.401
 5434SOL    HW117201   2.872   0.326   6.488
 5434SOL    HW217202   2.908   0.438   6.374
 5435SOL     OW17203   4.234   0.613   1.604
 5435SOL    HW117204   4.137   0.614   1.625
 5435SOL    HW217205   4.247   0.585   1.509
 5436SOL     OW17206   4.784   4.363   3.097
 5436SOL    HW117207   4.882   4.378   3.101
 5436SOL    HW217208   4.744   4.420   3.026
 5437SOL     OW17209   2.838   4.242   0.060
 5437SOL    HW117210   2.757   4.298   0.082
 5437SOL    HW217211   2.900   4.295   0.002
 5438SOL     OW17212   5.882   1.818   1.736
 5438SOL    HW117213   5.858   1.736   1.788
 5438SOL    HW217214   5.820   1.893   1.762
 5439SOL     OW17215   0.982   2.705   1.254
 5439SOL    HW117216   0.894   2.684   1.297
 5439SOL    HW217217   1.045   2.629   1.269
 5440SOL     OW17218   1.279   2.184   1.295
 5440SOL    HW117219   1.310   2.248   1.224
 5440SOL    HW217220   1.358   2.143   1.339
 5441SOL     OW17221   3.169   1.695   3.720
 5441SOL    HW117222   3.181   1.769   3.785
 5441SOL    HW217223   3.131   1.731   3.635
 5442SOL     OW17224   3.502   0.558   1.845
 5442SOL    HW117225   3.598   0.530   1.846
 5442SOL    HW217226   3.466   0.551   1.752
 5443SOL     OW17227   2.926   6.852   5.409
 5443SOL    HW117228   2.942   6.937   5.459
 5443SOL    HW217229   2.891   6.873   5.318
 5444SOL     OW17230   0.436   6.634   4.227
 5444SOL    HW117231   0.386   6.588   4.301
 5444SOL    HW217232   0.377   6.637   4.146
 5445SOL     OW17233   5.987   3.501   2.928
 5445SOL    HW117234   5.895   3.515   2.965
 5445SOL    HW217235   5.991   3.536   2.835
 5446SOL     OW17236   6.154   5.330   5.169
 5446SOL    HW117237   6.128   5.303   5.076
 5446SOL    HW217238   6.158   5.430   5.175
 5447SOL     OW17239   3.611   2.237   0.378
 5447SOL    HW117240   3.609   2.139   0.396
 5447SOL    HW217241   3.683   2.280   0.432
 5448SOL     OW17242   5.128   2.462   5.541
 5448SOL    HW117243   5.195   2.498   5.477
 5448SOL    HW217244   5.055   2.528   5.555
 5449SOL     OW17245   0.648   3.637   6.967
 5449SOL    HW117246   0.702   3.719   6.947
 5449SOL    HW217247   0.681   3.595   0.032
 5450SOL     OW17248   2.066   6.764   1.459
 5450SOL    HW117249   2.094   6.825   1.533
 5450SOL    HW217250   2.109   6.793   1.374
 5451SOL     OW17251   0.880   6.084   2.982
 5451SOL    HW117252   0.894   6.001   3.036
 5451SOL    HW217253   0.790   6.082   2.939
 5452SOL     OW17254   2.383   4.463   6.759
 5452SOL    HW117255   2.306   4.433   6.815
 5452SOL    HW217256   2.446   4.387   6.745
 5453SOL     OW17257   5.824   4.361   0.435
 5453SOL    HW117258   5.859   4.274   0.401
 5453SOL    HW217259   5.859   4.376   0.528
 5454SOL     OW17260   6.887   4.716   6.953
 5454SOL    HW117261   6.893   4.671   0.023
 5454SOL    HW217262   6.817   4.671   6.898
 5455SOL     OW17263   6.624   3.336   1.127
 5455SOL    HW117264   6.645   3.406   1.059
 5455SOL    HW217265   6.623   3.377   1.218
 5456SOL     OW17266   3.208   0.012   0.139
 5456SOL    HW117267   3.244   6.985   0.058
 5456SOL    HW217268   3.155   0.092   0.112
 5457SOL     OW17269   5.910   2.809   0.979
 5457SOL    HW117270   5.868   2.883   0.926
 5457SOL    HW217271   5.908   2.834   1.076
 5458SOL     OW17272   1.753   4.404   6.589
 5458SOL    HW117273   1.849   4.401   6.562
 5458SOL    HW217274   1.732   4.326   6.647
 5459SOL     OW17275   1.942   4.451   0.049
 5459SOL    HW117276   1.910   4.360   0.021
 5459SOL    HW217277   1.863   4.508   0.073
 5460SOL     OW17278   2.682   0.393   1.048
 5460SOL    HW117279   2.745   0.315   1.047
 5460SOL    HW217280   2.614   0.380   1.120
 5461SOL     OW17281   4.616   0.014   4.952
 5461SOL    HW117282   4.576   6.971   5.019
 5461SOL    HW217283   4.610   6.991   4.861
 5462SOL     OW17284   1.456   6.961   0.593
 5462SOL    HW117285   1.480   0.039   0.602
 5462SOL    HW217286   1.538   6.908   0.570
 5463SOL     OW17287   6.293   2.852   0.485
 5463SOL    HW117288   6.240   2.828   0.566
 5463SOL    HW217289   6.313   2.769   0.432
 5464SOL     OW17290   2.235   0.434   4.087
 5464SOL    HW117291   2.160   0.499   4.078
 5464SOL    HW217292   2.299   0.466   4.157
 5465SOL     OW17293   3.268   0.372   4.648
 5465SOL    HW117294   3.326   0.453   4.652
 5465SOL    HW217295   3.200   0.383   4.576
 5466SOL     OW17296   5.166   4.216   4.582
 5466SOL    HW117297   5.216   4.130   4.575
 5466SOL    HW217298   5.228   4.288   4.614
 5467SOL     OW17299   4.978   1.436   2.591
 5467SOL    HW117300   4.983   1.439   2.691
 5467SOL    HW217301   5.020   1.351   2.559
 5468SOL     OW17302   4.583   2.098   4.941
 5468SOL    HW117303   4.575   2.147   4.854
 5468SOL    HW217304   4.524   2.017   4.940
 5469SOL     OW17305   3.458   4.455   5.700
 5469SOL    HW117306   3.369   4.500   5.692
 5469SOL    HW217307   3.476   4.433   5.795
 5470SOL     OW17308   1.979   5.093   3.936
 5470SOL    HW117309   2.017   5.064   4.023
 5470SOL    HW217310   1.917   5.170   3.950
 5471SOL     OW17311   0.055   5.923   2.024
 5471SOL    HW117312   0.008   5.902   1.938
 5471SOL    HW217313   0.147   5.886   2.022
 5472SOL     OW17314   4.184   4.255   5.814
 5472SOL    HW117315   4.174   4.174   5.872
 5472SOL    HW217316   4.102   4.267   5.759
 5473SOL     OW17317   1.539   3.360   3.453
 5473SOL    HW117318   1.517   3.451   3.486
 5473SOL    HW217319   1.523   3.355   3.354
 5474SOL     OW17320   1.634   5.564   4.196
 5474SOL    HW117321   1.720   5.555   4.146
 5474SOL    HW217322   1.595   5.473   4.212
 5475SOL     OW17323   2.975   2.084   1.103
 5475SOL    HW117324   3.012   2.108   1.193
 5475SOL    HW217325   2.932   2.164   1.062
 5476SOL     OW17326   1.585   2.959   6.478
 5476SOL    HW117327   1.642   2.960   6.560
 5476SOL    HW217328   1.521   2.882   6.482
 5477SOL     OW17329   1.782   2.891   3.029
 5477SOL    HW117330   1.773   2.792   3.017
 5477SOL    HW217331   1.799   2.911   3.126
 5478SOL     OW17332   5.465   6.045   5.699
 5478SOL    HW117333   5.396   5.989   5.744
 5478SOL    HW217334   5.420   6.123   5.655
 5479SOL     OW17335   4.915   0.632   4.494
 5479SOL    HW117336   4.838   0.576   4.463
 5479SOL    HW217337   4.966   0.665   4.414
 5480SOL     OW17338   1.253   3.399   4.342
 5480SOL    HW117339   1.332   3.373   4.287
 5480SOL    HW217340   1.170   3.361   4.300
 5481SOL     OW17341   3.550   6.965   3.977
 5481SOL    HW117342   3.564   0.011   4.053
 5481SOL    HW217343   3.539   7.016   3.892
 5482SOL     OW17344   2.510   4.947   1.560
 5482SOL    HW117345   2.514   4.935   1.659
 5482SOL    HW217346   2.490   4.860   1.516
 5483SOL     OW17347   0.185   2.730   6.173
 5483SOL    HW117348   0.176   2.828   6.157
 5483SOL    HW217349   0.260   2.693   6.117
 5484SOL     OW17350   4.398   0.698   4.534
 5484SOL    HW117351   4.477   0.696   4.473
 5484SOL    HW217352   4.377   0.793   4.558
 5485SOL     OW17353   3.244   6.837   5.939
 5485SOL    HW117354   3.180   6.908   5.909
 5485SOL    HW217355   3.331   6.848   5.890
 5486SOL     OW17356   2.726   6.140   4.992
 5486SOL    HW117357   2.690   6.131   5.085
 5486SOL    HW217358   2.751   6.235   4.975
 5487SOL     OW17359   2.941   4.910   5.392
 5487SOL    HW117360   2.938   4.811   5.383
 5487SOL    HW217361   3.022   4.946   5.345
 5488SOL     OW17362   6.176   1.446   0.868
 5488SOL    HW117363   6.077   1.440   0.877
 5488SOL    HW217364   6.213   1.507   0.938
 5489SOL     OW17365   6.523   3.812   2.676
 5489SOL    HW117366   6.465   3.822   2.595
 5489SOL    HW217367   6.579   3.894   2.687
 5490SOL     OW17368   1.651   6.813   2.895
 5490SOL    HW117369   1.685   6.907   2.897
 5490SOL    HW217370   1.570   6.808   2.836
 5491SOL     OW17371   6.486   4.420   0.557
 5491SOL    HW117372   6.453   4.388   0.645
 5491SOL    HW217373   6.521   4.343   0.504
 5492SOL     OW17374   0.195   1.763   5.553
 5492SOL    HW117375   0.153   1.839   5.503
 5492SOL    HW217376   0.295   1.774   5.552
 5493SOL     OW17377   4.033   3.822   1.317
 5493SOL    HW117378   3.934   3.839   1.308
 5493SOL    HW217379   4.047   3.739   1.371
 5494SOL     OW17380   6.544   4.205   5.135
 5494SOL    HW117381   6.566   4.207   5.037
 5494SOL    HW217382   6.450   4.237   5.149
 5495SOL     OW17383   5.626   0.599   0.929
 5495SOL    HW117384   5.685   0.580   0.850
 5495SOL    HW217385   5.647   0.690   0.965
 5496SOL     OW17386   3.806   0.534   4.500
 5496SOL    HW117387   3.856   0.602   4.447
 5496SOL    HW217388   3.709   0.558   4.500
 5497SOL     OW17389   1.053   0.288   6.412
 5497SOL    HW117390   1.101   0.212   6.367
 5497SOL    HW217391   1.070   0.284   6.510
 5498SOL     OW17392   0.536   5.099   1.741
 5498SOL    HW117393   0.452   5.051   1.766
 5498SOL    HW217394   0.608   5.075   1.805
 5499SOL     OW17395   1.590   0.476   4.649
 5499SOL    HW117396   1.645   0.477   4.733
 5499SOL    HW217397   1.637   0.527   4.577
 5500SOL     OW17398   2.703   0.816   0.579
 5500SOL    HW117399   2.791   0.776   0.603
 5500SOL    HW217400   2.634   0.786   0.645
 5501SOL     OW17401   3.684   3.294   6.679
 5501SOL    HW117402   3.621   3.232   6.632
 5501SOL    HW217403   3.656   3.304   6.774
 5502SOL     OW17404   4.192   2.472   6.849
 5502SOL    HW117405   4.259   2.443   6.917
 5502SOL    HW217406   4.100   2.460   6.886
 5503SOL     OW17407   6.610   4.161   0.506
 5503SOL    HW117408   6.589   4.070   0.542
 5503SOL    HW217409   6.700   4.190   0.540
 5504SOL     OW17410   3.293   1.928   6.426
 5504SOL    HW117411   3.299   1.828   6.426
 5504SOL    HW217412   3.243   1.958   6.344
 5505SOL     OW17413   2.261   4.851   4.001
 5505SOL    HW117414   2.167   4.878   4.022
 5505SOL    HW217415   2.282   4.765   4.048
 5506SOL     OW17416   0.906   3.407   6.399
 5506SOL    HW117417   0.855   3.483   6.438
 5506SOL    HW217418   0.844   3.329   6.385
 5507SOL     OW17419   2.691   6.694   6.960
 5507SOL    HW117420   2.635   6.664   0.018
 5507SOL    HW217421   2.647   6.771   6.914
 5508SOL     OW17422   0.303   0.709   6.469
 5508SOL    HW117423   0.234   0.637   6.469
 5508SOL    HW217424   0.303   0.755   6.558
 5509SOL     OW17425   0.156   5.182   0.773
 5509SOL    HW117426   0.153   5.082   0.775
 5509SOL    HW217427   0.105   5.215   0.694
 5510SOL     OW17428   3.886   5.248   0.035
 5510SOL    HW117429   3.848   5.211   6.968
 5510SOL    HW217430   3.872   5.347   0.037
 5511SOL     OW17431   0.696   1.618   5.565
 5511SOL    HW117432   0.707   1.536   5.509
 5511SOL    HW217433   0.738   1.696   5.520
 5512SOL     OW17434   3.565   1.029   2.550
 5512SOL    HW117435   3.564   0.970   2.470
 5512SOL    HW217436   3.556   1.124   2.521
 5513SOL     OW17437   3.960   4.332   0.082
 5513SOL    HW117438   4.004   4.304   0.168
 5513SOL    HW217439   3.861   4.325   0.092
 5514SOL     OW17440   3.105   0.739   0.270
 5514SOL    HW117441   3.204   0.753   0.273
 5514SOL    HW217442   3.085   0.641   0.274
 5515SOL     OW17443   2.690   6.166   2.236
 5515SOL    HW117444   2.692   6.077   2.282
 5515SOL    HW217445   2.681   6.238   2.305
 5516SOL     OW17446   2.514   2.575   5.218
 5516SOL    HW117447   2.457   2.654   5.197
 5516SOL    HW217448   2.563   2.591   5.303
 5517SOL     OW17449   1.318   3.053   3.482
 5517SOL    HW117450   1.341   2.982   3.414
 5517SOL    HW217451   1.350   3.142   3.449
 5518SOL     OW17452   4.418   4.519   6.270
 5518SOL    HW117453   4.327   4.539   6.232
 5518SOL    HW217454   4.432   4.420   6.273
 5519SOL     OW17455   4.739   2.592   3.602
 5519SOL    HW117456   4.792   2.509   3.584
 5519SOL    HW217457   4.689   2.618   3.520
 5520SOL     OW17458   5.064   6.937   1.620
 5520SOL    HW117459   5.001   6.934   1.697
 5520SOL    HW217460   5.058   0.008   1.575
 5521SOL     OW17461   5.638   5.296   1.904
 5521SOL    HW117462   5.657   5.216   1.961
 5521SOL    HW217463   5.635   5.378   1.961
 5522SOL     OW17464   6.245   6.059   0.857
 5522SOL    HW117465   6.162   6.028   0.812
 5522SOL    HW217466   6.246   6.028   0.952
 5523SOL     OW17467   5.435   0.992   2.500
 5523SOL    HW117468   5.342   1.000   2.466
 5523SOL    HW217469   5.480   0.915   2.456
 5524SOL     OW17470   3.236   1.383   4.389
 5524SOL    HW117471   3.169   1.315   4.419
 5524SOL    HW217472   3.196   1.474   4.400
 5525SOL     OW17473   6.111   1.269   1.202
 5525SOL    HW117474   6.083   1.284   1.297
 5525SOL    HW217475   6.198   1.315   1.185
 5526SOL     OW17476   4.683   4.854   3.664
 5526SOL    HW117477   4.612   4.814   3.721
 5526SOL    HW217478   4.654   4.945   3.635
 5527SOL     OW17479   5.715   1.572   4.041
 5527SOL    HW117480   5.814   1.560   4.043
 5527SOL    HW217481   5.693   1.666   4.018
 5528SOL     OW17482   1.275   1.124   0.795
 5528SOL    HW117483   1.242   1.086   0.709
 5528SOL    HW217484   1.302   1.219   0.781
 5529SOL     OW17485   3.670   0.692   2.100
 5529SOL    HW117486   3.712   0.616   2.149
 5529SOL    HW217487   3.709   0.698   2.009
 5530SOL     OW17488   6.232   2.015   1.053
 5530SOL    HW117489   6.259   1.983   0.962
 5530SOL    HW217490   6.313   2.038   1.106
 5531SOL     OW17491   2.258   3.720   1.288
 5531SOL    HW117492   2.188   3.740   1.357
 5531SOL    HW217493   2.301   3.805   1.259
 5532SOL     OW17494   1.439   3.474   0.579
 5532SOL    HW117495   1.427   3.417   0.660
 5532SOL    HW217496   1.378   3.442   0.507
 5533SOL     OW17497   3.986   2.041   3.593
 5533SOL    HW117498   4.006   2.017   3.689
 5533SOL    HW217499   4.019   2.134   3.575
 5534SOL     OW17500   1.197   0.736   4.818
 5534SOL    HW117501   1.163   0.656   4.767
 5534SOL    HW217502   1.177   0.724   4.915
 5535SOL     OW17503   0.312   1.942   3.617
 5535SOL    HW117504   0.278   1.850   3.636
 5535SOL    HW217505   0.407   1.949   3.649
 5536SOL     OW17506   3.975   6.361   4.020
 5536SOL    HW117507   3.883   6.353   4.058
 5536SOL    HW217508   3.990   6.290   3.952
 5537SOL     OW17509   3.001   1.203   3.371
 5537SOL    HW117510   3.099   1.202   3.392
 5537SOL    HW217511   2.953   1.143   3.435
 5538SOL     OW17512   4.293   5.485   4.776
 5538SOL    HW117513   4.348   5.403   4.793
 5538SOL    HW217514   4.217   5.463   4.716
 5539SOL     OW17515   2.212   4.228   0.362
 5539SOL    HW117516   2.182   4.224   0.267
 5539SOL    HW217517   2.297   4.177   0.372
 5540SOL     OW17518   5.131   5.170   1.749
 5540SOL    HW117519   5.064   5.169   1.675
 5540SOL    HW217520   5.161   5.077   1.768
 5541SOL     OW17521   4.469   1.292   5.792
 5541SOL    HW117522   4.531   1.309   5.869
 5541SOL    HW217523   4.430   1.200   5.801
 5542SOL     OW17524   5.296   5.023   6.352
 5542SOL    HW117525   5.349   4.961   6.295
 5542SOL    HW217526   5.225   5.067   6.297
 5543SOL     OW17527   0.204   2.022   6.183
 5543SOL    HW117528   0.253   1.937   6.166
 5543SOL    HW217529   0.260   2.083   6.240
 5544SOL     OW17530   5.663   1.517   6.407
 5544SOL    HW117531   5.582   1.564   6.440
 5544SOL    HW217532   5.667   1.523   6.307
 5545SOL     OW17533   2.668   2.492   1.805
 5545SOL    HW117534   2.765   2.475   1.824
 5545SOL    HW217535   2.613   2.433   1.864
 5546SOL     OW17536   2.191   4.990   5.595
 5546SOL    HW117537   2.176   5.086   5.616
 5546SOL    HW217538   2.260   4.982   5.522
 5547SOL     OW17539   3.703   6.277   4.822
 5547SOL    HW117540   3.738   6.238   4.907
 5547SOL    HW217541   3.692   6.204   4.754
 5548SOL     OW17542   0.252   3.263   5.210
 5548SOL    HW117543   0.281   3.176   5.171
 5548SOL    HW217544   0.327   3.303   5.262
 5549SOL     OW17545   3.352   4.441   6.563
 5549SOL    HW117546   3.366   4.343   6.573
 5549SOL    HW217547   3.429   4.481   6.513
 5550SOL     OW17548   3.890   6.756   2.491
 5550SOL    HW117549   3.833   6.713   2.421
 5550SOL    HW217550   3.975   6.788   2.450
 5551SOL     OW17551   0.922   0.970   3.135
 5551SOL    HW117552   0.907   0.987   3.233
 5551SOL    HW217553   0.932   0.872   3.119
 5552SOL     OW17554   0.627   2.896   0.915
 5552SOL    HW117555   0.726   2.882   0.914
 5552SOL    HW217556   0.587   2.844   0.991
 5553SOL     OW17557   5.445   6.487   7.011
 5553SOL    HW117558   5.406   6.396   6.997
 5553SOL    HW217559   5.450   6.535   6.923
 5554SOL     OW17560   2.661   1.575   4.770
 5554SOL    HW117561   2.728   1.629   4.719
 5554SOL    HW217562   2.569   1.592   4.733
 5555SOL     OW17563   0.108   6.425   2.227
 5555SOL    HW117564   0.091   6.354   2.159
 5555SOL    HW217565   0.194   6.407   2.273
 5556SOL     OW17566   0.543   1.422   4.235
 5556SOL    HW117567   0.609   1.493   4.260
 5556SOL    HW217568   0.496   1.449   4.151
 5557SOL     OW17569   2.782   0.386   3.619
 5557SOL    HW117570   2.806   0.409   3.525
 5557SOL    HW217571   2.682   0.382   3.628
 5558SOL     OW17572   4.939   2.210   4.409
 5558SOL    HW117573   4.994   2.294   4.411
 5558SOL    HW217574   4.869   2.214   4.481
 5559SOL     OW17575   2.146   0.042   1.018
 5559SOL    HW117576   2.147   0.056   0.919
 5559SOL    HW217577   2.086   0.110   1.060
 5560SOL     OW17578   0.120   0.677   4.344
 5560SOL    HW117579   0.095   0.755   4.400
 5560SOL    HW217580   0.039   0.640   4.299
 5561SOL     OW17581   1.428   3.844   3.042
 5561SOL    HW117582   1.339   3.886   3.062
 5561SOL    HW217583   1.471   3.892   2.966
 5562SOL     OW17584   2.720   2.470   5.811
 5562SOL    HW117585   2.790   2.401   5.830
 5562SOL    HW217586   2.757   2.561   5.828
 5563SOL     OW17587   4.189   4.472   1.501
 5563SOL    HW117588   4.244   4.404   1.551
 5563SOL    HW217589   4.185   4.557   1.555
 5564SOL     OW17590   6.505   4.123   1.586
 5564SOL    HW117591   6.592   4.121   1.537
 5564SOL    HW217592   6.430   4.118   1.520
 5565SOL     OW17593   2.900   3.157   5.690
 5565SOL    HW117594   2.960   3.134   5.613
 5565SOL    HW217595   2.914   3.253   5.714
 5566SOL     OW17596   2.053   4.604   0.712
 5566SOL    HW117597   1.955   4.596   0.700
 5566SOL    HW217598   2.099   4.523   0.674
 5567SOL     OW17599   1.862   5.461   3.060
 5567SOL    HW117600   1.860   5.371   3.104
 5567SOL    HW217601   1.888   5.530   3.128
 5568SOL     OW17602   3.767   1.741   1.015
 5568SOL    HW117603   3.856   1.704   1.042
 5568SOL    HW217604   3.778   1.836   0.987
 5569SOL     OW17605   5.775   2.362   6.623
 5569SOL    HW117606   5.854   2.394   6.675
 5569SOL    HW217607   5.724   2.441   6.588
 5570SOL     OW17608   0.229   4.072   5.965
 5570SOL    HW117609   0.165   4.041   5.894
 5570SOL    HW217610   0.293   4.137   5.925
 5571SOL     OW17611   6.885   4.796   6.424
 5571SOL    HW117612   6.801   4.741   6.426
 5571SOL    HW217613   6.863   4.890   6.397
 5572SOL     OW17614   5.329   2.746   5.538
 5572SOL    HW117615   5.286   2.755   5.448
 5572SOL    HW217616   5.270   2.788   5.607
 5573SOL     OW17617   0.817   4.070   0.293
 5573SOL    HW117618   0.896   4.132   0.296
 5573SOL    HW217619   0.784   4.055   0.385
 5574SOL     OW17620   0.706   6.153   4.503
 5574SOL    HW117621   0.681   6.209   4.582
 5574SOL    HW217622   0.805   6.154   4.491
 5575SOL     OW17623   1.652   0.864   1.495
 5575SOL    HW117624   1.647   0.861   1.595
 5575SOL    HW217625   1.586   0.799   1.457
 5576SOL     OW17626   6.679   5.879   0.393
 5576SOL    HW117627   6.687   5.790   0.348
 5576SOL    HW217628   6.756   5.892   0.455
 5577SOL     OW17629   2.210   3.732   5.118
 5577SOL    HW117630   2.204   3.742   5.019
 5577SOL    HW217631   2.237   3.819   5.159
 5578SOL     OW17632   3.365   1.020   6.179
 5578SOL    HW117633   3.407   1.094   6.124
 5578SOL    HW217634   3.403   1.022   6.271
 5579SOL     OW17635   5.269   4.578   1.311
 5579SOL    HW117636   5.199   4.620   1.253
 5579SOL    HW217637   5.226   4.512   1.372
 5580SOL     OW17638   5.141   0.612   1.270
 5580SOL    HW117639   5.053   0.651   1.241
 5580SOL    HW217640   5.211   0.633   1.201
 5581SOL     OW17641   2.458   2.717   0.691
 5581SOL    HW117642   2.465   2.743   0.595
 5581SOL    HW217643   2.520   2.640   0.709
 5582SOL     OW17644   3.819   3.268   3.279
 5582SOL    HW117645   3.849   3.183   3.321
 5582SOL    HW217646   3.880   3.342   3.306
 5583SOL     OW17647   3.464   0.564   0.518
 5583SOL    HW117648   3.454   0.477   0.566
 5583SOL    HW217649   3.494   0.548   0.424
 5584SOL     OW17650   5.276   2.920   2.831
 5584SOL    HW117651   5.280   3.019   2.839
 5584SOL    HW217652   5.240   2.880   2.915
 5585SOL     OW17653   6.803   6.674   4.426
 5585SOL    HW117654   6.850   6.753   4.465
 5585SOL    HW217655   6.812   6.596   4.488
 5586SOL     OW17656   2.068   1.735   6.341
 5586SOL    HW117657   2.109   1.700   6.257
 5586SOL    HW217658   2.037   1.829   6.327
 5587SOL     OW17659   3.492   0.095   3.719
 5587SOL    HW117660   3.456   0.128   3.632
 5587SOL    HW217661   3.491   0.170   3.786
 5588SOL     OW17662   4.407   0.119   5.991
 5588SOL    HW117663   4.432   0.140   6.086
 5588SOL    HW217664   4.455   0.036   5.962
 5589SOL     OW17665   3.471   3.576   6.604
 5589SOL    HW117666   3.433   3.651   6.549
 5589SOL    HW217667   3.400   3.542   6.666
 5590SOL     OW17668   6.929   6.689   3.452
 5590SOL    HW117669   6.985   6.607   3.443
 5590SOL    HW217670   6.954   6.755   3.381
 5591SOL     OW17671   4.848   0.827   6.701
 5591SOL    HW117672   4.831   0.756   6.633
 5591SOL    HW217673   4.899   0.902   6.659
 5592SOL     OW17674   2.811   2.310   2.555
 5592SOL    HW117675   2.826   2.297   2.457
 5592SOL    HW217676   2.846   2.231   2.605
 5593SOL     OW17677   2.081   3.390   4.916
 5593SOL    HW117678   2.117   3.473   4.872
 5593SOL    HW217679   2.120   3.382   5.008
 5594SOL     OW17680   2.404   1.494   6.574
 5594SOL    HW117681   2.357   1.582   6.566
 5594SOL    HW217682   2.489   1.496   6.521
 5595SOL     OW17683   0.284   1.789   6.069
 5595SOL    HW117684   0.227   1.707   6.072
 5595SOL    HW217685   0.353   1.779   5.998
 5596SOL     OW17686   5.179   1.819   3.314
 5596SOL    HW117687   5.088   1.848   3.346
 5596SOL    HW217688   5.175   1.795   3.217
 5597SOL     OW17689   0.358   1.012   6.240
 5597SOL    HW117690   0.403   1.033   6.154
 5597SOL    HW217691   0.308   0.926   6.231
 5598SOL     OW17692   6.971   2.497   4.429
 5598SOL    HW117693   7.018   2.485   4.342
 5598SOL    HW217694   6.996   2.423   4.491
 5599SOL     OW17695   5.162   2.718   3.348
 5599SOL    HW117696   5.100   2.639   3.349
 5599SOL    HW217697   5.132   2.784   3.416
 5600SOL     OW17698   2.389   2.076   2.151
 5600SOL    HW117699   2.385   2.168   2.190
 5600SOL    HW217700   2.327   2.069   2.073
 5601SOL     OW17701   6.146   2.997   5.984
 5601SOL    HW117702   6.208   3.072   5.959
 5601SOL    HW217703   6.187   2.910   5.956
 5602SOL     OW17704   6.252   2.060   2.271
 5602SOL    HW117705   6.247   1.983   2.333
 5602SOL    HW217706   6.291   2.139   2.318
 5603SOL     OW17707   4.395   1.445   6.089
 5603SOL    HW117708   4.399   1.497   6.004
 5603SOL    HW217709   4.467   1.375   6.089
 5604SOL     OW17710   1.451   6.482   3.719
 5604SOL    HW117711   1.420   6.427   3.796
 5604SOL    HW217712   1.413   6.574   3.726
 5605SOL     OW17713   4.429   6.766   4.201
 5605SOL    HW117714   4.375   6.702   4.147
 5605SOL    HW217715   4.368   6.822   4.257
 5606SOL     OW17716   5.025   3.289   0.348
 5606SOL    HW117717   4.944   3.231   0.360
 5606SOL    HW217718   5.098   3.235   0.305
 5607SOL     OW17719   6.943   2.587   3.238
 5607SOL    HW117720   6.856   2.583   3.188
 5607SOL    HW217721   6.941   2.520   3.313
 5608SOL     OW17722   4.989   0.805   3.341
 5608SOL    HW117723   5.078   0.835   3.306
 5608SOL    HW217724   4.958   0.725   3.291
 5609SOL     OW17725   6.655   0.233   0.489
 5609SOL    HW117726   6.676   0.237   0.391
 5609SOL    HW217727   6.678   0.142   0.524
 5610SOL     OW17728   5.534   5.651   0.392
 5610SOL    HW117729   5.616   5.607   0.357
 5610SOL    HW217730   5.454   5.593   0.376
 5611SOL     OW17731   6.102   4.746   1.994
 5611SOL    HW117732   6.073   4.787   1.908
 5611SOL    HW217733   6.196   4.714   1.987
 5612SOL     OW17734   3.808   1.980   7.005
 5612SOL    HW117735   3.814   2.075   0.015
 5612SOL    HW217736   3.853   1.922   0.055
 5613SOL     OW17737   5.978   5.108   6.132
 5613SOL    HW117738   6.002   5.171   6.058
 5613SOL    HW217739   6.018   5.019   6.113
 5614SOL     OW17740   4.869   3.185   4.317
 5614SOL    HW117741   4.804   3.114   4.347
 5614SOL    HW217742   4.900   3.164   4.225
 5615SOL     OW17743   0.519   2.342   3.068
 5615SOL    HW117744   0.459   2.402   3.014
 5615SOL    HW217745   0.497   2.352   3.165
 5616SOL     OW17746   1.795   3.307   2.399
 5616SOL    HW117747   1.817   3.404   2.387
 5616SOL    HW217748   1.848   3.253   2.334
 5617SOL     OW17749   1.377   4.801   6.711
 5617SOL    HW117750   1.459   4.806   6.654
 5617SOL    HW217751   1.309   4.866   6.677
 5618SOL     OW17752   5.165   6.375   2.120
 5618SOL    HW117753   5.131   6.281   2.111
 5618SOL    HW217754   5.242   6.389   2.057
 5619SOL     OW17755   3.267   3.331   3.694
 5619SOL    HW117756   3.250   3.374   3.605
 5619SOL    HW217757   3.200   3.366   3.760
 5620SOL     OW17758   4.818   4.505   4.375
 5620SOL    HW117759   4.728   4.486   4.335
 5620SOL    HW217760   4.865   4.418   4.394
 5621SOL     OW17761   0.313   2.522   6.502
 5621SOL    HW117762   0.366   2.495   6.422
 5621SOL    HW217763   0.332   2.458   6.577
 5622SOL     OW17764   4.739   5.713   4.033
 5622SOL    HW117765   4.649   5.731   3.994
 5622SOL    HW217766   4.731   5.706   4.133
 5623SOL     OW17767   4.972   4.837   4.578
 5623SOL    HW117768   5.008   4.900   4.647
 5623SOL    HW217769   4.971   4.882   4.489
 5624SOL     OW17770   5.011   4.519   3.016
 5624SOL    HW117771   5.012   4.607   3.064
 5624SOL    HW217772   5.085   4.517   2.949
 5625SOL     OW17773   2.394   6.046   6.066
 5625SOL    HW117774   2.341   6.090   6.138
 5625SOL    HW217775   2.491   6.060   6.083
 5626SOL     OW17776   0.594   4.749   0.163
 5626SOL    HW117777   0.521   4.741   0.231
 5626SOL    HW217778   0.615   4.659   0.126
 5627SOL     OW17779   1.122   5.319   6.905
 5627SOL    HW117780   1.072   5.405   6.903
 5627SOL    HW217781   1.070   5.251   6.957
 5628SOL     OW17782   2.152   3.855   0.181
 5628SOL    HW117783   2.153   3.776   0.120
 5628SOL    HW217784   2.105   3.831   0.266
 5629SOL     OW17785   6.701   3.232   2.788
 5629SOL    HW117786   6.634   3.197   2.853
 5629SOL    HW217787   6.729   3.159   2.725
 5630SOL     OW17788   0.573   4.112   6.950
 5630SOL    HW117789   0.537   4.045   6.885
 5630SOL    HW217790   0.670   4.092   6.968
 5631SOL     OW17791   3.957   1.519   1.781
 5631SOL    HW117792   3.934   1.575   1.701
 5631SOL    HW217793   3.964   1.577   1.861
 5632SOL     OW17794   4.993   6.845   5.575
 5632SOL    HW117795   4.946   6.928   5.605
 5632SOL    HW217796   4.940   6.764   5.601
 5633SOL     OW17797   1.131   5.743   5.526
 5633SOL    HW117798   1.046   5.711   5.485
 5633SOL    HW217799   1.184   5.664   5.557
 5634SOL     OW17800   2.482   0.552   1.421
 5634SOL    HW117801   2.500   0.587   1.513
 5634SOL    HW217802   2.476   0.629   1.357
 5635SOL     OW17803   3.069   0.523   1.346
 5635SOL    HW117804   2.978   0.496   1.377
 5635SOL    HW217805   3.061   0.587   1.269
 5636SOL     OW17806   4.973   1.014   5.831
 5636SOL    HW117807   5.027   1.034   5.913
 5636SOL    HW217808   4.888   0.969   5.858
 5637SOL     OW17809   5.102   6.865   4.390
 5637SOL    HW117810   5.112   6.878   4.488
 5637SOL    HW217811   5.028   6.801   4.372
 5638SOL     OW17812   6.300   5.187   0.976
 5638SOL    HW117813   6.251   5.235   0.902
 5638SOL    HW217814   6.369   5.247   1.015
 5639SOL     OW17815   2.138   0.513   1.806
 5639SOL    HW117816   2.163   0.491   1.712
 5639SOL    HW217817   2.115   0.610   1.813
 5640SOL     OW17818   3.146   0.212   2.704
 5640SOL    HW117819   3.142   0.301   2.748
 5640SOL    HW217820   3.179   0.223   2.610
 5641SOL     OW17821   6.785   4.217   3.775
 5641SOL    HW117822   6.874   4.247   3.741
 5641SOL    HW217823   6.796   4.129   3.823
 5642SOL     OW17824   2.091   3.444   6.459
 5642SOL    HW117825   2.157   3.470   6.530
 5642SOL    HW217826   2.000   3.437   6.500
 5643SOL     OW17827   5.612   2.294   4.767
 5643SOL    HW117828   5.542   2.227   4.792
 5643SOL    HW217829   5.702   2.251   4.768
 5644SOL     OW17830   4.032   0.452   4.645
 5644SOL    HW117831   3.935   0.455   4.620
 5644SOL    HW217832   4.081   0.526   4.597
 5645SOL     OW17833   6.569   5.651   3.919
 5645SOL    HW117834   6.591   5.742   3.955
 5645SOL    HW217835   6.502   5.607   3.978
 5646SOL     OW17836   0.118   6.492   3.781
 5646SOL    HW117837   0.199   6.548   3.762
 5646SOL    HW217838   0.044   6.550   3.815
 5647SOL     OW17839   6.682   5.453   6.306
 5647SOL    HW117840   6.657   5.526   6.370
 5647SOL    HW217841   6.782   5.445   6.302
 5648SOL     OW17842   1.740   1.132   5.220
 5648SOL    HW117843   1.689   1.114   5.305
 5648SOL    HW217844   1.675   1.137   5.144
 5649SOL     OW17845   1.524   0.082   5.202
 5649SOL    HW117846   1.599   0.043   5.149
 5649SOL    HW217847   1.479   0.154   5.149
 5650SOL     OW17848   6.261   5.082   6.839
 5650SOL    HW117849   6.267   5.032   6.753
 5650SOL    HW217850   6.187   5.150   6.834
 5651SOL     OW17851   6.323   1.468   2.838
 5651SOL    HW117852   6.319   1.567   2.827
 5651SOL    HW217853   6.267   1.425   2.766
 5652SOL     OW17854   5.629   4.274   0.240
 5652SOL    HW117855   5.693   4.338   0.282
 5652SOL    HW217856   5.666   4.241   0.154
 5653SOL     OW17857   1.982   6.592   6.522
 5653SOL    HW117858   1.936   6.628   6.441
 5653SOL    HW217859   1.945   6.501   6.543
 5654SOL     OW17860   0.558   5.768   5.940
 5654SOL    HW117861   0.556   5.836   5.867
 5654SOL    HW217862   0.569   5.677   5.901
 5655SOL     OW17863   6.856   4.211   3.093
 5655SOL    HW117864   6.864   4.111   3.090
 5655SOL    HW217865   6.760   4.236   3.104
 5656SOL     OW17866   3.247   4.830   6.064
 5656SOL    HW117867   3.171   4.824   5.999
 5656SOL    HW217868   3.249   4.748   6.121
 5657SOL     OW17869   4.229   5.752   1.864
 5657SOL    HW117870   4.251   5.758   1.961
 5657SOL    HW217871   4.203   5.842   1.830
 5658SOL     OW17872   5.108   6.661   4.909
 5658SOL    HW117873   5.182   6.678   4.974
 5658SOL    HW217874   5.076   6.567   4.920
 5659SOL     OW17875   3.392   3.834   2.982
 5659SOL    HW117876   3.303   3.878   2.972
 5659SOL    HW217877   3.380   3.737   3.001
 5660SOL     OW17878   6.030   6.733   0.677
 5660SOL    HW117879   6.128   6.712   0.670
 5660SOL    HW217880   5.978   6.648   0.671
 5661SOL     OW17881   6.418   5.939   5.011
 5661SOL    HW117882   6.462   5.986   5.088
 5661SOL    HW217883   6.389   5.848   5.040
 5662SOL     OW17884   2.118   3.602   4.035
 5662SOL    HW117885   2.121   3.504   4.016
 5662SOL    HW217886   2.059   3.619   4.114
 5663SOL     OW17887   1.701   3.513   0.203
 5663SOL    HW117888   1.748   3.494   0.290
 5663SOL    HW217889   1.627   3.578   0.219
 5664SOL     OW17890   0.092   4.765   2.716
 5664SOL    HW117891   0.133   4.677   2.741
 5664SOL    HW217892   7.015   4.751   2.689
 5665SOL     OW17893   1.960   1.319   6.027
 5665SOL    HW117894   1.938   1.222   6.038
 5665SOL    HW217895   1.906   1.373   6.090
 5666SOL     OW17896   5.820   5.298   0.618
 5666SOL    HW117897   5.730   5.254   0.610
 5666SOL    HW217898   5.841   5.346   0.534
 5667SOL     OW17899   6.856   5.886   3.837
 5667SOL    HW117900   6.875   5.793   3.870
 5667SOL    HW217901   6.886   5.894   3.742
 5668SOL     OW17902   5.839   2.796   5.626
 5668SOL    HW117903   5.803   2.804   5.533
 5668SOL    HW217904   5.769   2.823   5.692
 5669SOL     OW17905   0.036   3.277   5.513
 5669SOL    HW117906   0.104   3.287   5.440
 5669SOL    HW217907   6.993   3.356   5.513
 5670SOL     OW17908   1.814   3.782   3.137
 5670SOL    HW117909   1.901   3.749   3.176
 5670SOL    HW217910   1.787   3.723   3.061
 5671SOL     OW17911   1.394   1.071   5.372
 5671SOL    HW117912   1.459   1.013   5.422
 5671SOL    HW217913   1.407   1.057   5.274
 5672SOL     OW17914   5.464   4.449   5.702
 5672SOL    HW117915   5.438   4.369   5.757
 5672SOL    HW217916   5.455   4.427   5.605
 5673SOL     OW17917   1.594   0.351   1.861
 5673SOL    HW117918   1.525   0.413   1.823
 5673SOL    HW217919   1.667   0.338   1.793
 5674SOL     OW17920   6.743   3.699   1.102
 5674SOL    HW117921   6.793   3.625   1.147
 5674SOL    HW217922   6.662   3.662   1.058
 5675SOL     OW17923   4.289   1.582   5.627
 5675SOL    HW117924   4.296   1.607   5.724
 5675SOL    HW217925   4.283   1.664   5.571
 5676SOL     OW17926   3.469   6.948   1.684
 5676SOL    HW117927   3.377   6.967   1.648
 5676SOL    HW217928   3.521   0.015   1.687
 5677SOL     OW17929   0.106   0.871   4.096
 5677SOL    HW117930   0.130   0.836   4.186
 5677SOL    HW217931   0.174   0.939   4.068
 5678SOL     OW17932   1.960   5.047   3.397
 5678SOL    HW117933   1.975   5.025   3.300
 5678SOL    HW217934   2.048   5.068   3.440
 5679SOL     OW17935   2.651   6.069   5.254
 5679SOL    HW117936   2.726   6.105   5.309
 5679SOL    HW217937   2.673   5.976   5.224
 5680SOL     OW17938   2.216   0.072   6.208
 5680SOL    HW117939   2.158   0.012   6.262
 5680SOL    HW217940   2.310   0.066   6.241
 5681SOL     OW17941   1.900   3.860   0.333
 5681SOL    HW117942   1.864   3.849   0.240
 5681SOL    HW217943   1.828   3.841   0.399
 5682SOL     OW17944   0.101   3.460   3.787
 5682SOL    HW117945   0.058   3.431   3.701
 5682SOL    HW217946   0.041   3.525   3.833
 5683SOL     OW17947   3.630   2.768   5.246
 5683SOL    HW117948   3.727   2.781   5.267
 5683SOL    HW217949   3.612   2.798   5.153
 5684SOL     OW17950   3.281   3.592   3.078
 5684SOL    HW117951   3.282   3.494   3.099
 5684SOL    HW217952   3.276   3.645   3.162
 5685SOL     OW17953   0.967   5.590   2.599
 5685SOL    HW117954   1.056   5.581   2.644
 5685SOL    HW217955   0.918   5.668   2.638
 5686SOL     OW17956   3.344   5.516   0.189
 5686SOL    HW117957   3.309   5.572   0.263
 5686SOL    HW217958   3.442   5.501   0.201
 5687SOL     OW17959   4.828   5.339   5.517
 5687SOL    HW117960   4.767   5.260   5.526
 5687SOL    HW217961   4.899   5.335   5.588
 5688SOL     OW17962   5.871   2.012   2.281
 5688SOL    HW117963   5.938   1.956   2.329
 5688SOL    HW217964   5.783   1.966   2.279
 5689SOL     OW17965   4.158   2.500   6.575
 5689SOL    HW117966   4.173   2.503   6.674
 5689SOL    HW217967   4.234   2.452   6.531
 5690SOL     OW17968   4.866   6.850   1.817
 5690SOL    HW117969   4.947   6.827   1.870
 5690SOL    HW217970   4.821   6.766   1.786
 5691SOL     OW17971   2.087   0.282   2.414
 5691SOL    HW117972   2.136   0.360   2.377
 5691SOL    HW217973   2.001   0.313   2.456
 5692SOL     OW17974   6.179   2.697   0.068
 5692SOL    HW117975   6.142   2.625   0.127
 5692SOL    HW217976   6.124   2.780   0.079
 5693SOL     OW17977   4.804   2.897   3.014
 5693SOL    HW117978   4.862   2.939   2.945
 5693SOL    HW217979   4.758   2.817   2.976
 5694SOL     OW17980   0.769   1.890   4.308
 5694SOL    HW117981   0.690   1.833   4.284
 5694SOL    HW217982   0.803   1.936   4.226
 5695SOL     OW17983   1.902   3.617   3.880
 5695SOL    HW117984   1.993   3.594   3.912
 5695SOL    HW217985   1.852   3.533   3.856
 5696SOL     OW17986   3.149   0.215   5.759
 5696SOL    HW117987   3.233   0.173   5.726
 5696SOL    HW217988   3.106   0.155   5.827
 5697SOL     OW17989   6.696   3.508   6.900
 5697SOL    HW117990   6.602   3.540   6.886
 5697SOL    HW217991   6.709   3.482   6.995
 5698SOL     OW17992   0.750   3.847   2.173
 5698SOL    HW117993   0.708   3.756   2.180
 5698SOL    HW217994   0.771   3.866   2.077
 5699SOL     OW17995   6.384   0.975   4.682
 5699SOL    HW117996   6.371   0.959   4.780
 5699SOL    HW217997   6.408   1.071   4.667
 5700SOL     OW17998   1.165   5.303   3.504
 5700SOL    HW117999   1.205   5.340   3.588
 5700SOL    HW218000   1.212   5.342   3.425
 5701SOL     OW18001   5.750   5.026   1.922
 5701SOL    HW118002   5.731   5.018   2.020
 5701SOL    HW218003   5.754   4.934   1.882
 5702SOL     OW18004   2.149   0.630   6.623
 5702SOL    HW118005   2.156   0.531   6.611
 5702SOL    HW218006   2.191   0.676   6.545
 5703SOL     OW18007   3.965   4.723   0.818
 5703SOL    HW118008   3.951   4.737   0.720
 5703SOL    HW218009   3.932   4.802   0.869
 5704SOL     OW18010   3.848   5.564   3.770
 5704SOL    HW118011   3.907   5.623   3.824
 5704SOL    HW218012   3.752   5.590   3.783
 5705SOL     OW18013   6.316   1.672   2.144
 5705SOL    HW118014   6.414   1.653   2.140
 5705SOL    HW218015   6.284   1.704   2.055
 5706SOL     OW18016   1.600   1.437   6.664
 5706SOL    HW118017   1.681   1.489   6.691
 5706SOL    HW218018   1.567   1.385   6.742
 5707SOL     OW18019   3.227   2.521   6.347
 5707SOL    HW118020   3.197   2.506   6.442
 5707SOL    HW218021   3.151   2.502   6.285
 5708SOL     OW18022   5.569   6.910   1.873
 5708SOL    HW118023   5.511   6.958   1.939
 5708SOL    HW218024   5.624   6.977   1.822
 5709SOL     OW18025   1.231   0.857   3.145
 5709SOL    HW118026   1.208   0.950   3.114
 5709SOL    HW218027   1.199   0.791   3.078
 5710SOL     OW18028   2.976   4.245   6.157
 5710SOL    HW118029   2.921   4.192   6.093
 5710SOL    HW218030   3.073   4.233   6.135
 5711SOL     OW18031   4.044   1.264   4.479
 5711SOL    HW118032   3.947   1.276   4.457
 5711SOL    HW218033   4.094   1.346   4.450
 5712SOL     OW18034   6.938   5.870   6.939
 5712SOL    HW118035   7.004   5.825   6.998
 5712SOL    HW218036   6.930   5.819   6.853
 5713SOL     OW18037   6.978   1.721   3.456
 5713SOL    HW118038   6.959   1.794   3.521
 5713SOL    HW218039   6.907   1.718   3.387
 5714SOL     OW18040   1.836   0.600   6.973
 5714SOL    HW118041   1.905   0.668   6.996
 5714SOL    HW218042   1.773   0.637   6.905
 5715SOL     OW18043   1.531   0.166   3.461
 5715SOL    HW118044   1.613   0.159   3.517
 5715SOL    HW218045   1.451   0.181   3.519
 5716SOL     OW18046   2.479   3.016   5.719
 5716SOL    HW118047   2.571   2.992   5.688
 5716SOL    HW218048   2.436   2.936   5.759
 5717SOL     OW18049   0.487   4.192   0.393
 5717SOL    HW118050   0.432   4.111   0.415
 5717SOL    HW218051   0.472   4.262   0.463
 5718SOL     OW18052   1.994   4.823   5.134
 5718SOL    HW118053   2.025   4.914   5.163
 5718SOL    HW218054   2.062   4.755   5.161
 5719SOL     OW18055   3.077   0.551   6.824
 5719SOL    HW118056   3.058   0.607   6.744
 5719SOL    HW218057   3.016   0.472   6.826
 5720SOL     OW18058   2.064   4.983   4.174
 5720SOL    HW118059   2.157   4.964   4.206
 5720SOL    HW218060   2.002   4.986   4.253
 5721SOL     OW18061   0.810   4.553   1.757
 5721SOL    HW118062   0.792   4.489   1.831
 5721SOL    HW218063   0.858   4.633   1.793
 5722SOL     OW18064   5.465   0.710   4.231
 5722SOL    HW118065   5.522   0.663   4.164
 5722SOL    HW218066   5.375   0.666   4.235
 5723SOL     OW18067   1.419   4.713   1.049
 5723SOL    HW118068   1.433   4.714   1.148
 5723SOL    HW218069   1.506   4.733   1.004
 5724SOL     OW18070   5.228   1.699   6.928
 5724SOL    HW118071   5.140   1.675   6.970
 5724SOL    HW218072   5.253   1.629   6.861
 5725SOL     OW18073   5.039   5.875   6.164
 5725SOL    HW118074   5.030   5.886   6.263
 5725SOL    HW218075   4.950   5.886   6.120
 5726SOL     OW18076   4.551   3.387   6.129
 5726SOL    HW118077   4.607   3.374   6.047
 5726SOL    HW218078   4.603   3.356   6.210
 5727SOL     OW18079   5.952   1.941   3.793
 5727SOL    HW118080   6.001   1.998   3.859
 5727SOL    HW218081   5.981   1.846   3.802
 5728SOL     OW18082   5.971   0.802   6.419
 5728SOL    HW118083   5.995   0.898   6.403
 5728SOL    HW218084   6.013   0.745   6.347
 5729SOL     OW18085   0.894   2.884   5.277
 5729SOL    HW118086   0.832   2.858   5.351
 5729SOL    HW218087   0.919   2.803   5.224
 5730SOL     OW18088   4.653   5.090   6.679
 5730SOL    HW118089   4.692   4.998   6.673
 5730SOL    HW218090   4.563   5.085   6.722
 5731SOL     OW18091   3.784   1.031   4.681
 5731SOL    HW118092   3.852   1.097   4.711
 5731SOL    HW218093   3.698   1.048   4.728
 5732SOL     OW18094   5.777   4.154   4.084
 5732SOL    HW118095   5.762   4.064   4.043
 5732SOL    HW218096   5.738   4.155   4.176
 5733SOL     OW18097   2.765   0.408   0.665
 5733SOL    HW118098   2.836   0.338   0.661
 5733SOL    HW218099   2.782   0.469   0.743
 5734SOL     OW18100   2.154   5.901   6.371
 5734SOL    HW118101   2.075   5.859   6.325
 5734SOL    HW218102   2.196   5.834   6.432
 5735SOL     OW18103   4.514   0.819   1.533
 5735SOL    HW118104   4.494   0.760   1.611
 5735SOL    HW218105   4.462   0.904   1.541
 5736SOL     OW18106   5.335   4.087   0.080
 5736SOL    HW118107   5.358   4.168   0.134
 5736SOL    HW218108   5.276   4.027   0.134
 5737SOL     OW18109   4.083   5.252   1.071
 5737SOL    HW118110   4.007   5.279   1.012
 5737SOL    HW218111   4.054   5.177   1.131
 5738SOL     OW18112   2.856   0.550   0.452
 5738SOL    HW118113   2.796   0.492   0.508
 5738SOL    HW218114   2.901   0.618   0.510
 5739SOL     OW18115   1.851   0.874   5.743
 5739SOL    HW118116   1.784   0.937   5.782
 5739SOL    HW218117   1.931   0.925   5.712
 5740SOL     OW18118   5.067   3.321   2.006
 5740SOL    HW118119   5.033   3.401   2.055
 5740SOL    HW218120   5.033   3.238   2.051
 5741SOL     OW18121   0.452   3.600   4.119
 5741SOL    HW118122   0.495   3.536   4.183
 5741SOL    HW218123   0.465   3.567   4.026
 5742SOL     OW18124   5.264   0.503   3.314
 5742SOL    HW118125   5.297   0.412   3.338
 5742SOL    HW218126   5.334   0.551   3.261
 5743SOL     OW18127   4.135   4.576   0.245
 5743SOL    HW118128   4.143   4.664   0.198
 5743SOL    HW218129   4.038   4.557   0.264
 5744SOL     OW18130   5.489   6.796   2.891
 5744SOL    HW118131   5.397   6.797   2.852
 5744SOL    HW218132   5.482   6.785   2.990
 5745SOL     OW18133   1.625   2.342   1.868
 5745SOL    HW118134   1.716   2.383   1.867
 5745SOL    HW218135   1.572   2.381   1.943
 5746SOL     OW18136   4.364   6.910   3.297
 5746SOL    HW118137   4.446   6.858   3.274
 5746SOL    HW218138   4.382   7.008   3.285
 5747SOL     OW18139   0.590   6.019   1.163
 5747SOL    HW118140   0.606   6.060   1.073
 5747SOL    HW218141   0.539   5.934   1.154
 5748SOL     OW18142   0.339   5.947   0.722
 5748SOL    HW118143   0.437   5.967   0.728
 5748SOL    HW218144   0.300   5.941   0.814
 5749SOL     OW18145   1.619   5.866   5.996
 5749SOL    HW118146   1.701   5.895   6.046
 5749SOL    HW218147   1.573   5.794   6.048
 5750SOL     OW18148   6.470   3.861   3.785
 5750SOL    HW118149   6.477   3.957   3.760
 5750SOL    HW218150   6.442   3.854   3.881
 5751SOL     OW18151   1.755   3.710   4.586
 5751SOL    HW118152   1.774   3.644   4.658
 5751SOL    HW218153   1.812   3.790   4.598
 5752SOL     OW18154   4.760   0.070   0.622
 5752SOL    HW118155   4.779   0.025   0.709
 5752SOL    HW218156   4.804   0.159   0.621
 5753SOL     OW18157   3.948   4.129   5.172
 5753SOL    HW118158   3.899   4.149   5.257
 5753SOL    HW218159   3.965   4.214   5.122
 5754SOL     OW18160   0.892   5.616   1.558
 5754SOL    HW118161   0.903   5.546   1.628
 5754SOL    HW218162   0.852   5.698   1.599
 5755SOL     OW18163   1.015   2.445   6.773
 5755SOL    HW118164   1.101   2.473   6.816
 5755SOL    HW218165   0.939   2.493   6.817
 5756SOL     OW18166   5.947   5.956   1.300
 5756SOL    HW118167   5.939   5.965   1.399
 5756SOL    HW218168   6.043   5.965   1.273
 5757SOL     OW18169   6.534   0.320   4.380
 5757SOL    HW118170   6.502   0.289   4.290
 5757SOL    HW218171   6.597   0.253   4.418
 5758SOL     OW18172   6.152   6.907   2.733
 5758SOL    HW118173   6.069   6.887   2.784
 5758SOL    HW218174   6.230   6.908   2.795
 5759SOL     OW18175   3.878   0.170   1.180
 5759SOL    HW118176   3.796   0.140   1.132
 5759SOL    HW218177   3.916   0.093   1.233
 5760SOL     OW18178   0.605   3.178   0.908
 5760SOL    HW118179   0.526   3.204   0.963
 5760SOL    HW218180   0.608   3.079   0.898
 5761SOL     OW18181   5.975   0.132   4.370
 5761SOL    HW118182   6.062   0.170   4.405
 5761SOL    HW218183   5.943   0.060   4.432
 5762SOL     OW18184   6.555   5.714   0.010
 5762SOL    HW118185   6.603   5.632   6.999
 5762SOL    HW218186   6.498   5.693   0.089
 5763SOL     OW18187   6.173   0.022   6.728
 5763SOL    HW118188   6.125   6.953   6.737
 5763SOL    HW218189   6.205   0.033   6.633
 5764SOL     OW18190   4.678   6.750   4.107
 5764SOL    HW118191   4.738   6.829   4.121
 5764SOL    HW218192   4.584   6.776   4.128
 5765SOL     OW18193   6.210   5.092   1.881
 5765SOL    HW118194   6.276   5.072   1.952
 5765SOL    HW218195   6.221   5.027   1.805
 5766SOL     OW18196   0.230   1.602   4.311
 5766SOL    HW118197   0.249   1.520   4.257
 5766SOL    HW218198   0.158   1.655   4.266
 5767SOL     OW18199   3.248   6.908   6.925
 5767SOL    HW118200   3.324   6.953   6.877
 5767SOL    HW218201   3.249   6.810   6.906
 5768SOL     OW18202   0.357   0.528   4.372
 5768SOL    HW118203   0.428   0.567   4.314
 5768SOL    HW218204   0.270   0.576   4.356
 5769SOL     OW18205   1.400   4.249   6.545
 5769SOL    HW118206   1.408   4.349   6.545
 5769SOL    HW218207   1.474   4.210   6.490
 5770SOL     OW18208   1.723   4.804   1.541
 5770SOL    HW118209   1.669   4.726   1.510
 5770SOL    HW218210   1.788   4.775   1.611
 5771SOL     OW18211   3.142   5.379   3.456
 5771SOL    HW118212   3.110   5.328   3.376
 5771SOL    HW218213   3.094   5.347   3.538
 5772SOL     OW18214   3.206   0.683   1.978
 5772SOL    HW118215   3.284   0.734   1.943
 5772SOL    HW218216   3.154   0.740   2.042
 5773SOL     OW18217   4.449   2.100   2.981
 5773SOL    HW118218   4.372   2.070   2.926
 5773SOL    HW218219   4.520   2.029   2.981
 5774SOL     OW18220   0.208   6.918   2.279
 5774SOL    HW118221   0.178   6.986   2.212
 5774SOL    HW218222   0.294   6.948   2.321
 5775SOL     OW18223   6.285   5.658   2.237
 5775SOL    HW118224   6.295   5.645   2.138
 5775SOL    HW218225   6.368   5.700   2.273
 5776SOL     OW18226   3.059   0.884   3.768
 5776SOL    HW118227   3.146   0.933   3.770
 5776SOL    HW218228   3.070   0.797   3.721
 5777SOL     OW18229   1.518   6.224   3.090
 5777SOL    HW118230   1.554   6.216   3.184
 5777SOL    HW218231   1.531   6.138   3.042
 5778SOL     OW18232   0.532   1.633   0.541
 5778SOL    HW118233   0.625   1.663   0.561
 5778SOL    HW218234   0.475   1.711   0.516
 5779SOL     OW18235   6.159   1.746   6.277
 5779SOL    HW118236   6.165   1.669   6.342
 5779SOL    HW218237   6.249   1.790   6.270
 5780SOL     OW18238   5.090   5.856   3.785
 5780SOL    HW118239   5.076   5.858   3.884
 5780SOL    HW218240   5.069   5.765   3.750
 5781SOL     OW18241   0.680   4.469   5.005
 5781SOL    HW118242   0.755   4.466   5.071
 5781SOL    HW218243   0.677   4.382   4.955
 5782SOL     OW18244   0.755   0.943   0.202
 5782SOL    HW118245   0.661   0.966   0.230
 5782SOL    HW218246   0.771   0.845   0.214
 5783SOL     OW18247   1.769   1.811   1.388
 5783SOL    HW118248   1.820   1.746   1.443
 5783SOL    HW218249   1.687   1.841   1.438
 5784SOL     OW18250   6.821   6.705   6.223
 5784SOL    HW118251   6.828   6.756   6.138
 5784SOL    HW218252   6.814   6.607   6.203
 5785SOL     OW18253   1.329   1.744   1.056
 5785SOL    HW118254   1.304   1.840   1.058
 5785SOL    HW218255   1.426   1.735   1.034
 5786SOL     OW18256   6.213   4.330   0.673
 5786SOL    HW118257   6.286   4.294   0.732
 5786SOL    HW218258   6.229   4.427   0.656
 5787SOL     OW18259   3.161   2.098   5.920
 5787SOL    HW118260   3.228   2.172   5.918
 5787SOL    HW218261   3.141   2.068   5.826
 5788SOL     OW18262   2.665   1.150   3.510
 5788SOL    HW118263   2.756   1.108   3.511
 5788SOL    HW218264   2.627   1.150   3.603
 5789SOL     OW18265   4.208   5.276   6.270
 5789SOL    HW118266   4.158   5.190   6.262
 5789SOL    HW218267   4.198   5.312   6.363
 5790SOL     OW18268   0.372   2.462   3.602
 5790SOL    HW118269   0.379   2.561   3.594
 5790SOL    HW218270   0.278   2.434   3.587
 5791SOL     OW18271   2.691   0.667   2.407
 5791SOL    HW118272   2.766   0.717   2.366
 5791SOL    HW218273   2.668   0.587   2.352
 5792SOL     OW18274   7.011   2.395   2.998
 5792SOL    HW118275   0.084   2.425   3.026
 5792SOL    HW218276   6.952   2.388   3.079
 5793SOL     OW18277   6.604   0.837   3.678
 5793SOL    HW118278   6.537   0.901   3.715
 5793SOL    HW218279   6.648   0.877   3.598
 5794SOL     OW18280   4.123   3.895   7.016
 5794SOL    HW118281   4.136   3.803   6.981
 5794SOL    HW218282   4.211   3.932   0.028
 5795SOL     OW18283   6.021   3.980   6.084
 5795SOL    HW118284   6.016   4.050   6.013
 5795SOL    HW218285   6.112   3.981   6.125
 5796SOL     OW18286   3.575   1.648   0.135
 5796SOL    HW118287   3.476   1.650   0.122
 5796SOL    HW218288   3.619   1.645   0.045
 5797SOL     OW18289   3.176   1.762   4.800
 5797SOL    HW118290   3.112   1.824   4.755
 5797SOL    HW218291   3.181   1.782   4.897
 5798SOL     OW18292   6.764   4.394   4.651
 5798SOL    HW118293   6.858   4.362   4.663
 5798SOL    HW218294   6.710   4.371   4.732
 5799SOL     OW18295   5.577   0.314   3.903
 5799SOL    HW118296   5.550   0.257   3.980
 5799SOL    HW218297   5.503   0.318   3.836
 5800SOL     OW18298   5.642   4.781   0.670
 5800SOL    HW118299   5.701   4.850   0.714
 5800SOL    HW218300   5.640   4.699   0.727
 5801SOL     OW18301   1.859   1.133   3.683
 5801SOL    HW118302   1.892   1.079   3.761
 5801SOL    HW218303   1.760   1.146   3.692
 5802SOL     OW18304   0.396   4.108   5.577
 5802SOL    HW118305   0.372   4.015   5.605
 5802SOL    HW218306   0.389   4.116   5.478
 5803SOL     OW18307   0.861   4.696   0.663
 5803SOL    HW118308   0.787   4.702   0.596
 5803SOL    HW218309   0.942   4.658   0.619
 5804SOL     OW18310   6.207   4.363   4.436
 5804SOL    HW118311   6.237   4.356   4.341
 5804SOL    HW218312   6.111   4.337   4.442
 5805SOL     OW18313   4.979   3.395   6.441
 5805SOL    HW118314   4.951   3.385   6.536
 5805SOL    HW218315   5.021   3.310   6.409
 5806SOL     OW18316   0.794   6.250   7.001
 5806SOL    HW118317   0.743   6.164   6.994
 5806SOL    HW218318   0.793   6.296   6.912
 5807SOL     OW18319   1.576   3.254   1.712
 5807SOL    HW118320   1.500   3.226   1.654
 5807SOL    HW218321   1.659   3.205   1.686
 5808SOL     OW18322   6.172   3.339   2.270
 5808SOL    HW118323   6.134   3.267   2.212
 5808SOL    HW218324   6.099   3.377   2.327
 5809SOL     OW18325   0.085   3.907   4.503
 5809SOL    HW118326   0.047   3.965   4.431
 5809SOL    HW218327   0.016   3.842   4.535
 5810SOL     OW18328   2.742   1.660   2.307
 5810SOL    HW118329   2.815   1.650   2.240
 5810SOL    HW218330   2.657   1.687   2.261
 5811SOL     OW18331   3.114   0.846   4.146
 5811SOL    HW118332   3.036   0.830   4.206
 5811SOL    HW218333   3.096   0.807   4.056
 5812SOL     OW18334   4.826   0.602   4.133
 5812SOL    HW118335   4.829   0.525   4.069
 5812SOL    HW218336   4.918   0.623   4.165
 5813SOL     OW18337   1.688   0.645   5.441
 5813SOL    HW118338   1.590   0.627   5.455
 5813SOL    HW218339   1.705   0.657   5.343
 5814SOL     OW18340   0.171   5.066   1.805
 5814SOL    HW118341   0.166   5.014   1.720
 5814SOL    HW218342   0.093   5.042   1.864
 5815SOL     OW18343   4.094   1.328   3.205
 5815SOL    HW118344   4.071   1.400   3.270
 5815SOL    HW218345   4.011   1.293   3.163
 5816SOL     OW18346   4.689   0.580   0.419
 5816SOL    HW118347   4.708   0.553   0.324
 5816SOL    HW218348   4.610   0.528   0.453
 5817SOL     OW18349   4.725   2.984   5.558
 5817SOL    HW118350   4.726   2.967   5.460
 5817SOL    HW218351   4.819   2.993   5.591
 5818SOL     OW18352   6.357   6.849   6.207
 5818SOL    HW118353   6.438   6.846   6.265
 5818SOL    HW218354   6.286   6.789   6.245
 5819SOL     OW18355   5.758   0.393   1.673
 5819SOL    HW118356   5.717   0.438   1.752
 5819SOL    HW218357   5.714   0.425   1.589
 5820SOL     OW18358   5.619   6.332   3.392
 5820SOL    HW118359   5.550   6.279   3.442
 5820SOL    HW218360   5.706   6.327   3.440
 5821SOL     OW18361   2.545   1.177   1.874
 5821SOL    HW118362   2.603   1.169   1.793
 5821SOL    HW218363   2.467   1.237   1.854
 5822SOL     OW18364   6.973   1.655   1.750
 5822SOL    HW118365   6.950   1.605   1.834
 5822SOL    HW218366   0.039   1.706   1.763
 5823SOL     OW18367   2.399   1.899   4.118
 5823SOL    HW118368   2.304   1.930   4.116
 5823SOL    HW218369   2.460   1.978   4.108
 5824SOL     OW18370   5.585   0.029   3.725
 5824SOL    HW118371   5.659   6.980   3.719
 5824SOL    HW218372   5.538   0.019   3.813
 5825SOL     OW18373   2.354   0.736   0.327
 5825SOL    HW118374   2.303   0.750   0.412
 5825SOL    HW218375   2.323   0.803   0.259
 5826SOL     OW18376   6.678   6.997   5.049
 5826SOL    HW118377   6.751   6.933   5.074
 5826SOL    HW218378   6.590   6.952   5.061
 5827SOL     OW18379   0.766   5.791   4.913
 5827SOL    HW118380   0.810   5.812   5.001
 5827SOL    HW218381   0.743   5.694   4.910
 5828SOL     OW18382   0.276   3.428   1.969
 5828SOL    HW118383   0.358   3.458   1.920
 5828SOL    HW218384   0.253   3.335   1.941
 5829SOL     OW18385   2.151   1.687   1.673
 5829SOL    HW118386   2.209   1.717   1.597
 5829SOL    HW218387   2.207   1.674   1.755
 5830SOL     OW18388   3.148   1.478   6.104
 5830SOL    HW118389   3.128   1.561   6.156
 5830SOL    HW218390   3.223   1.495   6.041
 5831SOL     OW18391   5.456   6.867   3.368
 5831SOL    HW118392   5.463   6.804   3.445
 5831SOL    HW218393   5.389   6.938   3.389
 5832SOL     OW18394   4.101   3.892   5.269
 5832SOL    HW118395   4.066   3.973   5.220
 5832SOL    HW218396   4.122   3.917   5.364
 5833SOL     OW18397   3.389   3.573   4.535
 5833SOL    HW118398   3.327   3.652   4.537
 5833SOL    HW218399   3.375   3.524   4.449
 5834SOL     OW18400   5.913   1.248   1.025
 5834SOL    HW118401   5.843   1.318   1.042
 5834SOL    HW218402   5.983   1.253   1.097
 5835SOL     OW18403   4.970   2.361   3.874
 5835SOL    HW118404   5.061   2.333   3.842
 5835SOL    HW218405   4.919   2.401   3.798
 5836SOL     OW18406   3.750   5.877   2.235
 5836SOL    HW118407   3.816   5.905   2.304
 5836SOL    HW218408   3.730   5.954   2.175
 5837SOL     OW18409   4.632   4.073   0.162
 5837SOL    HW118410   4.610   4.001   0.096
 5837SOL    HW218411   4.662   4.155   0.112
 5838SOL     OW18412   1.004   1.143   5.239
 5838SOL    HW118413   1.010   1.109   5.145
 5838SOL    HW218414   1.047   1.077   5.301
 5839SOL     OW18415   6.380   2.990   2.745
 5839SOL    HW118416   6.404   3.087   2.737
 5839SOL    HW218417   6.336   2.959   2.661
 5840SOL     OW18418   1.452   5.377   7.001
 5840SOL    HW118419   1.502   5.464   6.994
 5840SOL    HW218420   1.424   5.363   0.077
 5841SOL     OW18421   6.471   2.618   3.592
 5841SOL    HW118422   6.569   2.629   3.574
 5841SOL    HW218423   6.424   2.597   3.506
 5842SOL     OW18424   3.721   2.865   1.233
 5842SOL    HW118425   3.678   2.947   1.270
 5842SOL    HW218426   3.703   2.858   1.135
 5843SOL     OW18427   1.851   3.621   2.312
 5843SOL    HW118428   1.950   3.619   2.319
 5843SOL    HW218429   1.816   3.708   2.348
 5844SOL     OW18430   0.929   6.304   6.677
 5844SOL    HW118431   0.952   6.390   6.631
 5844SOL    HW218432   1.014   6.259   6.707
 5845SOL     OW18433   0.343   2.444   4.201
 5845SOL    HW118434   0.380   2.406   4.116
 5845SOL    HW218435   0.378   2.391   4.279
 5846SOL     OW18436   0.160   2.446   5.402
 5846SOL    HW118437   0.220   2.524   5.418
 5846SOL    HW218438   0.086   2.446   5.470
 5847SOL     OW18439   2.274   2.818   2.298
 5847SOL    HW118440   2.185   2.773   2.305
 5847SOL    HW218441   2.275   2.876   2.216
 5848SOL     OW18442   0.846   4.400   3.410
 5848SOL    HW118443   0.857   4.321   3.470
 5848SOL    HW218444   0.872   4.376   3.316
 5849SOL     OW18445   2.570   0.213   5.596
 5849SOL    HW118446   2.660   0.203   5.639
 5849SOL    HW218447   2.530   0.301   5.622
 5850SOL     OW18448   0.481   4.579   2.196
 5850SOL    HW118449   0.401   4.589   2.136
 5850SOL    HW218450   0.454   4.593   2.291
 5851SOL     OW18451   6.498   3.748   2.169
 5851SOL    HW118452   6.492   3.844   2.140
 5851SOL    HW218453   6.406   3.713   2.189
 5852SOL     OW18454   4.236   5.988   2.445
 5852SOL    HW118455   4.285   5.983   2.359
 5852SOL    HW218456   4.231   5.897   2.486
 5853SOL     OW18457   3.288   4.412   5.998
 5853SOL    HW118458   3.247   4.429   6.088
 5853SOL    HW218459   3.329   4.496   5.963
 5854SOL     OW18460   0.095   1.234   6.056
 5854SOL    HW118461   0.132   1.324   6.037
 5854SOL    HW218462   0.031   1.207   5.984
 5855SOL     OW18463   1.265   1.044   4.420
 5855SOL    HW118464   1.188   0.982   4.437
 5855SOL    HW218465   1.242   1.135   4.455
 5856SOL     OW18466   1.632   4.615   3.601
 5856SOL    HW118467   1.614   4.571   3.688
 5856SOL    HW218468   1.647   4.546   3.531
 5857SOL     OW18469   6.678   3.194   5.638
 5857SOL    HW118470   6.764   3.198   5.691
 5857SOL    HW218471   6.623   3.275   5.657
 5858SOL     OW18472   3.866   1.204   3.123
 5858SOL    HW118473   3.833   1.111   3.140
 5858SOL    HW218474   3.866   1.221   3.024
 5859SOL     OW18475   5.845   6.510   0.688
 5859SOL    HW118476   5.800   6.422   0.706
 5859SOL    HW218477   5.777   6.577   0.660
 5860SOL     OW18478   1.550   4.118   1.656
 5860SOL    HW118479   1.615   4.042   1.652
 5860SOL    HW218480   1.481   4.107   1.585
 5861SOL     OW18481   5.967   2.489   4.094
 5861SOL    HW118482   5.943   2.448   4.182
 5861SOL    HW218483   5.932   2.583   4.090
 5862SOL     OW18484   4.326   4.704   2.832
 5862SOL    HW118485   4.392   4.712   2.756
 5862SOL    HW218486   4.233   4.707   2.796
 5863SOL     OW18487   2.110   1.019   6.593
 5863SOL    HW118488   2.145   1.069   6.672
 5863SOL    HW218489   2.172   0.944   6.570
 5864SOL     OW18490   4.523   4.542   1.448
 5864SOL    HW118491   4.481   4.458   1.484
 5864SOL    HW218492   4.469   4.621   1.475
 5865SOL     OW18493   4.834   0.905   3.579
 5865SOL    HW118494   4.776   0.981   3.550
 5865SOL    HW218495   4.884   0.869   3.501
 5866SOL     OW18496   4.141   6.902   5.767
 5866SOL    HW118497   4.084   6.972   5.808
 5866SOL    HW218498   4.083   6.830   5.728
 5867SOL     OW18499   0.630   3.095   1.730
 5867SOL    HW118500   0.723   3.082   1.766
 5867SOL    HW218501   0.565   3.090   1.806
 5868SOL     OW18502   1.803   6.848   5.376
 5868SOL    HW118503   1.718   6.811   5.340
 5868SOL    HW218504   1.861   6.877   5.299
 5869SOL     OW18505   2.747   4.837   4.387
 5869SOL    HW118506   2.837   4.877   4.403
 5869SOL    HW218507   2.740   4.749   4.433
 5870SOL     OW18508   4.905   5.290   4.606
 5870SOL    HW118509   4.973   5.270   4.676
 5870SOL    HW218510   4.945   5.350   4.537
 5871SOL     OW18511   3.636   3.167   0.103
 5871SOL    HW118512   3.588   3.197   0.186
 5871SOL    HW218513   3.730   3.202   0.105
 5872SOL     OW18514   3.274   5.768   5.674
 5872SOL    HW118515   3.328   5.761   5.758
 5872SOL    HW218516   3.236   5.678   5.651
 5873SOL     OW18517   3.059   3.542   6.901
 5873SOL    HW118518   3.118   3.564   6.978
 5873SOL    HW218519   3.115   3.507   6.825
 5874SOL     OW18520   2.034   3.419   1.256
 5874SOL    HW118521   2.071   3.421   1.349
 5874SOL    HW218522   2.009   3.325   1.232
 5875SOL     OW18523   3.097   1.473   0.224
 5875SOL    HW118524   3.052   1.442   0.140
 5875SOL    HW218525   3.059   1.561   0.252
 5876SOL     OW18526   3.120   3.706   6.446
 5876SOL    HW118527   3.212   3.742   6.435
 5876SOL    HW218528   3.078   3.746   6.527
 5877SOL     OW18529   6.649   0.290   2.762
 5877SOL    HW118530   6.714   0.311   2.689
 5877SOL    HW218531   6.691   0.227   2.827
 5878SOL     OW18532   4.751   4.888   2.665
 5878SOL    HW118533   4.798   4.814   2.617
 5878SOL    HW218534   4.712   4.951   2.598
 5879SOL     OW18535   3.815   3.384   5.936
 5879SOL    HW118536   3.805   3.323   6.015
 5879SOL    HW218537   3.830   3.329   5.854
 5880SOL     OW18538   4.515   2.628   6.006
 5880SOL    HW118539   4.445   2.596   5.942
 5880SOL    HW218540   4.604   2.628   5.960
 5881SOL     OW18541   1.233   6.348   2.350
 5881SOL    HW118542   1.258   6.351   2.447
 5881SOL    HW218543   1.299   6.291   2.301
 5882SOL     OW18544   1.676   5.598   5.776
 5882SOL    HW118545   1.719   5.520   5.729
 5882SOL    HW218546   1.725   5.682   5.752
 5883SOL     OW18547   0.068   4.464   1.400
 5883SOL    HW118548   0.112   4.434   1.316
 5883SOL    HW218549   0.120   4.431   1.479
 5884SOL     OW18550   6.391   1.831   3.631
 5884SOL    HW118551   6.374   1.816   3.534
 5884SOL    HW218552   6.346   1.915   3.660
 5885SOL     OW18553   0.377   4.949   6.736
 5885SOL    HW118554   0.398   4.862   6.690
 5885SOL    HW218555   0.278   4.961   6.740
 5886SOL     OW18556   1.997   3.948   3.625
 5886SOL    HW118557   1.934   3.965   3.549
 5886SOL    HW218558   2.054   4.029   3.640
 5887SOL     OW18559   2.325   2.795   1.189
 5887SOL    HW118560   2.277   2.870   1.236
 5887SOL    HW218561   2.258   2.740   1.139
 5888SOL     OW18562   3.219   6.755   0.847
 5888SOL    HW118563   3.173   6.707   0.922
 5888SOL    HW218564   3.307   6.712   0.829
 5889SOL     OW18565   6.595   0.623   2.018
 5889SOL    HW118566   6.647   0.694   1.970
 5889SOL    HW218567   6.568   0.552   1.953
 5890SOL     OW18568   2.840   6.580   2.747
 5890SOL    HW118569   2.935   6.611   2.749
 5890SOL    HW218570   2.794   6.621   2.668
 5891SOL     OW18571   2.811   3.388   0.800
 5891SOL    HW118572   2.832   3.462   0.865
 5891SOL    HW218573   2.842   3.301   0.838
 5892SOL     OW18574   1.112   4.052   1.112
 5892SOL    HW118575   1.094   3.992   1.189
 5892SOL    HW218576   1.191   4.019   1.060
 5893SOL     OW18577   0.527   6.129   2.179
 5893SOL    HW118578   0.458   6.063   2.208
 5893SOL    HW218579   0.576   6.164   2.259
 5894SOL     OW18580   1.925   5.360   5.764
 5894SOL    HW118581   1.853   5.356   5.694
 5894SOL    HW218582   2.014   5.348   5.721
 5895SOL     OW18583   5.230   2.823   4.595
 5895SOL    HW118584   5.221   2.908   4.542
 5895SOL    HW218585   5.321   2.820   4.636
 5896SOL     OW18586   5.382   2.175   2.003
 5896SOL    HW118587   5.296   2.196   2.050
 5896SOL    HW218588   5.418   2.089   2.037
 5897SOL     OW18589   4.117   2.444   0.554
 5897SOL    HW118590   4.083   2.535   0.576
 5897SOL    HW218591   4.192   2.420   0.615
 5898SOL     OW18592   2.028   1.394   5.777
 5898SOL    HW118593   1.985   1.390   5.867
 5898SOL    HW218594   2.123   1.366   5.785
 5899SOL     OW18595   6.621   5.401   5.878
 5899SOL    HW118596   6.645   5.314   5.834
 5899SOL    HW218597   6.522   5.403   5.895
 5900SOL     OW18598   5.832   6.217   3.589
 5900SOL    HW118599   5.929   6.238   3.577
 5900SOL    HW218600   5.814   6.122   3.563
 5901SOL     OW18601   1.942   0.604   5.545
 5901SOL    HW118602   1.843   0.620   5.549
 5901SOL    HW218603   1.967   0.536   5.615
 5902SOL     OW18604   4.782   4.347   5.408
 5902SOL    HW118605   4.793   4.249   5.387
 5902SOL    HW218606   4.698   4.380   5.366
 5903SOL     OW18607   6.449   2.222   5.481
 5903SOL    HW118608   6.464   2.169   5.564
 5903SOL    HW218609   6.448   2.319   5.503
 5904SOL     OW18610   1.823   4.386   2.104
 5904SOL    HW118611   1.888   4.341   2.167
 5904SOL    HW218612   1.865   4.467   2.065
 5905SOL     OW18613   6.106   1.794   4.389
 5905SOL    HW118614   6.172   1.869   4.384
 5905SOL    HW218615   6.153   1.711   4.419
 5906SOL     OW18616   4.700   0.860   5.432
 5906SOL    HW118617   4.733   0.772   5.469
 5906SOL    HW218618   4.765   0.932   5.455
 5907SOL     OW18619   1.840   3.270   6.330
 5907SOL    HW118620   1.826   3.356   6.380
 5907SOL    HW218621   1.926   3.275   6.280
 5908SOL     OW18622   4.790   2.609   5.949
 5908SOL    HW118623   4.821   2.653   6.033
 5908SOL    HW218624   4.838   2.522   5.936
 5909SOL     OW18625   6.907   5.258   4.075
 5909SOL    HW118626   6.823   5.301   4.110
 5909SOL    HW218627   6.955   5.213   4.150
 5910SOL     OW18628   1.888   3.666   1.295
 5910SOL    HW118629   1.931   3.722   1.365
 5910SOL    HW218630   1.944   3.586   1.276
 5911SOL     OW18631   5.958   6.626   6.414
 5911SOL    HW118632   6.029   6.646   6.346
 5911SOL    HW218633   5.983   6.670   6.501
 5912SOL     OW18634   6.388   3.612   6.879
 5912SOL    HW118635   6.351   3.533   6.830
 5912SOL    HW218636   6.342   3.695   6.849
 5913SOL     OW18637   1.349   1.833   6.115
 5913SOL    HW118638   1.306   1.765   6.174
 5913SOL    HW218639   1.366   1.794   6.025
 5914SOL     OW18640   2.339   6.193   0.669
 5914SOL    HW118641   2.257   6.137   0.681
 5914SOL    HW218642   2.404   6.144   0.610
 5915SOL     OW18643   5.081   3.174   2.665
 5915SOL    HW118644   5.017   3.211   2.598
 5915SOL    HW218645   5.133   3.099   2.624
 5916SOL     OW18646   3.244   0.805   5.874
 5916SOL    HW118647   3.344   0.804   5.871
 5916SOL    HW218648   3.209   0.714   5.855
 5917SOL     OW18649   3.287   3.340   3.163
 5917SOL    HW118650   3.332   3.305   3.245
 5917SOL    HW218651   3.333   3.303   3.082
 5918SOL     OW18652   2.128   3.072   4.310
 5918SOL    HW118653   2.185   3.151   4.334
 5918SOL    HW218654   2.134   3.055   4.212
 5919SOL     OW18655   1.405   3.290   6.819
 5919SOL    HW118656   1.398   3.258   6.913
 5919SOL    HW218657   1.313   3.301   6.781
 5920SOL     OW18658   3.646   6.469   6.733
 5920SOL    HW118659   3.554   6.433   6.748
 5920SOL    HW218660   3.692   6.414   6.664
 5921SOL     OW18661   3.957   5.305   5.269
 5921SOL    HW118662   3.882   5.371   5.258
 5921SOL    HW218663   3.975   5.261   5.181
 5922SOL     OW18664   5.632   3.966   2.080
 5922SOL    HW118665   5.716   3.987   2.030
 5922SOL    HW218666   5.655   3.930   2.170
 5923SOL     OW18667   0.390   0.044   4.201
 5923SOL    HW118668   0.407   0.016   4.296
 5923SOL    HW218669   0.353   0.137   4.200
 5924SOL     OW18670   5.585   2.043   4.428
 5924SOL    HW118671   5.523   2.108   4.385
 5924SOL    HW218672   5.680   2.064   4.402
 5925SOL     OW18673   5.716   6.248   1.241
 5925SOL    HW118674   5.752   6.258   1.334
 5925SOL    HW218675   5.786   6.206   1.182
 5926SOL     OW18676   3.570   5.079   1.720
 5926SOL    HW118677   3.577   5.178   1.703
 5926SOL    HW218678   3.542   5.064   1.815
 5927SOL     OW18679   2.869   5.926   2.853
 5927SOL    HW118680   2.965   5.902   2.869
 5927SOL    HW218681   2.829   5.961   2.937
 5928SOL     OW18682   1.296   6.653   1.761
 5928SOL    HW118683   1.336   6.660   1.670
 5928SOL    HW218684   1.302   6.742   1.807
 5929SOL     OW18685   1.242   0.111   6.023
 5929SOL    HW118686   1.198   0.029   5.986
 5929SOL    HW218687   1.330   0.087   6.063
 5930SOL     OW18688   6.781   1.859   4.719
 5930SOL    HW118689   6.729   1.920   4.779
 5930SOL    HW218690   6.872   1.843   4.758
 5931SOL     OW18691   6.342   5.228   1.465
 5931SOL    HW118692   6.277   5.152   1.465
 5931SOL    HW218693   6.415   5.210   1.399
 5932SOL     OW18694   2.884   6.460   0.373
 5932SOL    HW118695   2.822   6.400   0.321
 5932SOL    HW218696   2.840   6.549   0.386
 5933SOL     OW18697   6.311   3.732   2.829
 5933SOL    HW118698   6.230   3.732   2.770
 5933SOL    HW218699   6.389   3.768   2.778
 5934SOL     OW18700   3.039   3.713   2.999
 5934SOL    HW118701   3.131   3.719   3.038
 5934SOL    HW218702   3.041   3.747   2.905
 5935SOL     OW18703   3.667   3.169   3.783
 5935SOL    HW118704   3.692   3.253   3.832
 5935SOL    HW218705   3.630   3.193   3.694
 5936SOL     OW18706   5.040   5.816   6.471
 5936SOL    HW118707   4.969   5.856   6.530
 5936SOL    HW218708   5.002   5.738   6.421
 5937SOL     OW18709   1.764   3.780   0.857
 5937SOL    HW118710   1.864   3.789   0.858
 5937SOL    HW218711   1.739   3.689   0.892
 5938SOL     OW18712   1.967   4.664   1.713
 5938SOL    HW118713   1.984   4.758   1.683
 5938SOL    HW218714   1.948   4.663   1.811
 5939SOL     OW18715   3.334   0.602   3.484
 5939SOL    HW118716   3.310   0.691   3.523
 5939SOL    HW218717   3.271   0.533   3.517
 5940SOL     OW18718   3.738   5.818   3.224
 5940SOL    HW118719   3.719   5.742   3.286
 5940SOL    HW218720   3.680   5.896   3.249
 5941SOL     OW18721   6.372   4.752   2.230
 5941SOL    HW118722   6.413   4.733   2.141
 5941SOL    HW218723   6.359   4.667   2.280
 5942SOL     OW18724   4.902   2.219   5.674
 5942SOL    HW118725   4.854   2.148   5.725
 5942SOL    HW218726   4.973   2.178   5.617
 5943SOL     OW18727   1.460   6.059   0.410
 5943SOL    HW118728   1.429   6.101   0.495
 5943SOL    HW218729   1.467   5.960   0.423
 5944SOL     OW18730   4.723   1.528   2.560
 5944SOL    HW118731   4.700   1.538   2.463
 5944SOL    HW218732   4.817   1.493   2.569
 5945SOL     OW18733   6.975   4.666   5.264
 5945SOL    HW118734   0.022   4.667   5.340
 5945SOL    HW218735   0.000   4.702   5.182
 5946SOL     OW18736   3.915   3.057   5.507
 5946SOL    HW118737   3.956   2.966   5.513
 5946SOL    HW218738   3.816   3.048   5.495
 5947SOL     OW18739   4.298   3.397   1.724
 5947SOL    HW118740   4.391   3.431   1.712
 5947SOL    HW218741   4.239   3.471   1.757
 5948SOL     OW18742   3.481   4.950   2.182
 5948SOL    HW118743   3.506   4.873   2.123
 5948SOL    HW218744   3.396   4.928   2.231
 5949SOL     OW18745   4.527   4.847   1.714
 5949SOL    HW118746   4.498   4.792   1.791
 5949SOL    HW218747   4.578   4.927   1.747
 5950SOL     OW18748   5.780   2.652   3.853
 5950SOL    HW118749   5.763   2.680   3.948
 5950SOL    HW218750   5.872   2.679   3.826
 5951SOL     OW18751   1.744   5.331   3.671
 5951SOL    HW118752   1.671   5.368   3.613
 5951SOL    HW218753   1.822   5.305   3.614
 5952SOL     OW18754   0.237   6.844   4.809
 5952SOL    HW118755   0.269   6.810   4.720
 5952SOL    HW218756   0.142   6.815   4.823
 5953SOL     OW18757   0.412   3.296   6.594
 5953SOL    HW118758   0.485   3.229   6.579
 5953SOL    HW218759   0.349   3.295   6.517
 5954SOL     OW18760   0.374   5.198   6.882
 5954SOL    HW118761   0.459   5.207   6.934
 5954SOL    HW218762   0.377   5.115   6.826
 5955SOL     OW18763   5.346   5.412   2.221
 5955SOL    HW118764   5.301   5.324   2.212
 5955SOL    HW218765   5.433   5.401   2.270
 5956SOL     OW18766   5.551   2.156   0.002
 5956SOL    HW118767   5.538   2.213   6.939
 5956SOL    HW218768   5.464   2.147   0.051
 5957SOL     OW18769   5.884   6.829   6.151
 5957SOL    HW118770   5.917   6.751   6.204
 5957SOL    HW218771   5.879   6.805   6.054
 5958SOL     OW18772   6.939   5.008   1.944
 5958SOL    HW118773   6.922   5.041   2.037
 5958SOL    HW218774   6.988   4.921   1.948
 5959SOL     OW18775   2.199   1.638   6.146
 5959SOL    HW118776   2.293   1.667   6.165
 5959SOL    HW218777   2.186   1.632   6.047
 5960SOL     OW18778   3.048   0.661   3.618
 5960SOL    HW118779   3.059   0.562   3.611
 5960SOL    HW218780   2.988   0.693   3.545
 5961SOL     OW18781   2.822   0.757   5.783
 5961SOL    HW118782   2.885   0.724   5.713
 5961SOL    HW218783   2.852   0.847   5.816
 5962SOL     OW18784   4.815   5.480   2.189
 5962SOL    HW118785   4.842   5.536   2.111
 5962SOL    HW218786   4.716   5.483   2.201
 5963SOL     OW18787   4.087   3.644   2.332
 5963SOL    HW118788   4.178   3.651   2.374
 5963SOL    HW218789   4.041   3.733   2.337
 5964SOL     OW18790   0.622   4.880   5.425
 5964SOL    HW118791   0.613   4.813   5.498
 5964SOL    HW218792   0.567   4.960   5.446
 5965SOL     OW18793   2.878   2.299   5.524
 5965SOL    HW118794   2.823   2.244   5.461
 5965SOL    HW218795   2.943   2.355   5.472
 5966SOL     OW18796   2.540   5.964   3.746
 5966SOL    HW118797   2.614   5.902   3.722
 5966SOL    HW218798   2.551   6.050   3.695
 5967SOL     OW18799   4.895   6.749   2.215
 5967SOL    HW118800   4.825   6.712   2.154
 5967SOL    HW218801   4.856   6.821   2.272
 5968SOL     OW18802   0.382   2.869   4.794
 5968SOL    HW118803   0.354   2.785   4.840
 5968SOL    HW218804   0.305   2.906   4.742
 5969SOL     OW18805   5.731   3.595   3.426
 5969SOL    HW118806   5.753   3.620   3.520
 5969SOL    HW218807   5.792   3.522   3.396
 5970SOL     OW18808   1.388   2.848   3.254
 5970SOL    HW118809   1.430   2.862   3.164
 5970SOL    HW218810   1.442   2.782   3.306
 5971SOL     OW18811   2.374   6.778   2.429
 5971SOL    HW118812   2.344   6.778   2.334
 5971SOL    HW218813   2.294   6.777   2.489
 5972SOL     OW18814   4.696   6.241   0.309
 5972SOL    HW118815   4.676   6.285   0.397
 5972SOL    HW218816   4.624   6.265   0.243
 5973SOL     OW18817   0.909   4.189   3.578
 5973SOL    HW118818   1.005   4.183   3.605
 5973SOL    HW218819   0.851   4.157   3.653
 5974SOL     OW18820   0.600   3.872   6.619
 5974SOL    HW118821   0.691   3.851   6.584
 5974SOL    HW218822   0.549   3.925   6.551
 5975SOL     OW18823   2.634   2.931   0.479
 5975SOL    HW118824   2.712   2.894   0.530
 5975SOL    HW218825   2.611   3.022   0.514
 5976SOL     OW18826   3.116   3.205   5.100
 5976SOL    HW118827   3.106   3.262   5.019
 5976SOL    HW218828   3.175   3.251   5.167
 5977SOL     OW18829   0.759   3.841   2.472
 5977SOL    HW118830   0.831   3.801   2.530
 5977SOL    HW218831   0.774   3.813   2.377
 5978SOL     OW18832   5.329   5.355   1.746
 5978SOL    HW118833   5.306   5.418   1.820
 5978SOL    HW218834   5.260   5.282   1.741
 5979SOL     OW18835   0.245   0.589   3.650
 5979SOL    HW118836   0.301   0.514   3.685
 5979SOL    HW218837   0.155   0.554   3.623
 5980SOL     OW18838   6.185   3.831   6.721
 5980SOL    HW118839   6.146   3.877   6.801
 5980SOL    HW218840   6.278   3.866   6.705
 5981SOL     OW18841   4.683   0.881   2.306
 5981SOL    HW118842   4.629   0.907   2.386
 5981SOL    HW218843   4.621   0.853   2.232
 5982SOL     OW18844   6.764   2.094   6.111
 5982SOL    HW118845   6.673   2.054   6.106
 5982SOL    HW218846   6.799   2.110   6.019
 5983SOL     OW18847   1.283   1.072   4.784
 5983SOL    HW118848   1.241   1.085   4.694
 5983SOL    HW218849   1.212   1.075   4.854
 5984SOL     OW18850   0.240   6.884   5.181
 5984SOL    HW118851   0.208   6.917   5.270
 5984SOL    HW218852   0.217   6.788   5.171
 5985SOL     OW18853   4.370   1.999   4.286
 5985SOL    HW118854   4.372   1.913   4.337
 5985SOL    HW218855   4.394   2.075   4.347
 5986SOL     OW18856   3.535   3.246   2.228
 5986SOL    HW118857   3.555   3.197   2.143
 5986SOL    HW218858   3.615   3.242   2.288
 5987SOL     OW18859   3.803   0.284   5.216
 5987SOL    HW118860   3.815   0.328   5.127
 5987SOL    HW218861   3.869   0.322   5.281
 5988SOL     OW18862   3.856   0.073   4.017
 5988SOL    HW118863   3.869   6.994   4.039
 5988SOL    HW218864   3.945   0.116   4.005
 5989SOL     OW18865   2.917   0.850   6.213
 5989SOL    HW118866   3.007   0.834   6.252
 5989SOL    HW218867   2.862   0.767   6.220
 5990SOL     OW18868   3.201   4.534   1.498
 5990SOL    HW118869   3.137   4.469   1.538
 5990SOL    HW218870   3.269   4.560   1.567
 5991SOL     OW18871   2.717   5.029   4.857
 5991SOL    HW118872   2.788   4.960   4.848
 5991SOL    HW218873   2.640   5.006   4.796
 5992SOL     OW18874   4.837   0.184   3.883
 5992SOL    HW118875   4.870   0.122   3.812
 5992SOL    HW218876   4.880   0.161   3.970
 5993SOL     OW18877   2.657   5.827   5.424
 5993SOL    HW118878   2.696   5.820   5.332
 5993SOL    HW218879   2.697   5.905   5.472
 5994SOL     OW18880   6.939   2.082   2.187
 5994SOL    HW118881   7.006   2.151   2.211
 5994SOL    HW218882   6.952   2.054   2.092
 5995SOL     OW18883   7.000   4.360   1.831
 5995SOL    HW118884   6.944   4.396   1.906
 5995SOL    HW218885   6.947   4.293   1.780
 5996SOL     OW18886   0.277   5.242   5.767
 5996SOL    HW118887   0.268   5.147   5.740
 5996SOL    HW218888   0.193   5.291   5.744
 5997SOL     OW18889   0.410   6.711   2.475
 5997SOL    HW118890   0.484   6.711   2.542
 5997SOL    HW218891   0.417   6.792   2.417
 5998SOL     OW18892   5.462   1.875   2.666
 5998SOL    HW118893   5.481   1.916   2.756
 5998SOL    HW218894   5.368   1.896   2.639
 5999SOL     OW18895   1.432   1.338   2.784
 5999SOL    HW118896   1.397   1.244   2.784
 5999SOL    HW218897   1.474   1.358   2.872
 6000SOL     OW18898   4.631   5.570   1.937
 6000SOL    HW118899   4.657   5.482   1.898
 6000SOL    HW218900   4.712   5.628   1.945
 6001SOL     OW18901   6.563   2.346   0.121
 6001SOL    HW118902   6.483   2.322   0.176
 6001SOL    HW218903   6.641   2.362   0.181
 6002SOL     OW18904   1.828   0.094   1.834
 6002SOL    HW118905   1.866   0.156   1.902
 6002SOL    HW218906   1.765   0.030   1.878
 6003SOL     OW18907   4.703   4.182   4.273
 6003SOL    HW118908   4.781   4.207   4.331
 6003SOL    HW218909   4.689   4.083   4.277
 6004SOL     OW18910   0.115   3.359   2.634
 6004SOL    HW118911   0.024   3.374   2.673
 6004SOL    HW218912   0.178   3.330   2.707
 6005SOL     OW18913   3.249   6.127   2.846
 6005SOL    HW118914   3.204   6.212   2.875
 6005SOL    HW218915   3.320   6.148   2.779
 6006SOL     OW18916   2.441   6.288   6.923
 6006SOL    HW118917   2.459   6.311   6.828
 6006SOL    HW218918   2.502   6.215   6.953
 6007SOL     OW18919   5.833   2.711   4.151
 6007SOL    HW118920   5.887   2.784   4.193
 6007SOL    HW218921   5.736   2.726   4.171
 6008SOL     OW18922   3.030   4.844   6.617
 6008SOL    HW118923   3.072   4.756   6.641
 6008SOL    HW218924   2.950   4.828   6.560
 6009SOL     OW18925   2.903   1.822   4.343
 6009SOL    HW118926   2.948   1.742   4.304
 6009SOL    HW218927   2.804   1.816   4.327
 6010SOL     OW18928   1.145   3.937   3.390
 6010SOL    HW118929   1.190   3.976   3.471
 6010SOL    HW218930   1.151   3.837   3.394
 6011SOL     OW18931   5.874   3.376   3.318
 6011SOL    HW118932   5.825   3.344   3.238
 6011SOL    HW218933   5.965   3.407   3.291
 6012SOL     OW18934   6.752   3.395   0.511
 6012SOL    HW118935   6.843   3.417   0.475
 6012SOL    HW218936   6.682   3.433   0.451
 6013SOL     OW18937   5.464   1.211   2.674
 6013SOL    HW118938   5.426   1.127   2.635
 6013SOL    HW218939   5.511   1.190   2.760
 6014SOL     OW18940   5.701   0.330   1.004
 6014SOL    HW118941   5.795   0.308   0.976
 6014SOL    HW218942   5.683   0.427   0.987
 6015SOL     OW18943   6.182   2.317   4.653
 6015SOL    HW118944   6.229   2.403   4.670
 6015SOL    HW218945   6.096   2.316   4.703
 6016SOL     OW18946   1.809   0.005   5.087
 6016SOL    HW118947   1.850   6.935   5.108
 6016SOL    HW218948   1.858   0.077   5.136
 6017SOL     OW18949   6.567   4.893   2.392
 6017SOL    HW118950   6.664   4.892   2.369
 6017SOL    HW218951   6.514   4.859   2.314
 6018SOL     OW18952   2.276   4.189   0.874
 6018SOL    HW118953   2.290   4.126   0.798
 6018SOL    HW218954   2.185   4.229   0.868
 6019SOL     OW18955   3.985   6.851   4.079
 6019SOL    HW118956   3.986   6.757   4.115
 6019SOL    HW218957   4.028   6.912   4.146
 6020SOL     OW18958   3.838   0.454   2.863
 6020SOL    HW118959   3.890   0.529   2.903
 6020SOL    HW218960   3.744   0.457   2.898
 6021SOL     OW18961   4.345   1.137   2.900
 6021SOL    HW118962   4.252   1.170   2.915
 6021SOL    HW218963   4.384   1.180   2.819
 6022SOL     OW18964   4.422   1.672   4.679
 6022SOL    HW118965   4.379   1.583   4.695
 6022SOL    HW218966   4.514   1.658   4.641
 6023SOL     OW18967   6.803   1.207   2.492
 6023SOL    HW118968   6.736   1.154   2.440
 6023SOL    HW218969   6.767   1.227   2.583
 6024SOL     OW18970   0.665   4.581   2.734
 6024SOL    HW118971   0.674   4.631   2.648
 6024SOL    HW218972   0.570   4.584   2.765
 6025SOL     OW18973   4.616   1.747   1.543
 6025SOL    HW118974   4.595   1.759   1.446
 6025SOL    HW218975   4.626   1.650   1.563
 6026SOL     OW18976   0.227   4.876   5.323
 6026SOL    HW118977   0.146   4.934   5.327
 6026SOL    HW218978   0.303   4.922   5.370
 6027SOL     OW18979   2.797   3.876   0.131
 6027SOL    HW118980   2.833   3.830   0.050
 6027SOL    HW218981   2.767   3.968   0.107
 6028SOL     OW18982   1.234   3.891   6.842
 6028SOL    HW118983   1.328   3.901   6.874
 6028SOL    HW218984   1.171   3.914   6.916
 6029SOL     OW18985   2.138   5.680   1.229
 6029SOL    HW118986   2.121   5.738   1.308
 6029SOL    HW218987   2.234   5.688   1.202
 6030SOL     OW18988   2.000   0.232   1.155
 6030SOL    HW118989   1.975   0.205   1.248
 6030SOL    HW218990   1.925   0.282   1.113
 6031SOL     OW18991   5.195   0.313   4.845
 6031SOL    HW118992   5.238   0.287   4.931
 6031SOL    HW218993   5.115   0.370   4.864
 6032SOL     OW18994   0.682   3.357   2.626
 6032SOL    HW118995   0.759   3.295   2.642
 6032SOL    HW218996   0.701   3.446   2.667
 6033SOL     OW18997   1.061   0.741   4.172
 6033SOL    HW118998   1.005   0.663   4.143
 6033SOL    HW218999   1.100   0.722   4.262
 6034SOL     OW19000   1.816   3.987   5.140
 6034SOL    HW119001   1.719   4.009   5.150
 6034SOL    HW219002   1.833   3.896   5.178
 6035SOL     OW19003   6.227   1.499   4.189
 6035SOL    HW119004   6.231   1.533   4.283
 6035SOL    HW219005   6.270   1.408   4.185
 6036SOL     OW19006   0.078   0.195   4.863
 6036SOL    HW119007   0.161   0.238   4.898
 6036SOL    HW219008   0.030   0.258   4.802
 6037SOL     OW19009   6.002   5.855   5.000
 6037SOL    HW119010   6.011   5.758   4.975
 6037SOL    HW219011   6.060   5.910   4.941
 6038SOL     OW19012   4.872   3.808   6.445
 6038SOL    HW119013   4.931   3.845   6.373
 6038SOL    HW219014   4.839   3.718   6.417
 6039SOL     OW19015   3.223   4.028   2.878
 6039SOL    HW119016   3.293   4.068   2.819
 6039SOL    HW219017   3.161   3.972   2.824
 6040SOL     OW19018   0.311   1.823   0.289
 6040SOL    HW119019   0.246   1.747   0.294
 6040SOL    HW219020   0.389   1.796   0.233
 6041SOL     OW19021   1.020   2.656   0.598
 6041SOL    HW119022   0.945   2.606   0.642
 6041SOL    HW219023   0.991   2.688   0.508
 6042SOL     OW19024   4.704   5.438   3.874
 6042SOL    HW119025   4.727   5.488   3.957
 6042SOL    HW219026   4.644   5.361   3.897
 6043SOL     OW19027   1.250   4.569   3.934
 6043SOL    HW119028   1.246   4.642   4.002
 6043SOL    HW219029   1.341   4.568   3.891
 6044SOL     OW19030   0.834   0.425   1.508
 6044SOL    HW119031   0.897   0.464   1.576
 6044SOL    HW219032   0.740   0.434   1.540
 6045SOL     OW19033   6.878   3.865   1.951
 6045SOL    HW119034   6.801   3.892   1.893
 6045SOL    HW219035   6.890   3.932   2.023
 6046SOL     OW19036   2.992   2.730   0.496
 6046SOL    HW119037   3.063   2.661   0.507
 6046SOL    HW219038   2.935   2.733   0.578
 6047SOL     OW19039   6.974   0.225   4.335
 6047SOL    HW119040   6.910   0.156   4.370
 6047SOL    HW219041   6.926   0.288   4.274
 6048SOL     OW19042   4.339   6.443   5.230
 6048SOL    HW119043   4.399   6.515   5.266
 6048SOL    HW219044   4.388   6.356   5.231
 6049SOL     OW19045   6.388   4.933   0.751
 6049SOL    HW119046   6.455   4.866   0.783
 6049SOL    HW219047   6.386   5.011   0.813
 6050SOL     OW19048   5.280   4.613   5.320
 6050SOL    HW119049   5.215   4.659   5.380
 6050SOL    HW219050   5.316   4.531   5.365
 6051SOL     OW19051   2.190   1.564   2.876
 6051SOL    HW119052   2.258   1.590   2.945
 6051SOL    HW219053   2.227   1.490   2.819
 6052SOL     OW19054   6.964   1.012   0.464
 6052SOL    HW119055   6.941   1.092   0.409
 6052SOL    HW219056   7.011   1.040   0.547
 6053SOL     OW19057   1.808   0.153   6.463
 6053SOL    HW119058   1.860   0.187   6.541
 6053SOL    HW219059   1.850   0.186   6.378
 6054SOL     OW19060   2.119   4.414   0.541
 6054SOL    HW119061   2.162   4.344   0.485
 6054SOL    HW219062   2.066   4.475   0.484
 6055SOL     OW19063   4.835   0.573   4.795
 6055SOL    HW119064   4.884   0.500   4.843
 6055SOL    HW219065   4.894   0.611   4.723
 6056SOL     OW19066   4.770   2.166   6.556
 6056SOL    HW119067   4.808   2.115   6.634
 6056SOL    HW219068   4.697   2.113   6.513
 6057SOL     OW19069   3.321   1.191   5.777
 6057SOL    HW119070   3.330   1.103   5.729
 6057SOL    HW219071   3.230   1.228   5.763
 6058SOL     OW19072   5.857   2.399   4.433
 6058SOL    HW119073   5.906   2.312   4.428
 6058SOL    HW219074   5.759   2.383   4.424
 6059SOL     OW19075   6.564   5.041   6.516
 6059SOL    HW119076   6.474   5.052   6.559
 6059SOL    HW219077   6.551   5.007   6.422
 6060SOL     OW19078   4.419   6.072   5.856
 6060SOL    HW119079   4.387   6.085   5.762
 6060SOL    HW219080   4.341   6.056   5.916
 6061SOL     OW19081   2.477   1.690   6.127
 6061SOL    HW119082   2.575   1.686   6.147
 6061SOL    HW219083   2.461   1.750   6.049
 6062SOL     OW19084   2.378   0.355   4.493
 6062SOL    HW119085   2.400   0.262   4.462
 6062SOL    HW219086   2.395   0.419   4.419
 6063SOL     OW19087   4.671   0.392   6.258
 6063SOL    HW119088   4.610   0.456   6.303
 6063SOL    HW219089   4.764   0.429   6.258
 6064SOL     OW19090   1.524   5.120   3.559
 6064SOL    HW119091   1.441   5.105   3.505
 6064SOL    HW219092   1.593   5.052   3.533
 6065SOL     OW19093   0.079   0.588   0.960
 6065SOL    HW119094   0.059   0.490   0.961
 6065SOL    HW219095   0.035   0.630   0.880
 6066SOL     OW19096   4.329   2.870   0.236
 6066SOL    HW119097   4.312   2.797   0.302
 6066SOL    HW219098   4.276   2.852   0.153
 6067SOL     OW19099   6.900   1.839   6.462
 6067SOL    HW119100   6.804   1.832   6.487
 6067SOL    HW219101   6.909   1.891   6.377
 6068SOL     OW19102   4.644   2.775   4.709
 6068SOL    HW119103   4.651   2.726   4.796
 6068SOL    HW219104   4.685   2.866   4.718
 6069SOL     OW19105   6.240   4.612   4.547
 6069SOL    HW119106   6.214   4.519   4.521
 6069SOL    HW219107   6.180   4.643   4.622
 6070SOL     OW19108   4.584   2.080   6.238
 6070SOL    HW119109   4.568   2.078   6.337
 6070SOL    HW219110   4.507   2.034   6.192
 6071SOL     OW19111   4.071   5.865   5.198
 6071SOL    HW119112   4.116   5.776   5.208
 6071SOL    HW219113   3.973   5.851   5.187
 6072SOL     OW19114   0.276   1.940   1.108
 6072SOL    HW119115   0.312   1.906   1.195
 6072SOL    HW219116   0.234   1.864   1.058
 6073SOL     OW19117   6.813   2.742   1.093
 6073SOL    HW119118   6.878   2.816   1.075
 6073SOL    HW219119   6.757   2.727   1.011
 6074SOL     OW19120   0.663   0.460   4.890
 6074SOL    HW119121   0.639   0.476   4.986
 6074SOL    HW219122   0.664   0.361   4.873
 6075SOL     OW19123   5.817   3.906   6.690
 6075SOL    HW119124   5.894   3.869   6.637
 6075SOL    HW219125   5.843   3.994   6.729
 6076SOL     OW19126   1.977   5.917   4.070
 6076SOL    HW119127   2.059   5.971   4.054
 6076SOL    HW219128   1.981   5.833   4.015
 6077SOL     OW19129   6.085   6.183   2.030
 6077SOL    HW119130   5.996   6.158   1.992
 6077SOL    HW219131   6.083   6.280   2.057
 6078SOL     OW19132   2.522   4.576   3.603
 6078SOL    HW119133   2.437   4.628   3.614
 6078SOL    HW219134   2.518   4.522   3.519
 6079SOL     OW19135   2.188   1.940   6.895
 6079SOL    HW119136   2.245   1.997   6.836
 6079SOL    HW219137   2.211   1.844   6.880
 6080SOL     OW19138   5.579   2.632   1.846
 6080SOL    HW119139   5.552   2.568   1.918
 6080SOL    HW219140   5.534   2.720   1.860
 6081SOL     OW19141   6.897   3.647   3.842
 6081SOL    HW119142   6.941   3.728   3.878
 6081SOL    HW219143   6.831   3.673   3.771
 6082SOL     OW19144   4.126   1.106   4.177
 6082SOL    HW119145   4.041   1.158   4.182
 6082SOL    HW219146   4.198   1.162   4.137
 6083SOL     OW19147   1.699   6.179   6.978
 6083SOL    HW119148   1.601   6.177   6.994
 6083SOL    HW219149   1.739   6.091   7.003
 6084SOL     OW19150   0.230   4.971   5.633
 6084SOL    HW119151   0.132   4.954   5.643
 6084SOL    HW219152   0.281   4.889   5.661
 6085SOL     OW19153   5.544   4.021   0.885
 6085SOL    HW119154   5.638   3.994   0.906
 6085SOL    HW219155   5.544   4.082   0.805
 6086SOL     OW19156   2.980   1.977   3.668
 6086SOL    HW119157   3.052   2.046   3.660
 6086SOL    HW219158   2.997   1.904   3.602
 6087SOL     OW19159   5.139   6.795   6.952
 6087SOL    HW119160   5.111   6.701   6.933
 6087SOL    HW219161   5.128   6.850   6.869
 6088SOL     OW19162   1.193   0.161   4.796
 6088SOL    HW119163   1.266   0.195   4.736
 6088SOL    HW219164   1.172   0.066   4.772
 6089SOL     OW19165   6.893   3.573   0.292
 6089SOL    HW119166   6.838   3.532   0.219
 6089SOL    HW219167   6.960   3.506   0.324
 6090SOL     OW19168   0.757   5.604   4.674
 6090SOL    HW119169   0.664   5.640   4.673
 6090SOL    HW219170   0.778   5.561   4.586
 6091SOL     OW19171   5.688   1.807   2.039
 6091SOL    HW119172   5.753   1.752   2.091
 6091SOL    HW219173   5.736   1.882   1.994
 6092SOL     OW19174   2.007   2.118   1.926
 6092SOL    HW119175   2.088   2.075   1.886
 6092SOL    HW219176   1.928   2.057   1.914
 6093SOL     OW19177   0.889   2.841   1.038
 6093SOL    HW119178   0.855   2.918   1.091
 6093SOL    HW219179   0.964   2.796   1.088
 6094SOL     OW19180   1.327   0.741   1.536
 6094SOL    HW119181   1.258   0.787   1.481
 6094SOL    HW219182   1.372   0.671   1.481
 6095SOL     OW19183   6.456   3.743   5.815
 6095SOL    HW119184   6.360   3.734   5.843
 6095SOL    HW219185   6.460   3.761   5.717
 6096SOL     OW19186   3.447   1.971   3.601
 6096SOL    HW119187   3.412   1.923   3.520
 6096SOL    HW219188   3.545   1.954   3.611
 6097SOL     OW19189   2.913   1.867   2.091
 6097SOL    HW119190   2.819   1.867   2.058
 6097SOL    HW219191   2.964   1.940   2.045
 6098SOL     OW19192   2.158   2.244   5.788
 6098SOL    HW119193   2.178   2.178   5.861
 6098SOL    HW219194   2.240   2.259   5.733
 6099SOL     OW19195   5.646   5.680   5.149
 6099SOL    HW119196   5.547   5.676   5.136
 6099SOL    HW219197   5.677   5.775   5.138
 6100SOL     OW19198   6.588   3.182   0.217
 6100SOL    HW119199   6.502   3.153   0.258
 6100SOL    HW219200   6.664   3.134   0.260
 6101SOL     OW19201   6.087   1.556   5.035
 6101SOL    HW119202   6.171   1.501   5.037
 6101SOL    HW219203   6.009   1.500   5.063
 6102SOL     OW19204   2.549   0.467   5.423
 6102SOL    HW119205   2.526   0.378   5.384
 6102SOL    HW219206   2.645   0.488   5.404
 6103SOL     OW19207   6.357   6.421   5.832
 6103SOL    HW119208   6.403   6.434   5.920
 6103SOL    HW219209   6.333   6.324   5.821
 6104SOL     OW19210   0.263   2.668   6.779
 6104SOL    HW119211   0.279   2.716   6.693
 6104SOL    HW219212   0.220   2.579   6.759
 6105SOL     OW19213   3.345   6.049   4.275
 6105SOL    HW119214   3.413   6.010   4.213
 6105SOL    HW219215   3.256   6.004   4.259
 6106SOL     OW19216   3.185   5.499   5.310
 6106SOL    HW119217   3.106   5.545   5.269
 6106SOL    HW219218   3.152   5.420   5.363
 6107SOL     OW19219   1.895   4.483   5.445
 6107SOL    HW119220   1.995   4.483   5.442
 6107SOL    HW219221   1.860   4.395   5.412
 6108SOL     OW19222   0.538   2.460   5.226
 6108SOL    HW119223   0.587   2.398   5.164
 6108SOL    HW219224   0.543   2.554   5.190
 6109SOL     OW19225   6.321   4.450   1.377
 6109SOL    HW119226   6.234   4.402   1.363
 6109SOL    HW219227   6.303   4.542   1.412
 6110SOL     OW19228   3.462   1.352   4.751
 6110SOL    HW119229   3.443   1.445   4.719
 6110SOL    HW219230   3.520   1.357   4.832
 6111SOL     OW19231   1.518   4.576   3.122
 6111SOL    HW119232   1.592   4.622   3.073
 6111SOL    HW219233   1.432   4.623   3.104
 6112SOL     OW19234   0.447   1.666   2.310
 6112SOL    HW119235   0.466   1.736   2.242
 6112SOL    HW219236   0.383   1.599   2.271
 6113SOL     OW19237   1.401   6.324   5.709
 6113SOL    HW119238   1.362   6.404   5.662
 6113SOL    HW219239   1.501   6.328   5.704
 6114SOL     OW19240   5.195   5.600   0.684
 6114SOL    HW119241   5.289   5.634   0.681
 6114SOL    HW219242   5.172   5.572   0.777
 6115SOL     OW19243   5.519   5.164   2.651
 6115SOL    HW119244   5.540   5.258   2.676
 6115SOL    HW219245   5.421   5.155   2.633
 6116SOL     OW19246   4.365   1.330   1.705
 6116SOL    HW119247   4.367   1.248   1.763
 6116SOL    HW219248   4.313   1.310   1.622
 6117SOL     OW19249   5.204   0.120   4.616
 6117SOL    HW119250   5.291   0.111   4.566
 6117SOL    HW219251   5.212   0.195   4.682
 6118SOL     OW19252   6.133   0.499   3.355
 6118SOL    HW119253   6.141   0.529   3.450
 6118SOL    HW219254   6.189   0.559   3.297
 6119SOL     OW19255   6.936   5.446   4.353
 6119SOL    HW119256   6.935   5.481   4.446
 6119SOL    HW219257   7.003   5.372   4.346
 6120SOL     OW19258   2.438   0.658   3.158
 6120SOL    HW119259   2.459   0.603   3.076
 6120SOL    HW219260   2.364   0.614   3.209
 6121SOL     OW19261   6.755   2.655   4.428
 6121SOL    HW119262   6.727   2.658   4.524
 6121SOL    HW219263   6.838   2.599   4.419
 6122SOL     OW19264   4.593   5.630   3.309
 6122SOL    HW119265   4.527   5.596   3.242
 6122SOL    HW219266   4.609   5.560   3.379
 6123SOL     OW19267   5.776   1.233   2.490
 6123SOL    HW119268   5.809   1.200   2.578
 6123SOL    HW219269   5.839   1.205   2.417
 6124SOL     OW19270   3.718   0.491   5.646
 6124SOL    HW119271   3.648   0.552   5.609
 6124SOL    HW219272   3.728   0.506   5.744
 6125SOL     OW19273   2.150   5.874   1.466
 6125SOL    HW119274   2.092   5.933   1.522
 6125SOL    HW219275   2.236   5.857   1.514
 6126SOL     OW19276   5.245   5.316   2.686
 6126SOL    HW119277   5.157   5.330   2.731
 6126SOL    HW219278   5.234   5.253   2.609
 6127SOL     OW19279   1.876   5.409   1.906
 6127SOL    HW119280   1.795   5.371   1.861
 6127SOL    HW219281   1.866   5.398   2.005
 6128SOL     OW19282   5.465   1.635   0.713
 6128SOL    HW119283   5.395   1.696   0.676
 6128SOL    HW219284   5.554   1.681   0.712
 6129SOL     OW19285   5.981   4.577   3.522
 6129SOL    HW119286   5.933   4.489   3.523
 6129SOL    HW219287   6.062   4.571   3.581
 6130SOL     OW19288   5.287   3.580   2.215
 6130SOL    HW119289   5.344   3.637   2.155
 6130SOL    HW219290   5.333   3.492   2.229
 6131SOL     OW19291   5.900   1.396   5.158
 6131SOL    HW119292   5.874   1.322   5.096
 6131SOL    HW219293   5.873   1.373   5.251
 6132SOL     OW19294   5.064   2.557   1.069
 6132SOL    HW119295   5.148   2.566   1.015
 6132SOL    HW219296   4.986   2.547   1.008
 6133SOL     OW19297   0.713   4.632   0.908
 6133SOL    HW119298   0.760   4.693   0.971
 6133SOL    HW219299   0.743   4.651   0.814
 6134SOL     OW19300   4.560   3.746   6.281
 6134SOL    HW119301   4.589   3.658   6.319
 6134SOL    HW219302   4.570   3.744   6.181
 6135SOL     OW19303   5.594   0.094   1.157
 6135SOL    HW119304   5.606   0.171   1.094
 6135SOL    HW219305   5.614   0.008   1.109
 6136SOL     OW19306   0.520   1.936   1.556
 6136SOL    HW119307   0.575   2.018   1.570
 6136SOL    HW219308   0.576   1.865   1.513
 6137SOL     OW19309   2.868   6.915   6.097
 6137SOL    HW119310   2.844   7.008   6.125
 6137SOL    HW219311   2.818   6.891   6.014
 6138SOL     OW19312   4.284   6.897   2.984
 6138SOL    HW119313   4.244   6.916   2.894
 6138SOL    HW219314   4.260   6.805   3.013
 6139SOL     OW19315   2.020   4.637   4.045
 6139SOL    HW119316   2.046   4.541   4.033
 6139SOL    HW219317   2.019   4.659   4.143
 6140SOL     OW19318   2.050   6.500   1.059
 6140SOL    HW119319   2.138   6.532   1.026
 6140SOL    HW219320   2.026   6.548   1.143
 6141SOL     OW19321   6.584   6.129   5.961
 6141SOL    HW119322   6.507   6.131   6.025
 6141SOL    HW219323   6.662   6.175   6.001
 6142SOL     OW19324   6.948   4.059   2.125
 6142SOL    HW119325   0.021   4.099   2.126
 6142SOL    HW219326   6.882   4.125   2.161
 6143SOL     OW19327   6.378   5.416   6.592
 6143SOL    HW119328   6.334   5.454   6.673
 6143SOL    HW219329   6.326   5.336   6.560
 6144SOL     OW19330   0.768   4.360   3.944
 6144SOL    HW119331   0.838   4.333   4.010
 6144SOL    HW219332   0.688   4.395   3.993
 6145SOL     OW19333   5.478   6.154   3.529
 6145SOL    HW119334   5.420   6.117   3.602
 6145SOL    HW219335   5.520   6.078   3.479
 6146SOL     OW19336   5.641   1.327   3.014
 6146SOL    HW119337   5.679   1.410   3.055
 6146SOL    HW219338   5.716   1.262   2.996
 6147SOL     OW19339   1.810   3.319   3.385
 6147SOL    HW119340   1.866   3.401   3.373
 6147SOL    HW219341   1.715   3.346   3.403
 6148SOL     OW19342   6.518   6.623   4.555
 6148SOL    HW119343   6.539   6.671   4.470
 6148SOL    HW219344   6.563   6.534   4.556
 6149SOL     OW19345   2.340   6.488   3.723
 6149SOL    HW119346   2.359   6.460   3.629
 6149SOL    HW219347   2.328   6.407   3.780
 6150SOL     OW19348   4.595   5.318   5.775
 6150SOL    HW119349   4.504   5.341   5.740
 6150SOL    HW219350   4.620   5.225   5.745
 6151SOL     OW19351   5.177   2.849   5.739
 6151SOL    HW119352   5.087   2.890   5.750
 6151SOL    HW219353   5.178   2.758   5.780
 6152SOL     OW19354   6.683   4.499   6.811
 6152SOL    HW119355   6.756   4.442   6.774
 6152SOL    HW219356   6.627   4.536   6.736
 6153SOL     OW19357   4.664   3.344   1.014
 6153SOL    HW119358   4.690   3.270   1.076
 6153SOL    HW219359   4.627   3.306   0.930
 6154SOL     OW19360   5.157   3.136   2.927
 6154SOL    HW119361   5.119   3.156   2.837
 6154SOL    HW219362   5.083   3.116   2.991
 6155SOL     OW19363   0.612   3.961   4.854
 6155SOL    HW119364   0.656   3.872   4.841
 6155SOL    HW219365   0.588   4.000   4.766
 6156SOL     OW19366   6.550   0.354   3.606
 6156SOL    HW119367   6.640   0.361   3.650
 6156SOL    HW219368   6.562   0.341   3.508
 6157SOL     OW19369   2.381   1.400   3.696
 6157SOL    HW119370   2.301   1.354   3.658
 6157SOL    HW219371   2.395   1.488   3.650
 6158SOL     OW19372   5.207   0.848   6.307
 6158SOL    HW119373   5.215   0.945   6.328
 6158SOL    HW219374   5.178   0.798   6.388
 6159SOL     OW19375   5.221   3.014   6.657
 6159SOL    HW119376   5.279   3.094   6.645
 6159SOL    HW219377   5.253   2.940   6.599
 6160SOL     OW19378   6.043   5.648   1.636
 6160SOL    HW119379   6.134   5.615   1.612
 6160SOL    HW219380   6.042   5.748   1.631
 6161SOL     OW19381   5.858   0.674   5.893
 6161SOL    HW119382   5.802   0.754   5.876
 6161SOL    HW219383   5.955   0.699   5.888
 6162SOL     OW19384   6.109   5.100   4.223
 6162SOL    HW119385   6.090   5.191   4.186
 6162SOL    HW219386   6.150   5.043   4.153
 6163SOL     OW19387   6.449   4.143   2.384
 6163SOL    HW119388   6.350   4.141   2.365
 6163SOL    HW219389   6.464   4.165   2.480
 6164SOL     OW19390   3.991   2.680   0.583
 6164SOL    HW119391   4.029   2.743   0.651
 6164SOL    HW219392   3.918   2.726   0.533
 6165SOL     OW19393   4.094   5.793   0.017
 6165SOL    HW119394   4.130   5.815   6.945
 6165SOL    HW219395   4.017   5.853   0.038
 6166SOL     OW19396   3.080   1.951   6.149
 6166SOL    HW119397   3.003   1.985   6.203
 6166SOL    HW219398   3.067   1.975   6.053
 6167SOL     OW19399   6.872   4.089   3.409
 6167SOL    HW119400   6.845   4.044   3.495
 6167SOL    HW219401   6.847   4.030   3.332
 6168SOL     OW19402   0.367   3.021   2.886
 6168SOL    HW119403   0.405   3.111   2.908
 6168SOL    HW219404   0.281   3.032   2.837
 6169SOL     OW19405   1.858   3.998   2.221
 6169SOL    HW119406   1.835   3.938   2.298
 6169SOL    HW219407   1.946   4.042   2.239
 6170SOL     OW19408   0.298   3.193   4.658
 6170SOL    HW119409   0.255   3.271   4.612
 6170SOL    HW219410   0.379   3.224   4.708
 6171SOL     OW19411   0.324   0.434   6.175
 6171SOL    HW119412   0.348   0.530   6.190
 6171SOL    HW219413   0.229   0.428   6.145
 6172SOL     OW19414   0.824   3.518   3.399
 6172SOL    HW119415   0.730   3.503   3.368
 6172SOL    HW219416   0.887   3.494   3.326
 6173SOL     OW19417   6.963   6.183   3.464
 6173SOL    HW119418   0.025   6.212   3.516
 6173SOL    HW219419   6.889   6.249   3.478
 6174SOL     OW19420   5.845   4.057   2.307
 6174SOL    HW119421   5.767   4.001   2.335
 6174SOL    HW219422   5.849   4.062   2.208
 6175SOL     OW19423   3.062   2.476   5.858
 6175SOL    HW119424   3.072   2.488   5.760
 6175SOL    HW219425   3.054   2.566   5.902
 6176SOL     OW19426   4.371   3.873   5.962
 6176SOL    HW119427   4.292   3.930   5.940
 6176SOL    HW219428   4.443   3.889   5.894
 6177SOL     OW19429   6.236   1.011   1.396
 6177SOL    HW119430   6.152   1.010   1.451
 6177SOL    HW219431   6.266   1.106   1.385
 6178SOL     OW19432   3.659   4.498   1.365
 6178SOL    HW119433   3.596   4.437   1.316
 6178SOL    HW219434   3.661   4.473   1.462
 6179SOL     OW19435   6.036   4.923   3.695
 6179SOL    HW119436   6.052   4.835   3.740
 6179SOL    HW219437   5.949   4.920   3.646
 6180SOL     OW19438   2.973   4.109   0.256
 6180SOL    HW119439   2.913   4.166   0.201
 6180SOL    HW219440   3.046   4.072   0.199
 6181SOL     OW19441   5.981   6.003   6.486
 6181SOL    HW119442   6.024   6.064   6.553
 6181SOL    HW219443   6.049   5.938   6.453
 6182SOL     OW19444   3.559   2.593   0.587
 6182SOL    HW119445   3.497   2.656   0.541
 6182SOL    HW219446   3.511   2.507   0.607
 6183SOL     OW19447   0.686   0.295   0.795
 6183SOL    HW119448   0.600   0.308   0.845
 6183SOL    HW219449   0.756   0.355   0.832
 6184SOL     OW19450   2.404   0.403   5.730
 6184SOL    HW119451   2.401   0.441   5.822
 6184SOL    HW219452   2.378   0.473   5.663
 6185SOL     OW19453   3.649   2.989   5.514
 6185SOL    HW119454   3.577   2.960   5.578
 6185SOL    HW219455   3.629   3.081   5.481
 6186SOL     OW19456   6.991   2.004   1.932
 6186SOL    HW119457   6.964   2.072   1.864
 6186SOL    HW219458   6.999   1.914   1.888
 6187SOL     OW19459   5.396   1.735   5.587
 6187SOL    HW119460   5.373   1.800   5.659
 6187SOL    HW219461   5.391   1.642   5.623
 6188SOL     OW19462   1.188   1.508   4.921
 6188SOL    HW119463   1.256   1.581   4.920
 6188SOL    HW219464   1.180   1.472   5.014
 6189SOL     OW19465   6.264   6.574   1.400
 6189SOL    HW119466   6.310   6.612   1.319
 6189SOL    HW219467   6.281   6.633   1.479
 6190SOL     OW19468   0.545   2.691   5.092
 6190SOL    HW119469   0.451   2.699   5.059
 6190SOL    HW219470   0.602   2.651   5.020
 6191SOL     OW19471   3.983   3.646   6.788
 6191SOL    HW119472   3.932   3.732   6.787
 6191SOL    HW219473   3.935   3.580   6.846
 6192SOL     OW19474   2.651   1.669   0.677
 6192SOL    HW119475   2.591   1.625   0.611
 6192SOL    HW219476   2.683   1.601   0.743
 6193SOL     OW19477   4.655   5.776   6.632
 6193SOL    HW119478   4.575   5.820   6.672
 6193SOL    HW219479   4.707   5.729   6.703
 6194SOL     OW19480   6.205   0.041   6.192
 6194SOL    HW119481   6.191   0.055   6.094
 6194SOL    HW219482   6.253   6.973   6.207
 6195SOL     OW19483   6.831   6.298   6.003
 6195SOL    HW119484   6.870   6.345   6.083
 6195SOL    HW219485   6.882   6.323   5.921
 6196SOL     OW19486   5.872   3.708   3.198
 6196SOL    HW119487   5.821   3.683   3.116
 6196SOL    HW219488   5.827   3.669   3.278
 6197SOL     OW19489   2.624   5.893   2.005
 6197SOL    HW119490   2.555   5.871   2.073
 6197SOL    HW219491   2.708   5.922   2.051
 6198SOL     OW19492   6.525   0.714   0.094
 6198SOL    HW119493   6.511   0.759   0.182
 6198SOL    HW219494   6.440   0.718   0.041
 6199SOL     OW19495   1.172   6.963   7.007
 6199SOL    HW119496   1.245   6.965   0.056
 6199SOL    HW219497   1.164   0.034   6.963
 6200SOL     OW19498   2.237   1.645   2.254
 6200SOL    HW119499   2.175   1.699   2.198
 6200SOL    HW219500   2.203   1.642   2.348
 6201SOL     OW19501   7.013   4.259   3.558
 6201SOL    HW119502   0.051   4.204   3.619
 6201SOL    HW219503   6.961   4.199   3.497
 6202SOL     OW19504   6.157   1.432   2.494
 6202SOL    HW119505   6.208   1.385   2.422
 6202SOL    HW219506   6.195   1.523   2.508
 6203SOL     OW19507   6.584   0.126   1.743
 6203SOL    HW119508   6.603   0.049   1.682
 6203SOL    HW219509   6.573   0.092   1.837
 6204SOL     OW19510   2.231   0.235   4.974
 6204SOL    HW119511   2.254   0.281   4.888
 6204SOL    HW219512   2.282   0.278   5.049
 6205SOL     OW19513   5.027   4.800   3.424
 6205SOL    HW119514   5.066   4.741   3.495
 6205SOL    HW219515   5.099   4.832   3.364
 6206SOL     OW19516   5.838   1.865   4.547
 6206SOL    HW119517   5.796   1.845   4.459
 6206SOL    HW219518   5.937   1.875   4.535
 6207SOL     OW19519   2.220   4.674   4.739
 6207SOL    HW119520   2.210   4.575   4.728
 6207SOL    HW219521   2.219   4.718   4.650
 6208SOL     OW19522   3.707   3.756   5.586
 6208SOL    HW119523   3.611   3.729   5.582
 6208SOL    HW219524   3.765   3.675   5.597
 6209SOL     OW19525   3.350   2.335   1.383
 6209SOL    HW119526   3.295   2.258   1.352
 6209SOL    HW219527   3.445   2.305   1.394
 6210SOL     OW19528   4.705   1.937   4.013
 6210SOL    HW119529   4.727   1.962   4.107
 6210SOL    HW219530   4.754   1.997   3.950
 6211SOL     OW19531   5.589   4.562   5.375
 6211SOL    HW119532   5.547   4.472   5.364
 6211SOL    HW219533   5.537   4.616   5.441
 6212SOL     OW19534   4.483   5.202   4.823
 6212SOL    HW119535   4.485   5.198   4.724
 6212SOL    HW219536   4.574   5.223   4.858
 6213SOL     OW19537   4.061   6.136   0.242
 6213SOL    HW119538   3.999   6.092   0.306
 6213SOL    HW219539   4.144   6.081   0.232
 6214SOL     OW19540   6.728   5.825   6.278
 6214SOL    HW119541   6.695   5.889   6.348
 6214SOL    HW219542   6.659   5.815   6.207
 6215SOL     OW19543   5.542   2.495   6.171
 6215SOL    HW119544   5.623   2.508   6.113
 6215SOL    HW219545   5.571   2.463   6.261
 6216SOL     OW19546   4.835   2.102   3.445
 6216SOL    HW119547   4.763   2.152   3.495
 6216SOL    HW219548   4.920   2.107   3.497
 6217SOL     OW19549   0.129   4.213   2.823
 6217SOL    HW119550   0.063   4.193   2.895
 6217SOL    HW219551   0.215   4.165   2.842
 6218SOL     OW19552   4.517   6.299   0.118
 6218SOL    HW119553   4.522   6.398   0.104
 6218SOL    HW219554   4.530   6.252   0.030
 6219SOL     OW19555   1.873   1.040   6.044
 6219SOL    HW119556   1.859   0.975   6.118
 6219SOL    HW219557   1.795   1.038   5.982
 6220SOL     OW19558   3.850   0.189   0.737
 6220SOL    HW119559   3.865   0.095   0.707
 6220SOL    HW219560   3.908   0.210   0.816
 6221SOL     OW19561   5.921   5.576   0.033
 6221SOL    HW119562   5.882   5.596   6.961
 6221SOL    HW219563   5.982   5.498   0.026
 6222SOL     OW19564   6.216   1.851   1.927
 6222SOL    HW119565   6.299   1.901   1.951
 6222SOL    HW219566   6.145   1.871   1.995
 6223SOL     OW19567   0.248   4.923   3.857
 6223SOL    HW119568   0.151   4.930   3.834
 6223SOL    HW219569   0.301   4.977   3.792
 6224SOL     OW19570   4.027   0.614   0.231
 6224SOL    HW119571   4.062   0.533   0.279
 6224SOL    HW219572   3.996   0.681   0.298
 6225SOL     OW19573   4.820   6.425   6.486
 6225SOL    HW119574   4.861   6.389   6.570
 6225SOL    HW219575   4.805   6.524   6.496
 6226SOL     OW19576   1.463   1.336   4.862
 6226SOL    HW119577   1.539   1.361   4.802
 6226SOL    HW219578   1.392   1.291   4.808
 6227SOL     OW19579   2.641   4.495   5.317
 6227SOL    HW119580   2.661   4.428   5.389
 6227SOL    HW219581   2.716   4.495   5.251
 6228SOL     OW19582   0.968   2.946   3.447
 6228SOL    HW119583   0.930   2.853   3.454
 6228SOL    HW219584   1.038   2.948   3.376
 6229SOL     OW19585   0.634   3.095   4.460
 6229SOL    HW119586   0.619   3.033   4.537
 6229SOL    HW219587   0.639   3.189   4.493
 6230SOL     OW19588   6.943   0.709   1.822
 6230SOL    HW119589   6.861   0.658   1.795
 6230SOL    HW219590   6.997   0.729   1.740
 6231SOL     OW19591   1.671   5.066   6.754
 6231SOL    HW119592   1.682   5.149   6.808
 6231SOL    HW219593   1.704   5.083   6.661
 6232SOL     OW19594   3.964   1.153   6.740
 6232SOL    HW119595   3.999   1.133   6.648
 6232SOL    HW219596   3.989   1.246   6.766
 6233SOL     OW19597   6.889   3.032   1.690
 6233SOL    HW119598   6.970   2.984   1.655
 6233SOL    HW219599   6.810   2.971   1.683
 6234SOL     OW19600   4.665   5.681   4.732
 6234SOL    HW119601   4.609   5.758   4.763
 6234SOL    HW219602   4.624   5.640   4.650
 6235SOL     OW19603   6.845   0.150   2.950
 6235SOL    HW119604   6.808   0.058   2.958
 6235SOL    HW219605   6.935   0.154   2.993
 6236SOL     OW19606   0.135   5.780   1.596
 6236SOL    HW119607   0.169   5.687   1.615
 6236SOL    HW219608   0.212   5.843   1.594
 6237SOL     OW19609   3.109   1.504   0.534
 6237SOL    HW119610   3.189   1.557   0.507
 6237SOL    HW219611   3.055   1.482   0.452
 6238SOL     OW19612   2.316   0.170   3.955
 6238SOL    HW119613   2.290   0.137   3.864
 6238SOL    HW219614   2.253   0.242   3.984
 6239SOL     OW19615   4.479   1.002   4.111
 6239SOL    HW119616   4.414   0.978   4.183
 6239SOL    HW219617   4.538   0.923   4.092
 6240SOL     OW19618   3.687   2.868   3.453
 6240SOL    HW119619   3.592   2.851   3.425
 6240SOL    HW219620   3.746   2.797   3.414
 6241SOL     OW19621   3.425   0.491   3.255
 6241SOL    HW119622   3.385   0.401   3.236
 6241SOL    HW219623   3.410   0.514   3.351
 6242SOL     OW19624   2.895   1.925   3.273
 6242SOL    HW119625   2.844   1.900   3.191
 6242SOL    HW219626   2.865   2.015   3.305
 6243SOL     OW19627   4.686   1.787   6.628
 6243SOL    HW119628   4.752   1.844   6.676
 6243SOL    HW219629   4.716   1.692   6.630
 6244SOL     OW19630   5.427   3.851   2.451
 6244SOL    HW119631   5.413   3.934   2.396
 6244SOL    HW219632   5.425   3.874   2.548
 6245SOL     OW19633   6.910   4.405   2.703
 6245SOL    HW119634   6.908   4.314   2.660
 6245SOL    HW219635   6.904   4.475   2.632
 6246SOL     OW19636   6.814   0.055   4.030
 6246SOL    HW119637   6.819   0.155   4.024
 6246SOL    HW219638   6.904   0.016   4.012
 6247SOL     OW19639   6.783   6.486   3.742
 6247SOL    HW119640   6.693   6.488   3.785
 6247SOL    HW219641   6.848   6.536   3.798
 6248SOL     OW19642   3.736   2.714   5.585
 6248SOL    HW119643   3.703   2.803   5.552
 6248SOL    HW219644   3.692   2.641   5.533
 6249SOL     OW19645   5.944   2.943   1.692
 6249SOL    HW119646   5.950   2.847   1.665
 6249SOL    HW219647   5.984   3.000   1.621
 6250SOL     OW19648   6.305   0.977   0.125
 6250SOL    HW119649   6.211   0.999   0.150
 6250SOL    HW219650   6.306   0.911   0.051
 6251SOL     OW19651   2.755   0.003   4.019
 6251SOL    HW119652   2.773   0.058   4.100
 6251SOL    HW219653   2.803   0.041   3.940
 6252SOL     OW19654   3.026   5.700   6.621
 6252SOL    HW119655   3.064   5.719   6.711
 6252SOL    HW219656   2.971   5.778   6.591
 6253SOL     OW19657   3.525   5.680   4.770
 6253SOL    HW119658   3.552   5.587   4.744
 6253SOL    HW219659   3.516   5.686   4.869
 6254SOL     OW19660   0.133   0.005   1.321
 6254SOL    HW119661   0.062   0.067   1.287
 6254SOL    HW219662   0.168   0.039   1.408
 6255SOL     OW19663   0.693   1.682   1.750
 6255SOL    HW119664   0.767   1.655   1.811
 6255SOL    HW219665   0.629   1.606   1.739
 6256SOL     OW19666   5.458   6.266   2.415
 6256SOL    HW119667   5.529   6.301   2.476
 6256SOL    HW219668   5.396   6.341   2.391
 6257SOL     OW19669   3.062   3.926   1.270
 6257SOL    HW119670   3.081   4.022   1.249
 6257SOL    HW219671   3.139   3.887   1.320
 6258SOL     OW19672   4.068   5.216   4.966
 6258SOL    HW119673   4.153   5.213   5.019
 6258SOL    HW219674   4.077   5.282   4.892
 6259SOL     OW19675   3.446   0.557   4.530
 6259SOL    HW119676   3.360   0.602   4.508
 6259SOL    HW219677   3.478   0.506   4.450
 6260SOL     OW19678   1.536   1.323   6.894
 6260SOL    HW119679   1.505   1.230   6.914
 6260SOL    HW219680   1.478   1.389   6.942
 6261SOL     OW19681   3.624   0.073   1.074
 6261SOL    HW119682   3.570   0.157   1.067
 6261SOL    HW219683   3.592   0.019   1.151
 6262SOL     OW19684   5.547   0.506   2.078
 6262SOL    HW119685   5.500   0.432   2.125
 6262SOL    HW219686   5.520   0.506   1.981
 6263SOL     OW19687   5.926   6.267   5.885
 6263SOL    HW119688   5.872   6.196   5.929
 6263SOL    HW219689   5.873   6.352   5.882
 6264SOL     OW19690   2.461   6.842   6.921
 6264SOL    HW119691   2.494   6.918   6.977
 6264SOL    HW219692   2.386   6.795   6.969
 6265SOL     OW19693   4.813   0.046   6.563
 6265SOL    HW119694   4.889   0.080   6.508
 6265SOL    HW219695   4.780   0.118   6.624
 6266SOL     OW19696   2.679   5.111   3.260
 6266SOL    HW119697   2.712   5.183   3.198
 6266SOL    HW219698   2.742   5.102   3.337
 6267SOL     OW19699   2.612   6.421   4.699
 6267SOL    HW119700   2.693   6.447   4.753
 6267SOL    HW219701   2.540   6.489   4.714
 6268SOL     OW19702   3.509   1.329   1.035
 6268SOL    HW119703   3.527   1.427   1.042
 6268SOL    HW219704   3.532   1.285   1.122
 6269SOL     OW19705   6.282   4.908   0.038
 6269SOL    HW119706   6.278   4.963   6.973
 6269SOL    HW219707   6.285   4.969   0.118
 6270SOL     OW19708   1.902   5.531   0.518
 6270SOL    HW119709   1.927   5.505   0.611
 6270SOL    HW219710   1.888   5.630   0.513
 6271SOL     OW19711   6.541   3.424   5.731
 6271SOL    HW119712   6.459   3.368   5.719
 6271SOL    HW219713   6.520   3.501   5.792
 6272SOL     OW19714   6.901   0.030   0.329
 6272SOL    HW119715   6.851   0.095   0.272
 6272SOL    HW219716   6.837   6.983   0.369
 6273SOL     OW19717   0.745   6.573   1.203
 6273SOL    HW119718   0.647   6.593   1.214
 6273SOL    HW219719   0.785   6.550   1.291
 6274SOL     OW19720   3.510   5.420   3.497
 6274SOL    HW119721   3.455   5.493   3.457
 6274SOL    HW219722   3.469   5.332   3.474
 6275SOL     OW19723   2.214   5.738   6.883
 6275SOL    HW119724   2.146   5.690   6.828
 6275SOL    HW219725   2.300   5.688   6.882
 6276SOL     OW19726   1.875   4.924   2.914
 6276SOL    HW119727   1.834   4.898   2.827
 6276SOL    HW219728   1.881   5.024   2.919
 6277SOL     OW19729   5.460   3.048   1.092
 6277SOL    HW119730   5.451   3.147   1.080
 6277SOL    HW219731   5.376   3.011   1.130
 6278SOL     OW19732   2.720   1.530   6.983
 6278SOL    HW119733   2.720   1.522   6.883
 6278SOL    HW219734   2.694   1.442   0.004
 6279SOL     OW19735   3.296   6.699   2.173
 6279SOL    HW119736   3.305   6.609   2.215
 6279SOL    HW219737   3.255   6.691   2.083
 6280SOL     OW19738   5.875   2.673   6.404
 6280SOL    HW119739   5.923   2.702   6.487
 6280SOL    HW219740   5.903   2.731   6.328
 6281SOL     OW19741   5.490   4.061   6.056
 6281SOL    HW119742   5.571   4.106   6.093
 6281SOL    HW219743   5.505   3.963   6.050
 6282SOL     OW19744   0.254   3.365   6.382
 6282SOL    HW119745   0.220   3.290   6.326
 6282SOL    HW219746   0.203   3.448   6.361
 6283SOL     OW19747   1.766   6.281   4.974
 6283SOL    HW119748   1.751   6.184   4.954
 6283SOL    HW219749   1.840   6.289   5.041
 6284SOL     OW19750   1.542   4.041   5.178
 6284SOL    HW119751   1.479   3.965   5.162
 6284SOL    HW219752   1.490   4.124   5.197
 6285SOL     OW19753   1.204   3.561   3.062
 6285SOL    HW119754   1.257   3.563   2.978
 6285SOL    HW219755   1.189   3.467   3.091
 6286SOL     OW19756   0.593   2.448   0.154
 6286SOL    HW119757   0.645   2.379   0.204
 6286SOL    HW219758   0.559   2.410   0.068
 6287SOL     OW19759   4.680   4.966   5.008
 6287SOL    HW119760   4.762   5.008   5.048
 6287SOL    HW219761   4.613   4.947   5.081
 6288SOL     OW19762   3.303   3.924   6.734
 6288SOL    HW119763   3.390   3.937   6.687
 6288SOL    HW219764   3.238   3.881   6.672
 6289SOL     OW19765   2.512   4.687   5.797
 6289SOL    HW119766   2.534   4.752   5.870
 6289SOL    HW219767   2.473   4.737   5.719
 6290SOL     OW19768   5.965   6.175   4.555
 6290SOL    HW119769   5.963   6.202   4.459
 6290SOL    HW219770   6.059   6.155   4.582
 6291SOL     OW19771   4.011   3.130   3.082
 6291SOL    HW119772   3.970   3.209   3.127
 6291SOL    HW219773   4.090   3.158   3.029
 6292SOL     OW19774   2.100   3.681   4.426
 6292SOL    HW119775   2.050   3.681   4.339
 6292SOL    HW219776   2.198   3.676   4.408
 6293SOL     OW19777   3.105   1.055   6.706
 6293SOL    HW119778   3.138   0.960   6.709
 6293SOL    HW219779   3.007   1.055   6.685
 6294SOL     OW19780   1.684   1.334   2.656
 6294SOL    HW119781   1.737   1.417   2.672
 6294SOL    HW219782   1.599   1.338   2.709
 6295SOL     OW19783   4.771   3.560   6.342
 6295SOL    HW119784   4.823   3.484   6.380
 6295SOL    HW219785   4.787   3.566   6.243
 6296SOL     OW19786   0.896   3.179   0.305
 6296SOL    HW119787   0.981   3.134   0.277
 6296SOL    HW219788   0.881   3.162   0.403
 6297SOL     OW19789   5.545   1.594   4.738
 6297SOL    HW119790   5.448   1.586   4.716
 6297SOL    HW219791   5.599   1.588   4.653
 6298SOL     OW19792   6.644   6.324   1.039
 6298SOL    HW119793   6.592   6.255   0.988
 6298SOL    HW219794   6.630   6.311   1.137
 6299SOL     OW19795   4.068   1.023   3.546
 6299SOL    HW119796   4.058   1.104   3.604
 6299SOL    HW219797   4.133   1.043   3.473
 6300SOL     OW19798   2.634   1.101   6.752
 6300SOL    HW119799   2.671   1.160   6.823
 6300SOL    HW219800   2.549   1.140   6.716
 6301SOL     OW19801   4.040   6.399   0.230
 6301SOL    HW119802   4.094   6.432   0.153
 6301SOL    HW219803   4.043   6.299   0.233
 6302SOL     OW19804   3.446   2.664   6.292
 6302SOL    HW119805   3.527   2.641   6.347
 6302SOL    HW219806   3.366   2.618   6.330
 6303SOL     OW19807   0.398   5.902   4.721
 6303SOL    HW119808   0.301   5.901   4.745
 6303SOL    HW219809   0.452   5.916   4.804
 6304SOL     OW19810   3.760   0.768   4.775
 6304SOL    HW119811   3.811   0.713   4.710
 6304SOL    HW219812   3.772   0.865   4.754
 6305SOL     OW19813   0.624   5.921   6.420
 6305SOL    HW119814   0.695   5.858   6.454
 6305SOL    HW219815   0.596   5.893   6.329
 6306SOL     OW19816   0.567   5.426   4.340
 6306SOL    HW119817   0.505   5.453   4.413
 6306SOL    HW219818   0.551   5.483   4.259
 6307SOL     OW19819   3.799   2.924   2.012
 6307SOL    HW119820   3.740   2.907   1.933
 6307SOL    HW219821   3.755   2.888   2.095
 6308SOL     OW19822   0.222   2.252   0.545
 6308SOL    HW119823   0.176   2.265   0.633
 6308SOL    HW219824   0.161   2.206   0.481
 6309SOL     OW19825   2.654   6.145   4.618
 6309SOL    HW119826   2.685   6.098   4.701
 6309SOL    HW219827   2.648   6.243   4.636
 6310SOL     OW19828   1.204   0.289   3.102
 6310SOL    HW119829   1.279   0.356   3.104
 6310SOL    HW219830   1.237   0.203   3.065
 6311SOL     OW19831   5.666   0.800   6.586
 6311SOL    HW119832   5.647   0.717   6.639
 6311SOL    HW219833   5.757   0.794   6.546
 6312SOL     OW19834   3.405   5.895   6.845
 6312SOL    HW119835   3.384   5.993   6.841
 6312SOL    HW219836   3.474   5.873   6.777
 6313SOL     OW19837   6.200   5.118   4.818
 6313SOL    HW119838   6.163   5.054   4.886
 6313SOL    HW219839   6.223   5.068   4.734
 6314SOL     OW19840   2.225   6.545   2.837
 6314SOL    HW119841   2.194   6.499   2.753
 6314SOL    HW219842   2.149   6.552   2.901
 6315SOL     OW19843   2.337   2.361   3.814
 6315SOL    HW119844   2.252   2.409   3.837
 6315SOL    HW219845   2.355   2.372   3.716
 6316SOL     OW19846   4.551   1.138   4.672
 6316SOL    HW119847   4.482   1.073   4.639
 6316SOL    HW219848   4.574   1.118   4.767
 6317SOL     OW19849   5.427   5.072   1.960
 6317SOL    HW119850   5.361   5.059   1.886
 6317SOL    HW219851   5.459   5.167   1.960
 6318SOL     OW19852   6.711   6.698   0.034
 6318SOL    HW119853   6.693   6.606   0.067
 6318SOL    HW219854   6.804   6.703   7.016
 6319SOL     OW19855   5.144   1.577   4.058
 6319SOL    HW119856   5.131   1.652   4.123
 6319SOL    HW219857   5.121   1.490   4.102
 6320SOL     OW19858   6.285   1.159   5.717
 6320SOL    HW119859   6.369   1.112   5.691
 6320SOL    HW219860   6.290   1.185   5.814
 6321SOL     OW19861   6.576   2.478   6.908
 6321SOL    HW119862   6.556   2.427   6.992
 6321SOL    HW219863   6.654   2.539   6.924
 6322SOL     OW19864   1.216   1.182   2.184
 6322SOL    HW119865   1.205   1.280   2.202
 6322SOL    HW219866   1.201   1.131   2.269
 6323SOL     OW19867   2.279   4.793   1.674
 6323SOL    HW119868   2.228   4.870   1.713
 6323SOL    HW219869   2.327   4.745   1.747
 6324SOL     OW19870   4.302   2.437   0.980
 6324SOL    HW119871   4.206   2.445   0.956
 6324SOL    HW219872   4.341   2.528   0.995
 6325SOL     OW19873   1.627   2.608   4.113
 6325SOL    HW119874   1.617   2.583   4.210
 6325SOL    HW219875   1.701   2.676   4.104
 6326SOL     OW19876   5.526   4.918   5.770
 6326SOL    HW119877   5.593   4.921   5.844
 6326SOL    HW219878   5.571   4.931   5.683
 6327SOL     OW19879   0.180   0.961   3.550
 6327SOL    HW119880   0.106   0.899   3.577
 6327SOL    HW219881   0.233   0.920   3.476
 6328SOL     OW19882   4.465   3.646   5.368
 6328SOL    HW119883   4.549   3.624   5.318
 6328SOL    HW219884   4.390   3.660   5.304
 6329SOL     OW19885   0.848   2.156   5.736
 6329SOL    HW119886   0.803   2.232   5.690
 6329SOL    HW219887   0.923   2.123   5.679
 6330SOL     OW19888   5.316   1.434   3.651
 6330SOL    HW119889   5.265   1.423   3.566
 6330SOL    HW219890   5.392   1.496   3.637
 6331SOL     OW19891   0.668   2.674   3.207
 6331SOL    HW119892   0.575   2.637   3.214
 6331SOL    HW219893   0.663   2.769   3.176
 6332SOL     OW19894   3.246   1.640   6.551
 6332SOL    HW119895   3.229   1.714   6.616
 6332SOL    HW219896   3.314   1.578   6.590
 6333SOL     OW19897   5.457   1.574   0.984
 6333SOL    HW119898   5.481   1.608   0.893
 6333SOL    HW219899   5.497   1.483   0.996
 6334SOL     OW19900   1.424   1.690   2.078
 6334SOL    HW119901   1.449   1.593   2.073
 6334SOL    HW219902   1.334   1.699   2.120
 6335SOL     OW19903   6.245   2.436   6.824
 6335SOL    HW119904   6.292   2.360   6.870
 6335SOL    HW219905   6.269   2.522   6.870
 6336SOL     OW19906   0.942   3.854   5.112
 6336SOL    HW119907   1.006   3.889   5.181
 6336SOL    HW219908   0.965   3.891   5.023
 6337SOL     OW19909   5.475   6.470   4.746
 6337SOL    HW119910   5.544   6.405   4.714
 6337SOL    HW219911   5.435   6.517   4.667
 6338SOL     OW19912   1.347   1.045   2.850
 6338SOL    HW119913   1.345   1.113   2.924
 6338SOL    HW219914   1.430   0.989   2.859
 6339SOL     OW19915   0.425   4.403   3.856
 6339SOL    HW119916   0.487   4.481   3.856
 6339SOL    HW219917   0.331   4.434   3.840
 6340SOL     OW19918   2.721   4.154   0.601
 6340SOL    HW119919   2.653   4.226   0.592
 6340SOL    HW219920   2.691   4.089   0.671
 6341SOL     OW19921   0.739   4.911   2.383
 6341SOL    HW119922   0.673   4.929   2.310
 6341SOL    HW219923   0.770   4.997   2.423
 6342SOL     OW19924   1.932   0.917   1.485
 6342SOL    HW119925   1.901   0.974   1.409
 6342SOL    HW219926   1.853   0.882   1.535
 6343SOL     OW19927   0.771   5.263   0.290
 6343SOL    HW119928   0.707   5.317   0.345
 6343SOL    HW219929   0.781   5.172   0.331
 6344SOL     OW19930   0.475   1.397   3.730
 6344SOL    HW119931   0.516   1.306   3.728
 6344SOL    HW219932   0.376   1.389   3.740
 6345SOL     OW19933   6.256   2.808   1.685
 6345SOL    HW119934   6.276   2.726   1.632
 6345SOL    HW219935   6.234   2.782   1.779
 6346SOL     OW19936   0.368   4.313   5.903
 6346SOL    HW119937   0.444   4.249   5.921
 6346SOL    HW219938   0.385   4.362   5.818
 6347SOL     OW19939   2.325   1.952   2.857
 6347SOL    HW119940   2.327   1.877   2.923
 6347SOL    HW219941   2.284   1.921   2.772
 6348SOL     OW19942   0.475   2.095   5.896
 6348SOL    HW119943   0.500   2.183   5.935
 6348SOL    HW219944   0.513   2.021   5.952
 6349SOL     OW19945   6.843   1.210   0.299
 6349SOL    HW119946   6.877   1.152   0.225
 6349SOL    HW219947   6.749   1.184   0.322
 6350SOL     OW19948   0.805   6.220   1.734
 6350SOL    HW119949   0.765   6.198   1.823
 6350SOL    HW219950   0.904   6.223   1.742
 6351SOL     OW19951   5.356   3.596   1.759
 6351SOL    HW119952   5.334   3.691   1.781
 6351SOL    HW219953   5.396   3.591   1.668
 6352SOL     OW19954   3.233   0.708   4.459
 6352SOL    HW119955   3.285   0.779   4.411
 6352SOL    HW219956   3.177   0.750   4.530
 6353SOL     OW19957   3.803   6.798   5.604
 6353SOL    HW119958   3.887   6.750   5.577
 6353SOL    HW219959   3.811   6.828   5.699
 6354SOL     OW19960   4.747   5.370   1.387
 6354SOL    HW119961   4.718   5.428   1.464
 6354SOL    HW219962   4.782   5.428   1.313
 6355SOL     OW19963   2.948   5.017   0.462
 6355SOL    HW119964   2.940   5.041   0.559
 6355SOL    HW219965   2.991   4.927   0.454
 6356SOL     OW19966   6.648   5.629   6.012
 6356SOL    HW119967   6.736   5.657   6.050
 6356SOL    HW219968   6.657   5.538   5.972
 6357SOL     OW19969   5.328   1.150   1.846
 6357SOL    HW119970   5.413   1.193   1.877
 6357SOL    HW219971   5.277   1.118   1.925
 6358SOL     OW19972   1.401   1.953   5.607
 6358SOL    HW119973   1.368   1.897   5.531
 6358SOL    HW219974   1.371   2.048   5.594
 6359SOL     OW19975   5.483   6.233   0.566
 6359SOL    HW119976   5.560   6.185   0.524
 6359SOL    HW219977   5.456   6.188   0.651
 6360SOL     OW19978   0.461   1.862   2.136
 6360SOL    HW119979   0.373   1.898   2.166
 6360SOL    HW219980   0.471   1.878   2.037
 6361SOL     OW19981   0.202   0.859   0.089
 6361SOL    HW119982   0.279   0.796   0.079
 6361SOL    HW219983   0.141   0.826   0.161
 6362SOL     OW19984   0.765   5.455   0.716
 6362SOL    HW119985   0.793   5.364   0.685
 6362SOL    HW219986   0.777   5.520   0.641
 6363SOL     OW19987   2.220   3.987   2.778
 6363SOL    HW119988   2.199   3.934   2.860
 6363SOL    HW219989   2.306   4.037   2.792
 6364SOL     OW19990   2.470   2.508   4.252
 6364SOL    HW119991   2.397   2.443   4.234
 6364SOL    HW219992   2.466   2.537   4.348
 6365SOL     OW19993   5.475   6.730   3.138
 6365SOL    HW119994   5.520   6.784   3.209
 6365SOL    HW219995   5.446   6.642   3.176
 6366SOL     OW19996   5.771   0.928   5.078
 6366SOL    HW119997   5.759   0.924   5.177
 6366SOL    HW219998   5.745   0.840   5.038
 6367SOL     OW19999   1.300   2.276   2.463
 6367SOL    HW120000   1.308   2.376   2.466
 6367SOL    HW220001   1.294   2.241   2.556
 6368SOL     OW20002   5.020   3.461   4.904
 6368SOL    HW120003   4.978   3.379   4.865
 6368SOL    HW220004   4.949   3.525   4.932
 6369SOL     OW20005   4.495   5.275   0.413
 6369SOL    HW120006   4.426   5.337   0.375
 6369SOL    HW220007   4.526   5.311   0.501
 6370SOL     OW20008   5.272   4.123   4.279
 6370SOL    HW120009   5.340   4.056   4.310
 6370SOL    HW220010   5.181   4.094   4.308
 6371SOL     OW20011   5.303   4.491   1.774
 6371SOL    HW120012   5.309   4.396   1.743
 6371SOL    HW220013   5.386   4.540   1.747
 6372SOL     OW20014   6.599   1.638   2.194
 6372SOL    HW120015   6.589   1.687   2.280
 6372SOL    HW220016   6.617   1.541   2.213
 6373SOL     OW20017   4.935   4.366   1.811
 6373SOL    HW120018   4.842   4.402   1.819
 6373SOL    HW220019   4.949   4.329   1.720
 6374SOL     OW20020   4.247   3.596   6.763
 6374SOL    HW120021   4.152   3.593   6.793
 6374SOL    HW220022   4.271   3.690   6.738
 6375SOL     OW20023   4.696   1.756   2.131
 6375SOL    HW120024   4.678   1.695   2.209
 6375SOL    HW220025   4.709   1.701   2.048
 6376SOL     OW20026   3.375   0.789   0.299
 6376SOL    HW120027   3.409   0.745   0.382
 6376SOL    HW220028   3.451   0.808   0.238
 6377SOL     OW20029   0.483   0.551   1.058
 6377SOL    HW120030   0.451   0.480   0.995
 6377SOL    HW220031   0.417   0.626   1.061
 6378SOL     OW20032   5.073   4.721   1.875
 6378SOL    HW120033   5.011   4.772   1.934
 6378SOL    HW220034   5.029   4.637   1.843
 6379SOL     OW20035   1.911   5.324   6.474
 6379SOL    HW120036   1.982   5.296   6.539
 6379SOL    HW220037   1.953   5.350   6.388
 6380SOL     OW20038   1.310   4.052   4.868
 6380SOL    HW120039   1.322   4.065   4.770
 6380SOL    HW220040   1.369   4.116   4.918
 6381SOL     OW20041   4.262   2.696   0.434
 6381SOL    HW120042   4.175   2.657   0.403
 6381SOL    HW220043   4.269   2.686   0.533
 6382SOL     OW20044   1.174   1.054   0.549
 6382SOL    HW120045   1.233   1.083   0.474
 6382SOL    HW220046   1.096   1.003   0.511
 6383SOL     OW20047   2.549   2.294   1.945
 6383SOL    HW120048   2.463   2.343   1.959
 6383SOL    HW220049   2.594   2.281   2.034
 6384SOL     OW20050   6.469   2.842   2.338
 6384SOL    HW120051   6.415   2.926   2.327
 6384SOL    HW220052   6.563   2.859   2.309
 6385SOL     OW20053   0.355   3.516   0.499
 6385SOL    HW120054   0.453   3.532   0.483
 6385SOL    HW220055   0.327   3.431   0.454
 6386SOL     OW20056   2.497   3.123   0.295
 6386SOL    HW120057   2.463   3.138   0.202
 6386SOL    HW220058   2.456   3.190   0.357
 6387SOL     OW20059   0.182   0.184   0.159
 6387SOL    HW120060   0.109   0.243   0.125
 6387SOL    HW220061   0.214   0.218   0.248
 6388SOL     OW20062   6.016   5.471   2.216
 6388SOL    HW120063   6.016   5.462   2.315
 6388SOL    HW220064   6.110   5.466   2.182
 6389SOL     OW20065   0.058   0.411   0.629
 6389SOL    HW120066   0.132   0.475   0.606
 6389SOL    HW220067   0.093   0.317   0.625
 6390SOL     OW20068   5.382   0.396   6.775
 6390SOL    HW120069   5.317   0.470   6.757
 6390SOL    HW220070   5.371   0.363   6.869
 6391SOL     OW20071   1.129   2.032   4.919
 6391SOL    HW120072   1.102   2.016   5.014
 6391SOL    HW220073   1.223   2.067   4.916
 6392SOL     OW20074   3.817   6.533   3.733
 6392SOL    HW120075   3.867   6.598   3.790
 6392SOL    HW220076   3.882   6.469   3.691
 6393SOL     OW20077   0.621   5.227   0.043
 6393SOL    HW120078   0.666   5.259   0.127
 6393SOL    HW220079   0.568   5.144   0.063
 6394SOL     OW20080   1.653   5.658   1.966
 6394SOL    HW120081   1.599   5.726   1.917
 6394SOL    HW220082   1.734   5.702   2.006
 6395SOL     OW20083   2.078   3.460   3.484
 6395SOL    HW120084   2.093   3.445   3.386
 6395SOL    HW220085   2.113   3.381   3.535
 6396SOL     OW20086   1.340   2.947   5.887
 6396SOL    HW120087   1.243   2.922   5.882
 6396SOL    HW220088   1.362   2.971   5.982
 6397SOL     OW20089   5.646   3.766   4.513
 6397SOL    HW120090   5.558   3.793   4.552
 6397SOL    HW220091   5.695   3.708   4.578
 6398SOL     OW20092   2.032   6.994   1.643
 6398SOL    HW120093   2.107   0.039   1.625
 6398SOL    HW220094   1.979   0.009   1.721
 6399SOL     OW20095   3.188   0.776   6.251
 6399SOL    HW120096   3.230   0.867   6.249
 6399SOL    HW220097   3.228   0.722   6.324
 6400SOL     OW20098   1.091   5.954   3.277
 6400SOL    HW120099   1.005   5.982   3.234
 6400SOL    HW220100   1.124   6.027   3.336
 6401SOL     OW20101   3.805   5.364   3.331
 6401SOL    HW120102   3.799   5.275   3.376
 6401SOL    HW220103   3.871   5.422   3.378
 6402SOL     OW20104   2.183   4.657   5.178
 6402SOL    HW120105   2.154   4.596   5.105
 6402SOL    HW220106   2.280   4.644   5.196
 6403SOL     OW20107   4.916   5.039   4.905
 6403SOL    HW120108   4.840   4.991   4.863
 6403SOL    HW220109   4.995   5.036   4.844
 6404SOL     OW20110   4.376   6.972   1.755
 6404SOL    HW120111   4.434   6.998   1.833
 6404SOL    HW220112   4.313   6.900   1.783
 6405SOL     OW20113   5.365   1.656   3.045
 6405SOL    HW120114   5.271   1.688   3.040
 6405SOL    HW220115   5.369   1.559   3.020
 6406SOL     OW20116   0.032   3.518   3.380
 6406SOL    HW120117   6.967   3.463   3.379
 6406SOL    HW220118   0.009   3.614   3.396
 6407SOL     OW20119   0.534   6.372   2.574
 6407SOL    HW120120   0.582   6.386   2.487
 6407SOL    HW220121   0.443   6.414   2.568
 6408SOL     OW20122   6.425   0.368   1.911
 6408SOL    HW120123   6.432   0.413   1.822
 6408SOL    HW220124   6.329   0.370   1.941
 6409SOL     OW20125   5.067   5.300   3.890
 6409SOL    HW120126   5.003   5.231   3.856
 6409SOL    HW220127   5.046   5.388   3.849
 6410SOL     OW20128   1.787   1.646   6.718
 6410SOL    HW120129   1.755   1.715   6.652
 6410SOL    HW220130   1.834   1.692   6.794
 6411SOL     OW20131   0.731   2.720   1.888
 6411SOL    HW120132   0.668   2.735   1.964
 6411SOL    HW220133   0.800   2.652   1.913
 6412SOL     OW20134   3.119   1.130   0.145
 6412SOL    HW120135   3.088   1.043   0.107
 6412SOL    HW220136   3.056   1.158   0.218
 6413SOL     OW20137   5.007   6.253   2.822
 6413SOL    HW120138   5.069   6.246   2.744
 6413SOL    HW220139   5.054   6.298   2.899
 6414SOL     OW20140   1.805   0.272   0.578
 6414SOL    HW120141   1.890   0.224   0.555
 6414SOL    HW220142   1.748   0.281   0.496
 6415SOL     OW20143   0.192   2.733   3.926
 6415SOL    HW120144   0.272   2.782   3.893
 6415SOL    HW220145   0.210   2.635   3.924
 6416SOL     OW20146   2.542   6.041   0.190
 6416SOL    HW120147   2.474   5.970   0.167
 6416SOL    HW220148   2.589   6.070   0.107
 6417SOL     OW20149   4.417   2.633   6.446
 6417SOL    HW120150   4.474   2.675   6.517
 6417SOL    HW220151   4.371   2.705   6.393
 6418SOL     OW20152   5.034   4.385   0.206
 6418SOL    HW120153   4.982   4.312   0.250
 6418SOL    HW220154   5.112   4.345   0.156
 6419SOL     OW20155   0.636   6.252   5.985
 6419SOL    HW120156   0.621   6.349   5.969
 6419SOL    HW220157   0.561   6.216   6.040
 6420SOL     OW20158   2.037   4.390   4.435
 6420SOL    HW120159   2.002   4.482   4.415
 6420SOL    HW220160   2.002   4.326   4.367
 6421SOL     OW20161   4.011   0.591   1.954
 6421SOL    HW120162   3.993   0.681   1.995
 6421SOL    HW220163   3.994   0.595   1.856
 6422SOL     OW20164   5.874   2.107   4.748
 6422SOL    HW120165   5.825   2.043   4.690
 6422SOL    HW220166   5.963   2.069   4.773
 6423SOL     OW20167   1.688   4.721   4.415
 6423SOL    HW120168   1.653   4.627   4.414
 6423SOL    HW220169   1.613   4.785   4.398
 6424SOL     OW20170   6.531   4.758   5.438
 6424SOL    HW120171   6.471   4.808   5.376
 6424SOL    HW220172   6.604   4.713   5.385
 6425SOL     OW20173   6.843   5.710   4.105
 6425SOL    HW120174   6.916   5.647   4.077
 6425SOL    HW220175   6.883   5.787   4.155
 6426SOL     OW20176   4.984   4.159   4.836
 6426SOL    HW120177   5.053   4.191   4.771
 6426SOL    HW220178   4.958   4.235   4.896
 6427SOL     OW20179   3.923   3.437   3.006
 6427SOL    HW120180   3.829   3.425   3.036
 6427SOL    HW220181   3.933   3.525   2.961
 6428SOL     OW20182   5.926   2.807   0.282
 6428SOL    HW120183   5.859   2.821   0.355
 6428SOL    HW220184   5.951   2.896   0.243
 6429SOL     OW20185   2.280   1.229   5.764
 6429SOL    HW120186   2.357   1.204   5.823
 6429SOL    HW220187   2.310   1.295   5.696
 6430SOL     OW20188   6.387   6.956   5.046
 6430SOL    HW120189   6.356   0.032   5.040
 6430SOL    HW220190   6.318   6.901   5.094
 6431SOL     OW20191   3.630   4.810   1.632
 6431SOL    HW120192   3.600   4.743   1.699
 6431SOL    HW220193   3.659   4.894   1.679
 6432SOL     OW20194   5.121   4.437   6.166
 6432SOL    HW120195   5.186   4.509   6.193
 6432SOL    HW220196   5.033   4.453   6.212
 6433SOL     OW20197   3.240   4.224   6.185
 6433SOL    HW120198   3.274   4.197   6.275
 6433SOL    HW220199   3.314   4.263   6.131
 6434SOL     OW20200   4.906   5.625   6.282
 6434SOL    HW120201   4.946   5.569   6.210
 6434SOL    HW220202   4.818   5.661   6.251
 6435SOL     OW20203   4.763   2.420   1.153
 6435SOL    HW120204   4.836   2.357   1.178
 6435SOL    HW220205   4.674   2.374   1.160
 6436SOL     OW20206   6.423   3.388   3.712
 6436SOL    HW120207   6.486   3.351   3.644
 6436SOL    HW220208   6.384   3.313   3.765
 6437SOL     OW20209   1.484   2.348   5.593
 6437SOL    HW120210   1.412   2.283   5.568
 6437SOL    HW220211   1.538   2.310   5.668
 6438SOL     OW20212   0.263   4.780   0.076
 6438SOL    HW120213   0.237   4.712   0.007
 6438SOL    HW220214   0.288   4.733   0.161
 6439SOL     OW20215   5.026   6.983   3.286
 6439SOL    HW120216   5.098   6.961   3.221
 6439SOL    HW220217   5.059   6.970   3.379
 6440SOL     OW20218   2.870   2.078   6.294
 6440SOL    HW120219   2.936   2.116   6.360
 6440SOL    HW220220   2.784   2.128   6.301
 6441SOL     OW20221   0.053   1.740   2.100
 6441SOL    HW120222   0.056   1.817   2.164
 6441SOL    HW220223   0.096   1.767   2.014
 6442SOL     OW20224   3.017   2.215   4.752
 6442SOL    HW120225   3.052   2.246   4.840
 6442SOL    HW220226   2.919   2.230   4.747
 6443SOL     OW20227   4.478   3.308   6.562
 6443SOL    HW120228   4.411   3.354   6.503
 6443SOL    HW220229   4.447   3.312   6.657
 6444SOL     OW20230   6.335   3.815   4.927
 6444SOL    HW120231   6.246   3.854   4.903
 6444SOL    HW220232   6.375   3.867   5.002
 6445SOL     OW20233   2.988   3.216   3.534
 6445SOL    HW120234   3.002   3.182   3.627
 6445SOL    HW220235   3.034   3.156   3.469
 6446SOL     OW20236   1.338   1.181   6.439
 6446SOL    HW120237   1.256   1.227   6.474
 6446SOL    HW220238   1.388   1.244   6.379
 6447SOL     OW20239   6.040   3.168   2.124
 6447SOL    HW120240   5.951   3.169   2.169
 6447SOL    HW220241   6.043   3.096   2.055
 6448SOL     OW20242   3.310   4.983   1.582
 6448SOL    HW120243   3.409   4.993   1.590
 6448SOL    HW220244   3.283   4.991   1.486
 6449SOL     OW20245   2.668   5.297   0.819
 6449SOL    HW120246   2.698   5.392   0.816
 6449SOL    HW220247   2.723   5.242   0.756
 6450SOL     OW20248   0.156   4.519   0.358
 6450SOL    HW120249   0.164   4.474   0.269
 6450SOL    HW220250   0.135   4.451   0.428
 6451SOL     OW20251   4.331   2.746   1.385
 6451SOL    HW120252   4.272   2.782   1.457
 6451SOL    HW220253   4.309   2.792   1.298
 6452SOL     OW20254   4.437   1.838   4.046
 6452SOL    HW120255   4.529   1.855   4.011
 6452SOL    HW220256   4.417   1.904   4.119
 6453SOL     OW20257   2.244   0.832   2.137
 6453SOL    HW120258   2.246   0.869   2.229
 6453SOL    HW220259   2.303   0.887   2.077
 6454SOL     OW20260   4.951   2.421   3.585
 6454SOL    HW120261   4.961   2.421   3.486
 6454SOL    HW220262   5.029   2.467   3.627
 6455SOL     OW20263   6.329   2.986   3.785
 6455SOL    HW120264   6.280   3.008   3.701
 6455SOL    HW220265   6.341   3.069   3.840
 6456SOL     OW20266   6.279   1.003   2.301
 6456SOL    HW120267   6.283   0.920   2.356
 6456SOL    HW220268   6.285   1.083   2.361
 6457SOL     OW20269   3.451   0.214   2.513
 6457SOL    HW120270   3.447   0.282   2.439
 6457SOL    HW220271   3.453   0.122   2.474
 6458SOL     OW20272   6.792   5.529   3.808
 6458SOL    HW120273   6.738   5.601   3.851
 6458SOL    HW220274   6.871   5.508   3.865
 6459SOL     OW20275   0.210   3.372   3.169
 6459SOL    HW120276   0.140   3.316   3.125
 6459SOL    HW220277   0.170   3.419   3.248
 6460SOL     OW20278   0.522   5.438   6.791
 6460SOL    HW120279   0.474   5.352   6.809
 6460SOL    HW220280   0.481   5.511   6.846
 6461SOL     OW20281   1.370   5.829   1.033
 6461SOL    HW120282   1.462   5.859   1.059
 6461SOL    HW220283   1.312   5.824   1.114
 6462SOL     OW20284   1.969   4.298   4.995
 6462SOL    HW120285   1.882   4.340   5.020
 6462SOL    HW220286   1.989   4.223   5.059
 6463SOL     OW20287   4.648   2.281   0.883
 6463SOL    HW120288   4.743   2.265   0.912
 6463SOL    HW220289   4.591   2.294   0.964
 6464SOL     OW20290   1.267   3.958   3.860
 6464SOL    HW120291   1.175   3.927   3.837
 6464SOL    HW220292   1.299   3.911   3.942
 6465SOL     OW20293   3.722   1.284   3.648
 6465SOL    HW120294   3.796   1.248   3.591
 6465SOL    HW220295   3.655   1.330   3.590
 6466SOL     OW20296   6.322   4.221   0.006
 6466SOL    HW120297   6.311   4.226   6.925
 6466SOL    HW220298   6.233   4.238   0.050
 6467SOL     OW20299   3.045   2.996   0.449
 6467SOL    HW120300   3.011   2.908   0.481
 6467SOL    HW220301   3.033   3.065   0.521
 6468SOL     OW20302   2.255   0.930   1.250
 6468SOL    HW120303   2.240   0.957   1.155
 6468SOL    HW220304   2.292   1.007   1.301
 6469SOL     OW20305   2.963   1.607   2.113
 6469SOL    HW120306   3.059   1.589   2.092
 6469SOL    HW220307   2.946   1.706   2.108
 6470SOL     OW20308   0.196   1.442   6.899
 6470SOL    HW120309   0.254   1.432   6.979
 6470SOL    HW220310   0.100   1.437   6.927
 6471SOL     OW20311   1.031   6.288   5.571
 6471SOL    HW120312   1.046   6.210   5.631
 6471SOL    HW220313   0.934   6.312   5.570
 6472SOL     OW20314   6.612   6.607   3.069
 6472SOL    HW120315   6.652   6.642   3.154
 6472SOL    HW220316   6.680   6.614   2.995
 6473SOL     OW20317   2.479   1.071   3.331
 6473SOL    HW120318   2.403   1.040   3.388
 6473SOL    HW220319   2.553   1.105   3.389
 6474SOL     OW20320   4.025   5.392   4.753
 6474SOL    HW120321   4.011   5.488   4.733
 6474SOL    HW220322   4.017   5.338   4.669
 6475SOL     OW20323   5.806   5.735   2.379
 6475SOL    HW120324   5.779   5.771   2.290
 6475SOL    HW220325   5.740   5.666   2.409
 6476SOL     OW20326   3.935   2.316   6.478
 6476SOL    HW120327   3.934   2.403   6.527
 6476SOL    HW220328   3.869   2.254   6.520
 6477SOL     OW20329   6.673   5.860   1.868
 6477SOL    HW120330   6.669   5.802   1.950
 6477SOL    HW220331   6.606   5.934   1.876
 6478SOL     OW20332   2.802   5.837   1.225
 6478SOL    HW120333   2.770   5.769   1.160
 6478SOL    HW220334   2.788   5.805   1.318
 6479SOL     OW20335   3.697   6.412   3.086
 6479SOL    HW120336   3.655   6.408   2.996
 6479SOL    HW220337   3.769   6.482   3.086
 6480SOL     OW20338   4.022   1.431   6.713
 6480SOL    HW120339   3.938   1.478   6.686
 6480SOL    HW220340   4.092   1.499   6.734
 6481SOL     OW20341   3.928   2.673   1.692
 6481SOL    HW120342   3.957   2.756   1.741
 6481SOL    HW220343   3.835   2.650   1.719
 6482SOL     OW20344   5.566   3.809   5.975
 6482SOL    HW120345   5.625   3.765   6.043
 6482SOL    HW220346   5.495   3.745   5.946
 6483SOL     OW20347   2.071   6.567   5.157
 6483SOL    HW120348   2.040   6.547   5.064
 6483SOL    HW220349   2.166   6.540   5.167
 6484SOL     OW20350   2.867   0.740   3.427
 6484SOL    HW120351   2.770   0.766   3.427
 6484SOL    HW220352   2.910   0.770   3.342
 6485SOL     OW20353   2.292   5.946   5.171
 6485SOL    HW120354   2.333   5.886   5.240
 6485SOL    HW220355   2.337   5.931   5.083
 6486SOL     OW20356   1.229   4.923   2.859
 6486SOL    HW120357   1.262   4.884   2.945
 6486SOL    HW220358   1.135   4.894   2.843
 6487SOL     OW20359   5.723   4.618   4.253
 6487SOL    HW120360   5.721   4.600   4.154
 6487SOL    HW220361   5.818   4.615   4.285
 6488SOL     OW20362   3.593   5.346   4.678
 6488SOL    HW120363   3.666   5.295   4.725
 6488SOL    HW220364   3.632   5.399   4.603
 6489SOL     OW20365   4.620   2.655   4.998
 6489SOL    HW120366   4.653   2.749   5.009
 6489SOL    HW220367   4.544   2.639   5.061
 6490SOL     OW20368   2.225   2.232   0.123
 6490SOL    HW120369   2.303   2.286   0.092
 6490SOL    HW220370   2.149   2.293   0.147
 6491SOL     OW20371   2.691   6.596   1.857
 6491SOL    HW120372   2.757   6.597   1.782
 6491SOL    HW220373   2.737   6.564   1.941
 6492SOL     OW20374   4.033   3.251   5.043
 6492SOL    HW120375   3.963   3.187   5.011
 6492SOL    HW220376   4.085   3.285   4.965
 6493SOL     OW20377   0.843   4.546   4.189
 6493SOL    HW120378   0.858   4.458   4.145
 6493SOL    HW220379   0.931   4.584   4.219
 6494SOL     OW20380   6.212   0.420   1.245
 6494SOL    HW120381   6.132   0.403   1.188
 6494SOL    HW220382   6.255   0.332   1.268
 6495SOL     OW20383   6.526   0.691   3.330
 6495SOL    HW120384   6.439   0.724   3.366
 6495SOL    HW220385   6.583   0.657   3.405
 6496SOL     OW20386   3.482   2.033   1.173
 6496SOL    HW120387   3.482   1.974   1.093
 6496SOL    HW220388   3.432   1.989   1.248
 6497SOL     OW20389   0.336   1.208   0.439
 6497SOL    HW120390   0.391   1.255   0.508
 6497SOL    HW220391   0.255   1.263   0.418
 6498SOL     OW20392   1.499   4.503   3.852
 6498SOL    HW120393   1.505   4.431   3.784
 6498SOL    HW220394   1.553   4.477   3.933
 6499SOL     OW20395   4.820   2.885   3.293
 6499SOL    HW120396   4.816   2.967   3.351
 6499SOL    HW220397   4.834   2.913   3.198
 6500SOL     OW20398   1.426   4.308   3.246
 6500SOL    HW120399   1.514   4.261   3.250
 6500SOL    HW220400   1.433   4.387   3.185
 6501SOL     OW20401   5.855   1.699   2.237
 6501SOL    HW120402   5.863   1.600   2.245
 6501SOL    HW220403   5.887   1.743   2.321
 6502SOL     OW20404   0.101   3.669   2.419
 6502SOL    HW120405   0.166   3.616   2.364
 6502SOL    HW220406   0.089   3.625   2.508
 6503SOL     OW20407   6.900   3.612   5.805
 6503SOL    HW120408   6.834   3.667   5.856
 6503SOL    HW220409   6.908   3.522   5.848
 6504SOL     OW20410   4.339   6.233   6.128
 6504SOL    HW120411   4.356   6.331   6.141
 6504SOL    HW220412   4.416   6.181   6.164
 6505SOL     OW20413   0.141   5.651   0.852
 6505SOL    HW120414   0.112   5.746   0.855
 6505SOL    HW220415   0.094   5.604   0.778
 6506SOL     OW20416   0.389   3.732   2.215
 6506SOL    HW120417   0.486   3.713   2.203
 6506SOL    HW220418   0.336   3.650   2.193
 6507SOL     OW20419   3.743   5.208   0.329
 6507SOL    HW120420   3.822   5.209   0.269
 6507SOL    HW220421   3.702   5.299   0.332
 6508SOL     OW20422   0.795   0.086   3.091
 6508SOL    HW120423   0.836   0.148   3.024
 6508SOL    HW220424   0.865   0.020   3.121
 6509SOL     OW20425   2.276   1.644   6.852
 6509SOL    HW120426   2.349   1.637   6.784
 6509SOL    HW220427   2.305   1.604   6.938
 6510SOL     OW20428   3.133   6.159   5.502
 6510SOL    HW120429   3.176   6.073   5.476
 6510SOL    HW220430   3.170   6.190   5.589
 6511SOL     OW20431   3.382   1.673   0.755
 6511SOL    HW120432   3.475   1.696   0.727
 6511SOL    HW220433   3.362   1.578   0.730
 6512SOL     OW20434   4.035   1.469   0.078
 6512SOL    HW120435   3.945   1.486   0.038
 6512SOL    HW220436   4.027   1.466   0.177
 6513SOL     OW20437   2.941   4.866   3.230
 6513SOL    HW120438   3.014   4.900   3.170
 6513SOL    HW220439   2.923   4.932   3.302
 6514SOL     OW20440   5.228   6.655   5.179
 6514SOL    HW120441   5.263   6.565   5.154
 6514SOL    HW220442   5.146   6.644   5.235
 6515SOL     OW20443   0.978   4.777   2.502
 6515SOL    HW120444   0.886   4.765   2.464
 6515SOL    HW220445   1.033   4.696   2.482
 6516SOL     OW20446   6.382   3.198   1.538
 6516SOL    HW120447   6.447   3.130   1.572
 6516SOL    HW220448   6.297   3.153   1.511
 6517SOL     OW20449   0.076   3.610   0.616
 6517SOL    HW120450   0.062   3.553   0.535
 6517SOL    HW220451   0.174   3.621   0.632
 6518SOL     OW20452   0.520   1.590   2.562
 6518SOL    HW120453   0.581   1.654   2.609
 6518SOL    HW220454   0.499   1.625   2.470
 6519SOL     OW20455   1.202   1.353   3.321
 6519SOL    HW120456   1.231   1.411   3.397
 6519SOL    HW220457   1.111   1.381   3.291
 6520SOL     OW20458   7.006   5.214   0.570
 6520SOL    HW120459   6.921   5.251   0.607
 6520SOL    HW220460   0.005   5.254   0.480
 6521SOL     OW20461   1.606   3.723   3.832
 6521SOL    HW120462   1.594   3.819   3.805
 6521SOL    HW220463   1.596   3.715   3.931
 6522SOL     OW20464   2.695   2.950   5.351
 6522SOL    HW120465   2.615   2.961   5.292
 6522SOL    HW220466   2.777   2.980   5.303
 6523SOL     OW20467   6.223   0.078   0.331
 6523SOL    HW120468   6.228   0.172   0.364
 6523SOL    HW220469   6.135   0.065   0.283
 6524SOL     OW20470   2.802   2.802   0.680
 6524SOL    HW120471   2.747   2.723   0.704
 6524SOL    HW220472   2.863   2.826   0.756
 6525SOL     OW20473   0.884   4.928   3.533
 6525SOL    HW120474   0.902   4.846   3.479
 6525SOL    HW220475   0.924   5.008   3.487
 6526SOL     OW20476   0.933   5.742   0.235
 6526SOL    HW120477   0.929   5.751   0.136
 6526SOL    HW220478   1.029   5.738   0.265
 6527SOL     OW20479   6.695   1.781   0.253
 6527SOL    HW120480   6.638   1.701   0.268
 6527SOL    HW220481   6.637   1.862   0.241
 6528SOL     OW20482   4.030   6.682   6.625
 6528SOL    HW120483   4.067   6.688   6.532
 6528SOL    HW220484   3.993   6.771   6.651
 6529SOL     OW20485   5.905   0.667   2.327
 6529SOL    HW120486   5.880   0.760   2.299
 6529SOL    HW220487   5.852   0.601   2.274
 6530SOL     OW20488   0.312   2.771   3.007
 6530SOL    HW120489   0.239   2.757   3.074
 6530SOL    HW220490   0.312   2.866   2.977
 6531SOL     OW20491   3.611   4.251   5.112
 6531SOL    HW120492   3.578   4.323   5.174
 6531SOL    HW220493   3.646   4.292   5.028
 6532SOL     OW20494   1.364   6.988   0.175
 6532SOL    HW120495   1.400   6.902   0.211
 6532SOL    HW220496   1.439   0.034   0.163
 6533SOL     OW20497   4.942   4.215   1.166
 6533SOL    HW120498   4.940   4.117   1.143
 6533SOL    HW220499   4.849   4.251   1.169
 6534SOL     OW20500   0.083   4.234   3.209
 6534SOL    HW120501   0.092   4.328   3.243
 6534SOL    HW220502   7.005   4.211   3.199
 6535SOL     OW20503   4.816   2.927   5.153
 6535SOL    HW120504   4.720   2.924   5.181
 6535SOL    HW220505   4.875   2.910   5.232
 6536SOL     OW20506   0.932   4.445   5.119
 6536SOL    HW120507   0.996   4.452   5.195
 6536SOL    HW220508   0.953   4.362   5.066
 6537SOL     OW20509   6.361   5.477   3.948
 6537SOL    HW120510   6.437   5.429   3.903
 6537SOL    HW220511   6.275   5.453   3.903
 6538SOL     OW20512   1.821   2.639   5.542
 6538SOL    HW120513   1.851   2.552   5.504
 6538SOL    HW220514   1.775   2.693   5.471
 6539SOL     OW20515   5.247   0.445   6.216
 6539SOL    HW120516   5.203   0.420   6.130
 6539SOL    HW220517   5.266   0.543   6.217
 6540SOL     OW20518   6.611   2.745   5.761
 6540SOL    HW120519   6.577   2.829   5.720
 6540SOL    HW220520   6.683   2.706   5.703
 6541SOL     OW20521   6.291   1.750   5.141
 6541SOL    HW120522   6.237   1.680   5.186
 6541SOL    HW220523   6.266   1.754   5.044
 6542SOL     OW20524   1.259   4.074   3.173
 6542SOL    HW120525   1.222   4.025   3.252
 6542SOL    HW220526   1.298   4.161   3.203
 6543SOL     OW20527   3.576   1.587   4.420
 6543SOL    HW120528   3.534   1.593   4.330
 6543SOL    HW220529   3.520   1.638   4.486
 6544SOL     OW20530   1.149   6.474   0.943
 6544SOL    HW120531   1.135   6.520   1.031
 6544SOL    HW220532   1.075   6.500   0.881
 6545SOL     OW20533   4.571   6.561   0.913
 6545SOL    HW120534   4.590   6.621   0.836
 6545SOL    HW220535   4.597   6.607   0.998
 6546SOL     OW20536   4.667   4.091   6.170
 6546SOL    HW120537   4.675   4.086   6.270
 6546SOL    HW220538   4.666   3.998   6.133
 6547SOL     OW20539   0.533   5.770   6.201
 6547SOL    HW120540   0.521   5.761   6.102
 6547SOL    HW220541   0.543   5.679   6.242
 6548SOL     OW20542   6.916   1.256   5.859
 6548SOL    HW120543   6.818   1.271   5.866
 6548SOL    HW220544   6.954   1.318   5.790
 6549SOL     OW20545   4.306   1.640   2.411
 6549SOL    HW120546   4.354   1.603   2.331
 6549SOL    HW220547   4.348   1.725   2.440
 6550SOL     OW20548   6.138   6.377   3.187
 6550SOL    HW120549   6.172   6.340   3.101
 6550SOL    HW220550   6.064   6.320   3.221
 6551SOL     OW20551   3.332   4.178   0.881
 6551SOL    HW120552   3.342   4.164   0.782
 6551SOL    HW220553   3.239   4.155   0.909
 6552SOL     OW20554   1.914   5.464   0.247
 6552SOL    HW120555   1.942   5.372   0.220
 6552SOL    HW220556   1.896   5.465   0.346
 6553SOL     OW20557   1.197   1.081   3.400
 6553SOL    HW120558   1.201   1.166   3.348
 6553SOL    HW220559   1.105   1.041   3.391
 6554SOL     OW20560   1.611   1.675   4.169
 6554SOL    HW120561   1.675   1.746   4.196
 6554SOL    HW220562   1.562   1.641   4.249
 6555SOL     OW20563   6.284   3.654   3.734
 6555SOL    HW120564   6.316   3.560   3.748
 6555SOL    HW220565   6.342   3.718   3.784
 6556SOL     OW20566   4.943   3.221   2.430
 6556SOL    HW120567   4.924   3.319   2.444
 6556SOL    HW220568   5.029   3.211   2.381
 6557SOL     OW20569   2.012   0.641   2.156
 6557SOL    HW120570   2.040   0.546   2.143
 6557SOL    HW220571   2.075   0.701   2.107
 6558SOL     OW20572   5.536   6.302   6.415
 6558SOL    HW120573   5.621   6.266   6.375
 6558SOL    HW220574   5.502   6.377   6.359
 6559SOL     OW20575   6.799   2.684   6.503
 6559SOL    HW120576   6.852   2.701   6.420
 6559SOL    HW220577   6.706   2.658   6.478
 6560SOL     OW20578   5.341   4.775   0.285
 6560SOL    HW120579   5.264   4.821   0.329
 6560SOL    HW220580   5.395   4.727   0.355
 6561SOL     OW20581   3.546   4.711   6.913
 6561SOL    HW120582   3.522   4.741   6.820
 6561SOL    HW220583   3.642   4.734   6.931
 6562SOL     OW20584   5.499   2.398   1.311
 6562SOL    HW120585   5.444   2.433   1.387
 6562SOL    HW220586   5.476   2.448   1.227
 6563SOL     OW20587   5.644   5.064   5.148
 6563SOL    HW120588   5.562   5.115   5.126
 6563SOL    HW220589   5.619   4.977   5.191
 6564SOL     OW20590   6.160   3.227   2.948
 6564SOL    HW120591   6.212   3.226   2.863
 6564SOL    HW220592   6.113   3.315   2.956
 6565SOL     OW20593   5.590   0.296   3.093
 6565SOL    HW120594   5.577   0.198   3.075
 6565SOL    HW220595   5.527   0.349   3.037
 6566SOL     OW20596   4.751   5.820   3.164
 6566SOL    HW120597   4.696   5.761   3.224
 6566SOL    HW220598   4.700   5.903   3.143
 6567SOL     OW20599   3.818   0.644   1.376
 6567SOL    HW120600   3.859   0.711   1.314
 6567SOL    HW220601   3.720   0.638   1.358
 6568SOL     OW20602   4.424   1.956   0.577
 6568SOL    HW120603   4.429   2.053   0.554
 6568SOL    HW220604   4.449   1.901   0.497
 6569SOL     OW20605   0.722   4.537   4.660
 6569SOL    HW120606   0.794   4.489   4.610
 6569SOL    HW220607   0.759   4.575   4.744
 6570SOL     OW20608   4.495   0.541   1.630
 6570SOL    HW120609   4.538   0.484   1.559
 6570SOL    HW220610   4.400   0.559   1.604
 6571SOL     OW20611   3.588   4.868   2.937
 6571SOL    HW120612   3.646   4.892   3.016
 6571SOL    HW220613   3.501   4.831   2.969
 6572SOL     OW20614   1.292   5.588   4.074
 6572SOL    HW120615   1.316   5.569   3.979
 6572SOL    HW220616   1.348   5.665   4.107
 6573SOL     OW20617   1.391   1.711   3.471
 6573SOL    HW120618   1.461   1.640   3.462
 6573SOL    HW220619   1.432   1.801   3.455
 6574SOL     OW20620   1.798   5.492   2.565
 6574SOL    HW120621   1.712   5.521   2.607
 6574SOL    HW220622   1.782   5.469   2.469
 6575SOL     OW20623   7.008   1.414   3.101
 6575SOL    HW120624   0.008   1.439   3.196
 6575SOL    HW220625   0.073   1.427   3.046
 6576SOL     OW20626   4.803   5.730   0.821
 6576SOL    HW120627   4.893   5.765   0.794
 6576SOL    HW220628   4.790   5.639   0.782
 6577SOL     OW20629   3.344   1.150   3.630
 6577SOL    HW120630   3.361   1.247   3.617
 6577SOL    HW220631   3.367   1.124   3.723
 6578SOL     OW20632   1.411   4.635   1.306
 6578SOL    HW120633   1.367   4.549   1.332
 6578SOL    HW220634   1.389   4.706   1.373
 6579SOL     OW20635   6.652   1.133   4.028
 6579SOL    HW120636   6.702   1.080   4.098
 6579SOL    HW220637   6.665   1.231   4.046
 6580SOL     OW20638   2.428   2.060   0.087
 6580SOL    HW120639   2.490   2.114   0.144
 6580SOL    HW220640   2.340   2.106   0.079
 6581SOL     OW20641   0.614   1.752   1.063
 6581SOL    HW120642   0.544   1.780   1.128
 6581SOL    HW220643   0.606   1.806   0.979
 6582SOL     OW20644   6.603   1.445   2.862
 6582SOL    HW120645   6.505   1.452   2.847
 6582SOL    HW220646   6.625   1.475   2.955
 6583SOL     OW20647   3.805   5.195   6.757
 6583SOL    HW120648   3.836   5.271   6.699
 6583SOL    HW220649   3.841   5.109   6.721
 6584SOL     OW20650   4.270   2.569   0.122
 6584SOL    HW120651   4.173   2.575   0.145
 6584SOL    HW220652   4.296   2.649   0.068
 6585SOL     OW20653   5.803   6.528   1.322
 6585SOL    HW120654   5.863   6.466   1.270
 6585SOL    HW220655   5.742   6.474   1.380
 6586SOL     OW20656   0.171   1.579   0.294
 6586SOL    HW120657   0.147   1.497   0.347
 6586SOL    HW220658   0.115   1.583   0.212
 6587SOL     OW20659   1.685   4.664   5.541
 6587SOL    HW120660   1.642   4.630   5.625
 6587SOL    HW220661   1.761   4.604   5.516
 6588SOL     OW20662   6.836   2.727   0.556
 6588SOL    HW120663   6.843   2.649   0.618
 6588SOL    HW220664   6.921   2.781   0.560
 6589SOL     OW20665   6.539   0.317   2.209
 6589SOL    HW120666   6.513   0.375   2.132
 6589SOL    HW220667   6.638   0.319   2.220
 6590SOL     OW20668   1.409   6.265   3.876
 6590SOL    HW120669   1.320   6.257   3.921
 6590SOL    HW220670   1.461   6.181   3.888
 6591SOL     OW20671   5.804   4.089   3.638
 6591SOL    HW120672   5.782   4.160   3.704
 6591SOL    HW220673   5.896   4.053   3.656
 6592SOL     OW20674   6.120   6.825   3.395
 6592SOL    HW120675   6.219   6.813   3.397
 6592SOL    HW220676   6.078   6.751   3.342
 6593SOL     OW20677   2.505   1.659   2.143
 6593SOL    HW120678   2.509   1.565   2.109
 6593SOL    HW220679   2.431   1.668   2.209
 6594SOL     OW20680   5.460   0.316   6.363
 6594SOL    HW120681   5.422   0.237   6.411
 6594SOL    HW220682   5.394   0.349   6.296
 6595SOL     OW20683   0.825   2.123   5.333
 6595SOL    HW120684   0.830   2.223   5.329
 6595SOL    HW220685   0.736   2.093   5.299
 6596SOL     OW20686   5.576   0.292   2.754
 6596SOL    HW120687   5.511   0.335   2.817
 6596SOL    HW220688   5.594   0.198   2.785
 6597SOL     OW20689   1.040   4.159   2.083
 6597SOL    HW120690   0.948   4.131   2.056
 6597SOL    HW220691   1.086   4.083   2.128
 6598SOL     OW20692   1.336   4.444   4.334
 6598SOL    HW120693   1.274   4.518   4.359
 6598SOL    HW220694   1.424   4.458   4.378
 6599SOL     OW20695   6.405   5.586   6.127
 6599SOL    HW120696   6.502   5.580   6.104
 6599SOL    HW220697   6.355   5.513   6.081
 6600SOL     OW20698   4.470   0.545   5.208
 6600SOL    HW120699   4.449   0.520   5.114
 6600SOL    HW220700   4.500   0.640   5.211
 6601SOL     OW20701   1.649   2.337   1.456
 6601SOL    HW120702   1.581   2.336   1.529
 6601SOL    HW220703   1.654   2.430   1.418
 6602SOL     OW20704   1.188   5.800   1.919
 6602SOL    HW120705   1.166   5.785   1.822
 6602SOL    HW220706   1.200   5.711   1.965
 6603SOL     OW20707   0.051   3.203   3.006
 6603SOL    HW120708   0.077   3.156   2.921
 6603SOL    HW220709   7.017   3.285   2.983
 6604SOL     OW20710   2.192   6.154   2.749
 6604SOL    HW120711   2.260   6.172   2.820
 6604SOL    HW220712   2.218   6.203   2.666
 6605SOL     OW20713   0.115   5.516   1.120
 6605SOL    HW120714   0.182   5.467   1.064
 6605SOL    HW220715   0.052   5.566   1.060
 6606SOL     OW20716   1.493   2.930   3.002
 6606SOL    HW120717   1.428   3.006   2.995
 6606SOL    HW220718   1.586   2.966   3.005
 6607SOL     OW20719   5.981   3.831   3.481
 6607SOL    HW120720   6.024   3.741   3.490
 6607SOL    HW220721   5.990   3.881   3.568
 6608SOL     OW20722   1.240   5.665   5.999
 6608SOL    HW120723   1.266   5.725   6.075
 6608SOL    HW220724   1.151   5.693   5.963
 6609SOL     OW20725   4.760   1.461   6.166
 6609SOL    HW120726   4.780   1.555   6.192
 6609SOL    HW220727   4.736   1.457   6.069
 6610SOL     OW20728   3.047   5.487   0.733
 6610SOL    HW120729   2.947   5.493   0.739
 6610SOL    HW220730   3.072   5.419   0.664
 6611SOL     OW20731   3.832   1.792   4.464
 6611SOL    HW120732   3.761   1.739   4.510
 6611SOL    HW220733   3.819   1.787   4.365
 6612SOL     OW20734   0.759   0.510   6.304
 6612SOL    HW120735   0.695   0.564   6.359
 6612SOL    HW220736   0.847   0.556   6.301
 6613SOL     OW20737   4.844   6.800   0.593
 6613SOL    HW120738   4.921   6.745   0.561
 6613SOL    HW220739   4.847   6.890   0.551
 6614SOL     OW20740   4.552   5.476   0.934
 6614SOL    HW120741   4.470   5.461   0.989
 6614SOL    HW220742   4.551   5.569   0.897
 6615SOL     OW20743   3.779   4.952   5.869
 6615SOL    HW120744   3.734   4.862   5.872
 6615SOL    HW220745   3.717   5.021   5.905
 6616SOL     OW20746   3.543   1.473   6.288
 6616SOL    HW120747   3.559   1.402   6.220
 6616SOL    HW220748   3.492   1.548   6.246
 6617SOL     OW20749   3.722   0.240   4.174
 6617SOL    HW120750   3.784   0.284   4.238
 6617SOL    HW220751   3.772   0.172   4.119
 6618SOL     OW20752   6.371   2.649   4.137
 6618SOL    HW120753   6.372   2.603   4.048
 6618SOL    HW220754   6.329   2.740   4.126
 6619SOL     OW20755   4.402   6.118   4.181
 6619SOL    HW120756   4.375   6.206   4.220
 6619SOL    HW220757   4.428   6.130   4.085
 6620SOL     OW20758   0.473   3.037   3.466
 6620SOL    HW120759   0.502   3.007   3.375
 6620SOL    HW220760   0.547   3.023   3.531
 6621SOL     OW20761   4.163   3.334   4.494
 6621SOL    HW120762   4.147   3.431   4.478
 6621SOL    HW220763   4.114   3.280   4.425
 6622SOL     OW20764   0.812   5.402   0.996
 6622SOL    HW120765   0.813   5.426   0.899
 6622SOL    HW220766   0.759   5.319   1.010
 6623SOL     OW20767   3.243   3.869   5.307
 6623SOL    HW120768   3.180   3.792   5.305
 6623SOL    HW220769   3.207   3.943   5.250
 6624SOL     OW20770   2.328   1.392   3.377
 6624SOL    HW120771   2.419   1.391   3.418
 6624SOL    HW220772   2.336   1.386   3.278
 6625SOL     OW20773   5.898   4.096   5.871
 6625SOL    HW120774   5.876   4.002   5.846
 6625SOL    HW220775   5.855   4.159   5.806
 6626SOL     OW20776   3.007   5.964   5.149
 6626SOL    HW120777   3.019   6.049   5.098
 6626SOL    HW220778   3.094   5.914   5.153
 6627SOL     OW20779   1.997   6.211   4.296
 6627SOL    HW120780   1.980   6.192   4.393
 6627SOL    HW220781   1.975   6.130   4.242
 6628SOL     OW20782   3.678   6.093   4.614
 6628SOL    HW120783   3.583   6.093   4.582
 6628SOL    HW220784   3.737   6.052   4.545
 6629SOL     OW20785   4.794   6.128   6.388
 6629SOL    HW120786   4.776   6.213   6.439
 6629SOL    HW220787   4.868   6.143   6.324
 6630SOL     OW20788   1.936   0.796   0.596
 6630SOL    HW120789   1.864   0.853   0.557
 6630SOL    HW220790   1.906   0.701   0.600
 6631SOL     OW20791   1.725   3.890   6.023
 6631SOL    HW120792   1.706   3.838   6.106
 6631SOL    HW220793   1.794   3.842   5.969
 6632SOL     OW20794   1.537   0.211   0.670
 6632SOL    HW120795   1.479   0.288   0.641
 6632SOL    HW220796   1.632   0.230   0.645
 6633SOL     OW20797   3.630   5.706   5.983
 6633SOL    HW120798   3.543   5.751   5.960
 6633SOL    HW220799   3.699   5.776   6.003
 6634SOL     OW20800   3.903   1.631   4.061
 6634SOL    HW120801   3.869   1.628   3.967
 6634SOL    HW220802   3.853   1.701   4.113
 6635SOL     OW20803   4.987   4.965   4.299
 6635SOL    HW120804   5.007   5.034   4.230
 6635SOL    HW220805   4.938   4.889   4.256
 6636SOL     OW20806   3.926   0.825   6.793
 6636SOL    HW120807   3.896   0.920   6.796
 6636SOL    HW220808   3.923   0.786   6.885
 6637SOL     OW20809   1.150   1.704   1.524
 6637SOL    HW120810   1.117   1.709   1.430
 6637SOL    HW220811   1.164   1.797   1.560
 6638SOL     OW20812   3.091   3.604   4.303
 6638SOL    HW120813   3.149   3.597   4.222
 6638SOL    HW220814   3.119   3.684   4.357
 6639SOL     OW20815   4.782   2.687   1.039
 6639SOL    HW120816   4.793   2.591   1.067
 6639SOL    HW220817   4.715   2.731   1.098
 6640SOL     OW20818   1.834   3.506   4.765
 6640SOL    HW120819   1.763   3.437   4.781
 6640SOL    HW220820   1.924   3.464   4.776
 6641SOL     OW20821   4.926   1.872   1.464
 6641SOL    HW120822   4.891   1.895   1.555
 6641SOL    HW220823   4.867   1.913   1.394
 6642SOL     OW20824   1.464   5.659   7.000
 6642SOL    HW120825   1.514   5.686   6.917
 6642SOL    HW220826   1.368   5.644   6.977
 6643SOL     OW20827   3.891   5.328   6.531
 6643SOL    HW120828   3.984   5.292   6.524
 6643SOL    HW220829   3.872   5.387   6.453
 6644SOL     OW20830   1.859   6.676   3.538
 6644SOL    HW120831   1.786   6.723   3.587
 6644SOL    HW220832   1.942   6.675   3.595
 6645SOL     OW20833   6.064   2.580   0.298
 6645SOL    HW120834   6.049   2.546   0.391
 6645SOL    HW220835   6.025   2.672   0.290
 6646SOL     OW20836   4.396   6.627   5.801
 6646SOL    HW120837   4.461   6.559   5.767
 6646SOL    HW220838   4.370   6.689   5.727
 6647SOL     OW20839   4.224   5.225   0.751
 6647SOL    HW120840   4.273   5.197   0.834
 6647SOL    HW220841   4.236   5.155   0.681
 6648SOL     OW20842   3.197   6.335   5.709
 6648SOL    HW120843   3.256   6.400   5.661
 6648SOL    HW220844   3.110   6.379   5.731
 6649SOL     OW20845   5.440   3.246   6.619
 6649SOL    HW120846   5.444   3.332   6.670
 6649SOL    HW220847   5.446   3.266   6.521
 6650SOL     OW20848   1.879   1.591   5.093
 6650SOL    HW120849   1.905   1.641   5.176
 6650SOL    HW220850   1.923   1.501   5.094
 6651SOL     OW20851   6.471   2.143   6.359
 6651SOL    HW120852   6.373   2.127   6.349
 6651SOL    HW220853   6.514   2.142   6.268
 6652SOL     OW20854   0.073   4.672   0.587
 6652SOL    HW120855   0.140   4.628   0.647
 6652SOL    HW220856   0.114   4.688   0.497
 6653SOL     OW20857   5.687   4.569   0.308
 6653SOL    HW120858   5.742   4.520   0.376
 6653SOL    HW220859   5.745   4.593   0.229
 6654SOL     OW20860   6.541   4.189   3.155
 6654SOL    HW120861   6.459   4.221   3.108
 6654SOL    HW220862   6.572   4.104   3.112
 6655SOL     OW20863   0.227   4.875   2.237
 6655SOL    HW120864   0.186   4.867   2.328
 6655SOL    HW220865   0.192   4.958   2.192
 6656SOL     OW20866   4.662   1.350   3.110
 6656SOL    HW120867   4.622   1.416   3.047
 6656SOL    HW220868   4.753   1.381   3.138
 6657SOL     OW20869   5.430   2.249   3.665
 6657SOL    HW120870   5.523   2.217   3.653
 6657SOL    HW220871   5.392   2.277   3.576
 6658SOL     OW20872   6.723   5.798   5.301
 6658SOL    HW120873   6.666   5.877   5.278
 6658SOL    HW220874   6.753   5.753   5.217
 6659SOL     OW20875   0.794   5.365   2.058
 6659SOL    HW120876   0.887   5.382   2.025
 6659SOL    HW220877   0.791   5.379   2.157
 6660SOL     OW20878   6.584   6.423   4.004
 6660SOL    HW120879   6.490   6.440   3.973
 6660SOL    HW220880   6.612   6.496   4.066
 6661SOL     OW20881   3.801   5.737   4.132
 6661SOL    HW120882   3.839   5.828   4.148
 6661SOL    HW220883   3.719   5.745   4.075
 6662SOL     OW20884   4.192   6.638   2.119
 6662SOL    HW120885   4.104   6.682   2.136
 6662SOL    HW220886   4.181   6.539   2.123
 6663SOL     OW20887   1.095   3.757   6.224
 6663SOL    HW120888   1.013   3.771   6.169
 6663SOL    HW220889   1.149   3.841   6.225
 6664SOL     OW20890   2.814   0.155   1.058
 6664SOL    HW120891   2.884   0.204   1.005
 6664SOL    HW220892   2.837   0.058   1.062
 6665SOL     OW20893   2.245   0.936   6.199
 6665SOL    HW120894   2.206   0.981   6.118
 6665SOL    HW220895   2.330   0.982   6.224
 6666SOL     OW20896   4.073   6.667   5.513
 6666SOL    HW120897   4.106   6.576   5.540
 6666SOL    HW220898   4.101   6.685   5.418
 6667SOL     OW20899   0.449   6.246   6.678
 6667SOL    HW120900   0.463   6.151   6.650
 6667SOL    HW220901   0.358   6.257   6.717
 6668SOL     OW20902   0.147   4.916   0.788
 6668SOL    HW120903   0.064   4.954   0.746
 6668SOL    HW220904   0.122   4.841   0.849
 6669SOL     OW20905   1.482   1.267   3.232
 6669SOL    HW120906   1.509   1.231   3.321
 6669SOL    HW220907   1.394   1.315   3.241
 6670SOL     OW20908   4.324   2.387   0.706
 6670SOL    HW120909   4.318   2.368   0.804
 6670SOL    HW220910   4.358   2.307   0.658
 6671SOL     OW20911   5.048   5.604   0.418
 6671SOL    HW120912   5.125   5.615   0.480
 6671SOL    HW220913   5.023   5.693   0.379
 6672SOL     OW20914   1.901   2.489   1.322
 6672SOL    HW120915   1.991   2.508   1.281
 6672SOL    HW220916   1.862   2.407   1.280
 6673SOL     OW20917   5.997   3.313   3.923
 6673SOL    HW120918   5.916   3.359   3.959
 6673SOL    HW220919   6.071   3.320   3.990
 6674SOL     OW20920   0.468   1.367   0.635
 6674SOL    HW120921   0.495   1.456   0.600
 6674SOL    HW220922   0.548   1.322   0.675
 6675SOL     OW20923   5.358   1.331   6.348
 6675SOL    HW120924   5.362   1.405   6.280
 6675SOL    HW220925   5.314   1.365   6.431
 6676SOL     OW20926   1.300   3.905   4.193
 6676SOL    HW120927   1.231   3.977   4.198
 6676SOL    HW220928   1.263   3.821   4.231
 6677SOL     OW20929   0.707   1.769   0.230
 6677SOL    HW120930   0.781   1.759   0.164
 6677SOL    HW220931   0.706   1.691   0.293
 6678SOL     OW20932   1.960   4.210   6.727
 6678SOL    HW120933   2.008   4.122   6.733
 6678SOL    HW220934   1.865   4.198   6.757
 6679SOL     OW20935   1.923   0.965   3.870
 6679SOL    HW120936   2.009   0.977   3.921
 6679SOL    HW220937   1.848   0.953   3.935
 6680SOL     OW20938   6.017   6.700   1.360
 6680SOL    HW120939   6.094   6.636   1.355
 6680SOL    HW220940   5.931   6.649   1.351
 6681SOL     OW20941   3.363   5.894   1.923
 6681SOL    HW120942   3.417   5.916   2.004
 6681SOL    HW220943   3.415   5.915   1.841
 6682SOL     OW20944   3.517   5.088   5.753
 6682SOL    HW120945   3.446   5.081   5.823
 6682SOL    HW220946   3.600   5.128   5.792
 6683SOL     OW20947   6.785   4.059   6.313
 6683SOL    HW120948   6.797   4.157   6.327
 6683SOL    HW220949   6.802   4.010   6.398
 6684SOL     OW20950   2.988   5.973   0.275
 6684SOL    HW120951   2.893   5.942   0.276
 6684SOL    HW220952   3.009   6.017   0.362
 6685SOL     OW20953   5.136   3.209   6.916
 6685SOL    HW120954   5.160   3.292   6.967
 6685SOL    HW220955   5.135   3.229   6.818
 6686SOL     OW20956   5.023   5.383   4.366
 6686SOL    HW120957   5.035   5.297   4.317
 6686SOL    HW220958   4.926   5.410   4.363
 6687SOL     OW20959   6.426   2.024   2.016
 6687SOL    HW120960   6.508   1.970   2.034
 6687SOL    HW220961   6.430   2.109   2.068
 6688SOL     OW20962   4.631   4.989   0.633
 6688SOL    HW120963   4.621   5.075   0.683
 6688SOL    HW220964   4.726   4.958   0.639
 6689SOL     OW20965   1.989   4.401   5.879
 6689SOL    HW120966   2.039   4.440   5.956
 6689SOL    HW220967   1.912   4.460   5.855
 6690SOL     OW20968   0.843   6.800   5.674
 6690SOL    HW120969   0.850   6.838   5.581
 6690SOL    HW220970   0.922   6.829   5.727
 6691SOL     OW20971   2.534   2.391   2.555
 6691SOL    HW120972   2.632   2.377   2.569
 6691SOL    HW220973   2.510   2.365   2.461
 6692SOL     OW20974   4.658   5.073   2.089
 6692SOL    HW120975   4.602   5.109   2.014
 6692SOL    HW220976   4.658   4.973   2.085
 6693SOL     OW20977   4.036   1.548   4.728
 6693SOL    HW120978   4.113   1.507   4.775
 6693SOL    HW220979   4.051   1.647   4.719
 6694SOL     OW20980   3.461   4.131   1.829
 6694SOL    HW120981   3.395   4.161   1.760
 6694SOL    HW220982   3.544   4.186   1.823
 6695SOL     OW20983   1.855   2.244   6.639
 6695SOL    HW120984   1.928   2.272   6.576
 6695SOL    HW220985   1.780   2.310   6.634
 6696SOL     OW20986   4.101   3.484   4.209
 6696SOL    HW120987   4.143   3.395   4.225
 6696SOL    HW220988   4.074   3.525   4.296
 6697SOL     OW20989   4.001   2.224   2.632
 6697SOL    HW120990   3.994   2.215   2.532
 6697SOL    HW220991   3.956   2.309   2.661
 6698SOL     OW20992   3.413   3.903   1.331
 6698SOL    HW120993   3.438   3.945   1.419
 6698SOL    HW220994   3.482   3.926   1.263
 6699SOL     OW20995   1.073   4.247   5.715
 6699SOL    HW120996   1.165   4.207   5.717
 6699SOL    HW220997   1.005   4.174   5.720
 6700SOL     OW20998   5.980   0.043   6.965
 6700SOL    HW120999   6.060   0.084   6.921
 6700SOL    HW221000   5.984   6.962   6.954
 6701SOL     OW21001   5.927   0.371   1.277
 6701SOL    HW121002   5.923   0.452   1.219
 6701SOL    HW221003   5.841   0.363   1.328
 6702SOL     OW21004   3.202   2.573   1.355
 6702SOL    HW121005   3.200   2.562   1.256
 6702SOL    HW221006   3.222   2.485   1.398
 6703SOL     OW21007   0.238   1.123   0.164
 6703SOL    HW121008   0.247   1.160   0.257
 6703SOL    HW221009   0.221   1.025   0.169
 6704SOL     OW21010   3.114   0.054   6.215
 6704SOL    HW121011   3.185   0.005   6.267
 6704SOL    HW221012   3.025   0.011   6.231
 6705SOL     OW21013   6.326   3.862   2.485
 6705SOL    HW121014   6.285   3.951   2.467
 6705SOL    HW221015   6.288   3.795   2.420
 6706SOL     OW21016   0.205   6.760   1.666
 6706SOL    HW121017   0.274   6.760   1.738
 6706SOL    HW221018   0.221   6.682   1.605
 6707SOL     OW21019   5.229   0.730   2.331
 6707SOL    HW121020   5.200   0.665   2.402
 6707SOL    HW221021   5.230   0.684   2.242
 6708SOL     OW21022   0.844   4.040   1.387
 6708SOL    HW121023   0.833   4.009   1.293
 6708SOL    HW221024   0.798   4.128   1.399
 6709SOL     OW21025   1.897   4.622   2.820
 6709SOL    HW121026   1.815   4.568   2.801
 6709SOL    HW221027   1.967   4.563   2.862
 6710SOL     OW21028   4.469   1.223   0.532
 6710SOL    HW121029   4.505   1.131   0.552
 6710SOL    HW221030   4.487   1.283   0.609
 6711SOL     OW21031   3.509   5.803   6.585
 6711SOL    HW121032   3.446   5.727   6.577
 6711SOL    HW221033   3.554   5.819   6.497
 6712SOL     OW21034   6.055   3.741   1.773
 6712SOL    HW121035   6.078   3.643   1.772
 6712SOL    HW221036   5.955   3.751   1.772
 6713SOL     OW21037   1.967   5.821   4.831
 6713SOL    HW121038   1.981   5.899   4.893
 6713SOL    HW221039   1.875   5.784   4.844
 6714SOL     OW21040   4.777   1.497   1.252
 6714SOL    HW121041   4.875   1.479   1.265
 6714SOL    HW221042   4.765   1.569   1.183
 6715SOL     OW21043   1.272   0.760   0.238
 6715SOL    HW121044   1.312   0.793   0.323
 6715SOL    HW221045   1.200   0.822   0.208
 6716SOL     OW21046   0.080   5.631   3.024
 6716SOL    HW121047   0.081   5.696   3.100
 6716SOL    HW221048   0.034   5.673   2.946
 6717SOL     OW21049   5.113   2.271   5.357
 6717SOL    HW121050   5.102   2.333   5.279
 6717SOL    HW221051   5.101   2.322   5.442
 6718SOL     OW21052   3.775   1.335   1.686
 6718SOL    HW121053   3.841   1.403   1.719
 6718SOL    HW221054   3.804   1.244   1.714
 6719SOL     OW21055   1.984   1.127   0.259
 6719SOL    HW121056   1.888   1.119   0.287
 6719SOL    HW221057   2.015   1.221   0.273
 6720SOL     OW21058   1.925   0.437   6.407
 6720SOL    HW121059   1.858   0.474   6.471
 6720SOL    HW221060   2.014   0.433   6.452
 6721SOL     OW21061   6.336   1.495   0.271
 6721SOL    HW121062   6.237   1.477   0.268
 6721SOL    HW221063   6.357   1.548   0.353
 6722SOL     OW21064   5.825   3.534   0.280
 6722SOL    HW121065   5.787   3.505   0.368
 6722SOL    HW221066   5.923   3.515   0.278
 6723SOL     OW21067   1.025   2.422   6.047
 6723SOL    HW121068   0.981   2.374   5.971
 6723SOL    HW221069   1.109   2.375   6.073
 6724SOL     OW21070   1.908   3.768   5.254
 6724SOL    HW121071   1.947   3.743   5.165
 6724SOL    HW221072   1.960   3.722   5.327
 6725SOL     OW21073   5.090   2.986   3.843
 6725SOL    HW121074   5.044   2.900   3.822
 6725SOL    HW221075   5.154   3.009   3.769
 6726SOL     OW21076   0.265   0.900   5.825
 6726SOL    HW121077   0.303   0.939   5.742
 6726SOL    HW221078   0.170   0.930   5.836
 6727SOL     OW21079   1.062   4.880   5.313
 6727SOL    HW121080   1.130   4.822   5.359
 6727SOL    HW221081   1.036   4.839   5.226
 6728SOL     OW21082   3.205   2.105   3.588
 6728SOL    HW121083   3.296   2.062   3.592
 6728SOL    HW221084   3.167   2.095   3.496
 6729SOL     OW21085   4.477   1.220   2.112
 6729SOL    HW121086   4.407   1.157   2.145
 6729SOL    HW221087   4.433   1.293   2.059
 6730SOL     OW21088   0.521   1.494   1.644
 6730SOL    HW121089   0.515   1.405   1.691
 6730SOL    HW221090   0.550   1.479   1.549
 6731SOL     OW21091   3.917   6.552   6.867
 6731SOL    HW121092   3.954   6.599   6.787
 6731SOL    HW221093   3.820   6.532   6.852
 6732SOL     OW21094   0.194   5.772   4.384
 6732SOL    HW121095   0.226   5.679   4.402
 6732SOL    HW221096   0.119   5.794   4.447
 6733SOL     OW21097   4.936   5.278   6.375
 6733SOL    HW121098   4.837   5.276   6.390
 6733SOL    HW221099   4.956   5.246   6.283
 6734SOL     OW21100   6.650   1.386   4.172
 6734SOL    HW121101   6.606   1.476   4.173
 6734SOL    HW221102   6.639   1.342   4.261
 6735SOL     OW21103   6.280   2.998   3.373
 6735SOL    HW121104   6.224   2.975   3.453
 6735SOL    HW221105   6.223   2.994   3.291
 6736SOL     OW21106   3.354   3.882   0.686
 6736SOL    HW121107   3.260   3.907   0.710
 6736SOL    HW221108   3.399   3.960   0.641
 6737SOL     OW21109   0.242   3.805   0.326
 6737SOL    HW121110   0.245   3.705   0.320
 6737SOL    HW221111   0.312   3.844   0.265
 6738SOL     OW21112   1.326   5.408   3.702
 6738SOL    HW121113   1.358   5.358   3.783
 6738SOL    HW221114   1.405   5.432   3.645
 6739SOL     OW21115   6.365   0.176   4.797
 6739SOL    HW121116   6.326   0.090   4.765
 6739SOL    HW221117   6.331   0.251   4.740
 6740SOL     OW21118   0.479   6.907   3.979
 6740SOL    HW121119   0.461   6.985   4.039
 6740SOL    HW221120   0.411   6.836   3.996
 6741SOL     OW21121   4.538   1.998   6.503
 6741SOL    HW121122   4.563   1.908   6.538
 6741SOL    HW221123   4.453   2.028   6.546
 6742SOL     OW21124   5.738   4.929   3.575
 6742SOL    HW121125   5.697   4.989   3.644
 6742SOL    HW221126   5.667   4.874   3.532
 6743SOL     OW21127   4.224   4.038   0.503
 6743SOL    HW121128   4.262   4.063   0.592
 6743SOL    HW221129   4.269   3.956   0.468
 6744SOL     OW21130   0.402   6.139   6.052
 6744SOL    HW121131   0.325   6.146   5.989
 6744SOL    HW221132   0.376   6.084   6.131
 6745SOL     OW21133   6.968   5.127   5.010
 6745SOL    HW121134   6.927   5.119   5.101
 6745SOL    HW221135   0.043   5.090   5.012
 6746SOL     OW21136   1.420   2.054   2.366
 6746SOL    HW121137   1.364   2.014   2.294
 6746SOL    HW221138   1.370   2.128   2.410
 6747SOL     OW21139   1.618   6.360   6.006
 6747SOL    HW121140   1.612   6.348   5.907
 6747SOL    HW221141   1.704   6.322   6.039
 6748SOL     OW21142   1.919   0.948   4.834
 6748SOL    HW121143   2.008   0.918   4.800
 6748SOL    HW221144   1.847   0.895   4.790
 6749SOL     OW21145   3.676   5.094   1.348
 6749SOL    HW121146   3.611   5.167   1.371
 6749SOL    HW221147   3.632   5.005   1.359
 6750SOL     OW21148   3.183   1.244   5.378
 6750SOL    HW121149   3.143   1.199   5.298
 6750SOL    HW221150   3.212   1.175   5.444
 6751SOL     OW21151   4.557   0.057   4.177
 6751SOL    HW121152   4.616   7.011   4.226
 6751SOL    HW221153   4.462   0.026   4.182
 6752SOL     OW21154   2.056   5.602   2.366
 6752SOL    HW121155   1.962   5.637   2.363
 6752SOL    HW221156   2.065   5.538   2.442
 6753SOL     OW21157   3.950   3.279   5.679
 6753SOL    HW121158   3.932   3.213   5.606
 6753SOL    HW221159   4.045   3.311   5.673
 6754SOL     OW21160   6.023   2.143   1.191
 6754SOL    HW121161   6.002   2.066   1.253
 6754SOL    HW221162   6.115   2.130   1.153
 6755SOL     OW21163   2.660   5.467   6.163
 6755SOL    HW121164   2.686   5.486   6.258
 6755SOL    HW221165   2.723   5.516   6.102
 6756SOL     OW21166   2.710   2.196   5.243
 6756SOL    HW121167   2.766   2.255   5.184
 6756SOL    HW221168   2.623   2.176   5.197
 6757SOL     OW21169   3.632   6.833   0.247
 6757SOL    HW121170   3.535   6.828   0.273
 6757SOL    HW221171   3.646   6.910   0.185
 6758SOL     OW21172   6.163   2.229   2.906
 6758SOL    HW121173   6.114   2.260   2.988
 6758SOL    HW221174   6.101   2.235   2.827
 6759SOL     OW21175   1.018   2.825   2.614
 6759SOL    HW121176   1.050   2.787   2.527
 6759SOL    HW221177   0.966   2.755   2.663
 6760SOL     OW21178   5.312   2.245   2.882
 6760SOL    HW121179   5.374   2.248   2.804
 6760SOL    HW221180   5.257   2.329   2.884
 6761SOL     OW21181   4.173   2.064   4.876
 6761SOL    HW121182   4.084   2.108   4.872
 6761SOL    HW221183   4.168   1.973   4.834
 6762SOL     OW21184   6.591   5.941   3.961
 6762SOL    HW121185   6.668   5.938   3.898
 6762SOL    HW221186   6.584   6.033   4.001
 6763SOL     OW21187   5.081   5.322   4.827
 6763SOL    HW121188   5.089   5.262   4.906
 6763SOL    HW221189   5.163   5.313   4.770
 6764SOL     OW21190   1.909   5.111   1.079
 6764SOL    HW121191   1.983   5.178   1.080
 6764SOL    HW221192   1.888   5.084   1.173
 6765SOL     OW21193   6.687   5.341   2.682
 6765SOL    HW121194   6.652   5.269   2.621
 6765SOL    HW221195   6.785   5.354   2.663
 6766SOL     OW21196   5.773   0.519   0.392
 6766SOL    HW121197   5.676   0.494   0.397
 6766SOL    HW221198   5.784   0.599   0.333
 6767SOL     OW21199   3.009   0.276   0.920
 6767SOL    HW121200   3.012   0.254   0.823
 6767SOL    HW221201   3.074   0.349   0.940
 6768SOL     OW21202   1.489   0.424   1.070
 6768SOL    HW121203   1.444   0.444   0.983
 6768SOL    HW221204   1.495   0.508   1.124
 6769SOL     OW21205   4.104   2.896   1.540
 6769SOL    HW121206   4.160   2.975   1.565
 6769SOL    HW221207   4.063   2.857   1.622
 6770SOL     OW21208   6.872   0.321   1.564
 6770SOL    HW121209   6.952   0.375   1.538
 6770SOL    HW221210   6.860   0.327   1.663
 6771SOL     OW21211   3.908   2.041   3.298
 6771SOL    HW121212   3.904   2.057   3.397
 6771SOL    HW221213   4.002   2.023   3.271
 6772SOL     OW21214   2.871   1.837   2.548
 6772SOL    HW121215   2.845   1.933   2.558
 6772SOL    HW221216   2.797   1.787   2.502
 6773SOL     OW21217   0.040   4.590   2.435
 6773SOL    HW121218   0.033   4.514   2.370
 6773SOL    HW221219   0.132   4.591   2.474
 6774SOL     OW21220   0.883   2.074   6.883
 6774SOL    HW121221   0.785   2.090   6.879
 6774SOL    HW221222   0.915   2.080   6.978
 6775SOL     OW21223   2.345   4.662   0.851
 6775SOL    HW121224   2.264   4.711   0.817
 6775SOL    HW221225   2.420   4.727   0.864
 6776SOL     OW21226   6.263   5.097   0.254
 6776SOL    HW121227   6.303   5.099   0.345
 6776SOL    HW221228   6.223   5.187   0.234
 6777SOL     OW21229   4.420   4.650   6.508
 6777SOL    HW121230   4.422   4.604   6.419
 6777SOL    HW221231   4.366   4.595   6.572
 6778SOL     OW21232   0.684   5.621   2.870
 6778SOL    HW121233   0.722   5.692   2.810
 6778SOL    HW221234   0.757   5.558   2.896
 6779SOL     OW21235   6.969   5.091   0.258
 6779SOL    HW121236   6.975   5.188   0.236
 6779SOL    HW221237   7.010   5.037   0.184
 6780SOL     OW21238   0.126   2.214   2.295
 6780SOL    HW121239   0.146   2.189   2.390
 6780SOL    HW221240   0.156   2.308   2.279
 6781SOL     OW21241   5.205   6.054   6.040
 6781SOL    HW121242   5.138   5.985   6.066
 6781SOL    HW221243   5.269   6.069   6.116
 6782SOL     OW21244   6.629   1.667   2.694
 6782SOL    HW121245   6.627   1.764   2.721
 6782SOL    HW221246   6.604   1.610   2.773
 6783SOL     OW21247   0.107   6.255   6.568
 6783SOL    HW121248   0.166   6.199   6.510
 6783SOL    HW221249   0.048   6.197   6.623
 6784SOL     OW21250   3.294   3.474   0.574
 6784SOL    HW121251   3.296   3.563   0.528
 6784SOL    HW221252   3.263   3.487   0.668
 6785SOL     OW21253   5.539   6.088   2.223
 6785SOL    HW121254   5.469   6.127   2.283
 6785SOL    HW221255   5.607   6.040   2.279
 6786SOL     OW21256   1.713   2.681   6.092
 6786SOL    HW121257   1.671   2.665   6.003
 6786SOL    HW221258   1.794   2.738   6.080
 6787SOL     OW21259   1.507   3.457   2.376
 6787SOL    HW121260   1.557   3.502   2.450
 6787SOL    HW221261   1.571   3.428   2.305
 6788SOL     OW21262   3.002   3.867   0.947
 6788SOL    HW121263   3.024   3.937   1.015
 6788SOL    HW221264   3.018   3.776   0.985
 6789SOL     OW21265   0.695   6.676   2.244
 6789SOL    HW121266   0.710   6.613   2.321
 6789SOL    HW221267   0.781   6.721   2.221
 6790SOL     OW21268   2.086   2.842   6.937
 6790SOL    HW121269   2.182   2.858   6.913
 6790SOL    HW221270   2.053   2.762   6.885
 6791SOL     OW21271   4.369   3.014   6.313
 6791SOL    HW121272   4.352   2.929   6.263
 6791SOL    HW221273   4.450   3.004   6.371
 6792SOL     OW21274   6.500   6.268   0.612
 6792SOL    HW121275   6.570   6.275   0.541
 6792SOL    HW221276   6.537   6.218   0.690
 6793SOL     OW21277   1.209   2.902   1.307
 6793SOL    HW121278   1.162   2.967   1.367
 6793SOL    HW221279   1.155   2.818   1.301
 6794SOL     OW21280   5.074   1.187   5.134
 6794SOL    HW121281   5.030   1.273   5.158
 6794SOL    HW221282   5.162   1.180   5.181
 6795SOL     OW21283   2.986   5.966   0.544
 6795SOL    HW121284   2.894   5.973   0.582
 6795SOL    HW221285   3.013   5.870   0.538
 6796SOL     OW21286   4.537   1.479   2.903
 6796SOL    HW121287   4.574   1.568   2.878
 6796SOL    HW221288   4.443   1.490   2.936
 6797SOL     OW21289   5.896   3.349   1.935
 6797SOL    HW121290   5.953   3.274   1.969
 6797SOL    HW221291   5.949   3.404   1.870
 6798SOL     OW21292   4.712   5.909   2.693
 6798SOL    HW121293   4.672   5.852   2.764
 6798SOL    HW221294   4.746   5.994   2.733
 6799SOL     OW21295   5.317   6.034   0.342
 6799SOL    HW121296   5.327   6.022   0.441
 6799SOL    HW221297   5.400   6.003   0.296
 6800SOL     OW21298   1.959   4.606   0.350
 6800SOL    HW121299   1.899   4.574   0.423
 6800SOL    HW221300   1.903   4.633   0.271
 6801SOL     OW21301   1.653   2.423   2.275
 6801SOL    HW121302   1.572   2.452   2.223
 6801SOL    HW221303   1.633   2.335   2.320
 6802SOL     OW21304   2.327   6.233   1.818
 6802SOL    HW121305   2.229   6.211   1.808
 6802SOL    HW221306   2.363   6.261   1.729
 6803SOL     OW21307   5.150   2.075   6.827
 6803SOL    HW121308   5.183   2.077   6.921
 6803SOL    HW221309   5.129   2.168   6.797
 6804SOL     OW21310   1.933   5.889   3.357
 6804SOL    HW121311   1.903   5.868   3.450
 6804SOL    HW221312   1.918   5.986   3.338
 6805SOL     OW21313   6.131   0.671   4.881
 6805SOL    HW121314   6.183   0.682   4.796
 6805SOL    HW221315   6.035   0.654   4.859
 6806SOL     OW21316   4.093   0.954   5.358
 6806SOL    HW121317   3.996   0.969   5.378
 6806SOL    HW221318   4.129   1.033   5.308
 6807SOL     OW21319   3.165   2.780   0.244
 6807SOL    HW121320   3.078   2.828   0.242
 6807SOL    HW221321   3.152   2.689   0.283
 6808SOL     OW21322   0.596   2.768   5.745
 6808SOL    HW121323   0.568   2.674   5.723
 6808SOL    HW221324   0.630   2.771   5.839
 6809SOL     OW21325   2.520   3.829   6.551
 6809SOL    HW121326   2.529   3.764   6.627
 6809SOL    HW221327   2.546   3.920   6.582
 6810SOL     OW21328   6.985   0.801   2.423
 6810SOL    HW121329   7.017   0.878   2.368
 6810SOL    HW221330   6.886   0.789   2.409
 6811SOL     OW21331   5.875   4.802   1.263
 6811SOL    HW121332   5.920   4.888   1.240
 6811SOL    HW221333   5.802   4.820   1.330
 6812SOL     OW21334   3.600   3.282   3.514
 6812SOL    HW121335   3.676   3.281   3.449
 6812SOL    HW221336   3.514   3.272   3.465
 6813SOL     OW21337   4.342   2.663   0.730
 6813SOL    HW121338   4.389   2.697   0.811
 6813SOL    HW221339   4.342   2.563   0.730
 6814SOL     OW21340   2.688   3.778   1.138
 6814SOL    HW121341   2.709   3.805   1.232
 6814SOL    HW221342   2.589   3.764   1.129
 6815SOL     OW21343   2.037   0.564   1.399
 6815SOL    HW121344   2.067   0.659   1.407
 6815SOL    HW221345   1.942   0.556   1.429
 6816SOL     OW21346   6.600   4.720   0.022
 6816SOL    HW121347   6.569   4.705   0.116
 6816SOL    HW221348   6.617   4.632   6.996
 6817SOL     OW21349   0.091   1.681   5.799
 6817SOL    HW121350   0.127   1.706   5.709
 6817SOL    HW221351   0.147   1.607   5.838
 6818SOL     OW21352   3.732   6.334   2.590
 6818SOL    HW121353   3.792   6.292   2.523
 6818SOL    HW221354   3.665   6.392   2.543
 6819SOL     OW21355   3.383   0.672   4.012
 6819SOL    HW121356   3.404   0.756   4.062
 6819SOL    HW221357   3.468   0.625   3.988
 6820SOL     OW21358   0.989   4.176   3.075
 6820SOL    HW121359   0.899   4.154   3.113
 6820SOL    HW221360   1.059   4.120   3.119
 6821SOL     OW21361   2.464   2.448   4.743
 6821SOL    HW121362   2.387   2.385   4.733
 6821SOL    HW221363   2.504   2.438   4.834
 6822SOL     OW21364   5.762   2.032   5.720
 6822SOL    HW121365   5.787   2.001   5.628
 6822SOL    HW221366   5.671   2.072   5.718
 6823SOL     OW21367   3.078   3.117   3.061
 6823SOL    HW121368   3.116   3.102   2.970
 6823SOL    HW221369   3.018   3.197   3.060
 6824SOL     OW21370   0.999   4.147   6.462
 6824SOL    HW121371   0.933   4.222   6.453
 6824SOL    HW221372   0.973   4.073   6.400
 6825SOL     OW21373   5.071   0.072   2.200
 6825SOL    HW121374   5.100   0.056   2.294
 6825SOL    HW221375   5.150   0.070   2.140
 6826SOL     OW21376   1.828   3.375   2.685
 6826SOL    HW121377   1.814   3.359   2.587
 6826SOL    HW221378   1.922   3.405   2.701
 6827SOL     OW21379   5.535   5.881   6.362
 6827SOL    HW121380   5.605   5.913   6.426
 6827SOL    HW221381   5.445   5.885   6.406
 6828SOL     OW21382   1.188   2.507   1.343
 6828SOL    HW121383   1.241   2.445   1.285
 6828SOL    HW221384   1.248   2.550   1.411
 6829SOL     OW21385   5.252   6.080   3.749
 6829SOL    HW121386   5.204   6.167   3.733
 6829SOL    HW221387   5.186   6.005   3.746
 6830SOL     OW21388   5.508   1.726   3.669
 6830SOL    HW121389   5.584   1.791   3.678
 6830SOL    HW221390   5.448   1.734   3.748
 6831SOL     OW21391   0.494   0.662   5.707
 6831SOL    HW121392   0.499   0.588   5.774
 6831SOL    HW221393   0.547   0.639   5.626
 6832SOL     OW21394   3.231   5.311   2.352
 6832SOL    HW121395   3.253   5.243   2.282
 6832SOL    HW221396   3.171   5.271   2.420
 6833SOL     OW21397   3.788   4.865   0.201
 6833SOL    HW121398   3.810   4.811   0.283
 6833SOL    HW221399   3.689   4.866   0.188
 6834SOL     OW21400   4.130   6.235   1.857
 6834SOL    HW121401   4.148   6.319   1.805
 6834SOL    HW221402   4.034   6.234   1.884
 6835SOL     OW21403   3.753   6.896   4.829
 6835SOL    HW121404   3.830   6.870   4.888
 6835SOL    HW221405   3.733   6.993   4.841
 6836SOL     OW21406   3.594   6.726   6.672
 6836SOL    HW121407   3.632   6.633   6.673
 6836SOL    HW221408   3.549   6.744   6.759
 6837SOL     OW21409   1.780   3.365   1.958
 6837SOL    HW121410   1.735   3.331   1.876
 6837SOL    HW221411   1.842   3.440   1.934
 6838SOL     OW21412   2.105   1.426   6.979
 6838SOL    HW121413   2.070   1.471   6.896
 6838SOL    HW221414   2.070   1.333   6.983
 6839SOL     OW21415   4.198   1.152   0.504
 6839SOL    HW121416   4.160   1.184   0.417
 6839SOL    HW221417   4.294   1.179   0.512
 6840SOL     OW21418   1.693   1.349   6.177
 6840SOL    HW121419   1.678   1.254   6.205
 6840SOL    HW221420   1.609   1.401   6.192
 6841SOL     OW21421   6.530   2.729   6.302
 6841SOL    HW121422   6.510   2.794   6.376
 6841SOL    HW221423   6.522   2.775   6.214
 6842SOL     OW21424   2.198   5.040   2.690
 6842SOL    HW121425   2.125   5.068   2.627
 6842SOL    HW221426   2.219   5.115   2.752
 6843SOL     OW21427   4.613   6.538   6.772
 6843SOL    HW121428   4.651   6.445   6.773
 6843SOL    HW221429   4.602   6.570   6.866
 6844SOL     OW21430   5.365   0.641   5.137
 6844SOL    HW121431   5.356   0.737   5.162
 6844SOL    HW221432   5.287   0.590   5.174
 6845SOL     OW21433   4.967   2.156   2.632
 6845SOL    HW121434   4.910   2.122   2.557
 6845SOL    HW221435   4.916   2.148   2.718
 6846SOL     OW21436   2.880   3.686   0.395
 6846SOL    HW121437   2.947   3.758   0.414
 6846SOL    HW221438   2.849   3.693   0.300
 6847SOL     OW21439   5.784   3.468   4.011
 6847SOL    HW121440   5.745   3.489   4.101
 6847SOL    HW221441   5.733   3.517   3.940
 6848SOL     OW21442   5.894   4.992   3.249
 6848SOL    HW121443   5.837   4.918   3.214
 6848SOL    HW221444   5.894   5.068   3.184
 6849SOL     OW21445   3.769   4.141   6.772
 6849SOL    HW121446   3.855   4.179   6.808
 6849SOL    HW221447   3.726   4.208   6.711
 6850SOL     OW21448   4.048   1.262   3.747
 6850SOL    HW121449   4.107   1.339   3.772
 6850SOL    HW221450   3.978   1.293   3.683
 6851SOL     OW21451   1.854   2.818   3.381
 6851SOL    HW121452   1.925   2.752   3.359
 6851SOL    HW221453   1.891   2.911   3.374
 6852SOL     OW21454   2.573   5.353   0.337
 6852SOL    HW121455   2.499   5.405   0.380
 6852SOL    HW221456   2.536   5.270   0.295
 6853SOL     OW21457   4.879   3.105   6.937
 6853SOL    HW121458   4.855   3.137   6.845
 6853SOL    HW221459   4.967   3.145   6.964
 6854SOL     OW21460   5.272   6.508   5.777
 6854SOL    HW121461   5.254   6.437   5.845
 6854SOL    HW221462   5.363   6.546   5.791
 6855SOL     OW21463   3.923   5.306   3.725
 6855SOL    HW121464   3.877   5.387   3.761
 6855SOL    HW221465   4.014   5.332   3.692
 6856SOL     OW21466   1.217   2.018   0.011
 6856SOL    HW121467   1.270   1.952   0.065
 6856SOL    HW221468   1.231   2.001   6.932
 6857SOL     OW21469   0.812   3.895   5.512
 6857SOL    HW121470   0.887   3.835   5.484
 6857SOL    HW221471   0.726   3.861   5.472
 6858SOL     OW21472   2.874   4.121   1.623
 6858SOL    HW121473   2.898   4.216   1.605
 6858SOL    HW221474   2.850   4.075   1.538
 6859SOL     OW21475   0.907   1.042   2.353
 6859SOL    HW121476   1.002   1.044   2.384
 6859SOL    HW221477   0.879   1.134   2.326
 6860SOL     OW21478   0.957   6.717   2.184
 6860SOL    HW121479   1.015   6.797   2.173
 6860SOL    HW221480   1.014   6.636   2.197
 6861SOL     OW21481   4.892   2.294   5.091
 6861SOL    HW121482   4.837   2.346   5.026
 6861SOL    HW221483   4.832   2.245   5.154
 6862SOL     OW21484   0.551   4.640   5.176
 6862SOL    HW121485   0.567   4.735   5.200
 6862SOL    HW221486   0.551   4.630   5.076
 6863SOL     OW21487   6.754   6.870   5.457
 6863SOL    HW121488   6.669   6.921   5.449
 6863SOL    HW221489   6.783   6.839   5.367
 6864SOL     OW21490   1.429   3.915   5.998
 6864SOL    HW121491   1.510   3.974   5.997
 6864SOL    HW221492   1.456   3.821   5.977
 6865SOL     OW21493   2.119   6.993   4.050
 6865SOL    HW121494   2.209   0.017   4.051
 6865SOL    HW221495   2.058   0.029   3.991
 6866SOL     OW21496   0.532   4.043   1.596
 6866SOL    HW121497   0.561   4.114   1.531
 6866SOL    HW221498   0.445   4.068   1.637
 6867SOL     OW21499   2.252   3.517   6.653
 6867SOL    HW121500   2.238   3.610   6.688
 6867SOL    HW221501   2.216   3.451   6.718
 6868SOL     OW21502   2.509   4.959   4.683
 6868SOL    HW121503   2.475   5.029   4.620
 6868SOL    HW221504   2.443   4.947   4.758
 6869SOL     OW21505   4.197   0.641   5.991
 6869SOL    HW121506   4.269   0.640   5.922
 6869SOL    HW221507   4.156   0.550   5.998
 6870SOL     OW21508   0.050   2.951   0.833
 6870SOL    HW121509   0.127   3.014   0.836
 6870SOL    HW221510   6.983   3.003   0.829
 6871SOL     OW21511   0.529   3.747   2.584
 6871SOL    HW121512   0.529   3.650   2.607
 6871SOL    HW221513   0.614   3.771   2.538
 6872SOL     OW21514   2.534   3.511   0.747
 6872SOL    HW121515   2.474   3.454   0.804
 6872SOL    HW221516   2.614   3.538   0.800
 6873SOL     OW21517   0.922   4.427   4.504
 6873SOL    HW121518   1.003   4.443   4.560
 6873SOL    HW221519   0.927   4.336   4.463
 6874SOL     OW21520   5.423   6.468   3.243
 6874SOL    HW121521   5.493   6.443   3.310
 6874SOL    HW221522   5.334   6.469   3.287
 6875SOL     OW21523   1.442   2.585   0.805
 6875SOL    HW121524   1.511   2.534   0.856
 6875SOL    HW221525   1.351   2.552   0.829
 6876SOL     OW21526   4.424   5.684   3.587
 6876SOL    HW121527   4.502   5.736   3.621
 6876SOL    HW221528   4.350   5.747   3.561
 6877SOL     OW21529   1.653   3.577   2.575
 6877SOL    HW121530   1.675   3.494   2.626
 6877SOL    HW221531   1.715   3.650   2.601
 6878SOL     OW21532   1.927   0.333   4.127
 6878SOL    HW121533   2.010   0.289   4.162
 6878SOL    HW221534   1.899   0.405   4.190
 6879SOL     OW21535   1.864   2.022   0.566
 6879SOL    HW121536   1.817   2.014   0.478
 6879SOL    HW221537   1.816   2.090   0.622
 6880SOL     OW21538   1.488   5.293   6.618
 6880SOL    HW121539   1.445   5.343   6.543
 6880SOL    HW221540   1.586   5.283   6.601
 6881SOL     OW21541   1.155   2.973   0.338
 6881SOL    HW121542   1.228   3.036   0.311
 6881SOL    HW221543   1.154   2.964   0.438
 6882SOL     OW21544   2.997   6.201   6.366
 6882SOL    HW121545   2.903   6.225   6.344
 6882SOL    HW221546   3.059   6.268   6.324
 6883SOL     OW21547   4.899   0.211   6.948
 6883SOL    HW121548   4.809   0.179   6.976
 6883SOL    HW221549   4.892   0.258   6.860
 6884SOL     OW21550   1.885   3.984   2.983
 6884SOL    HW121551   1.955   3.930   2.936
 6884SOL    HW221552   1.847   3.930   3.058
 6885SOL     OW21553   5.619   5.963   4.267
 6885SOL    HW121554   5.690   5.932   4.205
 6885SOL    HW221555   5.661   5.998   4.351
 6886SOL     OW21556   4.861   1.946   6.772
 6886SOL    HW121557   4.945   1.898   6.746
 6886SOL    HW221558   4.854   1.948   6.872
 6887SOL     OW21559   5.296   5.882   6.460
 6887SOL    HW121560   5.204   5.842   6.459
 6887SOL    HW221561   5.289   5.982   6.468
 6888SOL     OW21562   5.991   5.208   6.806
 6888SOL    HW121563   5.952   5.272   6.739
 6888SOL    HW221564   5.975   5.114   6.775
 6889SOL     OW21565   0.592   2.426   6.856
 6889SOL    HW121566   0.493   2.411   6.850
 6889SOL    HW221567   0.611   2.524   6.856
 6890SOL     OW21568   4.728   5.451   2.921
 6890SOL    HW121569   4.756   5.358   2.900
 6890SOL    HW221570   4.797   5.496   2.977
 6891SOL     OW21571   1.739   1.119   0.975
 6891SOL    HW121572   1.783   1.188   1.033
 6891SOL    HW221573   1.642   1.113   0.997
 6892SOL     OW21574   2.947   1.025   4.732
 6892SOL    HW121575   2.921   1.045   4.638
 6892SOL    HW221576   2.972   1.110   4.779
 6893SOL     OW21577   6.749   3.386   0.127
 6893SOL    HW121578   6.825   3.320   0.128
 6893SOL    HW221579   6.670   3.346   0.174
 6894SOL     OW21580   5.569   5.227   0.546
 6894SOL    HW121581   5.561   5.284   0.627
 6894SOL    HW221582   5.486   5.172   0.536
 6895SOL     OW21583   0.826   6.493   1.471
 6895SOL    HW121584   0.746   6.436   1.491
 6895SOL    HW221585   0.851   6.546   1.551
 6896SOL     OW21586   4.315   2.307   4.575
 6896SOL    HW121587   4.343   2.402   4.588
 6896SOL    HW221588   4.299   2.265   4.665
 6897SOL     OW21589   4.867   3.548   5.461
 6897SOL    HW121590   4.855   3.543   5.362
 6897SOL    HW221591   4.926   3.625   5.484
 6898SOL     OW21592   2.611   1.049   1.202
 6898SOL    HW121593   2.706   1.056   1.232
 6898SOL    HW221594   2.550   1.061   1.280
 6899SOL     OW21595   5.922   6.368   2.786
 6899SOL    HW121596   5.992   6.301   2.760
 6899SOL    HW221597   5.847   6.364   2.721
 6900SOL     OW21598   6.701   3.983   5.344
 6900SOL    HW121599   6.753   3.963   5.261
 6900SOL    HW221600   6.699   4.082   5.359
 6901SOL     OW21601   4.654   4.682   0.226
 6901SOL    HW121602   4.726   4.674   0.156
 6901SOL    HW221603   4.565   4.663   0.185
 6902SOL     OW21604   0.760   5.688   6.404
 6902SOL    HW121605   0.790   5.693   6.309
 6902SOL    HW221606   0.786   5.600   6.444
 6903SOL     OW21607   2.332   5.599   4.219
 6903SOL    HW121608   2.341   5.678   4.158
 6903SOL    HW221609   2.237   5.590   4.248
 6904SOL     OW21610   0.036   6.971   4.999
 6904SOL    HW121611   0.054   0.043   4.958
 6904SOL    HW221612   0.122   6.932   5.032
 6905SOL     OW21613   4.811   5.927   6.060
 6905SOL    HW121614   4.775   6.014   6.094
 6905SOL    HW221615   4.789   5.918   5.963
 6906SOL     OW21616   3.660   1.679   3.827
 6906SOL    HW121617   3.592   1.606   3.834
 6906SOL    HW221618   3.633   1.755   3.886
 6907SOL     OW21619   6.290   1.723   0.928
 6907SOL    HW121620   6.249   1.777   0.855
 6907SOL    HW221621   6.389   1.715   0.911
 6908SOL     OW21622   2.633   4.243   6.832
 6908SOL    HW121623   2.616   4.321   6.892
 6908SOL    HW221624   2.665   4.166   6.887
 6909SOL     OW21625   6.077   6.156   2.772
 6909SOL    HW121626   6.047   6.074   2.821
 6909SOL    HW221627   6.129   6.130   2.691
 6910SOL     OW21628   1.675   2.713   3.663
 6910SOL    HW121629   1.675   2.715   3.563
 6910SOL    HW221630   1.723   2.631   3.695
 6911SOL     OW21631   2.731   6.848   5.871
 6911SOL    HW121632   2.721   6.805   5.781
 6911SOL    HW221633   2.675   6.930   5.876
 6912SOL     OW21634   2.459   3.598   6.384
 6912SOL    HW121635   2.478   3.680   6.438
 6912SOL    HW221636   2.364   3.598   6.355
 6913SOL     OW21637   4.902   6.338   5.976
 6913SOL    HW121638   4.951   6.413   5.932
 6913SOL    HW221639   4.876   6.365   6.068
 6914SOL     OW21640   6.611   3.000   2.053
 6914SOL    HW121641   6.543   3.073   2.062
 6914SOL    HW221642   6.642   2.995   1.958
 6915SOL     OW21643   1.049   3.039   2.794
 6915SOL    HW121644   0.981   3.020   2.865
 6915SOL    HW221645   1.056   2.961   2.732
 6916SOL     OW21646   4.707   5.938   6.891
 6916SOL    HW121647   4.644   6.016   6.896
 6916SOL    HW221648   4.761   5.933   6.975
 6917SOL     OW21649   5.358   5.197   1.315
 6917SOL    HW121650   5.450   5.158   1.318
 6917SOL    HW221651   5.291   5.127   1.339
 6918SOL     OW21652   2.066   3.451   1.569
 6918SOL    HW121653   2.160   3.472   1.594
 6918SOL    HW221654   2.005   3.523   1.604
 6919SOL     OW21655   6.613   6.258   3.333
 6919SOL    HW121656   6.597   6.282   3.237
 6919SOL    HW221657   6.678   6.322   3.373
 6920SOL     OW21658   5.973   0.856   5.438
 6920SOL    HW121659   6.007   0.878   5.530
 6920SOL    HW221660   5.949   0.759   5.434
 6921SOL     OW21661   3.922   0.339   4.339
 6921SOL    HW121662   3.898   0.416   4.399
 6921SOL    HW221663   4.021   0.328   4.337
 6922SOL     OW21664   1.289   4.956   5.750
 6922SOL    HW121665   1.190   4.941   5.753
 6922SOL    HW221666   1.324   4.957   5.844
 6923SOL     OW21667   6.032   6.893   2.489
 6923SOL    HW121668   6.055   6.807   2.442
 6923SOL    HW221669   6.064   6.889   2.583
 6924SOL     OW21670   3.319   6.107   1.033
 6924SOL    HW121671   3.295   6.204   1.022
 6924SOL    HW221672   3.291   6.057   0.951
 6925SOL     OW21673   5.904   6.358   6.323
 6925SOL    HW121674   5.835   6.286   6.336
 6925SOL    HW221675   5.884   6.435   6.383
 6926SOL     OW21676   3.044   2.211   6.891
 6926SOL    HW121677   3.056   2.117   6.923
 6926SOL    HW221678   3.064   2.216   6.793
 6927SOL     OW21679   4.844   0.562   0.634
 6927SOL    HW121680   4.902   0.642   0.617
 6927SOL    HW221681   4.777   0.553   0.560
 6928SOL     OW21682   4.333   5.439   1.118
 6928SOL    HW121683   4.241   5.417   1.086
 6928SOL    HW221684   4.351   5.391   1.204
 6929SOL     OW21685   6.448   5.491   1.196
 6929SOL    HW121686   6.439   5.573   1.141
 6929SOL    HW221687   6.388   5.498   1.276
 6930SOL     OW21688   1.246   6.832   0.447
 6930SOL    HW121689   1.317   6.885   0.494
 6930SOL    HW221690   1.281   6.797   0.360
 6931SOL     OW21691   3.048   2.931   0.804
 6931SOL    HW121692   3.078   3.009   0.750
 6931SOL    HW221693   3.099   2.928   0.890
 6932SOL     OW21694   4.719   5.527   0.101
 6932SOL    HW121695   4.651   5.469   0.057
 6932SOL    HW221696   4.799   5.472   0.127
 6933SOL     OW21697   3.503   5.253   6.336
 6933SOL    HW121698   3.469   5.163   6.308
 6933SOL    HW221699   3.509   5.257   6.435
 6934SOL     OW21700   5.385   4.039   6.834
 6934SOL    HW121701   5.303   3.985   6.817
 6934SOL    HW221702   5.388   4.067   6.930
 6935SOL     OW21703   5.335   5.492   1.507
 6935SOL    HW121704   5.326   5.438   1.591
 6935SOL    HW221705   5.381   5.438   1.437
 6936SOL     OW21706   0.869   2.202   4.966
 6936SOL    HW121707   0.878   2.140   4.888
 6936SOL    HW221708   0.958   2.244   4.985
 6937SOL     OW21709   5.202   5.838   0.132
 6937SOL    HW121710   5.113   5.795   0.147
 6937SOL    HW221711   5.234   5.879   0.218
 6938SOL     OW21712   1.700   0.406   5.165
 6938SOL    HW121713   1.601   0.415   5.159
 6938SOL    HW221714   1.724   0.314   5.195
 6939SOL     OW21715   5.679   3.983   3.417
 6939SOL    HW121716   5.741   3.984   3.338
 6939SOL    HW221717   5.726   4.019   3.497
 6940SOL     OW21718   3.193   6.385   0.897
 6940SOL    HW121719   3.253   6.420   0.825
 6940SOL    HW221720   3.145   6.304   0.864
 6941SOL     OW21721   3.376   3.548   2.539
 6941SOL    HW121722   3.368   3.448   2.538
 6941SOL    HW221723   3.456   3.574   2.593
 6942SOL     OW21724   6.035   6.732   1.944
 6942SOL    HW121725   6.092   6.800   1.898
 6942SOL    HW221726   5.957   6.777   1.988
 6943SOL     OW21727   4.623   5.043   6.290
 6943SOL    HW121728   4.655   5.117   6.349
 6943SOL    HW221729   4.604   5.078   6.199
 6944SOL     OW21730   1.142   4.342   5.303
 6944SOL    HW121731   1.204   4.378   5.233
 6944SOL    HW221732   1.105   4.254   5.274
 6945SOL     OW21733   5.874   2.406   0.771
 6945SOL    HW121734   5.820   2.490   0.773
 6945SOL    HW221735   5.815   2.329   0.796
 6946SOL     OW21736   4.203   5.707   3.163
 6946SOL    HW121737   4.201   5.616   3.203
 6946SOL    HW221738   4.213   5.700   3.064
 6947SOL     OW21739   5.135   5.157   5.049
 6947SOL    HW121740   5.136   5.158   5.149
 6947SOL    HW221741   5.062   5.096   5.017
 6948SOL     OW21742   0.080   4.959   0.041
 6948SOL    HW121743   0.166   4.916   0.066
 6948SOL    HW221744   0.057   4.935   6.965
 6949SOL     OW21745   2.543   1.188   3.749
 6949SOL    HW121746   2.603   1.214   3.825
 6949SOL    HW221747   2.486   1.266   3.724
 6950SOL     OW21748   0.579   0.642   4.669
 6950SOL    HW121749   0.643   0.649   4.592
 6950SOL    HW221750   0.615   0.578   4.737
 6951SOL     OW21751   0.222   5.046   6.141
 6951SOL    HW121752   0.273   4.979   6.195
 6951SOL    HW221753   0.149   5.000   6.091
 6952SOL     OW21754   4.127   5.684   3.623
 6952SOL    HW121755   4.061   5.754   3.652
 6952SOL    HW221756   4.138   5.617   3.696
 6953SOL     OW21757   5.006   1.343   0.981
 6953SOL    HW121758   5.033   1.275   1.049
 6953SOL    HW221759   5.081   1.408   0.967
 6954SOL     OW21760   6.213   3.949   0.171
 6954SOL    HW121761   6.254   4.023   0.225
 6954SOL    HW221762   6.162   3.888   0.231
 6955SOL     OW21763   5.087   6.809   1.992
 6955SOL    HW121764   5.150   6.886   1.982
 6955SOL    HW221765   5.032   6.822   2.074
 6956SOL     OW21766   5.567   5.433   2.709
 6956SOL    HW121767   5.599   5.528   2.717
 6956SOL    HW221768   5.486   5.420   2.766
 6957SOL     OW21769   5.361   6.164   6.229
 6957SOL    HW121770   5.283   6.213   6.265
 6957SOL    HW221771   5.434   6.162   6.297
 6958SOL     OW21772   3.000   3.688   3.837
 6958SOL    HW121773   2.976   3.664   3.931
 6958SOL    HW221774   2.943   3.637   3.773
 6959SOL     OW21775   0.787   3.997   2.860
 6959SOL    HW121776   0.773   4.026   2.955
 6959SOL    HW221777   0.885   3.989   2.842
 6960SOL     OW21778   2.991   4.532   0.356
 6960SOL    HW121779   3.003   4.631   0.356
 6960SOL    HW221780   2.911   4.508   0.301
 6961SOL     OW21781   4.797   1.827   5.215
 6961SOL    HW121782   4.803   1.817   5.314
 6961SOL    HW221783   4.884   1.799   5.174
 6962SOL     OW21784   2.384   6.544   6.469
 6962SOL    HW121785   2.451   6.541   6.395
 6962SOL    HW221786   2.343   6.635   6.474
 6963SOL     OW21787   5.087   6.327   0.960
 6963SOL    HW121788   5.156   6.399   0.970
 6963SOL    HW221789   5.077   6.304   0.864
 6964SOL     OW21790   1.809   0.071   5.507
 6964SOL    HW121791   1.808   0.052   5.605
 6964SOL    HW221792   1.801   7.004   5.456
 6965SOL     OW21793   0.717   2.058   0.202
 6965SOL    HW121794   0.707   1.961   0.228
 6965SOL    HW221795   0.813   2.080   0.190
 6966SOL     OW21796   1.340   6.693   1.484
 6966SOL    HW121797   1.320   6.668   1.389
 6966SOL    HW221798   1.434   6.726   1.490
 6967SOL     OW21799   4.459   1.601   6.296
 6967SOL    HW121800   4.519   1.672   6.259
 6967SOL    HW221801   4.412   1.555   6.221
 6968SOL     OW21802   3.933   6.275   2.381
 6968SOL    HW121803   3.992   6.341   2.428
 6968SOL    HW221804   3.898   6.317   2.296
 6969SOL     OW21805   2.014   1.738   2.098
 6969SOL    HW121806   1.940   1.694   2.047
 6969SOL    HW221807   1.989   1.832   2.119
 6970SOL     OW21808   3.446   4.826   5.733
 6970SOL    HW121809   3.482   4.783   5.651
 6970SOL    HW221810   3.471   4.923   5.734
 6971SOL     OW21811   6.646   4.622   0.359
 6971SOL    HW121812   6.576   4.559   0.391
 6971SOL    HW221813   6.658   4.695   0.427
 6972SOL     OW21814   5.321   3.866   1.805
 6972SOL    HW121815   5.318   3.894   1.901
 6972SOL    HW221816   5.348   3.945   1.749
 6973SOL     OW21817   1.457   3.435   3.172
 6973SOL    HW121818   1.509   3.520   3.159
 6973SOL    HW221819   1.365   3.457   3.204
 6974SOL     OW21820   3.562   4.113   3.122
 6974SOL    HW121821   3.563   4.130   3.220
 6974SOL    HW221822   3.522   4.023   3.104
 6975SOL     OW21823   3.105   5.145   4.411
 6975SOL    HW121824   3.109   5.147   4.511
 6975SOL    HW221825   3.193   5.177   4.373
 6976SOL     OW21826   4.440   4.267   6.191
 6976SOL    HW121827   4.525   4.224   6.161
 6976SOL    HW221828   4.365   4.201   6.187
 6977SOL     OW21829   4.334   5.111   0.974
 6977SOL    HW121830   4.260   5.169   1.010
 6977SOL    HW221831   4.374   5.058   1.049
 6978SOL     OW21832   5.859   3.491   1.586
 6978SOL    HW121833   5.911   3.417   1.543
 6978SOL    HW221834   5.775   3.509   1.534
 6979SOL     OW21835   1.180   3.736   1.536
 6979SOL    HW121836   1.180   3.707   1.631
 6979SOL    HW221837   1.263   3.788   1.517
 6980SOL     OW21838   2.044   5.829   2.915
 6980SOL    HW121839   1.986   5.802   2.838
 6980SOL    HW221840   2.134   5.785   2.907
 6981SOL     OW21841   3.961   3.010   6.942
 6981SOL    HW121842   3.881   2.989   6.886
 6981SOL    HW221843   4.041   3.021   6.883
 6982SOL     OW21844   1.684   1.042   3.188
 6982SOL    HW121845   1.750   1.079   3.253
 6982SOL    HW221846   1.594   1.081   3.207
 6983SOL     OW21847   5.035   0.748   4.275
 6983SOL    HW121848   5.112   0.685   4.273
 6983SOL    HW221849   5.065   0.836   4.310
 6984SOL     OW21850   0.814   2.430   3.262
 6984SOL    HW121851   0.782   2.518   3.228
 6984SOL    HW221852   0.799   2.424   3.361
 6985SOL     OW21853   6.045   3.740   0.287
 6985SOL    HW121854   6.108   3.667   0.262
 6985SOL    HW221855   6.047   3.754   0.386
 6986SOL     OW21856   4.842   5.009   5.336
 6986SOL    HW121857   4.823   5.014   5.435
 6986SOL    HW221858   4.898   4.928   5.318
 6987SOL     OW21859   0.512   1.497   6.318
 6987SOL    HW121860   0.608   1.486   6.296
 6987SOL    HW221861   0.487   1.594   6.312
 6988SOL     OW21862   3.468   1.714   6.148
 6988SOL    HW121863   3.478   1.711   6.049
 6988SOL    HW221864   3.431   1.803   6.175
 6989SOL     OW21865   0.754   5.164   2.515
 6989SOL    HW121866   0.843   5.180   2.473
 6989SOL    HW221867   0.698   5.246   2.507
 6990SOL     OW21868   3.688   2.378   0.845
 6990SOL    HW121869   3.665   2.403   0.940
 6990SOL    HW221870   3.763   2.312   0.845
 6991SOL     OW21871   6.462   3.335   1.970
 6991SOL    HW121872   6.436   3.263   2.035
 6991SOL    HW221873   6.507   3.409   2.020
 6992SOL     OW21874   0.987   5.873   0.012
 6992SOL    HW121875   1.014   5.880   6.934
 6992SOL    HW221876   1.044   5.934   0.067
 6993SOL     OW21877   4.350   1.335   1.417
 6993SOL    HW121878   4.340   1.260   1.351
 6993SOL    HW221879   4.428   1.392   1.392
 6994SOL     OW21880   2.511   0.366   3.572
 6994SOL    HW121881   2.446   0.442   3.567
 6994SOL    HW221882   2.497   0.305   3.494
 6995SOL     OW21883   0.214   4.041   1.103
 6995SOL    HW121884   0.281   4.013   1.171
 6995SOL    HW221885   0.129   3.990   1.117
 6996SOL     OW21886   1.387   0.885   0.476
 6996SOL    HW121887   1.306   0.891   0.534
 6996SOL    HW221888   1.412   0.976   0.444
 6997SOL     OW21889   5.875   5.373   5.794
 6997SOL    HW121890   5.787   5.326   5.808
 6997SOL    HW221891   5.858   5.467   5.767
 6998SOL     OW21892   6.616   1.307   0.099
 6998SOL    HW121893   6.582   1.223   0.140
 6998SOL    HW221894   6.542   1.354   0.050
 6999SOL     OW21895   0.286   3.246   0.305
 6999SOL    HW121896   0.363   3.276   0.248
 6999SOL    HW221897   0.303   3.154   0.339
 7000SOL     OW21898   6.790   6.413   3.479
 7000SOL    HW121899   6.826   6.491   3.427
 7000SOL    HW221900   6.790   6.435   3.577
 7001SOL     OW21901   0.498   1.737   4.399
 7001SOL    HW121902   0.468   1.779   4.484
 7001SOL    HW221903   0.418   1.698   4.352
 7002SOL     OW21904   0.830   5.107   2.766
 7002SOL    HW121905   0.801   5.120   2.671
 7002SOL    HW221906   0.750   5.089   2.823
 7003SOL     OW21907   6.831   4.408   1.216
 7003SOL    HW121908   6.870   4.466   1.287
 7003SOL    HW221909   6.732   4.425   1.210
 7004SOL     OW21910   2.198   6.385   0.517
 7004SOL    HW121911   2.258   6.339   0.582
 7004SOL    HW221912   2.105   6.391   0.556
 7005SOL     OW21913   0.886   6.070   0.695
 7005SOL    HW121914   0.958   6.021   0.646
 7005SOL    HW221915   0.899   6.168   0.684
 7006SOL     OW21916   1.411   0.256   4.666
 7006SOL    HW121917   1.458   0.344   4.672
 7006SOL    HW221918   1.418   0.220   4.572
 7007SOL     OW21919   2.557   0.041   5.908
 7007SOL    HW121920   2.470   0.081   5.881
 7007SOL    HW221921   2.627   0.113   5.913
 7008SOL     OW21922   5.401   3.976   3.371
 7008SOL    HW121923   5.492   4.008   3.398
 7008SOL    HW221924   5.391   3.984   3.272
 7009SOL     OW21925   4.544   5.207   1.836
 7009SOL    HW121926   4.632   5.254   1.838
 7009SOL    HW221927   4.534   5.157   1.750
 7010SOL     OW21928   5.371   4.086   1.615
 7010SOL    HW121929   5.392   4.048   1.525
 7010SOL    HW221930   5.305   4.161   1.605
 7011SOL     OW21931   3.308   6.247   0.054
 7011SOL    HW121932   3.406   6.262   0.037
 7011SOL    HW221933   3.268   6.331   0.091
 7012SOL     OW21934   6.573   2.310   0.635
 7012SOL    HW121935   6.566   2.284   0.538
 7012SOL    HW221936   6.485   2.346   0.666
 7013SOL     OW21937   2.562   1.187   0.465
 7013SOL    HW121938   2.612   1.130   0.531
 7013SOL    HW221939   2.589   1.283   0.478
 7014SOL     OW21940   6.383   2.834   1.247
 7014SOL    HW121941   6.393   2.809   1.150
 7014SOL    HW221942   6.299   2.794   1.283
 7015SOL     OW21943   5.308   6.140   1.046
 7015SOL    HW121944   5.225   6.161   1.097
 7015SOL    HW221945   5.385   6.130   1.109
 7016SOL     OW21946   2.953   4.428   0.609
 7016SOL    HW121947   2.976   4.481   0.528
 7016SOL    HW221948   2.950   4.331   0.586
 7017SOL     OW21949   5.326   5.276   4.694
 7017SOL    HW121950   5.334   5.360   4.639
 7017SOL    HW221951   5.360   5.198   4.641
 7018SOL     OW21952   4.999   3.295   4.538
 7018SOL    HW121953   4.996   3.255   4.630
 7018SOL    HW221954   4.938   3.244   4.477
 7019SOL     OW21955   4.362   5.231   2.316
 7019SOL    HW121956   4.333   5.210   2.222
 7019SOL    HW221957   4.349   5.150   2.373
 7020SOL     OW21958   0.829   2.931   6.628
 7020SOL    HW121959   0.869   2.936   6.720
 7020SOL    HW221960   0.879   2.863   6.574
 7021SOL     OW21961   1.040   1.980   5.177
 7021SOL    HW121962   0.986   2.024   5.249
 7021SOL    HW221963   1.083   1.898   5.213
 7022SOL     OW21964   3.618   1.945   0.386
 7022SOL    HW121965   3.655   1.852   0.387
 7022SOL    HW221966   3.530   1.945   0.339
 7023SOL     OW21967   0.694   1.915   0.868
 7023SOL    HW121968   0.665   1.870   0.784
 7023SOL    HW221969   0.794   1.919   0.870
 7024SOL     OW21970   3.497   2.974   3.676
 7024SOL    HW121971   3.569   2.940   3.615
 7024SOL    HW221972   3.535   3.045   3.735
 7025SOL     OW21973   3.705   6.422   0.596
 7025SOL    HW121974   3.724   6.455   0.689
 7025SOL    HW221975   3.672   6.328   0.601
 7026SOL     OW21976   3.620   2.500   1.448
 7026SOL    HW121977   3.540   2.509   1.389
 7026SOL    HW221978   3.698   2.470   1.393
 7027SOL     OW21979   2.014   5.269   2.849
 7027SOL    HW121980   1.952   5.250   2.925
 7027SOL    HW221981   2.109   5.266   2.882
 7028SOL     OW21982   2.802   0.446   3.340
 7028SOL    HW121983   2.791   0.542   3.364
 7028SOL    HW221984   2.731   0.420   3.274
 7029SOL     OW21985   3.103   3.770   4.954
 7029SOL    HW121986   3.093   3.750   4.856
 7029SOL    HW221987   3.056   3.855   4.976
 7030SOL     OW21988   6.295   1.279   5.237
 7030SOL    HW121989   6.229   1.318   5.301
 7030SOL    HW221990   6.261   1.290   5.143
 7031SOL     OW21991   4.078   6.737   0.558
 7031SOL    HW121992   4.020   6.657   0.544
 7031SOL    HW221993   4.129   6.728   0.643
 7032SOL     OW21994   4.003   6.230   4.361
 7032SOL    HW121995   3.999   6.149   4.420
 7032SOL    HW221996   3.989   6.312   4.416
 7033SOL     OW21997   1.792   2.033   4.894
 7033SOL    HW121998   1.782   2.117   4.841
 7033SOL    HW221999   1.708   2.015   4.945
 7034SOL     OW22000   6.750   0.978   3.450
 7034SOL    HW122001   6.826   1.007   3.508
 7034SOL    HW222002   6.698   1.057   3.420
 7035SOL     OW22003   1.749   0.534   0.609
 7035SOL    HW122004   1.681   0.570   0.545
 7035SOL    HW222005   1.778   0.443   0.579
 7036SOL     OW22006   6.862   1.145   1.881
 7036SOL    HW122007   6.960   1.166   1.882
 7036SOL    HW222008   6.833   1.117   1.973
 7037SOL     OW22009   1.374   0.701   6.195
 7037SOL    HW122010   1.317   0.654   6.128
 7037SOL    HW222011   1.404   0.789   6.158
 7038SOL     OW22012   1.476   3.650   6.741
 7038SOL    HW122013   1.531   3.598   6.675
 7038SOL    HW222014   1.414   3.711   6.691
 7039SOL     OW22015   0.768   6.357   2.728
 7039SOL    HW122016   0.746   6.315   2.816
 7039SOL    HW222017   0.692   6.344   2.665
 7040SOL     OW22018   4.961   3.143   5.045
 7040SOL    HW122019   4.925   3.059   5.087
 7040SOL    HW222020   4.951   3.219   5.108
 7041SOL     OW22021   1.691   0.122   3.686
 7041SOL    HW122022   1.648   0.143   3.773
 7041SOL    HW222023   1.775   0.070   3.702
 7042SOL     OW22024   4.573   6.081   5.469
 7042SOL    HW122025   4.598   6.046   5.379
 7042SOL    HW222026   4.615   6.024   5.540
 7043SOL     OW22027   1.966   4.940   1.667
 7043SOL    HW122028   1.980   5.017   1.728
 7043SOL    HW222029   1.932   4.972   1.579
 7044SOL     OW22030   4.867   6.211   4.349
 7044SOL    HW122031   4.868   6.238   4.445
 7044SOL    HW222032   4.959   6.219   4.310
 7045SOL     OW22033   6.470   6.064   2.557
 7045SOL    HW122034   6.557   6.089   2.514
 7045SOL    HW222035   6.480   6.069   2.657
 7046SOL     OW22036   3.042   2.052   4.374
 7046SOL    HW122037   2.977   1.981   4.348
 7046SOL    HW222038   2.993   2.133   4.404
 7047SOL     OW22039   1.077   6.254   0.655
 7047SOL    HW122040   1.072   6.206   0.743
 7047SOL    HW222041   1.085   6.352   0.671
 7048SOL     OW22042   6.893   6.165   4.841
 7048SOL    HW122043   6.807   6.216   4.834
 7048SOL    HW222044   6.886   6.098   4.915
 7049SOL     OW22045   3.727   0.844   2.907
 7049SOL    HW122046   3.722   0.879   3.000
 7049SOL    HW222047   3.652   0.883   2.852
 7050SOL     OW22048   3.974   4.174   1.287
 7050SOL    HW122049   3.959   4.117   1.206
 7050SOL    HW222050   4.026   4.122   1.355
 7051SOL     OW22051   0.518   0.976   1.341
 7051SOL    HW122052   0.560   1.000   1.428
 7051SOL    HW222053   0.513   1.057   1.283
 7052SOL     OW22054   5.044   0.123   2.662
 7052SOL    HW122055   5.117   0.117   2.594
 7052SOL    HW222056   4.997   0.035   2.668
 7053SOL     OW22057   2.064   3.305   2.941
 7053SOL    HW122058   1.978   3.287   2.987
 7053SOL    HW222059   2.129   3.231   2.960
 7054SOL     OW22060   6.581   0.783   0.368
 7054SOL    HW122061   6.564   0.750   0.461
 7054SOL    HW222062   6.672   0.753   0.338
 7055SOL     OW22063   2.188   1.150   6.816
 7055SOL    HW122064   2.156   1.245   6.818
 7055SOL    HW222065   2.250   1.134   6.893
 7056SOL     OW22066   0.095   5.581   1.401
 7056SOL    HW122067   0.096   5.681   1.404
 7056SOL    HW222068   0.110   5.551   1.307
 7057SOL     OW22069   3.073   4.878   4.734
 7057SOL    HW122070   2.980   4.843   4.739
 7057SOL    HW222071   3.119   4.865   4.822
 7058SOL     OW22072   5.216   3.075   5.886
 7058SOL    HW122073   5.304   3.067   5.931
 7058SOL    HW222074   5.221   3.032   5.796
 7059SOL     OW22075   1.874   0.180   5.262
 7059SOL    HW122076   1.945   0.239   5.301
 7059SOL    HW222077   1.812   0.150   5.335
 7060SOL     OW22078   3.690   0.947   1.954
 7060SOL    HW122079   3.712   1.019   2.021
 7060SOL    HW222080   3.605   0.972   1.907
 7061SOL     OW22081   0.479   1.886   1.860
 7061SOL    HW122082   0.543   1.818   1.823
 7061SOL    HW222083   0.502   1.976   1.823
 7062SOL     OW22084   3.740   0.956   3.150
 7062SOL    HW122085   3.642   0.969   3.162
 7062SOL    HW222086   3.775   0.894   3.221
 7063SOL     OW22087   0.990   0.717   1.867
 7063SOL    HW122088   0.907   0.772   1.874
 7063SOL    HW222089   1.070   0.776   1.866
 7064SOL     OW22090   4.220   1.427   5.385
 7064SOL    HW122091   4.274   1.448   5.467
 7064SOL    HW222092   4.138   1.485   5.384
 7065SOL     OW22093   3.840   4.989   5.547
 7065SOL    HW122094   3.789   5.037   5.618
 7065SOL    HW222095   3.785   4.913   5.511
 7066SOL     OW22096   3.779   0.301   6.952
 7066SOL    HW122097   3.861   0.349   6.982
 7066SOL    HW222098   3.805   0.212   6.915
 7067SOL     OW22099   1.918   3.785   6.656
 7067SOL    HW122100   1.909   3.843   6.575
 7067SOL    HW222101   1.922   3.842   6.738
 7068SOL     OW22102   5.222   3.435   4.488
 7068SOL    HW122103   5.231   3.438   4.389
 7068SOL    HW222104   5.146   3.375   4.513
 7069SOL     OW22105   6.071   0.342   6.409
 7069SOL    HW122106   6.141   0.270   6.416
 7069SOL    HW222107   5.981   0.300   6.403
 7070SOL     OW22108   0.406   7.006   5.004
 7070SOL    HW122109   0.364   6.974   5.088
 7070SOL    HW222110   0.352   6.975   4.926
 7071SOL     OW22111   4.977   6.149   6.824
 7071SOL    HW122112   4.910   6.097   6.772
 7071SOL    HW222113   5.051   6.088   6.854
 7072SOL     OW22114   0.357   3.812   6.073
 7072SOL    HW122115   0.313   3.875   6.137
 7072SOL    HW222116   0.392   3.863   5.995
 7073SOL     OW22117   5.225   1.323   3.246
 7073SOL    HW122118   5.221   1.247   3.311
 7073SOL    HW222119   5.234   1.409   3.296
 7074SOL     OW22120   5.857   4.286   3.073
 7074SOL    HW122121   5.904   4.272   2.986
 7074SOL    HW222122   5.850   4.384   3.092
 7075SOL     OW22123   3.273   5.202   3.768
 7075SOL    HW122124   3.282   5.103   3.754
 7075SOL    HW222125   3.264   5.222   3.865
 7076SOL     OW22126   5.612   2.223   2.368
 7076SOL    HW122127   5.703   2.206   2.407
 7076SOL    HW222128   5.560   2.138   2.366
 7077SOL     OW22129   3.498   5.527   1.290
 7077SOL    HW122130   3.591   5.553   1.316
 7077SOL    HW222131   3.434   5.597   1.321
 7078SOL     OW22132   5.267   0.407   0.028
 7078SOL    HW122133   5.193   0.474   0.029
 7078SOL    HW222134   5.345   0.442   0.079
 7079SOL     OW22135   1.411   6.526   4.986
 7079SOL    HW122136   1.354   6.472   4.924
 7079SOL    HW222137   1.386   6.622   4.978
 7080SOL     OW22138   4.467   2.104   5.676
 7080SOL    HW122139   4.539   2.079   5.611
 7080SOL    HW222140   4.425   2.189   5.647
 7081SOL     OW22141   1.639   0.299   0.366
 7081SOL    HW122142   1.704   0.350   0.309
 7081SOL    HW222143   1.581   0.243   0.307
 7082SOL     OW22144   6.440   4.641   3.033
 7082SOL    HW122145   6.477   4.728   3.002
 7082SOL    HW222146   6.490   4.609   3.114
 7083SOL     OW22147   6.102   2.854   2.859
 7083SOL    HW122148   6.113   2.953   2.858
 7083SOL    HW222149   6.178   2.811   2.811
 7084SOL     OW22150   0.369   6.250   0.022
 7084SOL    HW122151   0.447   6.276   0.078
 7084SOL    HW222152   0.385   6.160   7.000
 7085SOL     OW22153   0.515   3.515   1.815
 7085SOL    HW122154   0.523   3.610   1.785
 7085SOL    HW222155   0.587   3.495   1.881
 7086SOL     OW22156   5.867   1.445   4.321
 7086SOL    HW122157   5.811   1.369   4.287
 7086SOL    HW222158   5.910   1.491   4.244
 7087SOL     OW22159   5.283   3.443   2.986
 7087SOL    HW122160   5.198   3.478   2.945
 7087SOL    HW222161   5.261   3.387   3.065
 7088SOL     OW22162   6.460   1.695   4.804
 7088SOL    HW122163   6.374   1.742   4.819
 7088SOL    HW222164   6.530   1.761   4.778
 7089SOL     OW22165   3.093   6.099   2.148
 7089SOL    HW122166   3.142   6.170   2.096
 7089SOL    HW222167   3.043   6.142   2.223
 7090SOL     OW22168   4.510   2.316   1.117
 7090SOL    HW122169   4.426   2.342   1.069
 7090SOL    HW222170   4.487   2.264   1.199
 7091SOL     OW22171   6.928   6.224   6.783
 7091SOL    HW122172   6.858   6.154   6.769
 7091SOL    HW222173   6.973   6.208   6.870
 7092SOL     OW22174   4.099   1.531   6.313
 7092SOL    HW122175   4.019   1.566   6.361
 7092SOL    HW222176   4.181   1.548   6.367
 7093SOL     OW22177   3.274   3.076   1.646
 7093SOL    HW122178   3.311   3.035   1.563
 7093SOL    HW222179   3.202   3.017   1.683
 7094SOL     OW22180   3.089   0.069   5.515
 7094SOL    HW122181   3.163   0.022   5.468
 7094SOL    HW222182   3.126   0.119   5.593
 7095SOL     OW22183   2.542   4.639   4.929
 7095SOL    HW122184   2.511   4.733   4.945
 7095SOL    HW222185   2.633   4.626   4.967
 7096SOL     OW22186   0.189   0.983   1.346
 7096SOL    HW122187   0.151   0.949   1.260
 7096SOL    HW222188   0.287   0.964   1.350
 7097SOL     OW22189   4.045   0.925   1.657
 7097SOL    HW122190   4.126   0.921   1.714
 7097SOL    HW222191   4.070   0.950   1.564
 7098SOL     OW22192   1.376   6.700   4.098
 7098SOL    HW122193   1.476   6.700   4.099
 7098SOL    HW222194   1.344   6.783   4.053
 7099SOL     OW22195   2.656   2.323   3.708
 7099SOL    HW122196   2.623   2.337   3.802
 7099SOL    HW222197   2.609   2.245   3.667
 7100SOL     OW22198   5.953   3.985   1.402
 7100SOL    HW122199   5.882   4.006   1.470
 7100SOL    HW222200   5.978   3.889   1.410
 7101SOL     OW22201   2.616   6.125   5.549
 7101SOL    HW122202   2.711   6.099   5.563
 7101SOL    HW222203   2.558   6.078   5.616
 7102SOL     OW22204   5.475   0.798   1.917
 7102SOL    HW122205   5.436   0.877   1.871
 7102SOL    HW222206   5.431   0.787   2.007
 7103SOL     OW22207   4.890   3.695   3.092
 7103SOL    HW122208   4.893   3.771   3.156
 7103SOL    HW222209   4.799   3.653   3.095
 7104SOL     OW22210   5.080   4.042   3.093
 7104SOL    HW122211   5.046   4.089   3.011
 7104SOL    HW222212   5.161   3.988   3.069
 7105SOL     OW22213   3.312   4.185   3.805
 7105SOL    HW122214   3.318   4.184   3.705
 7105SOL    HW222215   3.324   4.278   3.838
 7106SOL     OW22216   3.196   2.447   0.973
 7106SOL    HW122217   3.286   2.403   0.972
 7106SOL    HW222218   3.199   2.531   0.919
 7107SOL     OW22219   3.513   0.592   6.137
 7107SOL    HW122220   3.414   0.599   6.150
 7107SOL    HW222221   3.547   0.676   6.095
 7108SOL     OW22222   4.766   0.742   1.977
 7108SOL    HW122223   4.862   0.754   2.001
 7108SOL    HW222224   4.754   0.655   1.928
 7109SOL     OW22225   2.801   5.613   6.380
 7109SOL    HW122226   2.889   5.607   6.427
 7109SOL    HW222227   2.729   5.637   6.445
 7110SOL     OW22228   3.372   6.536   4.230
 7110SOL    HW122229   3.384   6.608   4.162
 7110SOL    HW222230   3.451   6.475   4.227
 7111SOL     OW22231   6.645   0.437   5.090
 7111SOL    HW122232   6.586   0.360   5.115
 7111SOL    HW222233   6.733   0.403   5.058
 7112SOL     OW22234   1.364   4.938   4.964
 7112SOL    HW122235   1.363   4.964   5.060
 7112SOL    HW222236   1.454   4.901   4.940
 7113SOL     OW22237   3.665   6.252   5.327
 7113SOL    HW122238   3.729   6.228   5.400
 7113SOL    HW222239   3.704   6.228   5.238
 7114SOL     OW22240   5.084   4.631   0.295
 7114SOL    HW122241   5.052   4.544   0.258
 7114SOL    HW222242   5.166   4.615   0.351
 7115SOL     OW22243   6.385   3.652   6.213
 7115SOL    HW122244   6.358   3.571   6.161
 7115SOL    HW222245   6.379   3.634   6.311
 7116SOL     OW22246   6.210   3.715   4.195
 7116SOL    HW122247   6.121   3.683   4.163
 7116SOL    HW222248   6.277   3.642   4.187
 7117SOL     OW22249   5.846   0.045   3.031
 7117SOL    HW122250   5.873   0.132   2.989
 7117SOL    HW222251   5.880   0.042   3.125
 7118SOL     OW22252   4.434   4.372   5.436
 7118SOL    HW122253   4.464   4.315   5.512
 7118SOL    HW222254   4.386   4.316   5.368
 7119SOL     OW22255   3.565   6.715   4.911
 7119SOL    HW122256   3.604   6.696   5.001
 7119SOL    HW222257   3.623   6.780   4.862
 7120SOL     OW22258   4.883   0.389   0.222
 7120SOL    HW122259   4.810   0.325   0.246
 7120SOL    HW222260   4.967   0.338   0.204
 7121SOL     OW22261   1.777   5.999   2.591
 7121SOL    HW122262   1.701   5.974   2.652
 7121SOL    HW222263   1.806   6.093   2.611
 7122SOL     OW22264   2.789   1.263   6.904
 7122SOL    HW122265   2.876   1.280   6.951
 7122SOL    HW222266   2.780   1.327   6.828
 7123SOL     OW22267   5.296   5.315   5.861
 7123SOL    HW122268   5.366   5.387   5.861
 7123SOL    HW222269   5.239   5.324   5.780
 7124SOL     OW22270   1.491   2.151   1.664
 7124SOL    HW122271   1.580   2.107   1.650
 7124SOL    HW222272   1.496   2.214   1.741
 7125SOL     OW22273   0.907   6.618   1.688
 7125SOL    HW122274   0.965   6.575   1.756
 7125SOL    HW222275   0.962   6.680   1.631
 7126SOL     OW22276   2.992   5.183   0.954
 7126SOL    HW122277   3.058   5.241   1.001
 7126SOL    HW222278   3.034   5.094   0.936
 7127SOL     OW22279   2.526   6.730   5.496
 7127SOL    HW122280   2.530   6.829   5.502
 7127SOL    HW222281   2.515   6.703   5.401
 7128SOL     OW22282   4.167   4.088   6.194
 7128SOL    HW122283   4.160   4.138   6.280
 7128SOL    HW222284   4.190   3.993   6.212
 7129SOL     OW22285   0.626   0.057   0.664
 7129SOL    HW122286   0.672   0.124   0.722
 7129SOL    HW222287   0.648   6.983   0.696
 7130SOL     OW22288   3.277   6.649   3.838
 7130SOL    HW122289   3.314   6.572   3.786
 7130SOL    HW222290   3.352   6.698   3.884
 7131SOL     OW22291   3.398   1.401   2.707
 7131SOL    HW122292   3.322   1.439   2.759
 7131SOL    HW222293   3.484   1.418   2.755
 7132SOL     OW22294   5.261   4.582   0.532
 7132SOL    HW122295   5.285   4.486   0.543
 7132SOL    HW222296   5.345   4.636   0.522
 7133SOL     OW22297   5.209   5.554   2.922
 7133SOL    HW122298   5.184   5.457   2.914
 7133SOL    HW222299   5.147   5.609   2.866
 7134SOL     OW22300   5.325   5.097   0.904
 7134SOL    HW122301   5.321   4.997   0.897
 7134SOL    HW222302   5.421   5.127   0.902
 7135SOL     OW22303   1.950   2.518   0.967
 7135SOL    HW122304   1.934   2.478   0.877
 7135SOL    HW222305   1.914   2.457   1.037
 7136SOL     OW22306   1.882   1.676   1.617
 7136SOL    HW122307   1.978   1.689   1.640
 7136SOL    HW222308   1.851   1.587   1.650
 7137SOL     OW22309   3.288   2.042   1.456
 7137SOL    HW122310   3.317   2.084   1.543
 7137SOL    HW222311   3.328   1.951   1.447
 7138SOL     OW22312   1.112   2.924   0.607
 7138SOL    HW122313   1.020   2.962   0.602
 7138SOL    HW222314   1.108   2.827   0.631
 7139SOL     OW22315   6.278   6.339   0.929
 7139SOL    HW122316   6.313   6.403   0.860
 7139SOL    HW222317   6.277   6.247   0.891
 7140SOL     OW22318   6.431   3.654   0.147
 7140SOL    HW122319   6.419   3.636   0.049
 7140SOL    HW222320   6.343   3.643   0.193
 7141SOL     OW22321   3.480   0.542   0.865
 7141SOL    HW122322   3.480   0.642   0.855
 7141SOL    HW222323   3.569   0.506   0.840
 7142SOL     OW22324   3.225   0.107   4.723
 7142SOL    HW122325   3.309   0.066   4.687
 7142SOL    HW222326   3.223   0.205   4.700
 7143SOL     OW22327   3.025   4.512   6.536
 7143SOL    HW122328   2.941   4.509   6.590
 7143SOL    HW222329   3.075   4.426   6.547
 7144SOL     OW22330   6.685   0.633   5.771
 7144SOL    HW122331   6.691   0.654   5.674
 7144SOL    HW222332   6.646   0.541   5.783
 7145SOL     OW22333   5.259   2.467   6.403
 7145SOL    HW122334   5.346   2.421   6.382
 7145SOL    HW222335   5.196   2.402   6.443
 7146SOL     OW22336   1.717   2.293   5.051
 7146SOL    HW122337   1.631   2.337   5.078
 7146SOL    HW222338   1.743   2.225   5.119
 7147SOL     OW22339   6.542   6.787   1.873
 7147SOL    HW122340   6.569   6.868   1.925
 7147SOL    HW222341   6.447   6.796   1.843
 7148SOL     OW22342   6.300   0.052   0.932
 7148SOL    HW122343   6.209   0.015   0.914
 7148SOL    HW222344   6.335   0.015   1.018
 7149SOL     OW22345   5.906   4.788   5.777
 7149SOL    HW122346   5.999   4.754   5.795
 7149SOL    HW222347   5.860   4.727   5.713
 7150SOL     OW22348   3.531   2.980   6.949
 7150SOL    HW122349   3.571   3.054   7.003
 7150SOL    HW222350   3.575   2.977   6.859
 7151SOL     OW22351   3.060   1.067   1.010
 7151SOL    HW122352   3.075   1.126   0.930
 7151SOL    HW222353   2.962   1.054   1.023
 7152SOL     OW22354   6.367   1.403   6.207
 7152SOL    HW122355   6.428   1.414   6.286
 7152SOL    HW222356   6.404   1.455   6.130
 7153SOL     OW22357   3.661   5.454   0.756
 7153SOL    HW122358   3.677   5.356   0.769
 7153SOL    HW222359   3.656   5.500   0.845
 7154SOL     OW22360   4.143   2.101   1.759
 7154SOL    HW122361   4.163   2.176   1.822
 7154SOL    HW222362   4.045   2.080   1.763
 7155SOL     OW22363   2.048   1.066   2.069
 7155SOL    HW122364   1.994   1.006   2.128
 7155SOL    HW222365   2.080   1.145   2.121
 7156SOL     OW22366   5.931   3.357   6.129
 7156SOL    HW122367   5.933   3.394   6.222
 7156SOL    HW222368   6.011   3.390   6.078
 7157SOL     OW22369   6.355   4.222   6.015
 7157SOL    HW122370   6.411   4.146   5.983
 7157SOL    HW222371   6.303   4.260   5.939
 7158SOL     OW22372   4.262   6.780   3.839
 7158SOL    HW122373   4.184   6.777   3.777
 7158SOL    HW222374   4.280   6.875   3.866
 7159SOL     OW22375   0.876   6.186   3.247
 7159SOL    HW122376   0.826   6.206   3.162
 7159SOL    HW222377   0.962   6.238   3.248
 7160SOL     OW22378   6.849   0.114   3.662
 7160SOL    HW122379   6.822   0.209   3.675
 7160SOL    HW222380   6.947   0.109   3.642
 7161SOL     OW22381   3.816   2.928   2.972
 7161SOL    HW122382   3.740   2.942   3.035
 7161SOL    HW222383   3.898   2.975   3.007
 7162SOL     OW22384   0.122   5.514   2.030
 7162SOL    HW122385   0.051   5.581   2.052
 7162SOL    HW222386   0.079   5.429   2.000
 7163SOL     OW22387   6.607   1.655   1.510
 7163SOL    HW122388   6.537   1.712   1.552
 7163SOL    HW222389   6.697   1.694   1.529
 7164SOL     OW22390   2.055   1.284   6.448
 7164SOL    HW122391   2.079   1.272   6.352
 7164SOL    HW222392   2.082   1.203   6.500
 7165SOL     OW22393   5.654   1.342   0.661
 7165SOL    HW122394   5.593   1.415   0.633
 7165SOL    HW222395   5.735   1.382   0.705
 7166SOL     OW22396   6.474   5.863   6.153
 7166SOL    HW122397   6.386   5.903   6.128
 7166SOL    HW222398   6.471   5.764   6.137
 7167SOL     OW22399   5.807   2.770   4.714
 7167SOL    HW122400   5.876   2.704   4.686
 7167SOL    HW222401   5.771   2.745   4.804
 7168SOL     OW22402   2.681   1.141   1.629
 7168SOL    HW122403   2.679   1.044   1.605
 7168SOL    HW222404   2.775   1.175   1.622
 7169SOL     OW22405   1.924   3.955   6.435
 7169SOL    HW122406   2.013   3.931   6.474
 7169SOL    HW222407   1.916   3.916   6.343
 7170SOL     OW22408   3.614   1.169   0.600
 7170SOL    HW122409   3.624   1.070   0.597
 7170SOL    HW222410   3.704   1.211   0.616
 7171SOL     OW22411   6.831   4.380   0.939
 7171SOL    HW122412   6.745   4.379   0.889
 7171SOL    HW222413   6.815   4.411   1.033
 7172SOL     OW22414   1.354   2.030   4.175
 7172SOL    HW122415   1.359   1.948   4.118
 7172SOL    HW222416   1.446   2.057   4.202
 7173SOL     OW22417   4.823   5.528   5.745
 7173SOL    HW122418   4.770   5.474   5.680
 7173SOL    HW222419   4.803   5.497   5.838
 7174SOL     OW22420   6.330   4.368   2.035
 7174SOL    HW122421   6.326   4.337   1.940
 7174SOL    HW222422   6.417   4.341   2.075
 7175SOL     OW22423   6.321   3.374   6.093
 7175SOL    HW122424   6.294   3.357   6.188
 7175SOL    HW222425   6.245   3.418   6.044
 7176SOL     OW22426   0.945   0.452   5.569
 7176SOL    HW122427   1.024   0.451   5.508
 7176SOL    HW222428   0.868   0.407   5.524
 7177SOL     OW22429   1.299   5.625   3.376
 7177SOL    HW122430   1.332   5.648   3.467
 7177SOL    HW222431   1.200   5.644   3.371
 7178SOL     OW22432   2.209   6.950   5.143
 7178SOL    HW122433   2.158   7.016   5.088
 7178SOL    HW222434   2.299   6.935   5.103
 7179SOL     OW22435   3.276   5.309   6.097
 7179SOL    HW122436   3.231   5.397   6.108
 7179SOL    HW222437   3.281   5.263   6.186
 7180SOL     OW22438   1.637   3.572   0.977
 7180SOL    HW122439   1.612   3.625   1.058
 7180SOL    HW222440   1.622   3.475   0.995
 7181SOL     OW22441   2.539   1.601   5.807
 7181SOL    HW122442   2.622   1.623   5.756
 7181SOL    HW222443   2.556   1.520   5.865
 7182SOL     OW22444   1.828   1.873   4.260
 7182SOL    HW122445   1.901   1.813   4.228
 7182SOL    HW222446   1.861   1.968   4.262
 7183SOL     OW22447   0.593   6.713   1.675
 7183SOL    HW122448   0.658   6.640   1.694
 7183SOL    HW222449   0.532   6.724   1.753
 7184SOL     OW22450   6.432   0.371   4.055
 7184SOL    HW122451   6.353   0.332   4.102
 7184SOL    HW222452   6.482   0.297   4.009
 7185SOL     OW22453   4.320   0.967   4.588
 7185SOL    HW122454   4.255   1.024   4.639
 7185SOL    HW222455   4.299   0.972   4.490
 7186SOL     OW22456   0.119   0.507   6.417
 7186SOL    HW122457   0.021   0.497   6.399
 7186SOL    HW222458   0.153   0.425   6.463
 7187SOL     OW22459   3.134   3.085   4.088
 7187SOL    HW122460   3.166   3.023   4.160
 7187SOL    HW222461   3.209   3.100   4.023
 7188SOL     OW22462   4.202   4.560   0.505
 7188SOL    HW122463   4.205   4.564   0.406
 7188SOL    HW222464   4.264   4.628   0.544
 7189SOL     OW22465   6.734   2.522   5.912
 7189SOL    HW122466   6.690   2.586   5.850
 7189SOL    HW222467   6.825   2.557   5.937
 7190SOL     OW22468   5.508   4.963   1.259
 7190SOL    HW122469   5.566   5.033   1.301
 7190SOL    HW222470   5.563   4.904   1.201
 7191SOL     OW22471   0.024   5.164   4.277
 7191SOL    HW122472   0.100   5.121   4.228
 7191SOL    HW222473   0.033   5.146   4.375
 7192SOL     OW22474   2.558   4.815   6.454
 7192SOL    HW122475   2.502   4.799   6.372
 7192SOL    HW222476   2.506   4.870   6.519
 7193SOL     OW22477   2.747   2.321   2.891
 7193SOL    HW122478   2.803   2.314   2.808
 7193SOL    HW222479   2.759   2.238   2.946
 7194SOL     OW22480   3.312   2.764   5.840
 7194SOL    HW122481   3.213   2.775   5.835
 7194SOL    HW222482   3.339   2.681   5.791
 7195SOL     OW22483   0.823   4.656   4.888
 7195SOL    HW122484   0.752   4.597   4.924
 7195SOL    HW222485   0.897   4.600   4.850
 7196SOL     OW22486   3.252   4.033   1.963
 7196SOL    HW122487   3.334   4.074   1.923
 7196SOL    HW222488   3.188   4.010   1.890
 7197SOL     OW22489   2.866   4.072   5.993
 7197SOL    HW122490   2.880   4.077   5.894
 7197SOL    HW222491   2.857   3.976   6.020
 7198SOL     OW22492   0.508   0.694   1.941
 7198SOL    HW122493   0.470   0.691   2.033
 7198SOL    HW222494   0.456   0.632   1.881
 7199SOL     OW22495   6.746   1.069   2.121
 7199SOL    HW122496   6.685   1.050   2.197
 7199SOL    HW222497   6.839   1.081   2.155
 7200SOL     OW22498   1.174   2.399   0.650
 7200SOL    HW122499   1.169   2.492   0.614
 7200SOL    HW222500   1.172   2.333   0.575
 7201SOL     OW22501   5.359   5.380   4.157
 7201SOL    HW122502   5.344   5.467   4.204
 7201SOL    HW222503   5.365   5.395   4.059
 7202SOL     OW22504   4.881   1.034   5.540
 7202SOL    HW122505   4.923   1.002   5.626
 7202SOL    HW222506   4.927   1.117   5.510
 7203SOL     OW22507   0.105   1.353   1.150
 7203SOL    HW122508   0.022   1.338   1.204
 7203SOL    HW222509   0.131   1.449   1.154
 7204SOL     OW22510   5.974   0.029   1.911
 7204SOL    HW122511   6.063   0.005   1.870
 7204SOL    HW222512   5.986   0.106   1.973
 7205SOL     OW22513   2.880   1.995   3.918
 7205SOL    HW122514   2.884   2.089   3.952
 7205SOL    HW222515   2.907   1.994   3.822
 7206SOL     OW22516   2.305   3.573   0.601
 7206SOL    HW122517   2.386   3.539   0.648
 7206SOL    HW222518   2.327   3.659   0.554
 7207SOL     OW22519   1.867   1.357   4.137
 7207SOL    HW122520   1.932   1.293   4.180
 7207SOL    HW222521   1.792   1.305   4.095
 7208SOL     OW22522   2.831   0.409   4.630
 7208SOL    HW122523   2.789   0.343   4.568
 7208SOL    HW222524   2.931   0.403   4.621
 7209SOL     OW22525   3.441   1.661   2.285
 7209SOL    HW122526   3.382   1.688   2.361
 7209SOL    HW222527   3.534   1.695   2.301
 7210SOL     OW22528   2.534   1.588   3.143
 7210SOL    HW122529   2.512   1.506   3.090
 7210SOL    HW222530   2.569   1.561   3.233
 7211SOL     OW22531   4.335   5.909   4.804
 7211SOL    HW122532   4.298   5.830   4.853
 7211SOL    HW222533   4.270   5.986   4.811
 7212SOL     OW22534   6.679   4.216   5.849
 7212SOL    HW122535   6.613   4.144   5.869
 7212SOL    HW222536   6.741   4.226   5.927
 7213SOL     OW22537   3.361   1.991   0.019
 7213SOL    HW122538   3.435   2.055   0.039
 7213SOL    HW222539   3.392   1.926   6.967
 7214SOL     OW22540   6.944   0.803   6.185
 7214SOL    HW122541   6.886   0.731   6.222
 7214SOL    HW222542   6.887   0.874   6.144
 7215SOL     OW22543   6.625   2.186   2.847
 7215SOL    HW122544   6.695   2.256   2.853
 7215SOL    HW222545   6.558   2.212   2.777
 7216SOL     OW22546   3.335   6.721   2.921
 7216SOL    HW122547   3.374   6.789   2.983
 7216SOL    HW222548   3.388   6.636   2.926
 7217SOL     OW22549   1.602   2.697   3.391
 7217SOL    HW122550   1.653   2.618   3.357
 7217SOL    HW222551   1.661   2.777   3.392
 7218SOL     OW22552   6.257   3.920   4.402
 7218SOL    HW122553   6.199   3.851   4.359
 7218SOL    HW222554   6.267   3.999   4.342
 7219SOL     OW22555   3.587   5.897   2.554
 7219SOL    HW122556   3.562   5.951   2.634
 7219SOL    HW222557   3.669   5.935   2.512
 7220SOL     OW22558   6.034   4.702   4.750
 7220SOL    HW122559   6.078   4.754   4.823
 7220SOL    HW222560   5.940   4.736   4.738
 7221SOL     OW22561   3.581   5.332   4.255
 7221SOL    HW122562   3.603   5.339   4.158
 7221SOL    HW222563   3.565   5.424   4.292
 7222SOL     OW22564   0.413   5.900   4.307
 7222SOL    HW122565   0.480   5.895   4.381
 7222SOL    HW222566   0.333   5.845   4.330
 7223SOL     OW22567   6.931   3.609   2.019
 7223SOL    HW122568   6.945   3.704   1.991
 7223SOL    HW222569   7.008   3.553   1.986
 7224SOL     OW22570   3.967   1.520   3.371
 7224SOL    HW122571   3.920   1.559   3.291
 7224SOL    HW222572   3.966   1.587   3.445
 7225SOL     OW22573   1.634   5.951   0.656
 7225SOL    HW122574   1.668   6.025   0.599
 7225SOL    HW222575   1.544   5.922   0.623
 7226SOL     OW22576   5.905   6.089   0.659
 7226SOL    HW122577   5.934   5.999   0.692
 7226SOL    HW222578   5.958   6.114   0.578
 7227SOL     OW22579   2.457   0.847   1.785
 7227SOL    HW122580   2.447   0.905   1.866
 7227SOL    HW222581   2.367   0.829   1.746
 7228SOL     OW22582   0.040   3.066   2.515
 7228SOL    HW122583   7.015   2.999   2.455
 7228SOL    HW222584   0.089   3.134   2.461
 7229SOL     OW22585   6.728   0.740   5.217
 7229SOL    HW122586   6.632   0.711   5.218
 7229SOL    HW222587   6.787   0.660   5.202
 7230SOL     OW22588   1.983   4.656   4.352
 7230SOL    HW122589   2.037   4.691   4.428
 7230SOL    HW222590   1.886   4.672   4.369
 7231SOL     OW22591   4.559   1.323   6.335
 7231SOL    HW122592   4.636   1.263   6.316
 7231SOL    HW222593   4.589   1.419   6.330
 7232SOL     OW22594   5.235   6.868   3.095
 7232SOL    HW122595   5.197   6.808   3.025
 7232SOL    HW222596   5.322   6.831   3.127
 7233SOL     OW22597   6.655   1.121   4.836
 7233SOL    HW122598   6.753   1.101   4.835
 7233SOL    HW222599   6.621   1.128   4.742
 7234SOL     OW22600   5.102   4.165   2.831
 7234SOL    HW122601   5.026   4.222   2.800
 7234SOL    HW222602   5.111   4.085   2.771
 7235SOL     OW22603   6.946   5.884   1.731
 7235SOL    HW122604   7.002   5.815   1.685
 7235SOL    HW222605   6.850   5.872   1.707
 7236SOL     OW22606   1.760   2.585   2.745
 7236SOL    HW122607   1.822   2.515   2.780
 7236SOL    HW222608   1.704   2.621   2.819
 7237SOL     OW22609   5.521   0.988   0.172
 7237SOL    HW122610   5.450   0.952   0.234
 7237SOL    HW222611   5.611   0.971   0.212
 7238SOL     OW22612   3.669   3.351   0.721
 7238SOL    HW122613   3.686   3.254   0.736
 7238SOL    HW222614   3.723   3.405   0.785
 7239SOL     OW22615   0.051   2.674   2.672
 7239SOL    HW122616   0.136   2.694   2.623
 7239SOL    HW222617   7.006   2.625   2.612
 7240SOL     OW22618   0.202   2.005   6.585
 7240SOL    HW122619   0.186   2.089   6.533
 7240SOL    HW222620   0.199   1.927   6.523
 7241SOL     OW22621   2.766   1.429   1.502
 7241SOL    HW122622   2.719   1.340   1.501
 7241SOL    HW222623   2.768   1.464   1.596
 7242SOL     OW22624   6.374   5.579   4.895
 7242SOL    HW122625   6.424   5.643   4.837
 7242SOL    HW222626   6.288   5.554   4.851
 7243SOL     OW22627   6.108   4.356   6.539
 7243SOL    HW122628   6.012   4.332   6.551
 7243SOL    HW222629   6.114   4.447   6.497
 7244SOL     OW22630   0.263   6.466   6.916
 7244SOL    HW122631   0.284   6.480   6.819
 7244SOL    HW222632   0.319   6.391   6.952
 7245SOL     OW22633   1.161   3.413   0.133
 7245SOL    HW122634   1.061   3.409   0.140
 7245SOL    HW222635   1.187   3.472   0.058
 7246SOL     OW22636   3.680   6.913   3.691
 7246SOL    HW122637   3.606   6.980   3.696
 7246SOL    HW222638   3.723   6.904   3.781
 7247SOL     OW22639   3.167   3.371   5.874
 7247SOL    HW122640   3.111   3.412   5.802
 7247SOL    HW222641   3.264   3.380   5.850
 7248SOL     OW22642   3.230   0.670   4.873
 7248SOL    HW122643   3.325   0.700   4.862
 7248SOL    HW222644   3.178   0.694   4.790
 7249SOL     OW22645   4.034   5.106   1.919
 7249SOL    HW122646   3.950   5.132   1.965
 7249SOL    HW222647   4.039   5.006   1.913
 7250SOL     OW22648   5.181   5.708   5.407
 7250SOL    HW122649   5.122   5.744   5.479
 7250SOL    HW222650   5.128   5.698   5.323
 7251SOL     OW22651   6.930   5.836   5.463
 7251SOL    HW122652   6.980   5.921   5.453
 7251SOL    HW222653   6.841   5.843   5.418
 7252SOL     OW22654   3.355   3.954   2.317
 7252SOL    HW122655   3.362   3.855   2.326
 7252SOL    HW222656   3.279   3.977   2.257
 7253SOL     OW22657   1.581   5.856   5.520
 7253SOL    HW122658   1.582   5.926   5.448
 7253SOL    HW222659   1.569   5.899   5.609
 7254SOL     OW22660   5.309   4.049   3.927
 7254SOL    HW122661   5.334   4.124   3.990
 7254SOL    HW222662   5.335   3.962   3.968
 7255SOL     OW22663   5.386   3.363   6.370
 7255SOL    HW122664   5.317   3.435   6.375
 7255SOL    HW222665   5.452   3.385   6.299
 7256SOL     OW22666   3.857   6.823   5.871
 7256SOL    HW122667   3.796   6.885   5.920
 7256SOL    HW222668   3.851   6.732   5.911
 7257SOL     OW22669   0.822   1.437   4.514
 7257SOL    HW122670   0.758   1.422   4.590
 7257SOL    HW222671   0.896   1.496   4.544
 7258SOL     OW22672   6.405   1.847   3.334
 7258SOL    HW122673   6.352   1.785   3.277
 7258SOL    HW222674   6.485   1.879   3.283
 7259SOL     OW22675   1.052   4.758   3.168
 7259SOL    HW122676   0.970   4.790   3.121
 7259SOL    HW222677   1.026   4.722   3.258
 7260SOL     OW22678   5.522   3.328   1.028
 7260SOL    HW122679   5.467   3.394   0.976
 7260SOL    HW222680   5.612   3.319   0.985
 7261SOL     OW22681   6.961   4.286   6.886
 7261SOL    HW122682   0.035   4.249   6.875
 7261SOL    HW222683   6.915   4.291   6.798
 7262SOL     OW22684   6.465   2.138   5.739
 7262SOL    HW122685   6.399   2.132   5.813
 7262SOL    HW222686   6.534   2.065   5.749
 7263SOL     OW22687   0.439   5.416   0.222
 7263SOL    HW122688   0.520   5.446   0.172
 7263SOL    HW222689   0.461   5.405   0.318
 7264SOL     OW22690   5.742   1.477   0.988
 7264SOL    HW122691   5.777   1.531   1.065
 7264SOL    HW222692   5.803   1.488   0.909
 7265SOL     OW22693   4.196   5.618   5.236
 7265SOL    HW122694   4.207   5.632   5.138
 7265SOL    HW222695   4.287   5.606   5.278
 7266SOL     OW22696   0.250   0.639   3.955
 7266SOL    HW122697   0.260   0.651   3.856
 7266SOL    HW222698   0.242   0.728   3.999
 7267SOL     OW22699   6.261   5.740   4.590
 7267SOL    HW122700   6.199   5.792   4.650
 7267SOL    HW222701   6.208   5.672   4.540
 7268SOL     OW22702   6.311   6.311   3.916
 7268SOL    HW122703   6.273   6.387   3.863
 7268SOL    HW222704   6.335   6.236   3.855
 7269SOL     OW22705   2.378   5.134   5.355
 7269SOL    HW122706   2.433   5.151   5.437
 7269SOL    HW222707   2.436   5.098   5.283
 7270SOL     OW22708   0.566   1.749   4.052
 7270SOL    HW122709   0.613   1.825   4.008
 7270SOL    HW222710   0.471   1.774   4.071
 7271SOL     OW22711   0.771   4.128   3.785
 7271SOL    HW122712   0.758   4.200   3.852
 7271SOL    HW222713   0.703   4.056   3.800
 7272SOL     OW22714   6.078   5.454   2.955
 7272SOL    HW122715   6.156   5.499   2.913
 7272SOL    HW222716   6.107   5.368   2.997
 7273SOL     OW22717   0.297   2.666   5.456
 7273SOL    HW122718   0.384   2.688   5.412
 7273SOL    HW222719   0.293   2.712   5.545
 7274SOL     OW22720   0.750   4.596   6.975
 7274SOL    HW122721   0.705   4.649   6.903
 7274SOL    HW222722   0.707   4.506   6.981
 7275SOL     OW22723   6.455   0.012   3.372
 7275SOL    HW122724   6.391   0.088   3.382
 7275SOL    HW222725   6.406   6.951   3.335
 7276SOL     OW22726   4.533   6.867   3.810
 7276SOL    HW122727   4.543   6.886   3.908
 7276SOL    HW222728   4.453   6.809   3.795
 7277SOL     OW22729   4.448   0.375   5.918
 7277SOL    HW122730   4.444   0.279   5.946
 7277SOL    HW222731   4.540   0.410   5.934
 7278SOL     OW22732   3.141   3.668   2.594
 7278SOL    HW122733   3.236   3.643   2.573
 7278SOL    HW222734   3.106   3.729   2.523
 7279SOL     OW22735   3.728   5.739   6.776
 7279SOL    HW122736   3.788   5.672   6.731
 7279SOL    HW222737   3.636   5.701   6.782
 7280SOL     OW22738   4.597   0.663   6.004
 7280SOL    HW122739   4.576   0.670   6.102
 7280SOL    HW222740   4.512   0.647   5.953
 7281SOL     OW22741   4.486   1.395   6.632
 7281SOL    HW122742   4.470   1.366   6.538
 7281SOL    HW222743   4.559   1.463   6.634
 7282SOL     OW22744   5.945   5.113   1.759
 7282SOL    HW122745   5.861   5.079   1.801
 7282SOL    HW222746   6.020   5.108   1.825
 7283SOL     OW22747   2.595   0.837   3.436
 7283SOL    HW122748   2.540   0.783   3.500
 7283SOL    HW222749   2.534   0.882   3.370
 7284SOL     OW22750   6.945   3.771   5.407
 7284SOL    HW122751   7.006   3.833   5.357
 7284SOL    HW222752   6.906   3.819   5.485
 7285SOL     OW22753   5.526   5.651   2.432
 7285SOL    HW122754   5.476   5.722   2.383
 7285SOL    HW222755   5.472   5.619   2.509
 7286SOL     OW22756   2.731   2.993   1.068
 7286SOL    HW122757   2.763   3.086   1.049
 7286SOL    HW222758   2.795   2.927   1.029
 7287SOL     OW22759   6.577   1.044   6.643
 7287SOL    HW122760   6.490   1.092   6.631
 7287SOL    HW222761   6.570   0.982   6.721
 7288SOL     OW22762   3.954   0.360   6.612
 7288SOL    HW122763   3.861   0.325   6.600
 7288SOL    HW222764   3.951   0.458   6.631
 7289SOL     OW22765   5.585   1.905   2.902
 7289SOL    HW122766   5.535   1.903   2.989
 7289SOL    HW222767   5.662   1.841   2.907
 7290SOL     OW22768   2.310   5.300   4.787
 7290SOL    HW122769   2.321   5.208   4.822
 7290SOL    HW222770   2.324   5.300   4.688
 7291SOL     OW22771   2.161   6.352   1.417
 7291SOL    HW122772   2.222   6.292   1.469
 7291SOL    HW222773   2.066   6.320   1.429
 7292SOL     OW22774   2.708   6.591   3.645
 7292SOL    HW122775   2.776   6.542   3.700
 7292SOL    HW222776   2.742   6.683   3.625
 7293SOL     OW22777   2.039   1.673   4.855
 7293SOL    HW122778   2.019   1.762   4.815
 7293SOL    HW222779   1.963   1.644   4.913
 7294SOL     OW22780   2.748   4.904   0.312
 7294SOL    HW122781   2.807   4.956   0.374
 7294SOL    HW222782   2.652   4.918   0.338
 7295SOL     OW22783   0.210   1.354   0.736
 7295SOL    HW122784   0.174   1.447   0.727
 7295SOL    HW222785   0.308   1.354   0.715
 7296SOL     OW22786   2.753   4.711   0.743
 7296SOL    HW122787   2.747   4.789   0.805
 7296SOL    HW222788   2.776   4.629   0.796
 7297SOL     OW22789   4.881   6.519   0.749
 7297SOL    HW122790   4.858   6.495   0.843
 7297SOL    HW222791   4.980   6.514   0.735
 7298SOL     OW22792   5.762   4.103   4.579
 7298SOL    HW122793   5.756   4.196   4.541
 7298SOL    HW222794   5.848   4.061   4.551
 7299SOL     OW22795   6.656   3.181   0.701
 7299SOL    HW122796   6.645   3.096   0.649
 7299SOL    HW222797   6.680   3.255   0.638
 7300SOL     OW22798   5.050   5.476   0.950
 7300SOL    HW122799   5.037   5.562   0.998
 7300SOL    HW222800   5.102   5.413   1.008
 7301SOL     OW22801   7.011   6.668   5.813
 7301SOL    HW122802   6.945   6.616   5.867
 7301SOL    HW222803   0.049   6.724   5.874
 7302SOL     OW22804   6.996   0.738   6.993
 7302SOL    HW122805   6.935   0.766   6.919
 7302SOL    HW222806   0.048   0.808   7.006
 7303SOL     OW22807   3.449   0.622   7.015
 7303SOL    HW122808   3.385   0.688   6.977
 7303SOL    HW222809   3.524   0.606   6.949
 7304SOL     OW22810   3.889   3.835   5.862
 7304SOL    HW122811   3.950   3.798   5.793
 7304SOL    HW222812   3.864   3.764   5.927
 7305SOL     OW22813   4.995   1.594   7.000
 7305SOL    HW122814   4.910   1.636   6.967
 7305SOL    HW222815   4.978   1.544   0.066
 7306SOL     OW22816   4.941   4.365   1.529
 7306SOL    HW122817   4.908   4.281   1.487
 7306SOL    HW222818   4.886   4.442   1.498
 7307SOL     OW22819   3.836   6.441   1.686
 7307SOL    HW122820   3.878   6.410   1.601
 7307SOL    HW222821   3.787   6.527   1.669
 7308SOL     OW22822   6.555   3.366   4.376
 7308SOL    HW122823   6.549   3.281   4.324
 7308SOL    HW222824   6.652   3.388   4.391
 7309SOL     OW22825   5.106   6.611   0.492
 7309SOL    HW122826   5.182   6.569   0.443
 7309SOL    HW222827   5.124   6.607   0.590
 7310SOL     OW22828   2.761   5.418   1.353
 7310SOL    HW122829   2.767   5.411   1.254
 7310SOL    HW222830   2.731   5.331   1.391
 7311SOL     OW22831   2.764   2.122   1.740
 7311SOL    HW122832   2.837   2.088   1.799
 7311SOL    HW222833   2.685   2.146   1.796
 7312SOL     OW22834   6.864   2.211   5.574
 7312SOL    HW122835   6.935   2.276   5.601
 7312SOL    HW222836   6.782   2.261   5.547
 7313SOL     OW22837   4.163   2.188   6.468
 7313SOL    HW122838   4.087   2.252   6.464
 7313SOL    HW222839   4.228   2.208   6.394
 7314SOL     OW22840   6.982   3.528   5.055
 7314SOL    HW122841   0.049   3.532   5.107
 7314SOL    HW222842   6.912   3.581   5.103
 7315SOL     OW22843   6.855   0.313   4.022
 7315SOL    HW122844   6.951   0.341   4.019
 7315SOL    HW222845   6.798   0.395   4.030
 7316SOL     OW22846   3.846   3.521   5.594
 7316SOL    HW122847   3.899   3.447   5.636
 7316SOL    HW222848   3.900   3.564   5.522
 7317SOL     OW22849   3.454   1.014   3.141
 7317SOL    HW122850   3.383   0.974   3.197
 7317SOL    HW222851   3.435   0.996   3.044
 7318SOL     OW22852   1.087   2.068   1.453
 7318SOL    HW122853   1.139   2.032   1.530
 7318SOL    HW222854   1.150   2.110   1.387
 7319SOL     OW22855   5.956   4.962   6.696
 7319SOL    HW122856   5.990   4.884   6.749
 7319SOL    HW222857   5.977   4.948   6.599
 7320SOL     OW22858   0.428   3.310   2.322
 7320SOL    HW122859   0.344   3.363   2.312
 7320SOL    HW222860   0.496   3.363   2.373
 7321SOL     OW22861   2.291   1.595   4.311
 7321SOL    HW122862   2.221   1.621   4.244
 7321SOL    HW222863   2.339   1.678   4.342
 7322SOL     OW22864   0.720   3.738   3.199
 7322SOL    HW122865   0.709   3.701   3.291
 7322SOL    HW222866   0.678   3.829   3.194
 7323SOL     OW22867   1.896   1.876   3.241
 7323SOL    HW122868   1.961   1.950   3.224
 7323SOL    HW222869   1.846   1.895   3.325
 7324SOL     OW22870   5.768   1.175   3.663
 7324SOL    HW122871   5.791   1.184   3.566
 7324SOL    HW222872   5.739   1.264   3.700
 7325SOL     OW22873   3.777   6.595   6.042
 7325SOL    HW122874   3.719   6.524   6.001
 7325SOL    HW222875   3.755   6.603   6.140
 7326SOL     OW22876   2.960   6.488   5.707
 7326SOL    HW122877   2.894   6.557   5.677
 7326SOL    HW222878   2.966   6.489   5.807
 7327SOL     OW22879   1.214   2.736   6.289
 7327SOL    HW122880   1.312   2.740   6.266
 7327SOL    HW222881   1.203   2.716   6.386
 7328SOL     OW22882   3.104   6.834   6.508
 7328SOL    HW122883   3.064   6.743   6.508
 7328SOL    HW222884   3.041   6.898   6.464
 7329SOL     OW22885   4.358   3.498   0.716
 7329SOL    HW122886   4.439   3.543   0.679
 7329SOL    HW222887   4.285   3.566   0.729
 7330SOL     OW22888   3.467   1.410   6.547
 7330SOL    HW122889   3.495   1.449   6.459
 7330SOL    HW222890   3.418   1.324   6.530
 7331SOL     OW22891   4.707   0.561   2.483
 7331SOL    HW122892   4.652   0.533   2.561
 7331SOL    HW222893   4.772   0.631   2.513
 7332SOL     OW22894   2.756   5.874   0.243
 7332SOL    HW122895   2.704   5.789   0.251
 7332SOL    HW222896   2.698   5.945   0.203
 7333SOL     OW22897   0.920   4.594   2.879
 7333SOL    HW122898   0.826   4.584   2.846
 7333SOL    HW222899   0.922   4.662   2.952
 7334SOL     OW22900   3.794   6.175   5.062
 7334SOL    HW122901   3.737   6.097   5.038
 7334SOL    HW222902   3.890   6.153   5.046
 7335SOL     OW22903   1.906   2.382   2.816
 7335SOL    HW122904   1.913   2.285   2.838
 7335SOL    HW222905   1.950   2.399   2.728
 7336SOL     OW22906   1.476   5.788   4.135
 7336SOL    HW122907   1.520   5.874   4.159
 7336SOL    HW222908   1.535   5.711   4.158
 7337SOL     OW22909   0.650   2.958   2.459
 7337SOL    HW122910   0.667   2.872   2.409
 7337SOL    HW222911   0.653   2.940   2.558
 7338SOL     OW22912   6.843   2.348   1.604
 7338SOL    HW122913   6.852   2.447   1.613
 7338SOL    HW222914   6.857   2.322   1.508
 7339SOL     OW22915   6.684   6.126   4.303
 7339SOL    HW122916   6.657   6.145   4.208
 7339SOL    HW222917   6.676   6.209   4.357
 7340SOL     OW22918   2.236   0.192   0.163
 7340SOL    HW122919   2.164   0.124   0.152
 7340SOL    HW222920   2.241   0.249   0.081
 7341SOL     OW22921   6.259   2.325   0.188
 7341SOL    HW122922   6.214   2.258   0.246
 7341SOL    HW222923   6.202   2.407   0.181
 7342SOL     OW22924   0.115   6.503   2.861
 7342SOL    HW122925   0.037   6.443   2.875
 7342SOL    HW222926   0.084   6.598   2.856
 7343SOL     OW22927   5.516   3.376   0.716
 7343SOL    HW122928   5.488   3.280   0.710
 7343SOL    HW222929   5.453   3.425   0.776
 7344SOL     OW22930   1.348   5.851   6.209
 7344SOL    HW122931   1.389   5.940   6.229
 7344SOL    HW222932   1.251   5.853   6.230
 7345SOL     OW22933   3.616   3.877   5.826
 7345SOL    HW122934   3.570   3.952   5.779
 7345SOL    HW222935   3.673   3.827   5.761
 7346SOL     OW22936   3.911   5.481   2.863
 7346SOL    HW122937   3.896   5.558   2.925
 7346SOL    HW222938   4.009   5.470   2.845
 7347SOL     OW22939   6.331   2.228   6.961
 7347SOL    HW122940   6.407   2.163   6.968
 7347SOL    HW222941   6.299   2.250   0.035
 7348SOL     OW22942   1.613   4.173   2.431
 7348SOL    HW122943   1.559   4.131   2.358
 7348SOL    HW222944   1.699   4.207   2.393
 7349SOL     OW22945   3.663   0.895   0.670
 7349SOL    HW122946   3.760   0.875   0.684
 7349SOL    HW222947   3.615   0.888   0.757
 7350SOL     OW22948   2.680   0.514   5.764
 7350SOL    HW122949   2.743   0.592   5.770
 7350SOL    HW222950   2.683   0.477   5.671
 7351SOL     OW22951   4.215   5.135   4.089
 7351SOL    HW122952   4.136   5.175   4.043
 7351SOL    HW222953   4.188   5.048   4.131
 7352SOL     OW22954   0.152   2.751   3.237
 7352SOL    HW122955   0.129   2.820   3.305
 7352SOL    HW222956   0.070   2.696   3.217
 7353SOL     OW22957   6.284   0.778   6.937
 7353SOL    HW122958   6.230   0.701   6.971
 7353SOL    HW222959   6.285   0.776   6.837
 7354SOL     OW22960   1.389   1.639   2.718
 7354SOL    HW122961   1.464   1.701   2.695
 7354SOL    HW222962   1.406   1.549   2.678
 7355SOL     OW22963   0.464   2.155   6.351
 7355SOL    HW122964   0.449   2.254   6.342
 7355SOL    HW222965   0.537   2.127   6.289
 7356SOL     OW22966   4.003   3.412   6.180
 7356SOL    HW122967   4.097   3.418   6.146
 7356SOL    HW222968   3.944   3.473   6.127
 7357SOL     OW22969   5.396   5.956   2.034
 7357SOL    HW122970   5.302   5.988   2.034
 7357SOL    HW222971   5.450   6.009   2.100
 7358SOL     OW22972   5.808   1.769   2.936
 7358SOL    HW122973   5.836   1.813   3.021
 7358SOL    HW222974   5.845   1.677   2.932
 7359SOL     OW22975   4.531   0.437   6.788
 7359SOL    HW122976   4.534   0.349   6.835
 7359SOL    HW222977   4.557   0.510   6.851
 7360SOL     OW22978   2.733   3.276   5.233
 7360SOL    HW122979   2.778   3.195   5.271
 7360SOL    HW222980   2.641   3.283   5.271
 7361SOL     OW22981   4.854   0.432   2.121
 7361SOL    HW122982   4.780   0.484   2.165
 7361SOL    HW222983   4.942   0.465   2.155
 7362SOL     OW22984   3.567   5.206   6.609
 7362SOL    HW122985   3.650   5.239   6.653
 7362SOL    HW222986   3.505   5.169   6.679
 7363SOL     OW22987   3.753   0.525   1.046
 7363SOL    HW122988   3.678   0.486   1.100
 7363SOL    HW222989   3.794   0.601   1.097
 7364SOL     OW22990   4.760   0.100   1.781
 7364SOL    HW122991   4.789   0.145   1.865
 7364SOL    HW222992   4.766   0.001   1.792
 7365SOL     OW22993   5.851   4.573   2.367
 7365SOL    HW122994   5.907   4.584   2.285
 7365SOL    HW222995   5.755   4.562   2.341
 7366SOL     OW22996   2.704   1.267   3.963
 7366SOL    HW122997   2.785   1.236   4.013
 7366SOL    HW222998   2.637   1.304   4.027
 7367SOL     OW22999   4.694   0.943   6.314
 7367SOL    HW123000   4.639   0.974   6.391
 7367SOL    HW223001   4.654   0.977   6.229
 7368SOL     OW23002   3.902   3.695   2.893
 7368SOL    HW123003   3.932   3.731   2.982
 7368SOL    HW223004   3.805   3.716   2.880
 7369SOL     OW23005   5.255   2.559   0.856
 7369SOL    HW123006   5.332   2.622   0.841
 7369SOL    HW223007   5.207   2.545   0.770
 7370SOL     OW23008   2.427   1.635   4.667
 7370SOL    HW123009   2.374   1.719   4.656
 7370SOL    HW223010   2.380   1.575   4.732
 7371SOL     OW23011   3.768   0.209   3.784
 7371SOL    HW123012   3.817   0.180   3.702
 7371SOL    HW223013   3.803   0.160   3.863
 7372SOL     OW23014   4.600   6.894   4.733
 7372SOL    HW123015   4.514   6.844   4.747
 7372SOL    HW223016   4.673   6.829   4.714
 7373SOL     OW23017   5.195   3.061   4.436
 7373SOL    HW123018   5.202   3.058   4.337
 7373SOL    HW223019   5.111   3.108   4.462
 7374SOL     OW23020   0.511   1.672   5.234
 7374SOL    HW123021   0.521   1.713   5.324
 7374SOL    HW223022   0.430   1.613   5.233
 7375SOL     OW23023   2.125   3.296   2.199
 7375SOL    HW123024   2.039   3.247   2.184
 7375SOL    HW223025   2.155   3.337   2.113
 7376SOL     OW23026   0.208   4.383   0.601
 7376SOL    HW123027   0.306   4.397   0.616
 7376SOL    HW223028   0.158   4.404   0.685
 7377SOL     OW23029   2.952   5.692   0.501
 7377SOL    HW123030   2.885   5.646   0.444
 7377SOL    HW223031   2.961   5.644   0.588
 7378SOL     OW23032   1.592   6.053   3.901
 7378SOL    HW123033   1.674   6.111   3.899
 7378SOL    HW223034   1.618   5.957   3.890
 7379SOL     OW23035   3.977   0.763   0.709
 7379SOL    HW123036   3.986   0.686   0.773
 7379SOL    HW223037   4.050   0.829   0.728
 7380SOL     OW23038   5.511   3.691   3.310
 7380SOL    HW123039   5.604   3.666   3.339
 7380SOL    HW223040   5.476   3.762   3.371
 7381SOL     OW23041   3.796   0.893   0.188
 7381SOL    HW123042   3.734   0.859   0.259
 7381SOL    HW223043   3.842   0.975   0.220
 7382SOL     OW23044   0.013   1.311   6.364
 7382SOL    HW123045   6.946   1.265   6.340
 7382SOL    HW223046   7.011   1.393   6.418
 7383SOL     OW23047   1.909   6.221   1.464
 7383SOL    HW123048   1.860   6.270   1.536
 7383SOL    HW223049   1.877   6.251   1.375
 7384SOL     OW23050   0.187   6.852   0.973
 7384SOL    HW123051   0.247   6.918   1.017
 7384SOL    HW223052   0.092   6.884   0.980
 7385SOL     OW23053   4.855   4.674   2.485
 7385SOL    HW123054   4.945   4.681   2.444
 7385SOL    HW223055   4.863   4.634   2.577
 7386SOL     OW23056   6.331   3.511   0.517
 7386SOL    HW123057   6.429   3.513   0.494
 7386SOL    HW223058   6.309   3.425   0.563
 7387SOL     OW23059   6.318   5.252   5.460
 7387SOL    HW123060   6.348   5.176   5.518
 7387SOL    HW223061   6.281   5.216   5.374
 7388SOL     OW23062   1.868   6.254   2.469
 7388SOL    HW123063   1.792   6.300   2.515
 7388SOL    HW223064   1.945   6.318   2.460
 7389SOL     OW23065   6.226   3.105   0.389
 7389SOL    HW123066   6.261   3.107   0.295
 7389SOL    HW223067   6.244   3.016   0.429
 7390SOL     OW23068   2.515   1.791   2.455
 7390SOL    HW123069   2.467   1.848   2.521
 7390SOL    HW223070   2.590   1.843   2.414
 7391SOL     OW23071   3.705   3.222   2.980
 7391SOL    HW123072   3.778   3.180   2.926
 7391SOL    HW223073   3.700   3.179   3.070
 7392SOL     OW23074   3.486   5.498   6.690
 7392SOL    HW123075   3.467   5.525   6.785
 7392SOL    HW223076   3.474   5.400   6.680
 7393SOL     OW23077   5.697   5.803   4.592
 7393SOL    HW123078   5.640   5.827   4.670
 7393SOL    HW223079   5.643   5.751   4.526
 7394SOL     OW23080   2.482   2.208   5.851
 7394SOL    HW123081   2.526   2.297   5.863
 7394SOL    HW223082   2.404   2.201   5.913
 7395SOL     OW23083   2.805   4.933   0.904
 7395SOL    HW123084   2.849   4.935   0.994
 7395SOL    HW223085   2.849   4.997   0.842
 7396SOL     OW23086   2.357   5.184   1.861
 7396SOL    HW123087   2.456   5.183   1.874
 7396SOL    HW223088   2.319   5.095   1.886
 7397SOL     OW23089   5.369   4.412   3.770
 7397SOL    HW123090   5.415   4.358   3.699
 7397SOL    HW223091   5.403   4.385   3.860
 7398SOL     OW23092   2.112   4.084   2.328
 7398SOL    HW123093   2.093   4.018   2.400
 7398SOL    HW223094   2.174   4.154   2.362
 7399SOL     OW23095   4.971   2.141   4.861
 7399SOL    HW123096   4.947   2.196   4.942
 7399SOL    HW223097   4.912   2.167   4.785
 7400SOL     OW23098   4.972   3.055   5.670
 7400SOL    HW123099   5.003   3.113   5.595
 7400SOL    HW223100   4.942   3.112   5.746
 7401SOL     OW23101   1.018   2.941   3.902
 7401SOL    HW123102   0.930   2.985   3.882
 7401SOL    HW223103   1.006   2.879   3.980
 7402SOL     OW23104   3.321   6.171   5.224
 7402SOL    HW123105   3.402   6.115   5.241
 7402SOL    HW223106   3.259   6.165   5.302
 7403SOL     OW23107   1.302   3.195   4.847
 7403SOL    HW123108   1.281   3.243   4.762
 7403SOL    HW223109   1.375   3.243   4.895
 7404SOL     OW23110   3.115   3.980   0.728
 7404SOL    HW123111   3.064   3.917   0.786
 7404SOL    HW223112   3.053   4.051   0.693
 7405SOL     OW23113   3.356   6.095   4.934
 7405SOL    HW123114   3.328   6.119   5.027
 7405SOL    HW223115   3.393   6.176   4.888
 7406SOL     OW23116   0.768   1.284   5.042
 7406SOL    HW123117   0.741   1.356   5.105
 7406SOL    HW223118   0.839   1.318   4.981
 7407SOL     OW23119   1.070   6.035   5.272
 7407SOL    HW123120   1.139   6.059   5.341
 7407SOL    HW223121   1.018   6.117   5.248
 7408SOL     OW23122   3.723   3.987   5.227
 7408SOL    HW123123   3.667   4.070   5.231
 7408SOL    HW223124   3.816   4.010   5.198
 7409SOL     OW23125   6.140   4.091   0.577
 7409SOL    HW123126   6.219   4.069   0.519
 7409SOL    HW223127   6.152   4.182   0.617
 7410SOL     OW23128   6.996   0.243   1.286
 7410SOL    HW123129   6.901   0.225   1.311
 7410SOL    HW223130   0.012   0.321   1.339
 7411SOL     OW23131   1.399   2.115   4.930
 7411SOL    HW123132   1.464   2.167   4.875
 7411SOL    HW223133   1.447   2.044   4.981
 7412SOL     OW23134   4.272   6.287   6.892
 7412SOL    HW123135   4.219   6.329   6.818
 7412SOL    HW223136   4.264   6.343   6.974
 7413SOL     OW23137   4.112   6.685   2.967
 7413SOL    HW123138   4.041   6.679   3.037
 7413SOL    HW223139   4.071   6.675   2.876
 7414SOL     OW23140   2.444   2.064   3.838
 7414SOL    HW123141   2.516   2.065   3.908
 7414SOL    HW223142   2.397   2.152   3.838
 7415SOL     OW23143   3.906   6.176   6.077
 7415SOL    HW123144   3.886   6.257   6.133
 7415SOL    HW223145   3.981   6.125   6.120
 7416SOL     OW23146   1.162   1.508   2.276
 7416SOL    HW123147   1.250   1.515   2.324
 7416SOL    HW223148   1.092   1.477   2.340
 7417SOL     OW23149   0.571   1.703   3.567
 7417SOL    HW123150   0.527   1.695   3.478
 7417SOL    HW223151   0.540   1.628   3.627
 7418SOL     OW23152   2.038   4.231   6.265
 7418SOL    HW123153   1.961   4.167   6.265
 7418SOL    HW223154   2.123   4.180   6.279
 7419SOL     OW23155   6.691   3.738   4.131
 7419SOL    HW123156   6.722   3.830   4.154
 7419SOL    HW223157   6.761   3.671   4.156
 7420SOL     OW23158   6.208   6.954   1.809
 7420SOL    HW123159   6.274   7.008   1.862
 7420SOL    HW223160   6.177   7.007   1.730
 7421SOL     OW23161   4.805   4.084   1.434
 7421SOL    HW123162   4.779   3.993   1.400
 7421SOL    HW223163   4.783   4.090   1.532
 7422SOL     OW23164   5.489   2.899   2.158
 7422SOL    HW123165   5.462   2.898   2.062
 7422SOL    HW223166   5.489   2.806   2.194
 7423SOL     OW23167   5.931   1.956   6.078
 7423SOL    HW123168   5.898   1.988   5.989
 7423SOL    HW223169   5.992   2.025   6.117
 7424SOL     OW23170   0.883   1.624   4.101
 7424SOL    HW123171   0.819   1.621   4.178
 7424SOL    HW223172   0.836   1.592   4.018
 7425SOL     OW23173   6.001   1.009   0.074
 7425SOL    HW123174   6.011   0.911   0.094
 7425SOL    HW223175   5.938   1.050   0.140
 7426SOL     OW23176   3.467   2.961   5.733
 7426SOL    HW123177   3.392   2.901   5.759
 7426SOL    HW223178   3.521   2.984   5.814
 7427SOL     OW23179   3.423   1.486   3.999
 7427SOL    HW123180   3.438   1.441   3.912
 7427SOL    HW223181   3.399   1.418   4.068
 7428SOL     OW23182   4.357   5.823   5.565
 7428SOL    HW123183   4.419   5.755   5.526
 7428SOL    HW223184   4.312   5.873   5.491
 7429SOL     OW23185   1.795   0.036   2.837
 7429SOL    HW123186   1.859   6.982   2.862
 7429SOL    HW223187   1.813   0.065   2.743
 7430SOL     OW23188   6.582   5.116   2.520
 7430SOL    HW123189   6.569   5.030   2.471
 7430SOL    HW223190   6.507   5.129   2.585
 7431SOL     OW23191   1.528   1.915   4.479
 7431SOL    HW123192   1.543   1.999   4.427
 7431SOL    HW223193   1.614   1.882   4.517
 7432SOL     OW23194   1.520   0.021   3.234
 7432SOL    HW123195   1.539   0.068   3.321
 7432SOL    HW223196   1.486   6.947   3.253
 7433SOL     OW23197   2.692   0.224   0.421
 7433SOL    HW123198   2.593   0.236   0.415
 7433SOL    HW223199   2.737   0.313   0.417
 7434SOL     OW23200   3.971   6.155   5.795
 7434SOL    HW123201   4.051   6.200   5.835
 7434SOL    HW223202   3.896   6.156   5.862
 7435SOL     OW23203   4.927   5.637   3.073
 7435SOL    HW123204   4.851   5.688   3.113
 7435SOL    HW223205   4.978   5.696   3.011
 7436SOL     OW23206   5.313   3.117   6.334
 7436SOL    HW123207   5.351   3.202   6.370
 7436SOL    HW223208   5.386   3.051   6.319
 7437SOL     OW23209   4.047   6.416   0.960
 7437SOL    HW123210   4.049   6.324   0.999
 7437SOL    HW223211   4.132   6.464   0.983
 7438SOL     OW23212   2.220   0.363   0.519
 7438SOL    HW123213   2.179   0.438   0.468
 7438SOL    HW223214   2.224   0.387   0.616
 7439SOL     OW23215   0.912   4.687   6.136
 7439SOL    HW123216   0.997   4.643   6.109
 7439SOL    HW223217   0.842   4.671   6.066
 7440SOL     OW23218   5.377   3.226   4.616
 7440SOL    HW123219   5.343   3.152   4.558
 7440SOL    HW223220   5.351   3.314   4.577
 7441SOL     OW23221   5.849   5.968   1.564
 7441SOL    HW123222   5.901   5.940   1.645
 7441SOL    HW223223   5.767   5.912   1.556
 7442SOL     OW23224   4.895   0.478   5.269
 7442SOL    HW123225   4.858   0.568   5.247
 7442SOL    HW223226   4.863   0.449   5.358
 7443SOL     OW23227   0.181   0.496   2.043
 7443SOL    HW123228   0.144   0.581   2.004
 7443SOL    HW223229   0.127   0.418   2.011
 7444SOL     OW23230   1.157   6.152   6.758
 7444SOL    HW123231   1.212   6.197   6.829
 7444SOL    HW223232   1.204   6.159   6.670
 7445SOL     OW23233   3.831   6.274   1.360
 7445SOL    HW123234   3.806   6.262   1.264
 7445SOL    HW223235   3.886   6.357   1.369
 7446SOL     OW23236   5.206   3.868   0.258
 7446SOL    HW123237   5.238   3.887   0.351
 7446SOL    HW223238   5.106   3.861   0.258
 7447SOL     OW23239   0.750   4.665   1.507
 7447SOL    HW123240   0.696   4.635   1.428
 7447SOL    HW223241   0.724   4.613   1.588
 7448SOL     OW23242   4.410   4.942   6.451
 7448SOL    HW123243   4.486   4.974   6.394
 7448SOL    HW223244   4.396   4.844   6.436
 7449SOL     OW23245   0.535   4.350   6.369
 7449SOL    HW123246   0.602   4.299   6.315
 7449SOL    HW223247   0.520   4.440   6.328
 7450SOL     OW23248   5.102   2.023   5.550
 7450SOL    HW123249   5.146   2.098   5.500
 7450SOL    HW223250   5.164   1.990   5.621
 7451SOL     OW23251   5.487   5.180   3.003
 7451SOL    HW123252   5.491   5.099   3.061
 7451SOL    HW223253   5.411   5.171   2.938
 7452SOL     OW23254   6.375   5.116   5.153
 7452SOL    HW123255   6.308   5.189   5.165
 7452SOL    HW223256   6.422   5.128   5.065
 7453SOL     OW23257   3.797   5.860   0.083
 7453SOL    HW123258   3.799   5.784   0.147
 7453SOL    HW223259   3.776   5.826   7.009
 7454SOL     OW23260   3.792   2.359   0.560
 7454SOL    HW123261   3.877   2.411   0.549
 7454SOL    HW223262   3.762   2.362   0.655
 7455SOL     OW23263   6.755   2.686   3.590
 7455SOL    HW123264   6.802   2.598   3.599
 7455SOL    HW223265   6.785   2.730   3.505
 7456SOL     OW23266   3.444   2.047   5.653
 7456SOL    HW123267   3.419   1.972   5.591
 7456SOL    HW223268   3.375   2.119   5.646
 7457SOL     OW23269   2.737   0.149   3.024
 7457SOL    HW123270   2.795   0.182   2.950
 7457SOL    HW223271   2.794   0.108   3.095
 7458SOL     OW23272   1.104   5.602   5.226
 7458SOL    HW123273   1.082   5.543   5.148
 7458SOL    HW223274   1.198   5.635   5.217
 7459SOL     OW23275   5.906   0.492   2.841
 7459SOL    HW123276   5.848   0.502   2.921
 7459SOL    HW223277   5.880   0.560   2.772
 7460SOL     OW23278   1.656   6.450   0.758
 7460SOL    HW123279   1.699   6.522   0.813
 7460SOL    HW223280   1.557   6.455   0.767
 7461SOL     OW23281   1.047   5.019   6.297
 7461SOL    HW123282   0.953   5.023   6.330
 7461SOL    HW223283   1.048   4.982   6.204
 7462SOL     OW23284   1.061   5.040   0.506
 7462SOL    HW123285   1.036   4.962   0.449
 7462SOL    HW223286   1.160   5.056   0.500
 7463SOL     OW23287   3.451   4.662   0.970
 7463SOL    HW123288   3.510   4.655   0.890
 7463SOL    HW223289   3.390   4.583   0.974
 7464SOL     OW23290   6.156   6.166   5.278
 7464SOL    HW123291   6.211   6.083   5.279
 7464SOL    HW223292   6.065   6.146   5.315
 7465SOL     OW23293   1.815   4.914   0.189
 7465SOL    HW123294   1.880   4.969   0.242
 7465SOL    HW223295   1.723   4.952   0.199
 7466SOL     OW23296   0.551   6.751   4.944
 7466SOL    HW123297   0.486   6.690   4.899
 7466SOL    HW223298   0.505   6.837   4.967
 7467SOL     OW23299   0.286   2.969   5.906
 7467SOL    HW123300   0.366   2.961   5.965
 7467SOL    HW223301   0.245   3.060   5.918
 7468SOL     OW23302   6.104   3.607   5.734
 7468SOL    HW123303   6.096   3.637   5.639
 7468SOL    HW223304   6.133   3.683   5.792
 7469SOL     OW23305   6.712   2.392   1.021
 7469SOL    HW123306   6.628   2.444   1.041
 7469SOL    HW223307   6.696   2.295   1.038
 7470SOL     OW23308   5.274   3.211   3.901
 7470SOL    HW123309   5.212   3.235   3.826
 7470SOL    HW223310   5.352   3.160   3.865
 7471SOL     OW23311   5.097   6.142   5.778
 7471SOL    HW123312   5.097   6.111   5.874
 7471SOL    HW223313   5.052   6.073   5.721
 7472SOL     OW23314   5.904   6.092   5.388
 7472SOL    HW123315   5.804   6.095   5.387
 7472SOL    HW223316   5.938   6.149   5.463
 7473SOL     OW23317   4.064   6.175   3.815
 7473SOL    HW123318   4.123   6.095   3.827
 7473SOL    HW223319   4.118   6.251   3.778
 7474SOL     OW23320   6.933   1.963   5.479
 7474SOL    HW123321   6.889   2.052   5.489
 7474SOL    HW223322   6.903   1.921   5.393
 7475SOL     OW23323   4.751   2.716   0.774
 7475SOL    HW123324   4.719   2.628   0.738
 7475SOL    HW223325   4.758   2.711   0.874
 7476SOL     OW23326   1.711   0.822   2.548
 7476SOL    HW123327   1.756   0.896   2.598
 7476SOL    HW223328   1.780   0.766   2.502
 7477SOL     OW23329   0.949   4.196   5.003
 7477SOL    HW123330   0.877   4.206   4.933
 7477SOL    HW223331   1.004   4.116   4.982
 7478SOL     OW23332   0.800   1.536   6.000
 7478SOL    HW123333   0.865   1.584   5.939
 7478SOL    HW223334   0.725   1.499   5.945
 7479SOL     OW23335   6.041   3.329   0.065
 7479SOL    HW123336   5.995   3.258   0.117
 7479SOL    HW223337   6.015   3.323   6.987
 7480SOL     OW23338   4.062   4.959   2.497
 7480SOL    HW123339   3.988   5.022   2.520
 7480SOL    HW223340   4.024   4.879   2.450
 7481SOL     OW23341   0.478   4.013   6.429
 7481SOL    HW123342   0.426   4.082   6.479
 7481SOL    HW223343   0.512   4.053   6.344
 7482SOL     OW23344   3.900   1.935   2.700
 7482SOL    HW123345   3.823   1.973   2.648
 7482SOL    HW223346   3.978   1.998   2.693
 7483SOL     OW23347   4.849   2.082   6.171
 7483SOL    HW123348   4.752   2.106   6.175
 7483SOL    HW223349   4.862   1.990   6.210
 7484SOL     OW23350   3.086   6.862   4.109
 7484SOL    HW123351   3.062   6.959   4.113
 7484SOL    HW223352   3.159   6.843   4.174
 7485SOL     OW23353   2.776   6.966   4.863
 7485SOL    HW123354   2.719   6.888   4.837
 7485SOL    HW223355   2.822   7.001   4.781
 7486SOL     OW23356   2.348   6.404   1.191
 7486SOL    HW123357   2.345   6.349   1.107
 7486SOL    HW223358   2.260   6.398   1.238
 7487SOL     OW23359   4.465   6.467   3.829
 7487SOL    HW123360   4.454   6.492   3.733
 7487SOL    HW223361   4.402   6.520   3.885
 7488SOL     OW23362   0.953   5.267   3.758
 7488SOL    HW123363   0.876   5.253   3.696
 7488SOL    HW223364   0.924   5.248   3.852
 7489SOL     OW23365   6.459   3.320   6.557
 7489SOL    HW123366   6.390   3.335   6.627
 7489SOL    HW223367   6.550   3.321   6.600
 7490SOL     OW23368   1.147   2.270   1.999
 7490SOL    HW123369   1.236   2.230   1.976
 7490SOL    HW223370   1.118   2.237   2.089
 7491SOL     OW23371   4.387   3.117   0.390
 7491SOL    HW123372   4.452   3.106   0.466
 7491SOL    HW223373   4.371   3.028   0.347
 7492SOL     OW23374   1.421   0.478   4.300
 7492SOL    HW123375   1.507   0.441   4.336
 7492SOL    HW223376   1.437   0.570   4.263
 7493SOL     OW23377   6.808   4.108   4.876
 7493SOL    HW123378   6.823   4.204   4.899
 7493SOL    HW223379   6.895   4.060   4.876
 7494SOL     OW23380   5.955   1.079   2.656
 7494SOL    HW123381   5.871   1.025   2.653
 7494SOL    HW223382   6.033   1.022   2.629
 7495SOL     OW23383   1.670   3.946   5.490
 7495SOL    HW123384   1.664   3.920   5.586
 7495SOL    HW223385   1.763   3.974   5.468
 7496SOL     OW23386   5.721   4.220   2.684
 7496SOL    HW123387   5.788   4.279   2.638
 7496SOL    HW223388   5.652   4.191   2.618
 7497SOL     OW23389   0.390   6.902   0.291
 7497SOL    HW123390   0.441   6.819   0.270
 7497SOL    HW223391   0.298   6.895   0.252
 7498SOL     OW23392   3.206   0.423   2.492
 7498SOL    HW123393   3.172   0.475   2.571
 7498SOL    HW223394   3.128   0.386   2.441
 7499SOL     OW23395   4.337   1.931   3.649
 7499SOL    HW123396   4.297   1.890   3.568
 7499SOL    HW223397   4.266   1.944   3.719
 7500SOL     OW23398   3.822   6.901   2.843
 7500SOL    HW123399   3.810   6.885   2.941
 7500SOL    HW223400   3.786   6.991   2.819
 7501SOL     OW23401   5.869   2.250   4.962
 7501SOL    HW123402   5.925   2.326   4.929
 7501SOL    HW223403   5.862   2.180   4.892
 7502SOL     OW23404   3.910   0.731   4.338
 7502SOL    HW123405   3.976   0.699   4.269
 7502SOL    HW223406   3.947   0.811   4.384
 7503SOL     OW23407   1.741   6.272   1.713
 7503SOL    HW123408   1.672   6.200   1.728
 7503SOL    HW223409   1.807   6.271   1.787
 7504SOL     OW23410   6.421   6.614   3.525
 7504SOL    HW123411   6.474   6.657   3.452
 7504SOL    HW223412   6.462   6.637   3.613
 7505SOL     OW23413   0.902   6.747   5.382
 7505SOL    HW123414   0.949   6.820   5.333
 7505SOL    HW223415   0.861   6.683   5.317
 7506SOL     OW23416   2.745   1.805   3.068
 7506SOL    HW123417   2.672   1.742   3.093
 7506SOL    HW223418   2.814   1.757   3.014
 7507SOL     OW23419   6.395   3.987   4.675
 7507SOL    HW123420   6.343   3.980   4.590
 7507SOL    HW223421   6.372   3.910   4.734
 7508SOL     OW23422   1.846   6.079   6.334
 7508SOL    HW123423   1.863   6.046   6.427
 7508SOL    HW223424   1.829   6.178   6.336
 7509SOL     OW23425   5.358   4.305   0.211
 7509SOL    HW123426   5.457   4.297   0.220
 7509SOL    HW223427   5.332   4.402   0.213
 7510SOL     OW23428   3.823   3.828   3.703
 7510SOL    HW123429   3.803   3.926   3.705
 7510SOL    HW223430   3.919   3.813   3.724
 7511SOL     OW23431   3.648   6.421   3.539
 7511SOL    HW123432   3.691   6.344   3.492
 7511SOL    HW223433   3.705   6.450   3.616
 7512SOL     OW23434   3.757   0.020   5.980
 7512SOL    HW123435   3.762   0.073   6.065
 7512SOL    HW223436   3.795   0.074   5.905
 7513SOL     OW23437   0.814   2.165   2.082
 7513SOL    HW123438   0.721   2.159   2.046
 7513SOL    HW223439   0.818   2.236   2.152
 7514SOL     OW23440   1.497   4.142   2.188
 7514SOL    HW123441   1.520   4.237   2.169
 7514SOL    HW223442   1.435   4.108   2.117
 7515SOL     OW23443   0.179   4.490   3.825
 7515SOL    HW123444   0.126   4.511   3.743
 7515SOL    HW223445   0.117   4.455   3.896
 7516SOL     OW23446   1.152   6.457   5.130
 7516SOL    HW123447   1.194   6.367   5.116
 7516SOL    HW223448   1.220   6.522   5.163
 7517SOL     OW23449   0.413   1.413   0.064
 7517SOL    HW123450   0.488   1.455   0.015
 7517SOL    HW223451   0.443   1.389   0.157
 7518SOL     OW23452   4.861   3.183   3.742
 7518SOL    HW123453   4.819   3.116   3.803
 7518SOL    HW223454   4.882   3.266   3.794
 7519SOL     OW23455   3.918   6.482   4.437
 7519SOL    HW123456   3.852   6.514   4.369
 7519SOL    HW223457   3.882   6.498   4.529
 7520SOL     OW23458   1.662   2.150   0.707
 7520SOL    HW123459   1.642   2.195   0.794
 7520SOL    HW223460   1.668   2.218   0.634
 7521SOL     OW23461   3.777   1.306   5.667
 7521SOL    HW123462   3.786   1.388   5.723
 7521SOL    HW223463   3.832   1.316   5.584
 7522SOL     OW23464   1.872   0.211   3.441
 7522SOL    HW123465   1.910   0.174   3.526
 7522SOL    HW223466   1.784   0.168   3.422
 7523SOL     OW23467   5.754   1.098   6.623
 7523SOL    HW123468   5.727   1.024   6.562
 7523SOL    HW223469   5.678   1.120   6.685
 7524SOL     OW23470   0.508   3.289   4.807
 7524SOL    HW123471   0.547   3.220   4.868
 7524SOL    HW223472   0.476   3.367   4.862
 7525SOL     OW23473   4.484   5.770   6.411
 7525SOL    HW123474   4.428   5.852   6.426
 7525SOL    HW223475   4.572   5.781   6.458
 7526SOL     OW23476   2.468   3.259   1.631
 7526SOL    HW123477   2.453   3.312   1.714
 7526SOL    HW223478   2.381   3.236   1.589
 7527SOL     OW23479   4.209   5.306   3.647
 7527SOL    HW123480   4.226   5.213   3.615
 7527SOL    HW223481   4.257   5.370   3.587
 7528SOL     OW23482   6.615   3.048   6.635
 7528SOL    HW123483   6.661   3.137   6.642
 7528SOL    HW223484   6.679   2.975   6.661
 7529SOL     OW23485   6.668   3.008   4.480
 7529SOL    HW123486   6.756   2.971   4.450
 7529SOL    HW223487   6.647   2.975   4.571
 7530SOL     OW23488   6.826   2.153   1.777
 7530SOL    HW123489   6.763   2.088   1.735
 7530SOL    HW223490   6.860   2.216   1.708
 7531SOL     OW23491   4.426   2.115   3.866
 7531SOL    HW123492   4.466   2.025   3.855
 7531SOL    HW223493   4.453   2.173   3.789
 7532SOL     OW23494   4.476   5.297   6.182
 7532SOL    HW123495   4.377   5.287   6.183
 7532SOL    HW223496   4.511   5.298   6.276
 7533SOL     OW23497   4.589   3.807   1.678
 7533SOL    HW123498   4.638   3.893   1.689
 7533SOL    HW223499   4.646   3.732   1.711
 7534SOL     OW23500   4.620   6.955   4.428
 7534SOL    HW123501   4.563   0.003   4.478
 7534SOL    HW223502   4.614   6.866   4.472
 7535SOL     OW23503   0.235   5.993   3.574
 7535SOL    HW123504   0.333   6.006   3.591
 7535SOL    HW223505   0.184   6.067   3.618
 7536SOL     OW23506   4.931   6.105   4.779
 7536SOL    HW123507   4.893   6.031   4.724
 7536SOL    HW223508   5.031   6.097   4.782
 7537SOL     OW23509   3.373   6.531   3.378
 7537SOL    HW123510   3.336   6.571   3.462
 7537SOL    HW223511   3.447   6.589   3.343
 7538SOL     OW23512   0.477   4.421   0.602
 7538SOL    HW123513   0.564   4.383   0.633
 7538SOL    HW223514   0.466   4.514   0.638
 7539SOL     OW23515   0.407   6.248   3.807
 7539SOL    HW123516   0.406   6.344   3.778
 7539SOL    HW223517   0.324   6.229   3.860
 7540SOL     OW23518   6.368   5.089   3.415
 7540SOL    HW123519   6.347   5.016   3.480
 7540SOL    HW223520   6.295   5.157   3.417
 7541SOL     OW23521   1.805   4.205   7.017
 7541SOL    HW123522   1.741   4.274   0.034
 7541SOL    HW223523   1.758   4.117   7.009
 7542SOL     OW23524   5.674   5.730   5.942
 7542SOL    HW123525   5.672   5.753   6.039
 7542SOL    HW223526   5.648   5.810   5.888
 7543SOL     OW23527   2.518   0.937   6.479
 7543SOL    HW123528   2.526   1.030   6.515
 7543SOL    HW223529   2.523   0.939   6.379
 7544SOL     OW23530   0.213   2.625   4.409
 7544SOL    HW123531   0.244   2.570   4.332
 7544SOL    HW223532   0.143   2.690   4.378
 7545SOL     OW23533   1.033   5.083   0.030
 7545SOL    HW123534   0.943   5.051   0.060
 7545SOL    HW223535   1.077   5.013   6.991
 7546SOL     OW23536   3.107   2.896   1.796
 7546SOL    HW123537   3.076   2.934   1.883
 7546SOL    HW223538   3.156   2.810   1.813
 7547SOL     OW23539   4.679   0.513   1.827
 7547SOL    HW123540   4.618   0.465   1.890
 7547SOL    HW223541   4.627   0.549   1.750
 7548SOL     OW23542   3.988   1.954   6.414
 7548SOL    HW123543   4.083   1.979   6.396
 7548SOL    HW223544   3.938   2.034   6.449
 7549SOL     OW23545   4.827   2.639   4.518
 7549SOL    HW123546   4.833   2.711   4.448
 7549SOL    HW223547   4.775   2.673   4.596
 7550SOL     OW23548   2.391   4.460   4.502
 7550SOL    HW123549   2.434   4.394   4.440
 7550SOL    HW223550   2.324   4.413   4.559
 7551SOL     OW23551   5.924   2.569   5.764
 7551SOL    HW123552   5.921   2.656   5.714
 7551SOL    HW223553   6.018   2.549   5.791
 7552SOL     OW23554   2.561   5.883   4.935
 7552SOL    HW123555   2.610   5.820   4.875
 7552SOL    HW223556   2.555   5.973   4.891
 7553SOL     OW23557   5.644   6.447   6.055
 7553SOL    HW123558   5.563   6.466   6.111
 7553SOL    HW223559   5.636   6.356   6.014
 7554SOL     OW23560   4.985   0.637   1.009
 7554SOL    HW123561   4.969   0.732   1.032
 7554SOL    HW223562   4.941   0.578   1.077
 7555SOL     OW23563   3.244   4.911   5.491
 7555SOL    HW123564   3.325   4.941   5.441
 7555SOL    HW223565   3.220   4.818   5.465
 7556SOL     OW23566   6.921   6.915   1.026
 7556SOL    HW123567   6.873   6.860   0.957
 7556SOL    HW223568   6.858   6.940   1.098
 7557SOL     OW23569   4.763   6.836   0.143
 7557SOL    HW123570   4.854   6.875   0.162
 7557SOL    HW223571   4.696   6.876   0.205
 7558SOL     OW23572   1.061   2.126   4.644
 7558SOL    HW123573   1.024   2.055   4.584
 7558SOL    HW223574   1.073   2.088   4.736
 7559SOL     OW23575   3.649   1.922   4.691
 7559SOL    HW123576   3.563   1.965   4.663
 7559SOL    HW223577   3.723   1.953   4.632
 7560SOL     OW23578   0.697   0.768   6.056
 7560SOL    HW123579   0.753   0.736   5.979
 7560SOL    HW223580   0.601   0.768   6.029
 7561SOL     OW23581   5.431   2.104   5.173
 7561SOL    HW123582   5.468   2.162   5.100
 7561SOL    HW223583   5.505   2.053   5.217
 7562SOL     OW23584   1.300   4.358   4.080
 7562SOL    HW123585   1.269   4.435   4.024
 7562SOL    HW223586   1.312   4.388   4.175
 7563SOL     OW23587   3.639   5.582   2.527
 7563SOL    HW123588   3.618   5.675   2.557
 7563SOL    HW223589   3.694   5.586   2.443
 7564SOL     OW23590   4.362   1.733   5.112
 7564SOL    HW123591   4.279   1.695   5.070
 7564SOL    HW223592   4.418   1.776   5.041
 7565SOL     OW23593   5.640   4.266   6.481
 7565SOL    HW123594   5.670   4.206   6.407
 7565SOL    HW223595   5.559   4.228   6.525
 7566SOL     OW23596   4.256   4.298   1.305
 7566SOL    HW123597   4.227   4.224   1.366
 7566SOL    HW223598   4.244   4.386   1.351
 7567SOL     OW23599   1.967   0.629   4.584
 7567SOL    HW123600   2.003   0.537   4.600
 7567SOL    HW223601   2.042   0.690   4.559
 7568SOL     OW23602   6.057   4.973   1.500
 7568SOL    HW123603   6.008   4.988   1.586
 7568SOL    HW223604   6.024   5.039   1.432
 7569SOL     OW23605   4.323   4.069   0.066
 7569SOL    HW123606   4.420   4.092   0.069
 7569SOL    HW223607   4.269   4.145   0.102
 7570SOL     OW23608   6.482   2.843   2.974
 7570SOL    HW123609   6.564   2.869   3.025
 7570SOL    HW223610   6.452   2.920   2.918
 7571SOL     OW23611   4.580   2.545   3.011
 7571SOL    HW123612   4.492   2.564   3.053
 7571SOL    HW223613   4.600   2.447   3.018
 7572SOL     OW23614   4.691   6.366   2.056
 7572SOL    HW123615   4.620   6.431   2.085
 7572SOL    HW223616   4.765   6.364   2.124
 7573SOL     OW23617   5.040   6.595   5.368
 7573SOL    HW123618   5.057   6.498   5.350
 7573SOL    HW223619   4.966   6.604   5.434
 7574SOL     OW23620   0.220   1.335   3.780
 7574SOL    HW123621   0.171   1.420   3.764
 7574SOL    HW223622   0.155   1.264   3.809
 7575SOL     OW23623   6.922   6.955   2.707
 7575SOL    HW123624   6.987   0.010   2.725
 7575SOL    HW223625   6.839   6.970   2.760
 7576SOL     OW23626   5.629   2.952   0.738
 7576SOL    HW123627   5.671   2.980   0.825
 7576SOL    HW223628   5.568   3.024   0.706
 7577SOL     OW23629   1.230   6.696   0.689
 7577SOL    HW123630   1.169   6.746   0.750
 7577SOL    HW223631   1.242   6.747   0.604
 7578SOL     OW23632   6.824   5.934   3.537
 7578SOL    HW123633   6.865   6.017   3.498
 7578SOL    HW223634   6.895   5.864   3.548
 7579SOL     OW23635   6.833   1.406   6.959
 7579SOL    HW123636   6.759   1.391   0.008
 7579SOL    HW223637   6.892   1.325   6.956
 7580SOL     OW23638   2.338   4.768   3.652
 7580SOL    HW123639   2.362   4.848   3.596
 7580SOL    HW223640   2.271   4.796   3.722
 7581SOL     OW23641   6.698   0.881   2.553
 7581SOL    HW123642   6.712   0.787   2.524
 7581SOL    HW223643   6.771   0.908   2.615
 7582SOL     OW23644   3.237   1.045   5.080
 7582SOL    HW123645   3.248   1.119   5.013
 7582SOL    HW223646   3.142   1.041   5.111
 7583SOL     OW23647   5.140   2.881   2.575
 7583SOL    HW123648   5.175   2.806   2.518
 7583SOL    HW223649   5.181   2.875   2.666
 7584SOL     OW23650   0.181   1.040   3.209
 7584SOL    HW123651   0.193   1.010   3.115
 7584SOL    HW223652   0.228   1.128   3.223
 7585SOL     OW23653   1.143   1.584   0.079
 7585SOL    HW123654   1.201   1.510   0.113
 7585SOL    HW223655   1.179   1.672   0.110
 7586SOL     OW23656   1.255   1.878   2.626
 7586SOL    HW123657   1.276   1.803   2.688
 7586SOL    HW223658   1.279   1.965   2.669
 7587SOL     OW23659   3.584   0.834   0.926
 7587SOL    HW123660   3.530   0.918   0.926
 7587SOL    HW223661   3.613   0.813   1.019
 7588SOL     OW23662   2.023   2.189   4.520
 7588SOL    HW123663   2.026   2.267   4.457
 7588SOL    HW223664   1.930   2.179   4.556
 7589SOL     OW23665   0.627   0.839   3.017
 7589SOL    HW123666   0.723   0.813   3.005
 7589SOL    HW223667   0.598   0.817   3.110
 7590SOL     OW23668   0.538   1.822   7.012
 7590SOL    HW123669   0.564   1.736   6.968
 7590SOL    HW223670   0.606   1.847   0.062
 7591SOL     OW23671   4.085   3.207   5.305
 7591SOL    HW123672   4.027   3.171   5.378
 7591SOL    HW223673   4.032   3.214   5.220
 7592SOL     OW23674   6.788   6.470   4.822
 7592SOL    HW123675   6.712   6.406   4.831
 7592SOL    HW223676   6.832   6.457   4.733
 7593SOL     OW23677   1.180   1.595   6.181
 7593SOL    HW123678   1.155   1.507   6.140
 7593SOL    HW223679   1.102   1.631   6.232
 7594SOL     OW23680   0.219   4.550   6.925
 7594SOL    HW123681   0.135   4.556   6.872
 7594SOL    HW223682   0.204   4.490   7.004
 7595SOL     OW23683   0.396   3.011   6.383
 7595SOL    HW123684   0.324   3.048   6.324
 7595SOL    HW223685   0.360   3.003   6.477
 7596SOL     OW23686   2.818   0.838   5.503
 7596SOL    HW123687   2.878   0.832   5.583
 7596SOL    HW223688   2.753   0.913   5.515
 7597SOL     OW23689   1.247   4.461   2.301
 7597SOL    HW123690   1.185   4.384   2.318
 7597SOL    HW223691   1.316   4.465   2.373
 7598SOL     OW23692   6.298   1.216   2.997
 7598SOL    HW123693   6.306   1.302   2.947
 7598SOL    HW223694   6.389   1.185   3.025
 7599SOL     OW23695   4.032   3.176   0.861
 7599SOL    HW123696   3.951   3.117   0.854
 7599SOL    HW223697   4.042   3.230   0.777
 7600SOL     OW23698   1.769   0.124   4.478
 7600SOL    HW123699   1.724   0.048   4.525
 7600SOL    HW223700   1.867   0.103   4.467
 7601SOL     OW23701   3.821   5.567   2.291
 7601SOL    HW123702   3.886   5.506   2.246
 7601SOL    HW223703   3.860   5.659   2.298
 7602SOL     OW23704   6.956   1.414   0.613
 7602SOL    HW123705   6.925   1.475   0.540
 7602SOL    HW223706   6.878   1.361   0.647
 7603SOL     OW23707   2.797   0.396   5.146
 7603SOL    HW123708   2.706   0.385   5.107
 7603SOL    HW223709   2.850   0.459   5.089
 7604SOL     OW23710   0.715   2.739   4.463
 7604SOL    HW123711   0.615   2.734   4.462
 7604SOL    HW223712   0.748   2.777   4.377
 7605SOL     OW23713   2.259   6.416   0.088
 7605SOL    HW123714   2.185   6.448   0.029
 7605SOL    HW223715   2.338   6.390   0.031
 7606SOL     OW23716   6.475   1.488   3.266
 7606SOL    HW123717   6.437   1.401   3.297
 7606SOL    HW223718   6.575   1.486   3.277
 7607SOL     OW23719   2.495   5.984   5.749
 7607SOL    HW123720   2.430   5.967   5.824
 7607SOL    HW223721   2.533   5.898   5.717
 7608SOL     OW23722   6.178   2.464   6.381
 7608SOL    HW123723   6.204   2.511   6.465
 7608SOL    HW223724   6.260   2.437   6.331
 7609SOL     OW23725   0.585   2.084   4.745
 7609SOL    HW123726   0.593   2.062   4.648
 7609SOL    HW223727   0.638   2.167   4.765
 7610SOL     OW23728   3.676   5.229   5.343
 7610SOL    HW123729   3.766   5.222   5.386
 7610SOL    HW223730   3.685   5.214   5.245
 7611SOL     OW23731   4.922   3.469   1.096
 7611SOL    HW123732   4.878   3.390   1.138
 7611SOL    HW223733   4.877   3.491   1.010
 7612SOL     OW23734   3.036   1.555   3.264
 7612SOL    HW123735   3.007   1.478   3.208
 7612SOL    HW223736   2.956   1.599   3.306
 7613SOL     OW23737   0.448   1.202   2.375
 7613SOL    HW123738   0.397   1.278   2.335
 7613SOL    HW223739   0.386   1.146   2.430
 7614SOL     OW23740   5.342   4.089   1.067
 7614SOL    HW123741   5.397   4.059   0.989
 7614SOL    HW223742   5.249   4.052   1.058
 7615SOL     OW23743   5.856   3.673   4.901
 7615SOL    HW123744   5.797   3.713   4.972
 7615SOL    HW223745   5.803   3.660   4.817
 7616SOL     OW23746   6.032   6.942   3.632
 7616SOL    HW123747   6.042   6.897   3.543
 7616SOL    HW223748   6.022   0.022   3.619
 7617SOL     OW23749   5.331   5.285   3.812
 7617SOL    HW123750   5.346   5.380   3.787
 7617SOL    HW223751   5.235   5.271   3.838
 7618SOL     OW23752   2.398   2.803   0.171
 7618SOL    HW123753   2.408   2.825   0.268
 7618SOL    HW223754   2.484   2.767   0.135
 7619SOL     OW23755   0.663   2.048   4.488
 7619SOL    HW123756   0.697   2.118   4.424
 7619SOL    HW223757   0.683   1.957   4.451
 7620SOL     OW23758   4.164   4.040   1.437
 7620SOL    HW123759   4.263   4.043   1.444
 7620SOL    HW223760   4.133   3.945   1.428
 7621SOL     OW23761   6.660   4.222   0.234
 7621SOL    HW123762   6.571   4.264   0.215
 7621SOL    HW223763   6.656   4.173   0.321
 7622SOL     OW23764   3.027   3.510   1.263
 7622SOL    HW123765   3.052   3.542   1.354
 7622SOL    HW223766   2.936   3.544   1.240
 7623SOL     OW23767   4.595   4.804   1.272
 7623SOL    HW123768   4.606   4.837   1.178
 7623SOL    HW223769   4.539   4.721   1.272
 7624SOL     OW23770   0.586   2.792   2.127
 7624SOL    HW123771   0.669   2.761   2.173
 7624SOL    HW223772   0.558   2.881   2.164
 7625SOL     OW23773   5.297   1.127   1.260
 7625SOL    HW123774   5.312   1.226   1.261
 7625SOL    HW223775   5.243   1.100   1.340
 7626SOL     OW23776   5.233   1.468   5.316
 7626SOL    HW123777   5.297   1.442   5.389
 7626SOL    HW223778   5.194   1.557   5.336
 7627SOL     OW23779   3.687   2.533   6.671
 7627SOL    HW123780   3.698   2.524   6.770
 7627SOL    HW223781   3.590   2.530   6.648
 7628SOL     OW23782   3.257   2.509   6.888
 7628SOL    HW123783   3.181   2.449   6.913
 7628SOL    HW223784   3.265   2.582   6.955
 7629SOL     OW23785   6.020   2.924   3.966
 7629SOL    HW123786   5.957   2.992   3.929
 7629SOL    HW223787   6.041   2.945   4.061
 7630SOL     OW23788   1.440   6.857   5.467
 7630SOL    HW123789   1.367   6.804   5.509
 7630SOL    HW223790   1.482   6.803   5.394
 7631SOL     OW23791   1.592   6.873   5.822
 7631SOL    HW123792   1.590   6.921   5.734
 7631SOL    HW223793   1.578   6.938   5.896
 7632SOL     OW23794   5.309   5.079   0.273
 7632SOL    HW123795   5.345   4.998   0.227
 7632SOL    HW223796   5.344   5.083   0.366
 7633SOL     OW23797   6.680   1.175   0.974
 7633SOL    HW123798   6.692   1.264   1.017
 7633SOL    HW223799   6.583   1.149   0.978
 7634SOL     OW23800   6.800   2.067   0.540
 7634SOL    HW123801   6.720   2.100   0.490
 7634SOL    HW223802   6.882   2.110   0.502
 7635SOL     OW23803   2.303   4.454   5.728
 7635SOL    HW123804   2.264   4.368   5.761
 7635SOL    HW223805   2.342   4.504   5.805
 7636SOL     OW23806   0.518   3.504   4.365
 7636SOL    HW123807   0.476   3.577   4.420
 7636SOL    HW223808   0.566   3.441   4.426
 7637SOL     OW23809   0.377   6.705   4.630
 7637SOL    HW123810   0.293   6.657   4.606
 7637SOL    HW223811   0.456   6.646   4.611
 7638SOL     OW23812   0.328   5.944   1.566
 7638SOL    HW123813   0.415   5.895   1.565
 7638SOL    HW223814   0.333   6.023   1.504
 7639SOL     OW23815   1.631   0.946   0.058
 7639SOL    HW123816   1.615   0.847   0.061
 7639SOL    HW223817   1.715   0.964   0.008
 7640SOL     OW23818   3.026   0.898   0.074
 7640SOL    HW123819   2.936   0.896   0.029
 7640SOL    HW223820   3.030   0.826   0.143
 7641SOL     OW23821   0.369   3.932   3.518
 7641SOL    HW123822   0.339   4.007   3.577
 7641SOL    HW223823   0.352   3.956   3.422
 7642SOL     OW23824   5.949   0.805   3.511
 7642SOL    HW123825   5.982   0.889   3.554
 7642SOL    HW223826   6.017   0.733   3.521
 7643SOL     OW23827   5.398   4.188   2.885
 7643SOL    HW123828   5.451   4.267   2.853
 7643SOL    HW223829   5.302   4.201   2.863
 7644SOL     OW23830   5.342   3.479   0.884
 7644SOL    HW123831   5.318   3.576   0.894
 7644SOL    HW223832   5.271   3.423   0.927
 7645SOL     OW23833   3.576   4.401   5.932
 7645SOL    HW123834   3.535   4.316   5.966
 7645SOL    HW223835   3.655   4.425   5.989
 7646SOL     OW23836   0.327   2.250   1.601
 7646SOL    HW123837   0.426   2.262   1.594
 7646SOL    HW223838   0.281   2.334   1.572
 7647SOL     OW23839   6.533   2.869   4.933
 7647SOL    HW123840   6.578   2.829   5.013
 7647SOL    HW223841   6.485   2.953   4.960
 7648SOL     OW23842   3.032   1.826   1.758
 7648SOL    HW123843   3.025   1.915   1.803
 7648SOL    HW223844   3.082   1.762   1.817
 7649SOL     OW23845   4.964   1.292   5.504
 7649SOL    HW123846   4.890   1.354   5.480
 7649SOL    HW223847   5.043   1.344   5.537
 7650SOL     OW23848   4.360   1.729   0.724
 7650SOL    HW123849   4.432   1.698   0.786
 7650SOL    HW223850   4.391   1.811   0.677
 7651SOL     OW23851   2.443   4.946   5.751
 7651SOL    HW123852   2.453   5.029   5.697
 7651SOL    HW223853   2.493   4.956   5.837
 7652SOL     OW23854   0.083   1.108   3.864
 7652SOL    HW123855   0.026   1.058   3.799
 7652SOL    HW223856   0.157   1.049   3.896
 7653SOL     OW23857   0.718   1.491   6.547
 7653SOL    HW123858   0.633   1.511   6.499
 7653SOL    HW223859   0.755   1.404   6.515
 7654SOL     OW23860   5.522   2.340   6.397
 7654SOL    HW123861   5.474   2.258   6.428
 7654SOL    HW223862   5.620   2.321   6.391
 7655SOL     OW23863   2.822   1.348   3.246
 7655SOL    HW123864   2.771   1.413   3.302
 7655SOL    HW223865   2.863   1.278   3.304
 7656SOL     OW23866   0.104   3.190   6.758
 7656SOL    HW123867   0.192   3.180   6.710
 7656SOL    HW223868   0.085   3.106   6.809
 7657SOL     OW23869   0.989   3.725   4.489
 7657SOL    HW123870   0.896   3.740   4.457
 7657SOL    HW223871   1.052   3.726   4.411
 7658SOL     OW23872   2.247   1.656   0.810
 7658SOL    HW123873   2.212   1.729   0.870
 7658SOL    HW223874   2.226   1.679   0.715
 7659SOL     OW23875   4.451   4.052   5.458
 7659SOL    HW123876   4.421   3.970   5.507
 7659SOL    HW223877   4.378   4.082   5.397
 7660SOL     OW23878   0.471   5.648   4.673
 7660SOL    HW123879   0.469   5.611   4.765
 7660SOL    HW223880   0.426   5.737   4.672
 7661SOL     OW23881   4.748   2.006   5.783
 7661SOL    HW123882   4.753   1.920   5.834
 7661SOL    HW223883   4.654   2.040   5.785
 7662SOL     OW23884   0.365   1.240   1.153
 7662SOL    HW123885   0.266   1.256   1.158
 7662SOL    HW223886   0.384   1.164   1.091
 7663SOL     OW23887   6.691   5.596   5.468
 7663SOL    HW123888   6.709   5.678   5.413
 7663SOL    HW223889   6.620   5.541   5.423
 7664SOL     OW23890   3.982   1.925   2.263
 7664SOL    HW123891   3.960   1.978   2.181
 7664SOL    HW223892   4.076   1.946   2.292
 7665SOL     OW23893   4.281   0.768   5.409
 7665SOL    HW123894   4.221   0.845   5.394
 7665SOL    HW223895   4.364   0.777   5.353
 7666SOL     OW23896   5.390   4.798   4.117
 7666SOL    HW123897   5.478   4.829   4.155
 7666SOL    HW223898   5.340   4.877   4.081
 7667SOL     OW23899   4.179   5.714   1.478
 7667SOL    HW123900   4.242   5.701   1.401
 7667SOL    HW223901   4.184   5.809   1.509
 7668SOL     OW23902   2.106   5.300   1.134
 7668SOL    HW123903   2.191   5.351   1.129
 7668SOL    HW223904   2.114   5.228   1.203
 7669SOL     OW23905   2.806   6.679   5.584
 7669SOL    HW123906   2.706   6.680   5.574
 7669SOL    HW223907   2.847   6.739   5.515
 7670SOL     OW23908   0.588   6.358   0.165
 7670SOL    HW123909   0.660   6.318   0.109
 7670SOL    HW223910   0.574   6.454   0.139
 7671SOL     OW23911   4.175   6.695   0.839
 7671SOL    HW123912   4.242   6.643   0.892
 7671SOL    HW223913   4.097   6.718   0.898
 7672SOL     OW23914   4.697   5.096   3.077
 7672SOL    HW123915   4.773   5.160   3.075
 7672SOL    HW223916   4.726   5.008   3.042
 7673SOL     OW23917   1.055   5.697   4.826
 7673SOL    HW123918   1.053   5.647   4.740
 7673SOL    HW223919   0.964   5.734   4.845
 7674SOL     OW23920   3.948   5.973   4.209
 7674SOL    HW123921   3.939   6.051   4.271
 7674SOL    HW223922   4.034   5.981   4.158
 7675SOL     OW23923   4.584   6.784   3.230
 7675SOL    HW123924   4.643   6.756   3.306
 7675SOL    HW223925   4.638   6.836   3.164
 7676SOL     OW23926   3.126   2.796   5.283
 7676SOL    HW123927   3.026   2.795   5.274
 7676SOL    HW223928   3.166   2.835   5.200
 7677SOL     OW23929   5.638   4.566   0.817
 7677SOL    HW123930   5.719   4.553   0.874
 7677SOL    HW223931   5.580   4.485   0.822
 7678SOL     OW23932   1.564   0.273   5.473
 7678SOL    HW123933   1.611   0.238   5.554
 7678SOL    HW223934   1.540   0.197   5.413
 7679SOL     OW23935   2.404   5.773   5.345
 7679SOL    HW123936   2.501   5.772   5.369
 7679SOL    HW223937   2.357   5.696   5.389
 7680SOL     OW23938   2.222   0.084   5.424
 7680SOL    HW123939   2.161   0.151   5.466
 7680SOL    HW223940   2.176   0.039   5.348
 7681SOL     OW23941   2.731   3.542   6.429
 7681SOL    HW123942   2.655   3.577   6.373
 7681SOL    HW223943   2.806   3.514   6.369
 7682SOL     OW23944   3.163   1.523   2.829
 7682SOL    HW123945   3.115   1.446   2.787
 7682SOL    HW223946   3.155   1.603   2.770
 7683SOL     OW23947   0.880   0.638   4.811
 7683SOL    HW123948   0.810   0.568   4.830
 7683SOL    HW223949   0.952   0.598   4.754
 7684SOL     OW23950   4.103   2.479   1.606
 7684SOL    HW123951   4.115   2.441   1.698
 7684SOL    HW223952   4.044   2.559   1.610
 7685SOL     OW23953   2.589   0.568   0.327
 7685SOL    HW123954   2.655   0.584   0.400
 7685SOL    HW223955   2.514   0.633   0.334
 7686SOL     OW23956   6.203   0.243   4.497
 7686SOL    HW123957   6.207   0.304   4.575
 7686SOL    HW223958   6.252   0.284   4.419
 7687SOL     OW23959   5.556   4.873   4.875
 7687SOL    HW123960   5.556   4.781   4.915
 7687SOL    HW223961   5.647   4.895   4.840
 7688SOL     OW23962   0.486   4.710   6.594
 7688SOL    HW123963   0.514   4.722   6.499
 7688SOL    HW223964   0.564   4.723   6.655
 7689SOL     OW23965   4.854   0.521   1.594
 7689SOL    HW123966   4.862   0.599   1.532
 7689SOL    HW223967   4.780   0.461   1.563
 7690SOL     OW23968   6.211   5.626   1.350
 7690SOL    HW123969   6.252   5.712   1.321
 7690SOL    HW223970   6.231   5.610   1.447
 7691SOL     OW23971   4.659   4.561   2.922
 7691SOL    HW123972   4.577   4.550   2.865
 7691SOL    HW223973   4.636   4.610   3.006
 7692SOL     OW23974   2.370   6.876   2.147
 7692SOL    HW123975   2.326   6.964   2.164
 7692SOL    HW223976   2.315   6.822   2.084
 7693SOL     OW23977   1.870   1.776   0.894
 7693SOL    HW123978   1.935   1.841   0.854
 7693SOL    HW223979   1.914   1.687   0.906
 7694SOL     OW23980   6.058   1.955   5.497
 7694SOL    HW123981   6.132   1.890   5.481
 7694SOL    HW223982   5.971   1.907   5.502
 7695SOL     OW23983   4.787   6.961   3.134
 7695SOL    HW123984   4.864   6.919   3.181
 7695SOL    HW223985   4.793   0.042   3.141
 7696SOL     OW23986   0.751   2.856   6.266
 7696SOL    HW123987   0.667   2.808   6.292
 7696SOL    HW223988   0.823   2.833   6.331
 7697SOL     OW23989   4.359   6.687   2.567
 7697SOL    HW123990   4.366   6.779   2.604
 7697SOL    HW223991   4.333   6.623   2.640
 7698SOL     OW23992   6.662   2.505   0.355
 7698SOL    HW123993   6.572   2.549   0.354
 7698SOL    HW223994   6.700   2.510   0.448
 7699SOL     OW23995   4.280   5.713   5.844
 7699SOL    HW123996   4.351   5.715   5.914
 7699SOL    HW223997   4.317   5.749   5.758
 7700SOL     OW23998   5.106   5.785   2.830
 7700SOL    HW123999   5.054   5.786   2.744
 7700SOL    HW224000   5.171   5.861   2.830
 7701SOL     OW24001   0.392   2.561   6.031
 7701SOL    HW124002   0.475   2.614   6.050
 7701SOL    HW224003   0.374   2.561   5.933
 7702SOL     OW24004   4.428   0.148   4.549
 7702SOL    HW124005   4.388   0.133   4.639
 7702SOL    HW224006   4.515   0.196   4.558
 7703SOL     OW24007   6.309   6.560   5.020
 7703SOL    HW124008   6.334   6.635   4.959
 7703SOL    HW224009   6.381   6.490   5.018
 7704SOL     OW24010   6.927   1.567   4.376
 7704SOL    HW124011   6.994   1.535   4.443
 7704SOL    HW224012   6.974   1.618   4.304
 7705SOL     OW24013   1.051   4.760   0.258
 7705SOL    HW124014   0.967   4.810   0.276
 7705SOL    HW224015   1.061   4.745   0.160
 7706SOL     OW24016   3.948   2.997   2.286
 7706SOL    HW124017   3.864   2.944   2.292
 7706SOL    HW224018   3.981   2.998   2.192
 7707SOL     OW24019   6.131   4.405   6.159
 7707SOL    HW124020   6.198   4.394   6.086
 7707SOL    HW224021   6.096   4.316   6.186
 7708SOL     OW24022   2.434   0.003   4.747
 7708SOL    HW124023   2.475   6.979   4.666
 7708SOL    HW224024   2.452   0.101   4.746
 7709SOL     OW24025   0.055   4.938   1.530
 7709SOL    HW124026   7.008   4.865   1.551
 7709SOL    HW224027   0.141   4.898   1.499
 7710SOL     OW24028   0.170   3.401   1.007
 7710SOL    HW124029   0.073   3.392   0.984
 7710SOL    HW224030   0.216   3.454   0.936
 7711SOL     OW24031   0.209   4.691   5.099
 7711SOL    HW124032   0.294   4.669   5.051
 7711SOL    HW224033   0.226   4.764   5.165
 7712SOL     OW24034   6.992   4.731   5.550
 7712SOL    HW124035   6.982   4.698   5.643
 7712SOL    HW224036   6.902   4.738   5.506
 7713SOL     OW24037   2.180   4.531   0.188
 7713SOL    HW124038   2.090   4.501   0.157
 7713SOL    HW224039   2.249   4.465   0.158
 7714SOL     OW24040   6.377   0.846   5.462
 7714SOL    HW124041   6.344   0.917   5.400
 7714SOL    HW224042   6.425   0.775   5.410
 7715SOL     OW24043   3.275   2.976   6.034
 7715SOL    HW124044   3.306   2.899   5.980
 7715SOL    HW224045   3.207   3.028   5.983
 7716SOL     OW24046   1.134   5.974   5.658
 7716SOL    HW124047   1.149   5.892   5.602
 7716SOL    HW224048   1.041   5.972   5.694
 7717SOL     OW24049   0.830   1.828   6.807
 7717SOL    HW124050   0.838   1.764   6.883
 7717SOL    HW224051   0.869   1.916   6.833
 7718SOL     OW24052   1.336   3.534   2.754
 7718SOL    HW124053   1.422   3.502   2.795
 7718SOL    HW224054   1.345   3.630   2.727
 7719SOL     OW24055   2.242   4.220   4.824
 7719SOL    HW124056   2.268   4.136   4.872
 7719SOL    HW224057   2.285   4.298   4.869
 7720SOL     OW24058   5.269   1.112   0.054
 7720SOL    HW124059   5.329   1.032   0.046
 7720SOL    HW224060   5.306   1.176   0.121
 7721SOL     OW24061   0.691   0.557   2.477
 7721SOL    HW124062   0.761   0.586   2.543
 7721SOL    HW224063   0.657   0.637   2.428
 7722SOL     OW24064   1.892   6.135   3.219
 7722SOL    HW124065   1.925   6.118   3.127
 7722SOL    HW224066   1.793   6.121   3.223
 7723SOL     OW24067   5.083   4.056   0.508
 7723SOL    HW124068   5.059   3.961   0.525
 7723SOL    HW224069   5.026   4.092   0.434
 7724SOL     OW24070   2.041   3.830   1.454
 7724SOL    HW124071   2.021   3.922   1.486
 7724SOL    HW224072   2.028   3.765   1.529
 7725SOL     OW24073   5.253   3.347   3.230
 7725SOL    HW124074   5.242   3.249   3.243
 7725SOL    HW224075   5.201   3.396   3.300
 7726SOL     OW24076   1.075   3.051   6.485
 7726SOL    HW124077   1.156   3.085   6.438
 7726SOL    HW224078   0.995   3.104   6.458
 7727SOL     OW24079   4.587   1.192   2.421
 7727SOL    HW124080   4.567   1.110   2.476
 7727SOL    HW224081   4.563   1.174   2.326
 7728SOL     OW24082   2.149   3.373   4.486
 7728SOL    HW124083   2.171   3.466   4.515
 7728SOL    HW224084   2.129   3.317   4.567
 7729SOL     OW24085   6.809   2.075   4.169
 7729SOL    HW124086   6.906   2.096   4.150
 7729SOL    HW224087   6.754   2.157   4.152
 7730SOL     OW24088   6.263   4.238   5.141
 7730SOL    HW124089   6.206   4.314   5.107
 7730SOL    HW224090   6.221   4.151   5.114
 7731SOL     OW24091   6.662   6.890   6.649
 7731SOL    HW124092   6.571   6.849   6.649
 7731SOL    HW224093   6.668   6.959   6.577
 7732SOL     OW24094   4.243   0.726   6.551
 7732SOL    HW124095   4.198   0.787   6.485
 7732SOL    HW224096   4.298   0.779   6.614
 7733SOL     OW24097   6.063   5.813   2.288
 7733SOL    HW124098   6.127   5.738   2.271
 7733SOL    HW224099   5.983   5.779   2.337
 7734SOL     OW24100   3.141   3.801   4.505
 7734SOL    HW124101   3.182   3.886   4.474
 7734SOL    HW224102   3.065   3.821   4.567
 7735SOL     OW24103   6.937   6.354   0.593
 7735SOL    HW124104   6.900   6.363   0.685
 7735SOL    HW224105   6.990   6.436   0.570
 7736SOL     OW24106   2.419   2.796   0.436
 7736SOL    HW124107   2.342   2.836   0.487
 7736SOL    HW224108   2.497   2.858   0.440
 7737SOL     OW24109   3.904   4.974   0.979
 7737SOL    HW124110   3.903   5.017   0.889
 7737SOL    HW224111   3.841   5.022   1.040
 7738SOL     OW24112   2.321   6.873   6.464
 7738SOL    HW124113   2.225   6.883   6.438
 7738SOL    HW224114   2.374   6.947   6.423
 7739SOL     OW24115   1.348   1.781   0.447
 7739SOL    HW124116   1.442   1.789   0.480
 7739SOL    HW224117   1.284   1.795   0.523
 7740SOL     OW24118   1.758   0.536   4.833
 7740SOL    HW124119   1.810   0.621   4.844
 7740SOL    HW224120   1.799   0.466   4.892
 7741SOL     OW24121   1.514   4.513   6.022
 7741SOL    HW124122   1.593   4.501   6.082
 7741SOL    HW224123   1.491   4.425   5.980
 7742SOL     OW24124   4.083   1.457   4.150
 7742SOL    HW124125   4.026   1.521   4.099
 7742SOL    HW224126   4.157   1.424   4.092
 7743SOL     OW24127   5.199   2.254   5.703
 7743SOL    HW124128   5.297   2.232   5.708
 7743SOL    HW224129   5.186   2.339   5.651
 7744SOL     OW24130   0.407   6.495   4.853
 7744SOL    HW124131   0.314   6.524   4.833
 7744SOL    HW224132   0.418   6.399   4.830
 7745SOL     OW24133   2.175   6.797   0.723
 7745SOL    HW124134   2.177   6.891   0.758
 7745SOL    HW224135   2.245   6.786   0.653
 7746SOL     OW24136   1.002   6.041   1.110
 7746SOL    HW124137   1.071   6.113   1.119
 7746SOL    HW224138   0.934   6.052   1.182
 7747SOL     OW24139   1.397   5.899   0.152
 7747SOL    HW124140   1.390   5.809   0.108
 7747SOL    HW224141   1.309   5.923   0.193
 7748SOL     OW24142   4.303   1.941   5.824
 7748SOL    HW124143   4.356   2.013   5.780
 7748SOL    HW224144   4.206   1.951   5.800
 7749SOL     OW24145   4.054   3.589   3.944
 7749SOL    HW124146   4.059   3.597   4.044
 7749SOL    HW224147   3.963   3.557   3.918
 7750SOL     OW24148   5.947   4.305   5.501
 7750SOL    HW124149   5.879   4.300   5.427
 7750SOL    HW224150   6.028   4.253   5.476
 7751SOL     OW24151   6.776   1.010   5.265
 7751SOL    HW124152   6.860   1.026   5.213
 7751SOL    HW224153   6.752   0.913   5.259
 7752SOL     OW24154   6.197   5.416   5.622
 7752SOL    HW124155   6.255   5.361   5.562
 7752SOL    HW224156   6.112   5.367   5.642
 7753SOL     OW24157   2.391   0.928   4.722
 7753SOL    HW124158   2.418   1.013   4.676
 7753SOL    HW224159   2.304   0.942   4.769
 7754SOL     OW24160   5.711   0.751   1.568
 7754SOL    HW124161   5.618   0.716   1.565
 7754SOL    HW224162   5.744   0.751   1.663
 7755SOL     OW24163   0.858   5.974   5.754
 7755SOL    HW124164   0.775   5.922   5.731
 7755SOL    HW224165   0.835   6.071   5.760
 7756SOL     OW24166   3.771   5.156   1.996
 7756SOL    HW124167   3.688   5.146   1.941
 7756SOL    HW224168   3.747   5.185   2.089
 7757SOL     OW24169   4.731   6.320   5.726
 7757SOL    HW124170   4.786   6.275   5.655
 7757SOL    HW224171   4.789   6.340   5.805
 7758SOL     OW24172   2.512   2.041   5.399
 7758SOL    HW124173   2.484   1.994   5.315
 7758SOL    HW224174   2.529   2.137   5.379
 7759SOL     OW24175   2.113   0.891   4.641
 7759SOL    HW124176   2.175   0.815   4.662
 7759SOL    HW224177   2.130   0.923   4.547
 7760SOL     OW24178   4.881   2.876   2.245
 7760SOL    HW124179   4.817   2.911   2.177
 7760SOL    HW224180   4.881   2.937   2.325
 7761SOL     OW24181   3.628   6.948   6.527
 7761SOL    HW124182   3.618   6.861   6.575
 7761SOL    HW224183   3.649   6.931   6.431
 7762SOL     OW24184   3.996   1.476   0.420
 7762SOL    HW124185   3.902   1.453   0.398
 7762SOL    HW224186   4.002   1.572   0.447
 7763SOL     OW24187   1.550   1.926   0.602
 7763SOL    HW124188   1.578   2.005   0.657
 7763SOL    HW224189   1.597   1.845   0.636
 7764SOL     OW24190   3.464   2.957   2.290
 7764SOL    HW124191   3.367   2.939   2.276
 7764SOL    HW224192   3.482   3.054   2.276
 7765SOL     OW24193   6.631   2.038   2.520
 7765SOL    HW124194   6.634   2.085   2.608
 7765SOL    HW224195   6.724   2.024   2.487
 7766SOL     OW24196   0.295   2.725   0.032
 7766SOL    HW124197   0.344   2.804   0.071
 7766SOL    HW224198   0.266   2.746   6.957
 7767SOL     OW24199   4.674   5.721   4.297
 7767SOL    HW124200   4.686   5.729   4.396
 7767SOL    HW224201   4.589   5.764   4.270
 7768SOL     OW24202   3.868   4.823   2.338
 7768SOL    HW124203   3.772   4.819   2.365
 7768SOL    HW224204   3.876   4.812   2.239
 7769SOL     OW24205   5.305   1.830   1.720
 7769SOL    HW124206   5.290   1.929   1.721
 7769SOL    HW224207   5.375   1.808   1.652
 7770SOL     OW24208   3.258   5.076   1.304
 7770SOL    HW124209   3.295   5.021   1.229
 7770SOL    HW224210   3.311   5.161   1.312
 7771SOL     OW24211   2.430   2.003   5.661
 7771SOL    HW124212   2.453   2.085   5.714
 7771SOL    HW224213   2.451   2.019   5.565
 7772SOL     OW24214   5.145   0.984   4.379
 7772SOL    HW124215   5.099   1.051   4.437
 7772SOL    HW224216   5.222   0.943   4.428
 7773SOL     OW24217   4.132   4.027   5.940
 7773SOL    HW124218   4.043   3.989   5.913
 7773SOL    HW224219   4.131   4.047   6.038
 7774SOL     OW24220   5.151   1.677   6.487
 7774SOL    HW124221   5.065   1.655   6.441
 7774SOL    HW224222   5.132   1.728   6.571
 7775SOL     OW24223   3.076   6.406   2.420
 7775SOL    HW124224   3.057   6.352   2.502
 7775SOL    HW224225   2.990   6.445   2.385
 7776SOL     OW24226   3.744   3.607   6.566
 7776SOL    HW124227   3.753   3.696   6.611
 7776SOL    HW224228   3.648   3.587   6.550
 7777SOL     OW24229   2.009   1.495   6.746
 7777SOL    HW124230   1.924   1.543   6.726
 7777SOL    HW224231   2.034   1.438   6.667
 7778SOL     OW24232   5.482   0.901   6.947
 7778SOL    HW124233   5.488   0.925   0.025
 7778SOL    HW224234   5.528   0.813   6.931
 7779SOL     OW24235   4.129   3.123   0.520
 7779SOL    HW124236   4.219   3.111   0.477
 7779SOL    HW224237   4.128   3.078   0.609
 7780SOL     OW24238   1.836   6.496   4.515
 7780SOL    HW124239   1.776   6.445   4.577
 7780SOL    HW224240   1.822   6.462   4.422
 7781SOL     OW24241   1.210   4.578   4.612
 7781SOL    HW124242   1.302   4.595   4.649
 7781SOL    HW224243   1.197   4.631   4.529
 7782SOL     OW24244   2.944   4.616   6.299
 7782SOL    HW124245   2.989   4.581   6.381
 7782SOL    HW224246   2.910   4.708   6.317
 7783SOL     OW24247   2.419   5.457   6.579
 7783SOL    HW124248   2.490   5.399   6.617
 7783SOL    HW224249   2.379   5.412   6.499
 7784SOL     OW24250   0.454   2.917   0.107
 7784SOL    HW124251   0.409   2.998   0.145
 7784SOL    HW224252   0.553   2.924   0.122
 7785SOL     OW24253   2.409   5.791   4.037
 7785SOL    HW124254   2.348   5.794   3.958
 7785SOL    HW224255   2.414   5.882   4.079
 7786SOL     OW24256   2.968   4.317   5.316
 7786SOL    HW124257   3.014   4.355   5.396
 7786SOL    HW224258   2.933   4.391   5.259
 7787SOL     OW24259   2.332   2.760   5.116
 7787SOL    HW124260   2.367   2.853   5.103
 7787SOL    HW224261   2.263   2.760   5.189
 7788SOL     OW24262   1.635   1.527   0.420
 7788SOL    HW124263   1.540   1.520   0.452
 7788SOL    HW224264   1.694   1.550   0.497
 7789SOL     OW24265   1.879   0.615   1.179
 7789SOL    HW124266   1.925   0.589   1.264
 7789SOL    HW224267   1.883   0.714   1.167
 7790SOL     OW24268   5.224   3.160   2.386
 7790SOL    HW124269   5.306   3.117   2.426
 7790SOL    HW224270   5.252   3.234   2.326
 7791SOL     OW24271   1.602   4.888   4.820
 7791SOL    HW124272   1.675   4.860   4.758
 7791SOL    HW224273   1.637   4.889   4.914
 7792SOL     OW24274   2.372   5.588   6.181
 7792SOL    HW124275   2.332   5.545   6.100
 7792SOL    HW224276   2.467   5.558   6.192
 7793SOL     OW24277   1.097   1.346   6.109
 7793SOL    HW124278   1.158   1.273   6.141
 7793SOL    HW224279   1.007   1.306   6.086
 7794SOL     OW24280   5.316   5.630   4.261
 7794SOL    HW124281   5.219   5.630   4.286
 7794SOL    HW224282   5.328   5.680   4.175
 7795SOL     OW24283   2.378   4.385   5.207
 7795SOL    HW124284   2.456   4.433   5.247
 7795SOL    HW224285   2.357   4.304   5.262
 7796SOL     OW24286   3.724   4.087   3.714
 7796SOL    HW124287   3.690   4.107   3.622
 7796SOL    HW224288   3.666   4.131   3.782
 7797SOL     OW24289   0.197   0.003   3.090
 7797SOL    HW124290   0.261   6.945   3.099
 7797SOL    HW224291   0.165   0.008   2.995
 7798SOL     OW24292   3.228   5.702   0.347
 7798SOL    HW124293   3.200   5.778   0.288
 7798SOL    HW224294   3.154   5.678   0.409
 7799SOL     OW24295   6.904   4.704   1.661
 7799SOL    HW124296   6.937   4.713   1.755
 7799SOL    HW224297   6.871   4.611   1.646
 7800SOL     OW24298   0.556   5.688   1.819
 7800SOL    HW124299   0.540   5.704   1.721
 7800SOL    HW224300   0.639   5.736   1.847
 7801SOL     OW24301   3.643   2.001   6.793
 7801SOL    HW124302   3.590   1.916   6.803
 7801SOL    HW224303   3.725   1.996   6.849
 7802SOL     OW24304   5.701   2.273   1.968
 7802SOL    HW124305   5.615   2.272   2.020
 7802SOL    HW224306   5.769   2.326   2.018
 7803SOL     OW24307   4.079   3.991   5.526
 7803SOL    HW124308   4.173   4.004   5.557
 7803SOL    HW224309   4.031   3.930   5.590
 7804SOL     OW24310   5.154   2.197   5.975
 7804SOL    HW124311   5.159   2.221   5.878
 7804SOL    HW224312   5.088   2.256   6.021
 7805SOL     OW24313   5.108   3.778   2.235
 7805SOL    HW124314   5.151   3.689   2.223
 7805SOL    HW224315   5.058   3.780   2.321
 7806SOL     OW24316   5.347   2.695   6.125
 7806SOL    HW124317   5.266   2.640   6.107
 7806SOL    HW224318   5.428   2.636   6.128
 7807SOL     OW24319   0.207   4.254   6.241
 7807SOL    HW124320   0.151   4.210   6.311
 7807SOL    HW224321   0.160   4.250   6.153
 7808SOL     OW24322   0.990   1.169   4.708
 7808SOL    HW124323   0.912   1.108   4.723
 7808SOL    HW224324   0.980   1.251   4.764
 7809SOL     OW24325   2.637   5.712   4.731
 7809SOL    HW124326   2.600   5.722   4.639
 7809SOL    HW224327   2.605   5.626   4.771
 7810SOL     OW24328   2.850   0.993   6.643
 7810SOL    HW124329   2.756   1.016   6.669
 7810SOL    HW224330   2.851   0.960   6.549
 7811SOL     OW24331   6.063   4.419   3.837
 7811SOL    HW124332   6.136   4.353   3.821
 7811SOL    HW224333   6.100   4.511   3.835
 7812SOL     OW24334   1.619   1.547   3.529
 7812SOL    HW124335   1.698   1.553   3.468
 7812SOL    HW224336   1.628   1.466   3.587
 7813SOL     OW24337   6.957   3.197   0.168
 7813SOL    HW124338   6.982   3.104   0.141
 7813SOL    HW224339   7.012   3.263   0.117
 7814SOL     OW24340   6.797   3.396   3.091
 7814SOL    HW124341   6.744   3.400   3.006
 7814SOL    HW224342   6.771   3.315   3.143
 7815SOL     OW24343   6.523   1.956   6.087
 7815SOL    HW124344   6.515   1.870   6.137
 7815SOL    HW224345   6.435   1.981   6.048
 7816SOL     OW24346   1.417   3.629   4.745
 7816SOL    HW124347   1.356   3.608   4.821
 7816SOL    HW224348   1.496   3.680   4.779
 7817SOL     OW24349   5.490   4.100   4.650
 7817SOL    HW124350   5.589   4.093   4.641
 7817SOL    HW224351   5.465   4.193   4.677
 7818SOL     OW24352   5.541   6.275   1.744
 7818SOL    HW124353   5.529   6.178   1.722
 7818SOL    HW224354   5.577   6.284   1.837
 7819SOL     OW24355   6.748   2.063   1.517
 7819SOL    HW124356   6.771   2.124   1.441
 7819SOL    HW224357   6.649   2.058   1.527
 7820SOL     OW24358   1.408   1.110   0.000
 7820SOL    HW124359   1.342   1.063   6.960
 7820SOL    HW224360   1.462   1.043   0.050
 7821SOL     OW24361   3.202   5.116   1.819
 7821SOL    HW124362   3.236   5.100   1.727
 7821SOL    HW224363   3.102   5.112   1.818
 7822SOL     OW24364   1.557   6.014   5.291
 7822SOL    HW124365   1.460   5.991   5.278
 7822SOL    HW224366   1.613   5.936   5.264
 7823SOL     OW24367   1.461   4.632   4.666
 7823SOL    HW124368   1.503   4.588   4.746
 7823SOL    HW224369   1.484   4.729   4.666
 7824SOL     OW24370   0.614   3.058   5.679
 7824SOL    HW124371   0.640   2.961   5.676
 7824SOL    HW224372   0.575   3.084   5.591
 7825SOL     OW24373   3.096   1.670   6.283
 7825SOL    HW124374   3.040   1.749   6.308
 7825SOL    HW224375   3.145   1.637   6.363
 7826SOL     OW24376   0.421   2.972   6.863
 7826SOL    HW124377   0.442   2.960   6.960
 7826SOL    HW224378   0.437   3.068   6.838
 7827SOL     OW24379   0.094   6.608   4.571
 7827SOL    HW124380   0.033   6.681   4.540
 7827SOL    HW224381   0.075   6.587   4.668
 7828SOL     OW24382   0.672   4.307   6.654
 7828SOL    HW124383   0.638   4.320   6.561
 7828SOL    HW224384   0.636   4.222   6.692
 7829SOL     OW24385   4.032   2.856   0.814
 7829SOL    HW124386   3.962   2.923   0.790
 7829SOL    HW224387   4.122   2.891   0.789
 7830SOL     OW24388   2.586   4.694   4.622
 7830SOL    HW124389   2.527   4.775   4.616
 7830SOL    HW224390   2.529   4.613   4.639
 7831SOL     OW24391   1.789   1.532   0.661
 7831SOL    HW124392   1.874   1.555   0.613
 7831SOL    HW224393   1.808   1.463   0.731
 7832SOL     OW24394   6.239   1.003   4.369
 7832SOL    HW124395   6.209   1.078   4.428
 7832SOL    HW224396   6.206   0.917   4.407
 7833SOL     OW24397   1.854   0.797   4.197
 7833SOL    HW124398   1.858   0.860   4.274
 7833SOL    HW224399   1.759   0.789   4.166
 7834SOL     OW24400   6.033   3.143   4.717
 7834SOL    HW124401   6.095   3.088   4.774
 7834SOL    HW224402   5.947   3.093   4.705
 7835SOL     OW24403   4.221   2.280   5.349
 7835SOL    HW124404   4.225   2.355   5.284
 7835SOL    HW224405   4.198   2.195   5.301
 7836SOL     OW24406   3.886   3.518   5.009
 7836SOL    HW124407   3.840   3.597   5.050
 7836SOL    HW224408   3.878   3.440   5.071
 7837SOL     OW24409   6.640   5.458   6.930
 7837SOL    HW124410   6.713   5.469   6.864
 7837SOL    HW224411   6.586   5.377   6.907
 7838SOL     OW24412   5.176   5.285   1.089
 7838SOL    HW124413   5.225   5.238   1.016
 7838SOL    HW224414   5.165   5.223   1.167
 7839SOL     OW24415   5.479   3.647   4.308
 7839SOL    HW124416   5.560   3.605   4.268
 7839SOL    HW224417   5.499   3.675   4.402
 7840SOL     OW24418   1.835   3.259   3.780
 7840SOL    HW124419   1.791   3.188   3.725
 7840SOL    HW224420   1.794   3.348   3.759
 7841SOL     OW24421   5.024   2.266   6.229
 7841SOL    HW124422   4.954   2.199   6.204
 7841SOL    HW224423   5.111   2.220   6.245
 7842SOL     OW24424   1.777   1.091   1.972
 7842SOL    HW124425   1.867   1.056   1.996
 7842SOL    HW224426   1.721   1.101   2.055
 7843SOL     OW24427   0.412   6.839   3.058
 7843SOL    HW124428   0.417   6.740   3.057
 7843SOL    HW224429   0.380   6.872   2.968
 7844SOL     OW24430   3.645   1.569   2.948
 7844SOL    HW124431   3.726   1.604   2.995
 7844SOL    HW224432   3.599   1.643   2.900
 7845SOL     OW24433   6.348   3.253   1.217
 7845SOL    HW124434   6.416   3.241   1.144
 7845SOL    HW224435   6.394   3.250   1.306
 7846SOL     OW24436   0.730   2.335   0.377
 7846SOL    HW124437   0.755   2.242   0.403
 7846SOL    HW224438   0.644   2.360   0.421
 7847SOL     OW24439   5.697   3.087   5.022
 7847SOL    HW124440   5.634   3.045   5.086
 7847SOL    HW224441   5.645   3.124   4.944
 7848SOL     OW24442   3.140   4.614   0.711
 7848SOL    HW124443   3.063   4.562   0.674
 7848SOL    HW224444   3.184   4.561   0.783
 7849SOL     OW24445   4.579   4.370   6.603
 7849SOL    HW124446   4.636   4.423   6.541
 7849SOL    HW224447   4.483   4.392   6.586
 7850SOL     OW24448   6.887   0.952   3.772
 7850SOL    HW124449   6.910   0.881   3.839
 7850SOL    HW224450   6.789   0.969   3.773
 7851SOL     OW24451   0.195   3.883   2.066
 7851SOL    HW124452   0.172   3.952   2.135
 7851SOL    HW224453   0.276   3.832   2.096
 7852SOL     OW24454   1.116   2.148   6.187
 7852SOL    HW124455   1.178   2.218   6.152
 7852SOL    HW224456   1.037   2.139   6.127
 7853SOL     OW24457   4.002   2.926   1.794
 7853SOL    HW124458   3.948   2.946   1.876
 7853SOL    HW224459   4.081   2.988   1.791
 7854SOL     OW24460   4.885   2.728   6.667
 7854SOL    HW124461   4.975   2.743   6.706
 7854SOL    HW224462   4.895   2.690   6.575
 7855SOL     OW24463   4.919   0.067   4.431
 7855SOL    HW124464   4.880   0.021   4.510
 7855SOL    HW224465   5.014   0.041   4.420
 7856SOL     OW24466   2.359   6.619   4.764
 7856SOL    HW124467   2.369   6.625   4.665
 7856SOL    HW224468   2.269   6.653   4.790
 7857SOL     OW24469   5.624   4.331   1.382
 7857SOL    HW124470   5.706   4.365   1.429
 7857SOL    HW224471   5.598   4.242   1.421
 7858SOL     OW24472   0.407   4.765   5.683
 7858SOL    HW124473   0.504   4.774   5.704
 7858SOL    HW224474   0.355   4.754   5.768
 7859SOL     OW24475   5.411   2.958   0.352
 7859SOL    HW124476   5.363   2.918   0.430
 7859SOL    HW224477   5.488   2.899   0.327
 7860SOL     OW24478   2.578   0.729   4.300
 7860SOL    HW124479   2.598   0.778   4.214
 7860SOL    HW224480   2.607   0.785   4.377
 7861SOL     OW24481   2.623   6.127   0.887
 7861SOL    HW124482   2.536   6.163   0.920
 7861SOL    HW224483   2.676   6.093   0.965
 7862SOL     OW24484   2.476   5.608   0.640
 7862SOL    HW124485   2.421   5.553   0.576
 7862SOL    HW224486   2.418   5.640   0.714
 7863SOL     OW24487   6.705   4.315   3.365
 7863SOL    HW124488   6.657   4.269   3.289
 7863SOL    HW224489   6.778   4.256   3.398
 7864SOL     OW24490   2.212   6.827   5.426
 7864SOL    HW124491   2.122   6.802   5.463
 7864SOL    HW224492   2.240   6.916   5.463
 7865SOL     OW24493   5.663   5.347   3.715
 7865SOL    HW124494   5.690   5.420   3.652
 7865SOL    HW224495   5.582   5.301   3.680
 7866SOL     OW24496   1.027   6.882   5.873
 7866SOL    HW124497   1.090   6.924   5.808
 7866SOL    HW224498   0.977   6.954   5.922
 7867SOL     OW24499   5.658   6.333   3.732
 7867SOL    HW124500   5.567   6.318   3.695
 7867SOL    HW224501   5.725   6.285   3.675
 7868SOL     OW24502   3.468   6.009   1.211
 7868SOL    HW124503   3.514   6.079   1.265
 7868SOL    HW224504   3.417   6.052   1.137
 7869SOL     OW24505   5.235   5.137   6.061
 7869SOL    HW124506   5.269   5.048   6.028
 7869SOL    HW224507   5.257   5.208   5.994
 7870SOL     OW24508   5.550   6.251   5.132
 7870SOL    HW124509   5.583   6.193   5.206
 7870SOL    HW224510   5.622   6.262   5.063
 7871SOL     OW24511   5.175   1.410   1.953
 7871SOL    HW124512   5.081   1.384   1.976
 7871SOL    HW224513   5.238   1.344   1.994
 7872SOL     OW24514   2.082   5.952   2.564
 7872SOL    HW124515   1.983   5.967   2.556
 7872SOL    HW224516   2.118   6.006   2.640
 7873SOL     OW24517   6.427   1.490   7.008
 7873SOL    HW124518   6.359   1.492   0.064
 7873SOL    HW224519   6.410   1.566   6.945
 7874SOL     OW24520   5.519   2.314   0.806
 7874SOL    HW124521   5.591   2.318   0.737
 7874SOL    HW224522   5.431   2.330   0.763
 7875SOL     OW24523   5.217   4.276   6.921
 7875SOL    HW124524   5.271   4.221   6.984
 7875SOL    HW224525   5.238   4.373   6.934
 7876SOL     OW24526   0.647   0.094   2.462
 7876SOL    HW124527   0.575   0.042   2.417
 7876SOL    HW224528   0.716   0.122   2.394
 7877SOL     OW24529   0.052   2.068   2.843
 7877SOL    HW124530   0.124   2.045   2.908
 7877SOL    HW224531   0.091   2.125   2.770
 7878SOL     OW24532   4.300   4.834   3.076
 7878SOL    HW124533   4.316   4.809   2.981
 7878SOL    HW224534   4.309   4.753   3.134
 7879SOL     OW24535   2.543   4.483   3.088
 7879SOL    HW124536   2.638   4.507   3.068
 7879SOL    HW224537   2.486   4.505   3.009
 7880SOL     OW24538   1.456   4.135   1.923
 7880SOL    HW124539   1.536   4.092   1.965
 7880SOL    HW224540   1.471   4.143   1.825
 7881SOL     OW24541   4.991   4.325   3.995
 7881SOL    HW124542   4.986   4.236   4.040
 7881SOL    HW224543   4.941   4.321   3.909
 7882SOL     OW24544   1.204   3.351   0.882
 7882SOL    HW124545   1.277   3.332   0.816
 7882SOL    HW224546   1.139   3.275   0.883
 7883SOL     OW24547   0.808   1.137   5.459
 7883SOL    HW124548   0.846   1.129   5.367
 7883SOL    HW224549   0.782   1.046   5.492
 7884SOL     OW24550   0.885   2.809   4.235
 7884SOL    HW124551   0.837   2.769   4.157
 7884SOL    HW224552   0.982   2.785   4.230
 7885SOL     OW24553   6.318   5.662   0.277
 7885SOL    HW124554   6.222   5.689   0.275
 7885SOL    HW224555   6.328   5.571   0.237
 7886SOL     OW24556   4.962   5.246   6.841
 7886SOL    HW124557   5.016   5.269   6.761
 7886SOL    HW224558   4.865   5.249   6.818
 7887SOL     OW24559   4.889   1.887   0.033
 7887SOL    HW124560   4.830   1.813   0.003
 7887SOL    HW224561   4.949   1.855   0.106
 7888SOL     OW24562   4.967   1.139   4.562
 7888SOL    HW124563   4.973   1.064   4.628
 7888SOL    HW224564   4.885   1.128   4.506
 7889SOL     OW24565   1.169   6.528   2.127
 7889SOL    HW124566   1.123   6.511   2.040
 7889SOL    HW224567   1.174   6.443   2.180
 7890SOL     OW24568   1.790   3.002   2.792
 7890SOL    HW124569   1.789   2.964   2.884
 7890SOL    HW224570   1.710   3.059   2.778
 7891SOL     OW24571   2.102   4.755   2.689
 7891SOL    HW124572   2.099   4.854   2.701
 7891SOL    HW224573   2.015   4.715   2.720
 7892SOL     OW24574   2.009   2.097   5.570
 7892SOL    HW124575   1.941   2.063   5.636
 7892SOL    HW224576   2.054   2.178   5.608
 7893SOL     OW24577   6.134   6.330   1.477
 7893SOL    HW124578   6.178   6.396   1.415
 7893SOL    HW224579   6.162   6.349   1.571
 7894SOL     OW24580   3.056   6.796   1.738
 7894SOL    HW124581   3.058   6.765   1.833
 7894SOL    HW224582   3.016   6.724   1.681
 7895SOL     OW24583   0.282   1.696   3.695
 7895SOL    HW124584   0.198   1.641   3.699
 7895SOL    HW224585   0.337   1.678   3.776
 7896SOL     OW24586   4.648   2.350   5.649
 7896SOL    HW124587   4.623   2.298   5.731
 7896SOL    HW224588   4.740   2.325   5.620
 7897SOL     OW24589   3.276   3.167   6.251
 7897SOL    HW124590   3.212   3.244   6.252
 7897SOL    HW224591   3.266   3.116   6.166
 7898SOL     OW24592   4.321   2.391   3.561
 7898SOL    HW124593   4.255   2.318   3.575
 7898SOL    HW224594   4.345   2.397   3.464
 7899SOL     OW24595   5.409   1.374   2.916
 7899SOL    HW124596   5.496   1.354   2.961
 7899SOL    HW224597   5.414   1.344   2.820
 7900SOL     OW24598   1.746   5.301   0.882
 7900SOL    HW124599   1.797   5.229   0.929
 7900SOL    HW224600   1.676   5.259   0.824
 7901SOL     OW24601   6.179   6.160   0.115
 7901SOL    HW124602   6.254   6.123   0.059
 7901SOL    HW224603   6.209   6.166   0.210
 7902SOL     OW24604   4.540   3.759   6.745
 7902SOL    HW124605   4.559   3.676   6.693
 7902SOL    HW224606   4.459   3.804   6.707
 7903SOL     OW24607   0.433   2.152   6.622
 7903SOL    HW124608   0.377   2.069   6.636
 7903SOL    HW224609   0.471   2.151   6.530
 7904SOL     OW24610   6.466   0.894   2.749
 7904SOL    HW124611   6.498   0.837   2.825
 7904SOL    HW224612   6.498   0.855   2.663
 7905SOL     OW24613   3.439   1.302   0.767
 7905SOL    HW124614   3.505   1.254   0.710
 7905SOL    HW224615   3.468   1.298   0.862
 7906SOL     OW24616   6.432   6.077   0.071
 7906SOL    HW124617   6.453   5.990   0.028
 7906SOL    HW224618   6.492   6.148   0.034
 7907SOL     OW24619   6.945   2.845   2.364
 7907SOL    HW124620   6.915   2.825   2.271
 7907SOL    HW224621   6.901   2.782   2.428
 7908SOL     OW24622   6.284   2.050   3.762
 7908SOL    HW124623   6.229   2.062   3.845
 7908SOL    HW224624   6.252   2.112   3.691
 7909SOL     OW24625   4.678   4.644   5.100
 7909SOL    HW124626   4.659   4.619   5.005
 7909SOL    HW224627   4.777   4.641   5.116
 7910SOL     OW24628   5.712   3.269   5.794
 7910SOL    HW124629   5.756   3.348   5.752
 7910SOL    HW224630   5.780   3.196   5.805
 7911SOL     OW24631   5.745   4.634   7.006
 7911SOL    HW124632   5.665   4.604   0.039
 7911SOL    HW224633   5.731   4.727   6.974
 7912SOL     OW24634   6.425   5.010   5.880
 7912SOL    HW124635   6.384   5.054   5.960
 7912SOL    HW224636   6.488   4.939   5.910
 7913SOL     OW24637   0.037   5.822   6.310
 7913SOL    HW124638   6.981   5.863   6.363
 7913SOL    HW224639   7.018   5.777   6.229
 7914SOL     OW24640   6.661   3.614   2.009
 7914SOL    HW124641   6.599   3.671   2.062
 7914SOL    HW224642   6.754   3.651   2.015
 7915SOL     OW24643   4.141   1.919   3.109
 7915SOL    HW124644   4.085   1.982   3.055
 7915SOL    HW224645   4.162   1.838   3.055
 7916SOL     OW24646   5.110   3.834   5.387
 7916SOL    HW124647   5.138   3.750   5.434
 7916SOL    HW224648   5.022   3.865   5.424
 7917SOL     OW24649   3.285   3.833   4.019
 7917SOL    HW124650   3.250   3.739   4.023
 7917SOL    HW224651   3.212   3.894   3.989
 7918SOL     OW24652   6.238   1.713   2.411
 7918SOL    HW124653   6.267   1.710   2.315
 7918SOL    HW224654   6.306   1.764   2.465
 7919SOL     OW24655   6.123   4.771   2.366
 7919SOL    HW124656   6.058   4.793   2.293
 7919SOL    HW224657   6.216   4.781   2.331
 7920SOL     OW24658   0.495   5.501   1.556
 7920SOL    HW124659   0.543   5.571   1.504
 7920SOL    HW224660   0.399   5.526   1.567
 7921SOL     OW24661   3.205   6.530   1.563
 7921SOL    HW124662   3.217   6.466   1.488
 7921SOL    HW224663   3.193   6.623   1.526
 7922SOL     OW24664   0.845   4.962   6.776
 7922SOL    HW124665   0.942   4.966   6.799
 7922SOL    HW224666   0.805   5.054   6.784
 7923SOL     OW24667   1.630   1.780   2.854
 7923SOL    HW124668   1.636   1.796   2.755
 7923SOL    HW224669   1.695   1.841   2.901
 7924SOL     OW24670   2.435   0.017   4.140
 7924SOL    HW124671   2.507   6.968   4.121
 7924SOL    HW224672   2.437   0.088   4.070
 7925SOL     OW24673   0.181   1.232   6.687
 7925SOL    HW124674   0.209   1.312   6.740
 7925SOL    HW224675   0.151   1.160   6.750
 7926SOL     OW24676   3.542   0.258   1.874
 7926SOL    HW124677   3.608   0.315   1.923
 7926SOL    HW224678   3.591   0.193   1.816
 7927SOL     OW24679   4.677   4.838   4.515
 7927SOL    HW124680   4.651   4.834   4.611
 7927SOL    HW224681   4.774   4.815   4.505
 7928SOL     OW24682   1.359   4.929   1.372
 7928SOL    HW124683   1.280   4.974   1.413
 7928SOL    HW224684   1.369   4.960   1.277
 7929SOL     OW24685   3.697   4.089   4.147
 7929SOL    HW124686   3.597   4.092   4.150
 7929SOL    HW224687   3.729   4.123   4.059
 7930SOL     OW24688   4.889   5.939   4.033
 7930SOL    HW124689   4.838   6.025   4.042
 7930SOL    HW224690   4.825   5.862   4.033
 7931SOL     OW24691   1.782   2.749   0.708
 7931SOL    HW124692   1.840   2.824   0.678
 7931SOL    HW224693   1.831   2.663   0.700
 7932SOL     OW24694   2.715   6.792   1.285
 7932SOL    HW124695   2.676   6.703   1.262
 7932SOL    HW224696   2.641   6.857   1.301
 7933SOL     OW24697   1.505   0.623   0.149
 7933SOL    HW124698   1.470   0.536   0.114
 7933SOL    HW224699   1.433   0.693   0.142
 7934SOL     OW24700   2.811   3.830   6.104
 7934SOL    HW124701   2.725   3.797   6.066
 7934SOL    HW224702   2.793   3.894   6.178
 7935SOL     OW24703   4.056   6.154   1.022
 7935SOL    HW124704   4.051   6.102   0.937
 7935SOL    HW224705   4.007   6.106   1.094
 7936SOL     OW24706   4.603   6.288   3.277
 7936SOL    HW124707   4.627   6.341   3.359
 7936SOL    HW224708   4.575   6.351   3.204
 7937SOL     OW24709   5.861   6.512   5.819
 7937SOL    HW124710   5.928   6.502   5.746
 7937SOL    HW224711   5.848   6.609   5.840
 7938SOL     OW24712   5.809   4.848   4.742
 7938SOL    HW124713   5.792   4.826   4.646
 7938SOL    HW224714   5.858   4.935   4.748
 7939SOL     OW24715   0.831   0.720   5.071
 7939SOL    HW124716   0.837   0.660   4.991
 7939SOL    HW224717   0.836   0.816   5.042
 7940SOL     OW24718   1.519   5.453   0.999
 7940SOL    HW124719   1.610   5.470   0.962
 7940SOL    HW224720   1.477   5.540   1.024
 7941SOL     OW24721   0.468   0.279   0.554
 7941SOL    HW124722   0.531   0.320   0.620
 7941SOL    HW224723   0.445   0.186   0.583
 7942SOL     OW24724   0.811   1.013   1.659
 7942SOL    HW124725   0.791   1.085   1.726
 7942SOL    HW224726   0.827   1.055   1.570
 7943SOL     OW24727   5.561   1.920   1.113
 7943SOL    HW124728   5.519   1.983   1.178
 7943SOL    HW224729   5.519   1.830   1.122
 7944SOL     OW24730   1.319   4.709   1.940
 7944SOL    HW124731   1.374   4.629   1.916
 7944SOL    HW224732   1.296   4.760   1.857
 7945SOL     OW24733   5.334   6.390   1.893
 7945SOL    HW124734   5.371   6.340   1.816
 7945SOL    HW224735   5.286   6.471   1.860
 7946SOL     OW24736   1.842   1.980   5.739
 7946SOL    HW124737   1.805   2.010   5.827
 7946SOL    HW224738   1.826   1.882   5.728
 7947SOL     OW24739   3.623   3.571   6.288
 7947SOL    HW124740   3.550   3.514   6.326
 7947SOL    HW224741   3.683   3.601   6.363
 7948SOL     OW24742   0.453   6.365   0.436
 7948SOL    HW124743   0.385   6.292   0.443
 7948SOL    HW224744   0.527   6.337   0.374
 7949SOL     OW24745   5.454   4.524   4.223
 7949SOL    HW124746   5.545   4.538   4.263
 7949SOL    HW224747   5.432   4.601   4.163
 7950SOL     OW24748   3.573   4.953   4.446
 7950SOL    HW124749   3.534   5.045   4.448
 7950SOL    HW224750   3.499   4.886   4.448
 7951SOL     OW24751   3.210   3.012   1.276
 7951SOL    HW124752   3.309   3.003   1.279
 7951SOL    HW224753   3.168   2.949   1.342
 7952SOL     OW24754   5.832   3.451   0.730
 7952SOL    HW124755   5.814   3.386   0.804
 7952SOL    HW224756   5.788   3.419   0.647
 7953SOL     OW24757   1.984   2.747   2.344
 7953SOL    HW124758   1.946   2.819   2.286
 7953SOL    HW224759   1.928   2.737   2.426
 7954SOL     OW24760   4.712   5.404   5.078
 7954SOL    HW124761   4.733   5.403   4.980
 7954SOL    HW224762   4.638   5.339   5.097
 7955SOL     OW24763   1.074   6.668   5.996
 7955SOL    HW124764   1.033   6.751   5.957
 7955SOL    HW224765   1.002   6.610   6.035
 7956SOL     OW24766   5.823   0.198   3.744
 7956SOL    HW124767   5.887   0.202   3.667
 7956SOL    HW224768   5.730   0.190   3.709
 7957SOL     OW24769   1.217   2.445   0.916
 7957SOL    HW124770   1.142   2.432   0.981
 7957SOL    HW224771   1.184   2.433   0.823
 7958SOL     OW24772   2.626   5.618   2.822
 7958SOL    HW124773   2.709   5.586   2.776
 7958SOL    HW224774   2.571   5.672   2.757
 7959SOL     OW24775   5.420   4.847   0.788
 7959SOL    HW124776   5.418   4.804   0.878
 7959SOL    HW224777   5.513   4.844   0.751
 7960SOL     OW24778   2.618   2.204   1.256
 7960SOL    HW124779   2.666   2.143   1.319
 7960SOL    HW224780   2.558   2.265   1.307
 7961SOL     OW24781   1.744   5.112   6.491
 7961SOL    HW124782   1.707   5.113   6.398
 7961SOL    HW224783   1.810   5.187   6.501
 7962SOL     OW24784   1.104   0.542   2.198
 7962SOL    HW124785   1.081   0.488   2.117
 7962SOL    HW224786   1.064   0.634   2.188
 7963SOL     OW24787   0.542   0.822   5.044
 7963SOL    HW124788   0.546   0.871   5.131
 7963SOL    HW224789   0.628   0.774   5.029
 7964SOL     OW24790   6.133   5.780   3.576
 7964SOL    HW124791   6.098   5.787   3.670
 7964SOL    HW224792   6.192   5.859   3.557
 7965SOL     OW24793   5.578   2.078   0.505
 7965SOL    HW124794   5.624   1.989   0.507
 7965SOL    HW224795   5.479   2.063   0.501
 7966SOL     OW24796   6.999   4.953   3.730
 7966SOL    HW124797   6.918   4.986   3.779
 7966SOL    HW224798   6.972   4.919   3.640
 7967SOL     OW24799   2.859   6.252   3.027
 7967SOL    HW124800   2.950   6.290   3.012
 7967SOL    HW224801   2.794   6.292   2.963
 7968SOL     OW24802   2.162   1.410   2.033
 7968SOL    HW124803   2.215   1.489   2.064
 7968SOL    HW224804   2.066   1.436   2.024
 7969SOL     OW24805   3.034   2.240   3.321
 7969SOL    HW124806   3.014   2.270   3.414
 7969SOL    HW224807   3.101   2.167   3.323
 7970SOL     OW24808   0.340   4.299   3.125
 7970SOL    HW124809   0.355   4.280   3.028
 7970SOL    HW224810   0.249   4.269   3.152
 7971SOL     OW24811   2.496   1.591   1.745
 7971SOL    HW124812   2.590   1.624   1.749
 7971SOL    HW224813   2.456   1.616   1.657
 7972SOL     OW24814   0.182   4.205   2.160
 7972SOL    HW124815   0.230   4.235   2.077
 7972SOL    HW224816   0.247   4.194   2.235
 7973SOL     OW24817   4.737   2.702   2.834
 7973SOL    HW124818   4.710   2.711   2.738
 7973SOL    HW224819   4.666   2.652   2.884
 7974SOL     OW24820   5.251   0.574   4.357
 7974SOL    HW124821   5.183   0.519   4.405
 7974SOL    HW224822   5.341   0.560   4.398
 7975SOL     OW24823   2.946   1.142   4.065
 7975SOL    HW124824   3.045   1.138   4.055
 7975SOL    HW224825   2.909   1.049   4.070
 7976SOL     OW24826   1.038   5.446   6.528
 7976SOL    HW124827   0.998   5.435   6.437
 7976SOL    HW224828   0.966   5.441   6.597
 7977SOL     OW24829   5.321   6.060   1.510
 7977SOL    HW124830   5.356   6.078   1.418
 7977SOL    HW224831   5.294   6.146   1.553
 7978SOL     OW24832   4.390   2.445   5.834
 7978SOL    HW124833   4.378   2.352   5.871
 7978SOL    HW224834   4.441   2.440   5.748
 7979SOL     OW24835   3.754   6.622   4.244
 7979SOL    HW124836   3.701   6.702   4.270
 7979SOL    HW224837   3.714   6.581   4.162
 7980SOL     OW24838   3.187   6.064   1.407
 7980SOL    HW124839   3.136   6.011   1.476
 7980SOL    HW224840   3.282   6.032   1.404
 7981SOL     OW24841   1.109   5.258   3.112
 7981SOL    HW124842   1.190   5.287   3.163
 7981SOL    HW224843   1.136   5.226   3.021
 7982SOL     OW24844   6.453   3.222   0.869
 7982SOL    HW124845   6.435   3.320   0.881
 7982SOL    HW224846   6.531   3.210   0.808
 7983SOL     OW24847   5.124   2.502   2.841
 7983SOL    HW124848   5.219   2.503   2.811
 7983SOL    HW224849   5.065   2.528   2.764
 7984SOL     OW24850   0.702   1.579   1.254
 7984SOL    HW124851   0.675   1.620   1.166
 7984SOL    HW224852   0.711   1.651   1.323
 7985SOL     OW24853   0.235   1.380   1.867
 7985SOL    HW124854   0.278   1.466   1.894
 7985SOL    HW224855   0.207   1.386   1.771
 7986SOL     OW24856   3.788   1.392   0.285
 7986SOL    HW124857   3.749   1.369   0.195
 7986SOL    HW224858   3.811   1.307   0.333
 7987SOL     OW24859   0.658   2.986   4.758
 7987SOL    HW124860   0.742   2.933   4.755
 7987SOL    HW224861   0.579   2.925   4.751
 7988SOL     OW24862   2.774   1.266   5.464
 7988SOL    HW124863   2.799   1.314   5.548
 7988SOL    HW224864   2.823   1.306   5.387
 7989SOL     OW24865   2.851   2.723   5.322
 7989SOL    HW124866   2.822   2.648   5.381
 7989SOL    HW224867   2.772   2.778   5.296
 7990SOL     OW24868   1.552   2.268   4.778
 7990SOL    HW124869   1.509   2.291   4.691
 7990SOL    HW224870   1.537   2.343   4.843
 7991SOL     OW24871   1.066   3.196   6.111
 7991SOL    HW124872   1.038   3.292   6.105
 7991SOL    HW224873   0.988   3.137   6.095
 7992SOL     OW24874   2.233   0.956   0.973
 7992SOL    HW124875   2.177   0.923   0.897
 7992SOL    HW224876   2.222   1.055   0.982
 7993SOL     OW24877   2.121   6.775   6.695
 7993SOL    HW124878   2.087   6.710   6.627
 7993SOL    HW224879   2.200   6.824   6.658
 7994SOL     OW24880   5.739   1.133   3.398
 7994SOL    HW124881   5.669   1.203   3.408
 7994SOL    HW224882   5.696   1.042   3.404
 7995SOL     OW24883   3.360   5.195   3.461
 7995SOL    HW124884   3.355   5.172   3.558
 7995SOL    HW224885   3.283   5.253   3.436
 7996SOL     OW24886   3.718   0.038   5.158
 7996SOL    HW124887   3.740   0.134   5.177
 7996SOL    HW224888   3.799   7.000   5.174
 7997SOL     OW24889   5.588   2.542   1.609
 7997SOL    HW124890   5.586   2.587   1.698
 7997SOL    HW224891   5.629   2.451   1.619
 7998SOL     OW24892   6.089   4.770   6.910
 7998SOL    HW124893   6.178   4.793   6.950
 7998SOL    HW224894   6.021   4.836   6.941
 7999SOL     OW24895   2.109   0.322   5.506
 7999SOL    HW124896   2.028   0.330   5.564
 7999SOL    HW224897   2.119   0.405   5.452
 8000SOL     OW24898   6.392   6.619   5.270
 8000SOL    HW124899   6.358   6.602   5.178
 8000SOL    HW224900   6.412   6.532   5.315
 8001SOL     OW24901   2.159   6.874   1.238
 8001SOL    HW124902   2.235   6.808   1.239
 8001SOL    HW224903   2.175   6.941   1.167
 8002SOL     OW24904   5.939   3.269   5.489
 8002SOL    HW124905   5.927   3.172   5.469
 8002SOL    HW224906   5.942   3.321   5.404
 8003SOL     OW24907   3.707   4.959   3.162
 8003SOL    HW124908   3.739   5.044   3.120
 8003SOL    HW224909   3.687   4.976   3.259
 8004SOL     OW24910   1.846   3.979   2.654
 8004SOL    HW124911   1.943   3.989   2.631
 8004SOL    HW224912   1.810   4.067   2.685
 8005SOL     OW24913   2.944   1.195   1.618
 8005SOL    HW124914   2.970   1.272   1.675
 8005SOL    HW224915   3.017   1.173   1.554
 8006SOL     OW24916   3.346   6.258   0.422
 8006SOL    HW124917   3.337   6.270   0.521
 8006SOL    HW224918   3.267   6.299   0.376
 8007SOL     OW24919   0.513   0.657   4.169
 8007SOL    HW124920   0.500   0.699   4.079
 8007SOL    HW224921   0.611   0.644   4.185
 8008SOL     OW24922   6.277   6.657   0.584
 8008SOL    HW124923   6.339   6.733   0.603
 8008SOL    HW224924   6.257   6.654   0.486
 8009SOL     OW24925   6.864   6.853   3.684
 8009SOL    HW124926   6.815   6.940   3.682
 8009SOL    HW224927   6.865   6.814   3.592
 8010SOL     OW24928   2.318   2.957   6.857
 8010SOL    HW124929   2.384   2.882   6.857
 8010SOL    HW224930   2.341   3.023   6.785
 8011SOL     OW24931   3.179   2.058   0.480
 8011SOL    HW124932   3.153   1.998   0.555
 8011SOL    HW224933   3.260   2.021   0.434
 8012SOL     OW24934   2.986   6.344   1.934
 8012SOL    HW124935   2.916   6.281   1.967
 8012SOL    HW224936   2.965   6.369   1.839
 8013SOL     OW24937   6.082   4.449   4.885
 8013SOL    HW124938   6.134   4.383   4.830
 8013SOL    HW224939   6.047   4.521   4.825
 8014SOL     OW24940   2.058   6.204   0.159
 8014SOL    HW124941   2.146   6.246   0.139
 8014SOL    HW224942   1.989   6.239   0.096
 8015SOL     OW24943   2.136   2.691   0.185
 8015SOL    HW124944   2.128   2.593   0.202
 8015SOL    HW224945   2.230   2.721   0.204
 8016SOL     OW24946   3.547   6.439   1.218
 8016SOL    HW124947   3.618   6.507   1.239
 8016SOL    HW224948   3.460   6.486   1.203
 8017SOL     OW24949   5.960   4.347   4.306
 8017SOL    HW124950   6.029   4.319   4.240
 8017SOL    HW224951   5.934   4.442   4.289
 8018SOL     OW24952   5.108   2.429   5.110
 8018SOL    HW124953   5.105   2.504   5.044
 8018SOL    HW224954   5.034   2.365   5.091
 8019SOL     OW24955   2.729   5.785   0.854
 8019SOL    HW124956   2.685   5.787   0.944
 8019SOL    HW224957   2.772   5.873   0.836
 8020SOL     OW24958   5.572   5.670   6.894
 8020SOL    HW124959   5.505   5.711   6.955
 8020SOL    HW224960   5.537   5.582   6.861
 8021SOL     OW24961   0.811   0.738   1.284
 8021SOL    HW124962   0.852   0.731   1.375
 8021SOL    HW224963   0.850   0.667   1.225
 8022SOL     OW24964   4.398   6.224   2.905
 8022SOL    HW124965   4.399   6.182   2.814
 8022SOL    HW224966   4.314   6.198   2.953
 8023SOL     OW24967   6.363   6.808   3.267
 8023SOL    HW124968   6.449   6.778   3.225
 8023SOL    HW224969   6.287   6.778   3.210
 8024SOL     OW24970   4.531   4.901   5.252
 8024SOL    HW124971   4.496   4.813   5.286
 8024SOL    HW224972   4.598   4.937   5.317
 8025SOL     OW24973   3.958   5.519   0.009
 8025SOL    HW124974   3.958   5.525   6.927
 8025SOL    HW224975   3.985   5.607   0.048
 8026SOL     OW24976   0.988   2.740   0.257
 8026SOL    HW124977   0.978   2.649   0.217
 8026SOL    HW224978   1.085   2.762   0.265
 8027SOL     OW24979   4.831   2.774   5.759
 8027SOL    HW124980   4.820   2.712   5.837
 8027SOL    HW224981   4.743   2.813   5.735
 8028SOL     OW24982   5.459   4.515   6.675
 8028SOL    HW124983   5.437   4.587   6.609
 8028SOL    HW224984   5.407   4.432   6.652
 8029SOL     OW24985   3.712   3.980   0.777
 8029SOL    HW124986   3.769   4.037   0.835
 8029SOL    HW224987   3.649   3.926   0.834
 8030SOL     OW24988   5.848   3.891   6.277
 8030SOL    HW124989   5.888   3.912   6.366
 8030SOL    HW224990   5.915   3.913   6.205
 8031SOL     OW24991   3.611   5.608   1.573
 8031SOL    HW124992   3.520   5.592   1.612
 8031SOL    HW224993   3.662   5.669   1.633
 8032SOL     OW24994   4.916   3.755   5.802
 8032SOL    HW124995   4.945   3.785   5.893
 8032SOL    HW224996   4.906   3.835   5.743
 8033SOL     OW24997   5.860   2.932   6.866
 8033SOL    HW124998   5.770   2.961   6.831
 8033SOL    HW224999   5.847   2.855   6.929
 8034SOL     OW25000   6.024   0.604   5.282
 8034SOL    HW125001   6.049   0.565   5.371
 8034SOL    HW225002   5.926   0.625   5.281
 8035SOL     OW25003   5.641   6.663   6.646
 8035SOL    HW125004   5.650   6.571   6.685
 8035SOL    HW225005   5.629   6.657   6.547
 8036SOL     OW25006   1.924   4.393   1.647
 8036SOL    HW125007   1.948   4.491   1.644
 8036SOL    HW225008   2.001   4.342   1.685
 8037SOL     OW25009   1.388   3.283   1.434
 8037SOL    HW125010   1.402   3.380   1.416
 8037SOL    HW225011   1.294   3.258   1.410
 8038SOL     OW25012   0.069   2.475   4.182
 8038SOL    HW125013   0.017   2.463   4.097
 8038SOL    HW225014   0.167   2.463   4.163
 8039SOL     OW25015   2.820   6.859   3.577
 8039SOL    HW125016   2.889   6.841   3.506
 8039SOL    HW225017   2.861   6.912   3.650
 8040SOL     OW25018   6.826   5.989   0.988
 8040SOL    HW125019   6.815   5.999   0.889
 8040SOL    HW225020   6.894   6.055   1.020
 8041SOL     OW25021   4.285   1.485   0.655
 8041SOL    HW125022   4.294   1.585   0.652
 8041SOL    HW225023   4.292   1.448   0.563
 8042SOL     OW25024   3.219   3.330   1.535
 8042SOL    HW125025   3.234   3.236   1.568
 8042SOL    HW225026   3.304   3.382   1.541
 8043SOL     OW25027   2.811   6.520   2.103
 8043SOL    HW125028   2.889   6.459   2.092
 8043SOL    HW225029   2.806   6.552   2.198
 8044SOL     OW25030   2.867   3.730   1.824
 8044SOL    HW125031   2.894   3.706   1.917
 8044SOL    HW225032   2.905   3.663   1.760
 8045SOL     OW25033   5.635   2.547   3.197
 8045SOL    HW125034   5.659   2.603   3.118
 8045SOL    HW225035   5.537   2.558   3.216
 8046SOL     OW25036   6.549   5.225   6.209
 8046SOL    HW125037   6.590   5.214   6.119
 8046SOL    HW225038   6.588   5.306   6.253
 8047SOL     OW25039   3.500   5.914   4.103
 8047SOL    HW125040   3.538   5.969   4.029
 8047SOL    HW225041   3.515   5.817   4.084
 8048SOL     OW25042   6.964   6.923   5.606
 8048SOL    HW125043   6.879   6.938   5.555
 8048SOL    HW225044   6.963   6.831   5.645
 8049SOL     OW25045   1.257   5.465   0.481
 8049SOL    HW125046   1.292   5.476   0.575
 8049SOL    HW225047   1.174   5.410   0.483
 8050SOL     OW25048   1.627   2.838   1.040
 8050SOL    HW125049   1.587   2.748   1.057
 8050SOL    HW225050   1.617   2.862   0.943
 8051SOL     OW25051   4.591   0.831   3.733
 8051SOL    HW125052   4.503   0.803   3.693
 8051SOL    HW225053   4.665   0.800   3.673
 8052SOL     OW25054   2.831   1.327   2.985
 8052SOL    HW125055   2.811   1.329   3.083
 8052SOL    HW225056   2.914   1.272   2.970
 8053SOL     OW25057   3.962   3.920   2.353
 8053SOL    HW125058   3.893   3.943   2.421
 8053SOL    HW225059   4.030   3.993   2.348
 8054SOL     OW25060   4.177   6.118   4.850
 8054SOL    HW125061   4.117   6.142   4.927
 8054SOL    HW225062   4.210   6.202   4.806
 8055SOL     OW25063   1.882   6.854   5.876
 8055SOL    HW125064   1.917   6.761   5.864
 8055SOL    HW225065   1.785   6.856   5.850
 8056SOL     OW25066   4.358   1.688   3.076
 8056SOL    HW125067   4.426   1.738   3.129
 8056SOL    HW225068   4.365   1.590   3.096
 8057SOL     OW25069   3.415   6.890   3.171
 8057SOL    HW125070   3.346   6.911   3.241
 8057SOL    HW225071   3.424   6.968   3.109
 8058SOL     OW25072   2.574   0.938   3.087
 8058SOL    HW125073   2.547   1.005   3.156
 8058SOL    HW225074   2.510   0.861   3.087
 8059SOL     OW25075   2.806   1.730   3.997
 8059SOL    HW125076   2.859   1.807   3.962
 8059SOL    HW225077   2.866   1.671   4.052
 8060SOL     OW25078   0.705   1.599   4.322
 8060SOL    HW125079   0.764   1.556   4.390
 8060SOL    HW225080   0.630   1.647   4.368
 8061SOL     OW25081   0.186   5.148   2.136
 8061SOL    HW125082   0.276   5.187   2.117
 8061SOL    HW225083   0.132   5.212   2.191
 8062SOL     OW25084   1.685   3.773   3.480
 8062SOL    HW125085   1.697   3.739   3.386
 8062SOL    HW225086   1.772   3.763   3.529
 8063SOL     OW25087   3.440   3.344   0.255
 8063SOL    HW125088   3.488   3.382   0.334
 8063SOL    HW225089   3.390   3.262   0.283
 8064SOL     OW25090   6.845   3.918   6.820
 8064SOL    HW125091   6.934   3.902   6.864
 8064SOL    HW225092   6.784   3.962   6.886
 8065SOL     OW25093   4.686   0.541   5.436
 8065SOL    HW125094   4.642   0.517   5.349
 8065SOL    HW225095   4.667   0.471   5.504
 8066SOL     OW25096   1.847   0.082   1.415
 8066SOL    HW125097   1.862   0.001   1.471
 8066SOL    HW225098   1.768   0.067   1.355
 8067SOL     OW25099   5.210   2.651   2.104
 8067SOL    HW125100   5.169   2.737   2.135
 8067SOL    HW225101   5.205   2.645   2.005
 8068SOL     OW25102   1.153   4.281   4.646
 8068SOL    HW125103   1.211   4.201   4.663
 8068SOL    HW225104   1.210   4.361   4.633
 8069SOL     OW25105   1.381   6.404   1.890
 8069SOL    HW125106   1.375   6.364   1.798
 8069SOL    HW225107   1.361   6.502   1.884
 8070SOL     OW25108   3.630   0.095   1.405
 8070SOL    HW125109   3.660   0.135   1.319
 8070SOL    HW225110   3.567   0.158   1.451
 8071SOL     OW25111   3.849   6.290   6.629
 8071SOL    HW125112   3.830   6.195   6.654
 8071SOL    HW225113   3.917   6.291   6.555
 8072SOL     OW25114   5.290   0.877   1.096
 8072SOL    HW125115   5.312   0.905   1.002
 8072SOL    HW225116   5.263   0.957   1.149
 8073SOL     OW25117   4.152   6.324   5.926
 8073SOL    HW125118   4.225   6.292   5.987
 8073SOL    HW225119   4.157   6.423   5.917
 8074SOL     OW25120   3.666   3.855   0.053
 8074SOL    HW125121   3.625   3.932   0.102
 8074SOL    HW225122   3.595   3.788   0.030
 8075SOL     OW25123   0.278   1.633   2.674
 8075SOL    HW125124   0.362   1.608   2.625
 8075SOL    HW225125   0.213   1.672   2.609
 8076SOL     OW25126   6.396   3.086   5.951
 8076SOL    HW125127   6.402   3.173   5.903
 8076SOL    HW225128   6.379   3.102   6.048
 8077SOL     OW25129   1.529   0.143   0.948
 8077SOL    HW125130   1.500   0.176   0.858
 8077SOL    HW225131   1.465   0.175   1.018
 8078SOL     OW25132   6.277   3.485   0.797
 8078SOL    HW125133   6.254   3.422   0.871
 8078SOL    HW225134   6.322   3.565   0.834
 8079SOL     OW25135   6.640   1.893   2.093
 8079SOL    HW125136   6.642   1.796   2.114
 8079SOL    HW225137   6.708   1.941   2.148
 8080SOL     OW25138   3.540   5.092   0.164
 8080SOL    HW125139   3.612   5.135   0.218
 8080SOL    HW225140   3.452   5.107   0.208
 8081SOL     OW25141   6.144   0.688   5.764
 8081SOL    HW125142   6.233   0.709   5.804
 8081SOL    HW225143   6.099   0.774   5.738
 8082SOL     OW25144   6.837   2.979   3.757
 8082SOL    HW125145   6.772   2.917   3.714
 8082SOL    HW225146   6.905   2.926   3.808
 8083SOL     OW25147   4.676   2.586   3.876
 8083SOL    HW125148   4.656   2.606   3.780
 8083SOL    HW225149   4.703   2.490   3.885
 8084SOL     OW25150   6.604   0.383   0.895
 8084SOL    HW125151   6.679   0.401   0.832
 8084SOL    HW225152   6.611   0.444   0.974
 8085SOL     OW25153   5.375   1.404   1.342
 8085SOL    HW125154   5.418   1.381   1.429
 8085SOL    HW225155   5.410   1.492   1.309
 8086SOL     OW25156   3.362   0.090   5.654
 8086SOL    HW125157   3.377   0.174   5.603
 8086SOL    HW225158   3.439   0.028   5.641
 8087SOL     OW25159   2.952   2.760   1.343
 8087SOL    HW125160   3.030   2.702   1.365
 8087SOL    HW225161   2.942   2.831   1.413
 8088SOL     OW25162   4.150   0.876   3.164
 8088SOL    HW125163   4.105   0.864   3.253
 8088SOL    HW225164   4.205   0.959   3.167
 8089SOL     OW25165   5.881   3.121   0.217
 8089SOL    HW125166   5.781   3.123   0.220
 8089SOL    HW225167   5.918   3.190   0.279
 8090SOL     OW25168   4.848   1.947   5.528
 8090SOL    HW125169   4.945   1.970   5.519
 8090SOL    HW225170   4.813   1.984   5.615
 8091SOL     OW25171   3.022   4.747   5.632
 8091SOL    HW125172   2.950   4.680   5.615
 8091SOL    HW225173   3.019   4.817   5.561
 8092SOL     OW25174   1.422   1.808   4.042
 8092SOL    HW125175   1.477   1.755   4.107
 8092SOL    HW225176   1.412   1.755   3.957
 8093SOL     OW25177   5.663   5.854   1.298
 8093SOL    HW125178   5.639   5.847   1.394
 8093SOL    HW225179   5.750   5.901   1.288
 8094SOL     OW25180   0.655   3.519   5.890
 8094SOL    HW125181   0.569   3.478   5.858
 8094SOL    HW225182   0.635   3.591   5.956
 8095SOL     OW25183   5.379   3.855   4.090
 8095SOL    HW125184   5.322   3.794   4.145
 8095SOL    HW225185   5.424   3.922   4.149
 8096SOL     OW25186   3.782   5.852   1.616
 8096SOL    HW125187   3.814   5.910   1.541
 8096SOL    HW225188   3.835   5.872   1.698
 8097SOL     OW25189   5.066   1.290   3.861
 8097SOL    HW125190   5.019   1.208   3.830
 8097SOL    HW225191   5.108   1.337   3.783
 8098SOL     OW25192   2.943   6.479   3.758
 8098SOL    HW125193   3.023   6.509   3.811
 8098SOL    HW225194   2.926   6.382   3.777
 8099SOL     OW25195   5.021   6.393   5.022
 8099SOL    HW125196   5.075   6.331   4.965
 8099SOL    HW225197   4.926   6.393   4.990
 8100SOL     OW25198   0.344   6.437   1.167
 8100SOL    HW125199   0.318   6.522   1.211
 8100SOL    HW225200   0.418   6.393   1.218
 8101SOL     OW25201   1.477   5.940   3.438
 8101SOL    HW125202   1.399   6.000   3.455
 8101SOL    HW225203   1.467   5.898   3.347
 8102SOL     OW25204   0.003   5.803   5.890
 8102SOL    HW125205   7.000   5.822   5.986
 8102SOL    HW225206   6.938   5.813   5.835
 8103SOL     OW25207   3.070   1.286   2.723
 8103SOL    HW125208   3.019   1.200   2.724
 8103SOL    HW225209   3.113   1.298   2.634
 8104SOL     OW25210   2.643   6.822   6.271
 8104SOL    HW125211   2.633   6.727   6.300
 8104SOL    HW225212   2.723   6.831   6.212
 8105SOL     OW25213   2.050   2.088   2.867
 8105SOL    HW125214   2.112   2.089   2.946
 8105SOL    HW225215   2.076   2.013   2.806
 8106SOL     OW25216   0.713   3.818   4.352
 8106SOL    HW125217   0.669   3.894   4.401
 8106SOL    HW225218   0.687   3.823   4.255
 8107SOL     OW25219   1.858   6.193   6.039
 8107SOL    HW125220   1.873   6.163   5.944
 8107SOL    HW225221   1.848   6.113   6.098
 8108SOL     OW25222   1.145   3.131   4.056
 8108SOL    HW125223   1.094   3.082   3.986
 8108SOL    HW225224   1.218   3.072   4.092
 8109SOL     OW25225   1.752   5.343   4.962
 8109SOL    HW125226   1.659   5.340   4.925
 8109SOL    HW225227   1.817   5.333   4.887
 8110SOL     OW25228   2.198   4.591   1.454
 8110SOL    HW125229   2.152   4.572   1.368
 8110SOL    HW225230   2.151   4.667   1.500
 8111SOL     OW25231   2.538   5.399   4.121
 8111SOL    HW125232   2.447   5.439   4.124
 8111SOL    HW225233   2.602   5.462   4.077
 8112SOL     OW25234   2.991   1.075   5.123
 8112SOL    HW125235   2.959   1.092   5.030
 8112SOL    HW225236   2.913   1.073   5.185
 8113SOL     OW25237   3.634   2.726   5.871
 8113SOL    HW125238   3.544   2.748   5.834
 8113SOL    HW225239   3.700   2.717   5.796
 8114SOL     OW25240   2.730   3.437   1.278
 8114SOL    HW125241   2.712   3.369   1.349
 8114SOL    HW225242   2.654   3.502   1.274
 8115SOL     OW25243   3.781   1.167   0.923
 8115SOL    HW125244   3.701   1.109   0.944
 8115SOL    HW225245   3.752   1.262   0.914
 8116SOL     OW25246   6.236   0.599   5.130
 8116SOL    HW125247   6.156   0.598   5.190
 8116SOL    HW225248   6.210   0.628   5.038
 8117SOL     OW25249   2.100   1.642   5.861
 8117SOL    HW125250   2.086   1.545   5.840
 8117SOL    HW225251   2.101   1.695   5.776
 8118SOL     OW25252   0.868   3.299   4.875
 8118SOL    HW125253   0.946   3.248   4.913
 8118SOL    HW225254   0.783   3.255   4.902
 8119SOL     OW25255   1.421   6.406   2.919
 8119SOL    HW125256   1.395   6.354   2.838
 8119SOL    HW225257   1.457   6.343   2.988
 8120SOL     OW25258   4.340   3.828   1.722
 8120SOL    HW125259   4.439   3.840   1.717
 8120SOL    HW225260   4.297   3.918   1.729
 8121SOL     OW25261   6.404   0.208   2.856
 8121SOL    HW125262   6.326   0.231   2.797
 8121SOL    HW225263   6.489   0.234   2.811
 8122SOL     OW25264   6.748   6.746   2.146
 8122SOL    HW125265   6.751   6.649   2.125
 8122SOL    HW225266   6.772   6.799   2.064
 8123SOL     OW25267   1.148   6.043   0.197
 8123SOL    HW125268   1.137   6.037   0.296
 8123SOL    HW225269   1.111   6.130   0.165
 8124SOL     OW25270   0.997   5.982   2.736
 8124SOL    HW125271   1.051   6.046   2.683
 8124SOL    HW225272   0.965   6.026   2.820
 8125SOL     OW25273   5.475   5.557   2.938
 8125SOL    HW125274   5.495   5.638   2.884
 8125SOL    HW225275   5.378   5.534   2.930
 8126SOL     OW25276   5.885   4.884   2.196
 8126SOL    HW125277   5.878   4.818   2.121
 8126SOL    HW225278   5.816   4.864   2.265
 8127SOL     OW25279   2.742   4.680   0.465
 8127SOL    HW125280   2.772   4.692   0.560
 8127SOL    HW225281   2.706   4.766   0.430
 8128SOL     OW25282   4.006   2.439   5.402
 8128SOL    HW125283   4.071   2.363   5.392
 8128SOL    HW225284   4.029   2.512   5.338
 8129SOL     OW25285   4.865   6.702   6.740
 8129SOL    HW125286   4.949   6.649   6.751
 8129SOL    HW225287   4.786   6.642   6.756
 8130SOL     OW25288   1.942   6.415   0.605
 8130SOL    HW125289   1.917   6.404   0.509
 8130SOL    HW225290   1.934   6.511   0.631
 8131SOL     OW25291   1.635   1.719   0.758
 8131SOL    HW125292   1.689   1.649   0.712
 8131SOL    HW225293   1.693   1.771   0.820
 8132SOL     OW25294   6.647   4.921   3.738
 8132SOL    HW125295   6.692   4.972   3.813
 8132SOL    HW225296   6.640   4.980   3.658
 8133SOL     OW25297   1.186   5.528   2.046
 8133SOL    HW125298   1.274   5.527   1.998
 8133SOL    HW225299   1.133   5.447   2.020
 8134SOL     OW25300   2.008   2.228   2.406
 8134SOL    HW125301   1.998   2.302   2.340
 8134SOL    HW225302   2.052   2.263   2.488
 8135SOL     OW25303   4.468   5.898   1.576
 8135SOL    HW125304   4.400   5.944   1.633
 8135SOL    HW225305   4.481   5.804   1.608
 8136SOL     OW25306   3.921   6.028   1.434
 8136SOL    HW125307   3.915   6.124   1.409
 8136SOL    HW225308   3.988   6.017   1.508
 8137SOL     OW25309   2.526   3.953   5.578
 8137SOL    HW125310   2.526   4.033   5.639
 8137SOL    HW225311   2.483   3.876   5.625
 8138SOL     OW25312   4.963   1.037   3.787
 8138SOL    HW125313   4.922   0.990   3.709
 8138SOL    HW225314   4.918   1.007   3.871
 8139SOL     OW25315   1.986   2.738   3.804
 8139SOL    HW125316   1.993   2.808   3.733
 8139SOL    HW225317   2.072   2.735   3.856
 8140SOL     OW25318   4.014   0.240   0.953
 8140SOL    HW125319   4.092   0.178   0.947
 8140SOL    HW225320   3.968   0.227   1.041
 8141SOL     OW25321   4.863   1.010   5.081
 8141SOL    HW125322   4.832   1.032   4.988
 8141SOL    HW225323   4.920   1.085   5.115
 8142SOL     OW25324   2.105   6.002   1.102
 8142SOL    HW125325   2.196   5.965   1.122
 8142SOL    HW225326   2.114   6.099   1.079
 8143SOL     OW25327   6.350   5.110   0.503
 8143SOL    HW125328   6.319   5.058   0.583
 8143SOL    HW225329   6.442   5.144   0.519
 8144SOL     OW25330   6.948   5.088   6.626
 8144SOL    HW125331   6.931   5.095   6.528
 8144SOL    HW225332   6.961   4.992   6.651
 8145SOL     OW25333   5.474   5.345   0.107
 8145SOL    HW125334   5.448   5.440   0.122
 8145SOL    HW225335   5.458   5.292   0.190
 8146SOL     OW25336   5.963   0.470   4.088
 8146SOL    HW125337   6.045   0.525   4.105
 8146SOL    HW225338   5.982   0.402   4.018
 8147SOL     OW25339   1.794   1.015   6.631
 8147SOL    HW125340   1.854   1.091   6.604
 8147SOL    HW225341   1.702   1.050   6.647
 8148SOL     OW25342   4.686   5.207   0.208
 8148SOL    HW125343   4.624   5.230   0.283
 8148SOL    HW225344   4.633   5.187   0.125
 8149SOL     OW25345   0.710   5.991   5.157
 8149SOL    HW125346   0.748   5.918   5.213
 8149SOL    HW225347   0.782   6.033   5.102
 8150SOL     OW25348   0.601   3.477   1.049
 8150SOL    HW125349   0.677   3.436   1.100
 8150SOL    HW225350   0.517   3.429   1.072
 8151SOL     OW25351   6.432   5.820   2.940
 8151SOL    HW125352   6.474   5.909   2.959
 8151SOL    HW225353   6.449   5.794   2.845
 8152SOL     OW25354   4.478   1.404   3.797
 8152SOL    HW125355   4.482   1.499   3.763
 8152SOL    HW225356   4.386   1.368   3.781
 8153SOL     OW25357   0.303   1.415   2.255
 8153SOL    HW125358   0.217   1.465   2.263
 8153SOL    HW225359   0.307   1.369   2.166
 8154SOL     OW25360   1.873   0.408   2.566
 8154SOL    HW125361   1.916   0.395   2.655
 8154SOL    HW225362   1.786   0.359   2.563
 8155SOL     OW25363   2.127   5.292   3.284
 8155SOL    HW125364   2.185   5.215   3.259
 8155SOL    HW225365   2.153   5.372   3.229
 8156SOL     OW25366   6.933   5.276   1.838
 8156SOL    HW125367   6.961   5.249   1.745
 8156SOL    HW225368   6.932   5.196   1.897
 8157SOL     OW25369   0.511   3.329   5.297
 8157SOL    HW125370   0.586   3.384   5.260
 8157SOL    HW225371   0.543   3.235   5.313
 8158SOL     OW25372   6.017   5.328   0.031
 8158SOL    HW125373   5.983   5.285   6.966
 8158SOL    HW225374   6.003   5.266   0.109
 8159SOL     OW25375   3.304   6.512   5.536
 8159SOL    HW125376   3.222   6.523   5.480
 8159SOL    HW225377   3.352   6.600   5.542
 8160SOL     OW25378   5.252   1.128   3.455
 8160SOL    HW125379   5.266   1.089   3.545
 8160SOL    HW225380   5.213   1.059   3.394
 8161SOL     OW25381   5.780   2.910   1.426
 8161SOL    HW125382   5.697   2.856   1.418
 8161SOL    HW225383   5.760   2.996   1.474
 8162SOL     OW25384   0.382   5.523   6.032
 8162SOL    HW125385   0.470   5.547   5.992
 8162SOL    HW225386   0.380   5.426   6.054
 8163SOL     OW25387   4.604   4.308   5.151
 8163SOL    HW125388   4.689   4.333   5.104
 8163SOL    HW225389   4.620   4.226   5.206
 8164SOL     OW25390   4.750   1.679   0.752
 8164SOL    HW125391   4.738   1.590   0.795
 8164SOL    HW225392   4.830   1.724   0.791
 8165SOL     OW25393   7.005   1.595   0.082
 8165SOL    HW125394   0.017   1.660   0.012
 8165SOL    HW225395   6.931   1.539   0.046
 8166SOL     OW25396   1.966   1.675   5.339
 8166SOL    HW125397   2.059   1.661   5.373
 8166SOL    HW225398   1.903   1.619   5.393
 8167SOL     OW25399   1.461   2.506   4.587
 8167SOL    HW125400   1.474   2.522   4.685
 8167SOL    HW225401   1.521   2.566   4.535
 8168SOL     OW25402   2.362   1.023   1.980
 8168SOL    HW125403   2.286   1.018   1.916
 8168SOL    HW225404   2.438   1.073   1.939
 8169SOL     OW25405   5.306   2.463   0.335
 8169SOL    HW125406   5.334   2.468   0.239
 8169SOL    HW225407   5.207   2.451   0.340
 8170SOL     OW25408   6.291   5.335   2.398
 8170SOL    HW125409   6.230   5.353   2.475
 8170SOL    HW225410   6.326   5.241   2.406
 8171SOL     OW25411   1.830   1.041   1.271
 8171SOL    HW125412   1.805   0.969   1.206
 8171SOL    HW225413   1.782   1.126   1.247
 8172SOL     OW25414   0.817   2.457   0.738
 8172SOL    HW125415   0.832   2.360   0.722
 8172SOL    HW225416   0.721   2.479   0.723
 8173SOL     OW25417   5.933   1.037   1.956
 8173SOL    HW125418   5.841   1.039   1.917
 8173SOL    HW225419   5.963   1.130   1.975
 8174SOL     OW25420   2.761   4.667   3.059
 8174SOL    HW125421   2.726   4.710   2.976
 8174SOL    HW225422   2.854   4.699   3.077
 8175SOL     OW25423   0.179   1.349   5.013
 8175SOL    HW125424   0.229   1.327   4.930
 8175SOL    HW225425   0.116   1.275   5.036
 8176SOL     OW25426   2.319   4.065   0.657
 8176SOL    HW125427   2.228   4.029   0.638
 8176SOL    HW225428   2.383   3.989   0.669
 8177SOL     OW25429   3.788   0.792   3.344
 8177SOL    HW125430   3.859   0.781   3.413
 8177SOL    HW225431   3.713   0.729   3.363
 8178SOL     OW25432   2.216   6.536   1.657
 8178SOL    HW125433   2.157   6.604   1.699
 8178SOL    HW225434   2.188   6.522   1.562
 8179SOL     OW25435   5.977   1.245   3.325
 8179SOL    HW125436   5.989   1.298   3.410
 8179SOL    HW225437   5.897   1.186   3.334
 8180SOL     OW25438   5.092   6.403   0.013
 8180SOL    HW125439   5.098   6.468   0.089
 8180SOL    HW225440   5.008   6.351   0.020
 8181SOL     OW25441   0.638   0.816   0.952
 8181SOL    HW125442   0.570   0.794   1.022
 8181SOL    HW225443   0.632   0.914   0.930
 8182SOL     OW25444   2.951   3.726   4.723
 8182SOL    HW125445   2.902   3.648   4.683
 8182SOL    HW225446   2.893   3.770   4.792
 8183SOL     OW25447   0.567   0.501   5.147
 8183SOL    HW125448   0.509   0.569   5.191
 8183SOL    HW225449   0.519   0.414   5.141
 8184SOL     OW25450   0.367   6.487   6.654
 8184SOL    HW125451   0.434   6.517   6.722
 8184SOL    HW225452   0.398   6.400   6.614
 8185SOL     OW25453   0.706   5.777   6.676
 8185SOL    HW125454   0.726   5.764   6.578
 8185SOL    HW225455   0.678   5.872   6.692
 8186SOL     OW25456   1.310   5.524   6.770
 8186SOL    HW125457   1.234   5.588   6.757
 8186SOL    HW225458   1.353   5.505   6.682
 8187SOL     OW25459   0.455   0.875   5.547
 8187SOL    HW125460   0.375   0.930   5.569
 8187SOL    HW225461   0.459   0.795   5.607
 8188SOL     OW25462   2.058   2.616   3.424
 8188SOL    HW125463   2.127   2.687   3.411
 8188SOL    HW225464   2.103   2.531   3.452
 8189SOL     OW25465   5.749   5.120   3.901
 8189SOL    HW125466   5.765   5.197   3.840
 8189SOL    HW225467   5.719   5.153   3.991
 8190SOL     OW25468   6.479   3.508   3.242
 8190SOL    HW125469   6.518   3.421   3.211
 8190SOL    HW225470   6.394   3.526   3.194
 8191SOL     OW25471   3.137   5.637   0.979
 8191SOL    HW125472   3.156   5.595   0.891
 8191SOL    HW225473   3.117   5.567   1.047
 8192SOL     OW25474   0.660   5.186   3.321
 8192SOL    HW125475   0.700   5.245   3.251
 8192SOL    HW225476   0.716   5.104   3.333
 8193SOL     OW25477   0.528   4.340   4.631
 8193SOL    HW125478   0.595   4.397   4.678
 8193SOL    HW225479   0.482   4.394   4.561
 8194SOL     OW25480   4.658   6.561   1.532
 8194SOL    HW125481   4.704   6.548   1.445
 8194SOL    HW225482   4.596   6.484   1.550
 8195SOL     OW25483   5.765   6.349   3.014
 8195SOL    HW125484   5.817   6.392   2.940
 8195SOL    HW225485   5.829   6.310   3.080
 8196SOL     OW25486   5.067   0.719   0.543
 8196SOL    HW125487   5.031   0.780   0.472
 8196SOL    HW225488   5.102   0.636   0.500
 8197SOL     OW25489   4.256   1.513   2.658
 8197SOL    HW125490   4.173   1.459   2.670
 8197SOL    HW225491   4.272   1.529   2.560
 8198SOL     OW25492   1.358   0.071   2.249
 8198SOL    HW125493   1.405   7.002   2.235
 8198SOL    HW225494   1.348   0.117   2.161
 8199SOL     OW25495   5.732   2.979   6.215
 8199SOL    HW125496   5.744   2.895   6.163
 8199SOL    HW225497   5.815   3.034   6.209
 8200SOL     OW25498   4.410   2.697   1.015
 8200SOL    HW125499   4.485   2.690   1.081
 8200SOL    HW225500   4.339   2.757   1.052
 8201SOL     OW25501   6.856   6.819   5.159
 8201SOL    HW125502   6.920   6.865   5.098
 8201SOL    HW225503   6.834   6.728   5.124
 8202SOL     OW25504   0.730   6.530   1.907
 8202SOL    HW125505   0.785   6.522   1.991
 8202SOL    HW225506   0.774   6.593   1.844
 8203SOL     OW25507   1.122   3.778   1.252
 8203SOL    HW125508   1.124   3.737   1.344
 8203SOL    HW225509   1.216   3.789   1.219
 8204SOL     OW25510   3.186   2.896   1.027
 8204SOL    HW125511   3.173   2.950   1.111
 8204SOL    HW225512   3.283   2.875   1.016
 8205SOL     OW25513   0.908   3.752   0.540
 8205SOL    HW125514   0.940   3.773   0.633
 8205SOL    HW225515   0.816   3.789   0.527
 8206SOL     OW25516   3.893   0.718   0.014
 8206SOL    HW125517   3.971   0.682   0.066
 8206SOL    HW225518   3.843   0.783   0.071
 8207SOL     OW25519   3.857   3.092   4.927
 8207SOL    HW125520   3.763   3.124   4.925
 8207SOL    HW225521   3.899   3.102   4.837
 8208SOL     OW25522   2.514   0.721   0.739
 8208SOL    HW125523   2.490   0.639   0.687
 8208SOL    HW225524   2.494   0.707   0.836
 8209SOL     OW25525   6.267   1.013   5.249
 8209SOL    HW125526   6.170   0.998   5.229
 8209SOL    HW225527   6.283   1.111   5.262
 8210SOL     OW25528   1.516   2.924   0.166
 8210SOL    HW125529   1.532   2.856   0.238
 8210SOL    HW225530   1.536   3.015   0.202
 8211SOL     OW25531   3.165   4.479   1.171
 8211SOL    HW125532   3.122   4.566   1.193
 8211SOL    HW225533   3.263   4.485   1.187
 8212SOL     OW25534   1.818   2.508   3.779
 8212SOL    HW125535   1.864   2.435   3.729
 8212SOL    HW225536   1.871   2.592   3.772
 8213SOL     OW25537   6.998   5.196   1.573
 8213SOL    HW125538   0.012   5.101   1.569
 8213SOL    HW225539   0.049   5.256   1.533
 8214SOL     OW25540   5.199   4.291   3.128
 8214SOL    HW125541   5.149   4.377   3.116
 8214SOL    HW225542   5.136   4.214   3.118
 8215SOL     OW25543   3.507   5.829   4.525
 8215SOL    HW125544   3.498   5.771   4.605
 8215SOL    HW225545   3.453   5.912   4.538
 8216SOL     OW25546   4.731   4.449   3.710
 8216SOL    HW125547   4.765   4.362   3.675
 8216SOL    HW225548   4.798   4.521   3.689
 8217SOL     OW25549   2.307   5.882   0.124
 8217SOL    HW125550   2.243   5.835   0.185
 8217SOL    HW225551   2.292   5.852   0.030
 8218SOL     OW25552   0.528   1.420   0.311
 8218SOL    HW125553   0.440   1.445   0.352
 8218SOL    HW225554   0.602   1.459   0.366
 8219SOL     OW25555   6.336   2.011   6.688
 8219SOL    HW125556   6.272   2.042   6.758
 8219SOL    HW225557   6.421   2.063   6.694
 8220SOL     OW25558   3.606   3.626   2.636
 8220SOL    HW125559   3.666   3.547   2.621
 8220SOL    HW225560   3.640   3.680   2.713
 8221SOL     OW25561   5.050   5.614   3.684
 8221SOL    HW125562   5.128   5.633   3.625
 8221SOL    HW225563   4.982   5.560   3.634
 8222SOL     OW25564   5.291   1.747   2.381
 8222SOL    HW125565   5.243   1.834   2.384
 8222SOL    HW225566   5.389   1.761   2.394
 8223SOL     OW25567   0.537   4.746   6.320
 8223SOL    HW125568   0.613   4.794   6.277
 8223SOL    HW225569   0.535   4.651   6.290
 8224SOL     OW25570   1.386   2.697   4.042
 8224SOL    HW125571   1.384   2.705   3.942
 8224SOL    HW225572   1.476   2.665   4.071
 8225SOL     OW25573   4.803   1.190   6.818
 8225SOL    HW125574   4.865   1.165   6.891
 8225SOL    HW225575   4.856   1.220   6.738
 8226SOL     OW25576   5.214   0.411   0.850
 8226SOL    HW125577   5.128   0.458   0.834
 8226SOL    HW225578   5.282   0.476   0.884
 8227SOL     OW25579   6.528   3.167   3.588
 8227SOL    HW125580   6.570   3.078   3.606
 8227SOL    HW225581   6.449   3.155   3.527
 8228SOL     OW25582   6.627   2.810   5.347
 8228SOL    HW125583   6.692   2.825   5.272
 8228SOL    HW225584   6.624   2.891   5.405
 8229SOL     OW25585   3.940   4.946   7.002
 8229SOL    HW125586   3.889   4.920   0.065
 8229SOL    HW225587   3.983   5.035   7.016
 8230SOL     OW25588   5.486   0.618   4.509
 8230SOL    HW125589   5.521   0.676   4.436
 8230SOL    HW225590   5.562   0.585   4.565
 8231SOL     OW25591   5.033   6.127   0.749
 8231SOL    HW125592   5.026   6.028   0.762
 8231SOL    HW225593   5.038   6.147   0.651
 8232SOL     OW25594   3.771   2.104   6.562
 8232SOL    HW125595   3.702   2.054   6.509
 8232SOL    HW225596   3.753   2.093   6.660
 8233SOL     OW25597   0.670   5.312   6.418
 8233SOL    HW125598   0.676   5.212   6.414
 8233SOL    HW225599   0.575   5.340   6.403
 8234SOL     OW25600   2.892   2.855   6.810
 8234SOL    HW125601   2.892   2.787   6.884
 8234SOL    HW225602   2.981   2.854   6.765
 8235SOL     OW25603   4.400   3.608   1.451
 8235SOL    HW125604   4.391   3.666   1.532
 8235SOL    HW225605   4.314   3.608   1.400
 8236SOL     OW25606   6.068   2.957   0.049
 8236SOL    HW125607   6.126   3.037   0.049
 8236SOL    HW225608   5.979   2.980   0.009
 8237SOL     OW25609   4.144   6.258   5.344
 8237SOL    HW125610   4.074   6.297   5.404
 8237SOL    HW225611   4.188   6.332   5.293
 8238SOL     OW25612   1.989   2.509   6.343
 8238SOL    HW125613   2.005   2.605   6.319
 8238SOL    HW225614   1.892   2.487   6.331
 8239SOL     OW25615   0.245   1.474   5.889
 8239SOL    HW125616   0.276   1.444   5.979
 8239SOL    HW225617   0.273   1.406   5.820
 8240SOL     OW25618   3.114   4.021   3.130
 8240SOL    HW125619   3.027   4.071   3.127
 8240SOL    HW225620   3.169   4.045   3.050
 8241SOL     OW25621   3.920   6.786   7.006
 8241SOL    HW125622   3.923   6.713   6.938
 8241SOL    HW225623   3.880   6.750   0.072
 8242SOL     OW25624   1.027   4.432   5.536
 8242SOL    HW125625   1.075   4.398   5.455
 8242SOL    HW225626   1.021   4.360   5.604
 8243SOL     OW25627   1.063   3.522   5.716
 8243SOL    HW125628   1.160   3.498   5.712
 8243SOL    HW225629   1.045   3.596   5.651
 8244SOL     OW25630   0.663   6.527   4.125
 8244SOL    HW125631   0.624   6.439   4.097
 8244SOL    HW225632   0.591   6.585   4.162
 8245SOL     OW25633   3.917   2.205   0.848
 8245SOL    HW125634   3.985   2.132   0.839
 8245SOL    HW225635   3.953   2.277   0.908
 8246SOL     OW25636   5.364   3.608   5.968
 8246SOL    HW125637   5.271   3.612   6.004
 8246SOL    HW225638   5.420   3.548   6.025
 8247SOL     OW25639   0.771   0.097   1.604
 8247SOL    HW125640   0.863   0.062   1.587
 8247SOL    HW225641   0.726   0.116   1.517
 8248SOL     OW25642   5.360   4.552   3.467
 8248SOL    HW125643   5.414   4.475   3.503
 8248SOL    HW225644   5.284   4.570   3.529
 8249SOL     OW25645   1.925   4.841   3.829
 8249SOL    HW125646   1.953   4.937   3.842
 8249SOL    HW225647   1.976   4.783   3.892
 8250SOL     OW25648   4.010   3.785   2.664
 8250SOL    HW125649   3.933   3.778   2.600
 8250SOL    HW225650   3.975   3.789   2.758
 8251SOL     OW25651   5.476   1.973   4.675
 8251SOL    HW125652   5.530   1.899   4.715
 8251SOL    HW225653   5.522   2.008   4.593
 8252SOL     OW25654   2.095   2.501   5.536
 8252SOL    HW125655   2.131   2.592   5.516
 8252SOL    HW225656   2.059   2.499   5.630
 8253SOL     OW25657   3.155   2.924   5.037
 8253SOL    HW125658   3.111   3.014   5.041
 8253SOL    HW225659   3.133   2.879   4.951
 8254SOL     OW25660   3.844   4.932   3.722
 8254SOL    HW125661   3.925   4.873   3.729
 8254SOL    HW225662   3.763   4.877   3.706
 8255SOL     OW25663   4.190   5.952   4.059
 8255SOL    HW125664   4.255   5.892   4.104
 8255SOL    HW225665   4.235   6.039   4.035
 8256SOL     OW25666   6.604   1.480   4.668
 8256SOL    HW125667   6.697   1.490   4.703
 8256SOL    HW225668   6.545   1.551   4.708
 8257SOL     OW25669   5.942   5.127   3.468
 8257SOL    HW125670   5.918   5.094   3.377
 8257SOL    HW225671   5.905   5.065   3.538
 8258SOL     OW25672   4.278   1.527   7.000
 8258SOL    HW125673   4.327   1.596   0.036
 8258SOL    HW225674   4.187   1.513   0.021
 8259SOL     OW25675   3.509   2.129   3.280
 8259SOL    HW125676   3.492   2.157   3.374
 8259SOL    HW225677   3.554   2.040   3.279
 8260SOL     OW25678   3.350   6.719   0.333
 8260SOL    HW125679   3.330   6.674   0.246
 8260SOL    HW225680   3.409   6.660   0.388
 8261SOL     OW25681   5.219   1.118   1.564
 8261SOL    HW125682   5.179   1.207   1.586
 8261SOL    HW225683   5.278   1.089   1.639
 8262SOL     OW25684   1.206   3.213   1.883
 8262SOL    HW125685   1.297   3.226   1.921
 8262SOL    HW225686   1.201   3.123   1.838
 8263SOL     OW25687   6.265   1.534   1.160
 8263SOL    HW125688   6.257   1.627   1.125
 8263SOL    HW225689   6.351   1.524   1.209
 8264SOL     OW25690   1.684   5.226   2.749
 8264SOL    HW125691   1.730   5.291   2.689
 8264SOL    HW225692   1.670   5.267   2.838
 8265SOL     OW25693   1.777   0.656   1.889
 8265SOL    HW125694   1.813   0.676   1.979
 8265SOL    HW225695   1.695   0.599   1.897
 8266SOL     OW25696   3.531   6.485   2.501
 8266SOL    HW125697   3.458   6.418   2.488
 8266SOL    HW225698   3.498   6.562   2.555
 8267SOL     OW25699   1.401   3.540   1.397
 8267SOL    HW125700   1.419   3.621   1.453
 8267SOL    HW225701   1.392   3.567   1.301
 8268SOL     OW25702   2.487   6.525   5.679
 8268SOL    HW125703   2.506   6.606   5.623
 8268SOL    HW225704   2.466   6.553   5.773
 8269SOL     OW25705   5.689   1.576   1.366
 8269SOL    HW125706   5.707   1.502   1.431
 8269SOL    HW225707   5.752   1.569   1.289
 8270SOL     OW25708   3.410   6.461   3.674
 8270SOL    HW125709   3.492   6.473   3.619
 8270SOL    HW225710   3.366   6.375   3.651
 8271SOL     OW25711   6.893   1.596   2.912
 8271SOL    HW125712   6.950   1.533   2.966
 8271SOL    HW225713   6.885   1.562   2.818
 8272SOL     OW25714   3.923   1.042   2.788
 8272SOL    HW125715   3.874   1.095   2.719
 8272SOL    HW225716   3.858   0.992   2.845
 8273SOL     OW25717   2.834   6.908   1.022
 8273SOL    HW125718   2.840   6.842   0.947
 8273SOL    HW225719   2.803   6.861   1.105
 8274SOL     OW25720   5.029   5.376   2.836
 8274SOL    HW125721   4.962   5.446   2.810
 8274SOL    HW225722   4.994   5.326   2.915
 8275SOL     OW25723   5.115   1.931   5.958
 8275SOL    HW125724   5.124   1.887   6.047
 8275SOL    HW225725   5.121   2.030   5.969
 8276SOL     OW25726   1.045   2.136   3.712
 8276SOL    HW125727   0.952   2.109   3.685
 8276SOL    HW225728   1.111   2.093   3.649
 8277SOL     OW25729   0.074   0.109   6.881
 8277SOL    HW125730   0.156   0.062   6.914
 8277SOL    HW225731   0.071   0.202   6.917
 8278SOL     OW25732   2.297   2.301   0.636
 8278SOL    HW125733   2.356   2.379   0.654
 8278SOL    HW225734   2.352   2.221   0.615
 8279SOL     OW25735   0.845   6.498   4.319
 8279SOL    HW125736   0.810   6.414   4.361
 8279SOL    HW225737   0.790   6.520   4.238
 8280SOL     OW25738   3.434   2.578   5.645
 8280SOL    HW125739   3.347   2.544   5.609
 8280SOL    HW225740   3.474   2.643   5.579
 8281SOL     OW25741   0.053   6.112   1.684
 8281SOL    HW125742   0.011   6.021   1.682
 8281SOL    HW225743   0.131   6.111   1.747
 8282SOL     OW25744   5.434   2.629   5.742
 8282SOL    HW125745   5.361   2.637   5.810
 8282SOL    HW225746   5.402   2.669   5.655
 8283SOL     OW25747   1.949   3.812   5.877
 8283SOL    HW125748   1.922   3.804   5.781
 8283SOL    HW225749   2.048   3.822   5.884
 8284SOL     OW25750   6.551   4.344   2.196
 8284SOL    HW125751   6.491   4.329   2.275
 8284SOL    HW225752   6.587   4.437   2.198
 8285SOL     OW25753   3.612   3.180   4.907
 8285SOL    HW125754   3.584   3.188   4.811
 8285SOL    HW225755   3.599   3.268   4.953
 8286SOL     OW25756   6.353   2.383   6.014
 8286SOL    HW125757   6.436   2.393   6.069
 8286SOL    HW225758   6.352   2.293   5.971
 8287SOL     OW25759   1.320   5.601   4.909
 8287SOL    HW125760   1.353   5.669   4.843
 8287SOL    HW225761   1.220   5.597   4.907
 8288SOL     OW25762   2.264   2.935   2.802
 8288SOL    HW125763   2.246   2.913   2.706
 8288SOL    HW225764   2.309   2.858   2.846
 8289SOL     OW25765   0.745   6.929   0.227
 8289SOL    HW125766   0.780   6.952   0.318
 8289SOL    HW225767   0.695   7.007   0.190
 8290SOL     OW25768   6.022   1.668   0.650
 8290SOL    HW125769   6.003   1.705   0.559
 8290SOL    HW225770   6.075   1.734   0.703
 8291SOL     OW25771   4.021   6.996   6.180
 8291SOL    HW125772   3.987   0.032   6.103
 8291SOL    HW225773   4.041   6.903   6.149
 8292SOL     OW25774   3.038   6.664   6.802
 8292SOL    HW125775   3.071   6.650   6.708
 8292SOL    HW225776   3.028   6.762   6.819
 8293SOL     OW25777   4.951   6.159   6.187
 8293SOL    HW125778   5.005   6.083   6.149
 8293SOL    HW225779   4.922   6.220   6.114
 8294SOL     OW25780   5.651   2.609   6.599
 8294SOL    HW125781   5.733   2.654   6.563
 8294SOL    HW225782   5.583   2.600   6.526
 8295SOL     OW25783   5.322   4.345   1.497
 8295SOL    HW125784   5.262   4.303   1.430
 8295SOL    HW225785   5.389   4.403   1.451
 8296SOL     OW25786   1.642   5.737   6.817
 8296SOL    HW125787   1.621   5.824   6.774
 8296SOL    HW225788   1.670   5.671   6.748
 8297SOL     OW25789   6.269   2.262   3.539
 8297SOL    HW125790   6.233   2.242   3.448
 8297SOL    HW225791   6.214   2.334   3.581
 8298SOL     OW25792   5.019   0.964   1.496
 8298SOL    HW125793   4.943   0.988   1.557
 8298SOL    HW225794   5.095   1.027   1.513
 8299SOL     OW25795   6.530   2.279   2.164
 8299SOL    HW125796   6.616   2.270   2.114
 8299SOL    HW225797   6.549   2.320   2.253
 8300SOL     OW25798   0.448   4.462   4.417
 8300SOL    HW125799   0.375   4.510   4.467
 8300SOL    HW225800   0.525   4.523   4.403
 8301SOL     OW25801   4.291   3.138   0.990
 8301SOL    HW125802   4.274   3.210   1.057
 8301SOL    HW225803   4.221   3.142   0.918
 8302SOL     OW25804   6.126   6.126   6.701
 8302SOL    HW125805   6.121   6.208   6.644
 8302SOL    HW225806   6.219   6.090   6.698
 8303SOL     OW25807   0.343   0.508   4.764
 8303SOL    HW125808   0.435   0.534   4.735
 8303SOL    HW225809   0.278   0.523   4.689
 8304SOL     OW25810   0.687   3.575   6.366
 8304SOL    HW125811   0.596   3.556   6.403
 8304SOL    HW225812   0.679   3.598   6.269
 8305SOL     OW25813   3.581   5.366   3.950
 8305SOL    HW125814   3.569   5.425   3.870
 8305SOL    HW225815   3.614   5.276   3.921
 8306SOL     OW25816   0.659   3.140   4.961
 8306SOL    HW125817   0.654   3.089   5.046
 8306SOL    HW225818   0.666   3.077   4.884
 8307SOL     OW25819   3.724   5.688   0.534
 8307SOL    HW125820   3.753   5.662   0.626
 8307SOL    HW225821   3.626   5.706   0.534
 8308SOL     OW25822   3.884   6.423   2.165
 8308SOL    HW125823   3.796   6.462   2.193
 8308SOL    HW225824   3.909   6.459   2.075
 8309SOL     OW25825   5.760   5.995   2.378
 8309SOL    HW125826   5.789   5.899   2.385
 8309SOL    HW225827   5.721   6.024   2.465
 8310SOL     OW25828   0.196   5.090   0.403
 8310SOL    HW125829   0.180   5.085   0.305
 8310SOL    HW225830   0.109   5.103   0.451
 8311SOL     OW25831   6.958   1.146   0.018
 8311SOL    HW125832   0.037   1.125   0.016
 8311SOL    HW225833   6.907   1.066   0.051
 8312SOL     OW25834   5.325   6.601   1.620
 8312SOL    HW125835   5.248   6.660   1.595
 8312SOL    HW225836   5.308   6.509   1.585
 8313SOL     OW25837   3.863   1.647   3.165
 8313SOL    HW125838   3.945   1.659   3.109
 8313SOL    HW225839   3.825   1.737   3.189
 8314SOL     OW25840   5.799   6.823   2.069
 8314SOL    HW125841   5.818   6.731   2.104
 8314SOL    HW225842   5.722   6.818   2.005
 8315SOL     OW25843   4.587   3.146   0.576
 8315SOL    HW125844   4.607   3.051   0.599
 8315SOL    HW225845   4.541   3.190   0.653
 8316SOL     OW25846   1.052   4.305   0.811
 8316SOL    HW125847   1.086   4.239   0.744
 8316SOL    HW225848   1.081   4.397   0.785
 8317SOL     OW25849   2.328   4.276   2.354
 8317SOL    HW125850   2.364   4.360   2.312
 8317SOL    HW225851   2.384   4.198   2.326
 8318SOL     OW25852   4.109   1.109   4.698
 8318SOL    HW125853   4.090   1.170   4.622
 8318SOL    HW225854   4.069   1.146   4.782
 8319SOL     OW25855   3.310   0.986   5.509
 8319SOL    HW125856   3.359   0.911   5.553
 8319SOL    HW225857   3.230   0.949   5.461
 8320SOL     OW25858   3.083   4.744   1.215
 8320SOL    HW125859   3.063   4.728   1.311
 8320SOL    HW225860   3.004   4.786   1.171
 8321SOL     OW25861   0.902   0.113   0.426
 8321SOL    HW125862   0.821   0.161   0.393
 8321SOL    HW225863   0.979   0.131   0.364
 8322SOL     OW25864   0.233   0.317   6.601
 8322SOL    HW125865   0.297   0.368   6.659
 8322SOL    HW225866   0.273   0.229   6.578
 8323SOL     OW25867   0.730   1.031   2.644
 8323SOL    HW125868   0.786   1.024   2.726
 8323SOL    HW225869   0.683   1.120   2.643
 8324SOL     OW25870   6.150   0.442   2.253
 8324SOL    HW125871   6.056   0.452   2.284
 8324SOL    HW225872   6.208   0.418   2.331
 8325SOL     OW25873   3.330   2.946   4.322
 8325SOL    HW125874   3.388   2.932   4.242
 8325SOL    HW225875   3.386   2.945   4.405
 8326SOL     OW25876   4.268   2.612   5.602
 8326SOL    HW125877   4.174   2.603   5.635
 8326SOL    HW225878   4.268   2.654   5.512
 8327SOL     OW25879   5.718   2.159   6.315
 8327SOL    HW125880   5.788   2.225   6.288
 8327SOL    HW225881   5.761   2.080   6.358
 8328SOL     OW25882   2.314   2.605   6.129
 8328SOL    HW125883   2.286   2.640   6.218
 8328SOL    HW225884   2.402   2.645   6.104
 8329SOL     OW25885   6.941   2.827   5.283
 8329SOL    HW125886   6.933   2.881   5.367
 8329SOL    HW225887   6.913   2.733   5.301
 8330SOL     OW25888   1.998   6.062   0.443
 8330SOL    HW125889   2.028   6.129   0.375
 8330SOL    HW225890   2.046   6.079   0.529
 8331SOL     OW25891   2.818   0.430   1.423
 8331SOL    HW125892   2.836   0.419   1.521
 8331SOL    HW225893   2.768   0.349   1.389
 8332SOL     OW25894   4.593   5.319   2.210
 8332SOL    HW125895   4.495   5.305   2.222
 8332SOL    HW225896   4.638   5.230   2.202
 8333SOL     OW25897   0.574   6.009   0.362
 8333SOL    HW125898   0.530   6.058   0.437
 8333SOL    HW225899   0.668   5.985   0.389
 8334SOL     OW25900   6.514   2.160   3.924
 8334SOL    HW125901   6.446   2.095   3.890
 8334SOL    HW225902   6.600   2.148   3.874
 8335SOL     OW25903   6.023   5.782   5.954
 8335SOL    HW125904   5.958   5.856   5.936
 8335SOL    HW225905   6.036   5.729   5.870
 8336SOL     OW25906   0.762   1.748   1.502
 8336SOL    HW125907   0.861   1.757   1.508
 8336SOL    HW225908   0.725   1.717   1.590
 8337SOL     OW25909   0.739   6.554   2.487
 8337SOL    HW125910   0.837   6.569   2.497
 8337SOL    HW225911   0.696   6.552   2.578
 8338SOL     OW25912   1.628   4.499   1.243
 8338SOL    HW125913   1.710   4.494   1.299
 8338SOL    HW225914   1.567   4.571   1.277
 8339SOL     OW25915   5.549   1.387   2.410
 8339SOL    HW125916   5.643   1.363   2.386
 8339SOL    HW225917   5.513   1.320   2.476
 8340SOL     OW25918   4.876   3.907   0.797
 8340SOL    HW125919   4.873   3.866   0.706
 8340SOL    HW225920   4.818   3.989   0.799
 8341SOL     OW25921   2.265   6.619   0.933
 8341SOL    HW125922   2.224   6.621   0.842
 8341SOL    HW225923   2.306   6.708   0.953
 8342SOL     OW25924   4.047   0.811   0.440
 8342SOL    HW125925   4.032   0.826   0.538
 8342SOL    HW225926   4.057   0.899   0.393
 8343SOL     OW25927   1.377   5.488   6.174
 8343SOL    HW125928   1.416   5.428   6.104
 8343SOL    HW225929   1.323   5.560   6.130
 8344SOL     OW25930   4.376   6.526   6.097
 8344SOL    HW125931   4.371   6.534   5.997
 8344SOL    HW225932   4.412   6.611   6.135
 8345SOL     OW25933   5.954   1.516   2.863
 8345SOL    HW125934   5.889   1.536   2.790
 8345SOL    HW225935   6.010   1.437   2.837
 8346SOL     OW25936   2.621   4.803   1.152
 8346SOL    HW125937   2.618   4.704   1.167
 8346SOL    HW225938   2.585   4.825   1.061
 8347SOL     OW25939   3.339   6.929   5.354
 8347SOL    HW125940   3.364   6.847   5.302
 8347SOL    HW225941   3.342   7.009   5.294
 8348SOL     OW25942   1.141   0.842   1.350
 8348SOL    HW125943   1.130   0.803   1.259
 8348SOL    HW225944   1.070   0.807   1.411
 8349SOL     OW25945   5.961   3.750   0.998
 8349SOL    HW125946   6.031   3.755   1.069
 8349SOL    HW225947   6.001   3.715   0.913
 8350SOL     OW25948   6.147   1.341   5.514
 8350SOL    HW125949   6.106   1.267   5.461
 8350SOL    HW225950   6.213   1.303   5.579
 8351SOL     OW25951   3.018   5.984   3.784
 8351SOL    HW125952   3.016   5.971   3.884
 8351SOL    HW225953   3.090   6.049   3.761
 8352SOL     OW25954   6.790   6.362   2.547
 8352SOL    HW125955   6.778   6.327   2.454
 8352SOL    HW225956   6.793   6.285   2.611
 8353SOL     OW25957   6.795   3.298   2.455
 8353SOL    HW125958   6.878   3.312   2.510
 8353SOL    HW225959   6.714   3.310   2.512
 8354SOL     OW25960   3.135   1.402   6.755
 8354SOL    HW125961   3.056   1.386   6.696
 8354SOL    HW225962   3.213   1.349   6.721
 8355SOL     OW25963   3.741   0.143   6.648
 8355SOL    HW125964   3.702   0.061   6.608
 8355SOL    HW225965   3.668   0.202   6.683
 8356SOL     OW25966   1.792   5.749   0.282
 8356SOL    HW125967   1.714   5.693   0.252
 8356SOL    HW225968   1.874   5.693   0.285
 8357SOL     OW25969   3.889   5.567   4.992
 8357SOL    HW125970   3.874   5.499   4.921
 8357SOL    HW225971   3.832   5.546   5.071
 8358SOL     OW25972   2.019   2.772   5.721
 8358SOL    HW125973   2.034   2.871   5.716
 8358SOL    HW225974   1.929   2.751   5.683
 8359SOL     OW25975   4.194   5.380   4.486
 8359SOL    HW125976   4.106   5.335   4.477
 8359SOL    HW225977   4.265   5.312   4.507
 8360SOL     OW25978   5.101   6.637   2.963
 8360SOL    HW125979   5.155   6.553   2.960
 8360SOL    HW225980   5.012   6.618   3.005
 8361SOL     OW25981   1.541   0.669   2.691
 8361SOL    HW125982   1.584   0.717   2.614
 8361SOL    HW225983   1.443   0.658   2.673
 8362SOL     OW25984   2.817   2.112   0.151
 8362SOL    HW125985   2.770   2.170   0.217
 8362SOL    HW225986   2.790   2.016   0.166
 8363SOL     OW25987   0.373   2.978   0.379
 8363SOL    HW125988   0.301   2.924   0.335
 8363SOL    HW225989   0.421   2.920   0.446
 8364SOL     OW25990   6.209   3.620   3.048
 8364SOL    HW125991   6.134   3.573   3.001
 8364SOL    HW225992   6.269   3.663   2.982
 8365SOL     OW25993   1.817   3.185   0.011
 8365SOL    HW125994   1.722   3.217   0.012
 8365SOL    HW225995   1.846   3.165   0.105
 8366SOL     OW25996   4.454   6.249   2.263
 8366SOL    HW125997   4.448   6.308   2.343
 8366SOL    HW225998   4.550   6.238   2.236
 8367SOL     OW25999   5.183   6.222   4.033
 8367SOL    HW126000   5.185   6.319   4.057
 8367SOL    HW226001   5.248   6.204   3.960
 8368SOL     OW26002   2.461   5.333   5.786
 8368SOL    HW126003   2.533   5.291   5.841
 8368SOL    HW226004   2.408   5.397   5.843
 8369SOL     OW26005   2.453   1.543   0.237
 8369SOL    HW126006   2.382   1.476   0.218
 8369SOL    HW226007   2.422   1.633   0.206
 8370SOL     OW26008   1.444   1.585   6.503
 8370SOL    HW126009   1.497   1.535   6.572
 8370SOL    HW226010   1.391   1.657   6.549
 8371SOL     OW26011   1.435   3.263   0.752
 8371SOL    HW126012   1.527   3.239   0.723
 8371SOL    HW226013   1.374   3.186   0.738
 8372SOL     OW26014   6.900   0.936   2.747
 8372SOL    HW126015   6.887   1.020   2.801
 8372SOL    HW226016   6.973   0.951   2.680
 8373SOL     OW26017   0.956   5.814   5.154
 8373SOL    HW126018   0.992   5.890   5.208
 8373SOL    HW226019   1.011   5.732   5.171
 8374SOL     OW26020   6.662   0.453   0.042
 8374SOL    HW126021   6.658   0.465   6.961
 8374SOL    HW226022   6.627   0.535   0.087
 8375SOL     OW26023   3.476   0.148   6.259
 8375SOL    HW126024   3.424   0.232   6.240
 8375SOL    HW226025   3.426   0.069   6.224
 8376SOL     OW26026   2.856   0.596   4.016
 8376SOL    HW126027   2.849   0.515   3.956
 8376SOL    HW226028   2.797   0.668   3.981
 8377SOL     OW26029   5.708   4.819   1.482
 8377SOL    HW126030   5.698   4.900   1.539
 8377SOL    HW226031   5.627   4.808   1.424
 8378SOL     OW26032   5.197   3.070   3.227
 8378SOL    HW126033   5.100   3.050   3.234
 8378SOL    HW226034   5.236   3.020   3.149
 8379SOL     OW26035   6.385   3.018   1.779
 8379SOL    HW126036   6.334   3.096   1.815
 8379SOL    HW226037   6.322   2.943   1.760
 8380SOL     OW26038   5.146   1.311   2.986
 8380SOL    HW126039   5.155   1.302   3.085
 8380SOL    HW226040   5.227   1.357   2.949
 8381SOL     OW26041   1.460   5.362   4.921
 8381SOL    HW126042   1.417   5.450   4.903
 8381SOL    HW226043   1.470   5.348   5.019
 8382SOL     OW26044   1.029   2.722   2.353
 8382SOL    HW126045   1.070   2.650   2.297
 8382SOL    HW226046   1.049   2.811   2.313
 8383SOL     OW26047   2.964   2.586   6.600
 8383SOL    HW126048   2.987   2.662   6.539
 8383SOL    HW226049   2.925   2.622   6.685
 8384SOL     OW26050   6.890   0.037   2.388
 8384SOL    HW126051   6.861   6.967   2.425
 8384SOL    HW226052   6.987   0.031   2.363
 8385SOL     OW26053   5.161   2.438   2.257
 8385SOL    HW126054   5.175   2.519   2.200
 8385SOL    HW226055   5.095   2.458   2.329
 8386SOL     OW26056   0.721   4.077   2.590
 8386SOL    HW126057   0.722   3.988   2.544
 8386SOL    HW226058   0.735   4.064   2.688
 8387SOL     OW26059   0.904   2.274   1.295
 8387SOL    HW126060   0.906   2.230   1.385
 8387SOL    HW226061   0.854   2.216   1.231
 8388SOL     OW26062   2.613   0.355   1.861
 8388SOL    HW126063   2.622   0.271   1.914
 8388SOL    HW226064   2.536   0.408   1.895
 8389SOL     OW26065   5.173   2.947   2.216
 8389SOL    HW126066   5.196   3.014   2.286
 8389SOL    HW226067   5.074   2.929   2.216
 8390SOL     OW26068   5.166   2.007   5.217
 8390SOL    HW126069   5.111   2.054   5.286
 8390SOL    HW226070   5.251   2.056   5.202
 8391SOL     OW26071   6.069   0.947   1.137
 8391SOL    HW126072   6.058   1.043   1.112
 8391SOL    HW226073   6.111   0.940   1.227
 8392SOL     OW26074   5.924   3.380   4.635
 8392SOL    HW126075   5.969   3.297   4.667
 8392SOL    HW226076   5.993   3.445   4.603
 8393SOL     OW26077   5.179   0.332   1.495
 8393SOL    HW126078   5.148   0.379   1.578
 8393SOL    HW226079   5.200   0.400   1.424
 8394SOL     OW26080   5.891   4.059   2.041
 8394SOL    HW126081   5.911   4.148   2.000
 8394SOL    HW226082   5.956   3.992   2.007
 8395SOL     OW26083   2.296   1.212   5.097
 8395SOL    HW126084   2.323   1.185   5.190
 8395SOL    HW226085   2.314   1.309   5.084
 8396SOL     OW26086   4.277   5.682   4.977
 8396SOL    HW126087   4.367   5.696   5.018
 8396SOL    HW226088   4.275   5.595   4.928
 8397SOL     OW26089   6.319   0.925   3.401
 8397SOL    HW126090   6.299   0.935   3.499
 8397SOL    HW226091   6.275   1.000   3.351
 8398SOL     OW26092   5.530   2.139   5.708
 8398SOL    HW126093   5.521   2.232   5.743
 8398SOL    HW226094   5.493   2.135   5.615
 8399SOL     OW26095   0.372   5.656   0.552
 8399SOL    HW126096   0.350   5.739   0.602
 8399SOL    HW226097   0.303   5.586   0.571
 8400SOL     OW26098   1.490   2.230   4.498
 8400SOL    HW126099   1.404   2.181   4.490
 8400SOL    HW226100   1.472   2.329   4.493
 8401SOL     OW26101   3.201   0.489   5.820
 8401SOL    HW126102   3.168   0.507   5.912
 8401SOL    HW226103   3.175   0.396   5.792
 8402SOL     OW26104   3.967   0.700   6.190
 8402SOL    HW126105   4.039   0.666   6.129
 8402SOL    HW226106   3.921   0.777   6.146
 8403SOL     OW26107   5.930   5.501   4.477
 8403SOL    HW126108   5.898   5.431   4.414
 8403SOL    HW226109   5.909   5.475   4.571
 8404SOL     OW26110   1.903   1.974   6.670
 8404SOL    HW126111   1.889   2.068   6.641
 8404SOL    HW226112   1.961   1.972   6.751
 8405SOL     OW26113   4.181   1.069   5.718
 8405SOL    HW126114   4.139   1.016   5.644
 8405SOL    HW226115   4.154   1.165   5.709
 8406SOL     OW26116   4.946   1.032   6.264
 8406SOL    HW126117   4.879   1.000   6.331
 8406SOL    HW226118   4.936   0.981   6.179
 8407SOL     OW26119   3.442   6.717   4.036
 8407SOL    HW126120   3.471   6.812   4.024
 8407SOL    HW226121   3.515   6.656   4.004
 8408SOL     OW26122   4.839   0.604   1.249
 8408SOL    HW126123   4.802   0.512   1.264
 8408SOL    HW226124   4.805   0.665   1.321
 8409SOL     OW26125   5.003   2.521   2.446
 8409SOL    HW126126   4.978   2.501   2.540
 8409SOL    HW226127   4.920   2.534   2.391
 8410SOL     OW26128   6.855   1.799   1.532
 8410SOL    HW126129   6.910   1.758   1.604
 8410SOL    HW226130   6.853   1.899   1.544
 8411SOL     OW26131   1.583   5.497   0.587
 8411SOL    HW126132   1.681   5.509   0.603
 8411SOL    HW226133   1.534   5.582   0.610
 8412SOL     OW26134   2.899   2.624   6.934
 8412SOL    HW126135   2.814   2.584   6.900
 8412SOL    HW226136   2.945   2.557   6.993
 8413SOL     OW26137   4.448   5.390   5.368
 8413SOL    HW126138   4.371   5.328   5.359
 8413SOL    HW226139   4.530   5.347   5.330
 8414SOL     OW26140   0.986   1.365   2.710
 8414SOL    HW126141   1.047   1.425   2.761
 8414SOL    HW226142   1.028   1.275   2.700
 8415SOL     OW26143   2.382   0.624   5.545
 8415SOL    HW126144   2.434   0.681   5.608
 8415SOL    HW226145   2.444   0.561   5.498
 8416SOL     OW26146   6.246   1.571   5.391
 8416SOL    HW126147   6.193   1.490   5.416
 8416SOL    HW226148   6.301   1.601   5.469
 8417SOL     OW26149   1.550   3.882   4.780
 8417SOL    HW126150   1.576   3.932   4.697
 8417SOL    HW226151   1.600   3.919   4.858
 8418SOL     OW26152   1.029   6.384   2.711
 8418SOL    HW126153   0.930   6.375   2.710
 8418SOL    HW226154   1.058   6.431   2.795
 8419SOL     OW26155   5.301   1.130   4.061
 8419SOL    HW126156   5.347   1.160   3.977
 8419SOL    HW226157   5.223   1.190   4.080
 8420SOL     OW26158   2.902   0.076   1.862
 8420SOL    HW126159   2.937   7.002   1.873
 8420SOL    HW226160   2.956   0.140   1.917
 8421SOL     OW26161   4.060   5.917   5.933
 8421SOL    HW126162   4.091   5.842   5.875
 8421SOL    HW226163   4.041   5.997   5.877
 8422SOL     OW26164   4.955   2.592   3.028
 8422SOL    HW126165   5.034   2.580   2.967
 8422SOL    HW226166   4.872   2.601   2.973
 8423SOL     OW26167   5.605   4.761   6.416
 8423SOL    HW126168   5.702   4.740   6.428
 8423SOL    HW226169   5.593   4.826   6.341
 8424SOL     OW26170   2.018   0.245   3.866
 8424SOL    HW126171   2.084   0.305   3.821
 8424SOL    HW226172   1.960   0.300   3.926
 8425SOL     OW26173   3.516   2.863   2.896
 8425SOL    HW126174   3.571   2.858   2.979
 8425SOL    HW226175   3.575   2.881   2.817
 8426SOL     OW26176   3.708   2.868   2.251
 8426SOL    HW126177   3.610   2.891   2.259
 8426SOL    HW226178   3.723   2.774   2.282
 8427SOL     OW26179   3.221   3.464   3.473
 8427SOL    HW126180   3.160   3.439   3.398
 8427SOL    HW226181   3.223   3.563   3.483
 8428SOL     OW26182   6.985   0.310   0.949
 8428SOL    HW126183   6.921   0.308   0.873
 8428SOL    HW226184   6.948   0.259   1.026
 8429SOL     OW26185   1.760   5.534   6.645
 8429SOL    HW126186   1.720   5.459   6.696
 8429SOL    HW226187   1.811   5.497   6.567
 8430SOL     OW26188   4.202   6.405   4.780
 8430SOL    HW126189   4.150   6.436   4.859
 8430SOL    HW226190   4.246   6.483   4.735
 8431SOL     OW26191   3.357   3.887   5.569
 8431SOL    HW126192   3.377   3.790   5.554
 8431SOL    HW226193   3.300   3.921   5.494
 8432SOL     OW26194   6.374   5.792   6.643
 8432SOL    HW126195   6.376   5.777   6.544
 8432SOL    HW226196   6.300   5.738   6.684
 8433SOL     OW26197   5.111   2.612   0.628
 8433SOL    HW126198   5.111   2.706   0.593
 8433SOL    HW226199   5.108   2.548   0.551
 8434SOL     OW26200   2.024   5.449   5.339
 8434SOL    HW126201   1.937   5.405   5.316
 8434SOL    HW226202   2.099   5.402   5.293
 8435SOL     OW26203   4.816   1.140   3.003
 8435SOL    HW126204   4.802   1.076   3.079
 8435SOL    HW226205   4.770   1.226   3.024
 8436SOL     OW26206   2.259   6.835   2.733
 8436SOL    HW126207   2.346   6.860   2.776
 8436SOL    HW226208   2.228   6.747   2.769
 8437SOL     OW26209   2.096   3.627   2.488
 8437SOL    HW126210   2.055   3.539   2.514
 8437SOL    HW226211   2.172   3.610   2.425
 8438SOL     OW26212   1.688   4.207   2.693
 8438SOL    HW126213   1.654   4.199   2.600
 8438SOL    HW226214   1.661   4.295   2.732
 8439SOL     OW26215   5.802   5.887   3.711
 8439SOL    HW126216   5.872   5.917   3.776
 8439SOL    HW226217   5.804   5.787   3.705
 8440SOL     OW26218   1.744   1.057   2.692
 8440SOL    HW126219   1.711   1.150   2.675
 8440SOL    HW226220   1.677   1.007   2.746
 8441SOL     OW26221   5.737   1.192   5.064
 8441SOL    HW126222   5.678   1.233   5.133
 8441SOL    HW226223   5.743   1.093   5.079
 8442SOL     OW26224   3.593   1.478   5.302
 8442SOL    HW126225   3.566   1.547   5.369
 8442SOL    HW226226   3.551   1.391   5.324
 8443SOL     OW26227   1.676   4.422   2.852
 8443SOL    HW126228   1.704   4.362   2.927
 8443SOL    HW226229   1.582   4.400   2.826
 8444SOL     OW26230   4.969   5.598   3.952
 8444SOL    HW126231   4.971   5.598   3.852
 8444SOL    HW226232   4.900   5.662   3.983
 8445SOL     OW26233   4.429   6.343   6.603
 8445SOL    HW126234   4.491   6.418   6.580
 8445SOL    HW226235   4.344   6.380   6.640
 8446SOL     OW26236   0.473   6.220   4.770
 8446SOL    HW126237   0.468   6.122   4.785
 8446SOL    HW226238   0.569   6.247   4.761
 8447SOL     OW26239   4.004   1.759   3.519
 8447SOL    HW126240   4.003   1.851   3.559
 8447SOL    HW226241   4.081   1.751   3.455
 8448SOL     OW26242   4.869   6.599   3.068
 8448SOL    HW126243   4.872   6.532   3.142
 8448SOL    HW226244   4.773   6.618   3.044
 8449SOL     OW26245   1.497   2.235   2.854
 8449SOL    HW126246   1.570   2.175   2.822
 8449SOL    HW226247   1.527   2.282   2.937
 8450SOL     OW26248   6.829   0.696   0.203
 8450SOL    HW126249   6.885   0.684   0.121
 8450SOL    HW226250   6.877   0.659   0.282
 8451SOL     OW26251   4.684   1.995   1.054
 8451SOL    HW126252   4.655   2.018   0.961
 8451SOL    HW226253   4.670   2.074   1.114
 8452SOL     OW26254   5.179   1.752   5.359
 8452SOL    HW126255   5.239   1.772   5.437
 8452SOL    HW226256   5.193   1.821   5.288
 8453SOL     OW26257   0.268   6.096   0.497
 8453SOL    HW126258   0.273   6.031   0.573
 8453SOL    HW226259   0.266   6.045   0.411
 8454SOL     OW26260   0.099   4.199   0.446
 8454SOL    HW126261   0.127   4.269   0.511
 8454SOL    HW226262   0.172   4.183   0.380
 8455SOL     OW26263   0.442   0.635   2.855
 8455SOL    HW126264   0.524   0.583   2.834
 8455SOL    HW226265   0.455   0.684   2.941
 8456SOL     OW26266   6.062   1.259   3.823
 8456SOL    HW126267   6.058   1.251   3.923
 8456SOL    HW226268   6.051   1.169   3.782
 8457SOL     OW26269   6.205   6.052   4.869
 8457SOL    HW126270   6.276   6.015   4.930
 8457SOL    HW226271   6.158   6.127   4.915
 8458SOL     OW26272   0.345   0.068   6.552
 8458SOL    HW126273   0.386   0.117   6.629
 8458SOL    HW226274   0.263   0.020   6.583
 8459SOL     OW26275   1.703   5.399   3.293
 8459SOL    HW126276   1.753   5.342   3.357
 8459SOL    HW226277   1.743   5.490   3.290
 8460SOL     OW26278   3.622   4.055   4.793
 8460SOL    HW126279   3.543   4.030   4.850
 8460SOL    HW226280   3.596   4.051   4.697
 8461SOL     OW26281   6.234   4.038   3.613
 8461SOL    HW126282   6.157   3.987   3.651
 8461SOL    HW226283   6.286   4.081   3.688
 8462SOL     OW26284   1.969   2.793   1.693
 8462SOL    HW126285   1.924   2.859   1.633
 8462SOL    HW226286   2.067   2.791   1.673
 8463SOL     OW26287   5.724   0.950   2.643
 8463SOL    HW126288   5.645   0.975   2.587
 8463SOL    HW226289   5.692   0.917   2.732
 8464SOL     OW26290   5.730   2.631   4.948
 8464SOL    HW126291   5.630   2.624   4.942
 8464SOL    HW226292   5.770   2.541   4.932
 8465SOL     OW26293   1.651   3.126   0.376
 8465SOL    HW126294   1.655   3.131   0.476
 8465SOL    HW226295   1.739   3.152   0.337
 8466SOL     OW26296   1.269   6.135   3.465
 8466SOL    HW126297   1.317   6.217   3.433
 8466SOL    HW226298   1.195   6.162   3.528
 8467SOL     OW26299   2.727   5.543   0.735
 8467SOL    HW126300   2.735   5.609   0.810
 8467SOL    HW226301   2.650   5.569   0.677
 8468SOL     OW26302   4.478   1.965   6.883
 8468SOL    HW126303   4.418   1.941   6.806
 8468SOL    HW226304   4.458   2.059   6.912
 8469SOL     OW26305   3.393   2.552   6.665
 8469SOL    HW126306   3.403   2.460   6.627
 8469SOL    HW226307   3.334   2.549   6.745
 8470SOL     OW26308   2.540   2.739   6.104
 8470SOL    HW126309   2.520   2.832   6.073
 8470SOL    HW226310   2.626   2.738   6.154
 8471SOL     OW26311   3.632   1.050   4.346
 8471SOL    HW126312   3.721   1.034   4.389
 8471SOL    HW226313   3.581   1.117   4.400
 8472SOL     OW26314   1.522   6.229   4.334
 8472SOL    HW126315   1.540   6.225   4.432
 8472SOL    HW226316   1.465   6.308   4.313
 8473SOL     OW26317   6.520   5.206   0.170
 8473SOL    HW126318   6.450   5.141   0.197
 8473SOL    HW226319   6.528   5.208   0.071
 8474SOL     OW26320   3.515   3.965   1.585
 8474SOL    HW126321   3.470   3.987   1.671
 8474SOL    HW226322   3.612   3.947   1.601
 8475SOL     OW26323   5.524   1.617   2.802
 8475SOL    HW126324   5.457   1.640   2.873
 8475SOL    HW226325   5.525   1.688   2.732
 8476SOL     OW26326   4.467   0.697   1.971
 8476SOL    HW126327   4.558   0.733   1.951
 8476SOL    HW226328   4.466   0.599   1.955
 8477SOL     OW26329   3.101   1.325   1.250
 8477SOL    HW126330   3.153   1.350   1.168
 8477SOL    HW226331   3.063   1.408   1.291
 8478SOL     OW26332   1.315   0.209   5.766
 8478SOL    HW126333   1.244   0.274   5.739
 8478SOL    HW226334   1.293   0.172   5.856
 8479SOL     OW26335   5.484   0.872   1.289
 8479SOL    HW126336   5.553   0.944   1.280
 8479SOL    HW226337   5.431   0.865   1.204
 8480SOL     OW26338   2.493   1.534   1.212
 8480SOL    HW126339   2.546   1.580   1.140
 8480SOL    HW226340   2.401   1.573   1.216
 8481SOL     OW26341   3.529   0.439   4.300
 8481SOL    HW126342   3.599   0.370   4.280
 8481SOL    HW226343   3.509   0.492   4.218
 8482SOL     OW26344   1.530   6.768   2.495
 8482SOL    HW126345   1.509   6.689   2.438
 8482SOL    HW226346   1.618   6.754   2.541
 8483SOL     OW26347   4.105   5.729   1.174
 8483SOL    HW126348   4.112   5.653   1.238
 8483SOL    HW226349   4.030   5.788   1.201
 8484SOL     OW26350   0.837   5.159   4.501
 8484SOL    HW126351   0.915   5.136   4.558
 8484SOL    HW226352   0.818   5.083   4.438
 8485SOL     OW26353   2.699   3.255   6.599
 8485SOL    HW126354   2.737   3.181   6.654
 8485SOL    HW226355   2.711   3.342   6.647
 8486SOL     OW26356   4.868   0.742   2.800
 8486SOL    HW126357   4.918   0.808   2.857
 8486SOL    HW226358   4.800   0.790   2.745
 8487SOL     OW26359   4.457   6.881   0.897
 8487SOL    HW126360   4.426   6.976   0.891
 8487SOL    HW226361   4.396   6.823   0.842
 8488SOL     OW26362   5.074   2.822   4.182
 8488SOL    HW126363   5.039   2.770   4.103
 8488SOL    HW226364   5.051   2.919   4.170
 8489SOL     OW26365   4.053   4.818   1.937
 8489SOL    HW126366   4.038   4.755   1.861
 8489SOL    HW226367   3.966   4.834   1.985
 8490SOL     OW26368   4.130   5.355   2.620
 8490SOL    HW126369   4.181   5.271   2.639
 8490SOL    HW226370   4.034   5.332   2.601
 8491SOL     OW26371   2.414   0.615   2.136
 8491SOL    HW126372   2.505   0.656   2.144
 8491SOL    HW226373   2.345   0.687   2.129
 8492SOL     OW26374   6.049   3.522   5.030
 8492SOL    HW126375   6.069   3.453   4.960
 8492SOL    HW226376   5.978   3.585   4.996
 8493SOL     OW26377   4.285   2.031   0.174
 8493SOL    HW126378   4.358   2.099   0.181
 8493SOL    HW226379   4.325   1.941   0.156
 8494SOL     OW26380   3.823   5.535   6.355
 8494SOL    HW126381   3.781   5.622   6.380
 8494SOL    HW226382   3.789   5.506   6.265
 8495SOL     OW26383   0.186   2.846   1.104
 8495SOL    HW126384   0.114   2.878   1.042
 8495SOL    HW226385   0.187   2.904   1.186
 8496SOL     OW26386   0.027   2.693   3.703
 8496SOL    HW126387   0.093   2.724   3.771
 8496SOL    HW226388   6.956   2.678   3.747
 8497SOL     OW26389   5.971   5.889   2.860
 8497SOL    HW126390   5.880   5.873   2.900
 8497SOL    HW226391   6.040   5.879   2.932
 8498SOL     OW26392   0.310   0.809   0.774
 8498SOL    HW126393   0.221   0.766   0.758
 8498SOL    HW226394   0.378   0.769   0.713
 8499SOL     OW26395   3.546   3.977   6.622
 8499SOL    HW126396   3.595   3.938   6.700
 8499SOL    HW226397   3.610   4.026   6.563
 8500SOL     OW26398   3.024   6.996   5.840
 8500SOL    HW126399   2.958   6.934   5.797
 8500SOL    HW226400   3.011   6.996   5.939
 8501SOL     OW26401   1.672   4.061   6.447
 8501SOL    HW126402   1.623   3.980   6.416
 8501SOL    HW226403   1.764   4.061   6.406
 8502SOL     OW26404   6.103   0.087   1.618
 8502SOL    HW126405   6.134   0.043   1.534
 8502SOL    HW226406   6.082   0.183   1.600
 8503SOL     OW26407   2.869   5.074   3.469
 8503SOL    HW126408   2.866   4.978   3.495
 8503SOL    HW226409   2.945   5.119   3.517
 8504SOL     OW26410   1.509   5.241   3.155
 8504SOL    HW126411   1.580   5.253   3.225
 8504SOL    HW226412   1.458   5.157   3.173
 8505SOL     OW26413   4.927   3.376   3.320
 8505SOL    HW126414   4.910   3.471   3.347
 8505SOL    HW226415   4.962   3.373   3.226
 8506SOL     OW26416   1.330   6.279   0.281
 8506SOL    HW126417   1.361   6.209   0.344
 8506SOL    HW226418   1.309   6.238   0.192
 8507SOL     OW26419   1.149   0.984   5.434
 8507SOL    HW126420   1.155   0.960   5.531
 8507SOL    HW226421   1.241   1.006   5.400
 8508SOL     OW26422   0.587   1.914   6.081
 8508SOL    HW126423   0.571   1.830   6.027
 8508SOL    HW226424   0.685   1.921   6.102
 8509SOL     OW26425   6.650   1.914   4.994
 8509SOL    HW126426   6.700   1.830   4.972
 8509SOL    HW226427   6.613   1.908   5.087
 8510SOL     OW26428   5.810   6.333   2.466
 8510SOL    HW126429   5.777   6.247   2.427
 8510SOL    HW226430   5.743   6.369   2.530
 8511SOL     OW26431   6.502   4.735   1.966
 8511SOL    HW126432   6.527   4.831   1.951
 8511SOL    HW226433   6.559   4.676   1.909
 8512SOL     OW26434   5.296   2.729   0.046
 8512SOL    HW126435   5.374   2.722   0.108
 8512SOL    HW226436   5.328   2.751   6.972
 8513SOL     OW26437   6.680   4.736   1.282
 8513SOL    HW126438   6.632   4.749   1.368
 8513SOL    HW226439   6.614   4.723   1.208
 8514SOL     OW26440   2.875   1.834   4.971
 8514SOL    HW126441   2.929   1.912   5.002
 8514SOL    HW226442   2.791   1.867   4.927
 8515SOL     OW26443   0.982   0.501   1.236
 8515SOL    HW126444   1.056   0.440   1.207
 8515SOL    HW226445   0.914   0.449   1.287
 8516SOL     OW26446   6.193   2.394   2.631
 8516SOL    HW126447   6.138   2.476   2.649
 8516SOL    HW226448   6.136   2.313   2.645
 8517SOL     OW26449   1.825   2.664   4.812
 8517SOL    HW126450   1.907   2.717   4.832
 8517SOL    HW226451   1.844   2.567   4.823
 8518SOL     OW26452   5.256   4.956   6.944
 8518SOL    HW126453   5.246   5.055   6.942
 8518SOL    HW226454   5.327   4.928   6.879
 8519SOL     OW26455   1.327   3.937   0.455
 8519SOL    HW126456   1.373   3.857   0.492
 8519SOL    HW226457   1.369   4.020   0.491
 8520SOL     OW26458   4.152   3.549   4.976
 8520SOL    HW126459   4.059   3.521   4.999
 8520SOL    HW226460   4.184   3.496   4.898
 8521SOL     OW26461   1.793   6.223   5.587
 8521SOL    HW126462   1.749   6.135   5.610
 8521SOL    HW226463   1.764   6.292   5.653
 8522SOL     OW26464   1.448   5.766   0.459
 8522SOL    HW126465   1.362   5.776   0.409
 8522SOL    HW226466   1.513   5.715   0.402
 8523SOL     OW26467   2.667   0.405   0.106
 8523SOL    HW126468   2.631   0.442   0.192
 8523SOL    HW226469   2.593   0.400   0.038
 8524SOL     OW26470   1.696   5.723   4.886
 8524SOL    HW126471   1.692   5.657   4.961
 8524SOL    HW226472   1.623   5.704   4.820
 8525SOL     OW26473   0.421   4.987   1.214
 8525SOL    HW126474   0.393   5.083   1.218
 8525SOL    HW226475   0.347   4.930   1.251
 8526SOL     OW26476   2.532   6.102   0.459
 8526SOL    HW126477   2.524   6.079   0.362
 8526SOL    HW226478   2.526   6.019   0.514
 8527SOL     OW26479   3.239   0.318   6.248
 8527SOL    HW126480   3.242   0.346   6.344
 8527SOL    HW226481   3.180   0.238   6.239
 8528SOL     OW26482   5.244   2.477   6.958
 8528SOL    HW126483   5.330   2.440   6.923
 8528SOL    HW226484   5.254   2.575   6.977
 8529SOL     OW26485   1.452   6.444   6.437
 8529SOL    HW126486   1.510   6.483   6.365
 8529SOL    HW226487   1.386   6.512   6.468
 8530SOL     OW26488   3.567   3.957   4.545
 8530SOL    HW126489   3.639   3.998   4.489
 8530SOL    HW226490   3.583   3.858   4.553
 8531SOL     OW26491   6.455   5.640   3.617
 8531SOL    HW126492   6.518   5.629   3.695
 8531SOL    HW226493   6.464   5.732   3.580
 8532SOL     OW26494   2.890   5.762   4.880
 8532SOL    HW126495   2.822   5.742   4.810
 8532SOL    HW226496   2.893   5.860   4.898
 8533SOL     OW26497   1.309   6.413   5.994
 8533SOL    HW126498   1.326   6.322   5.957
 8533SOL    HW226499   1.350   6.481   5.935
 8534SOL     OW26500   4.232   2.311   4.022
 8534SOL    HW126501   4.145   2.269   3.995
 8534SOL    HW226502   4.273   2.355   3.942
 8535SOL     OW26503   5.849   1.165   3.017
 8535SOL    HW126504   5.921   1.125   2.961
 8535SOL    HW226505   5.829   1.105   3.094
 8536SOL     OW26506   0.372   0.979   4.252
 8536SOL    HW126507   0.440   1.048   4.275
 8536SOL    HW226508   0.407   0.888   4.275
 8537SOL     OW26509   6.899   1.119   2.955
 8537SOL    HW126510   6.900   1.071   3.043
 8537SOL    HW226511   6.974   1.185   2.952
 8538SOL     OW26512   1.040   2.772   6.917
 8538SOL    HW126513   1.064   2.832   6.993
 8538SOL    HW226514   1.073   2.812   6.831
 8539SOL     OW26515   6.720   2.545   3.058
 8539SOL    HW126516   6.666   2.629   3.053
 8539SOL    HW226517   6.665   2.467   3.028
 8540SOL     OW26518   4.413   6.853   0.497
 8540SOL    HW126519   4.363   6.778   0.454
 8540SOL    HW226520   4.356   6.935   0.499
 8541SOL     OW26521   2.114   2.287   3.418
 8541SOL    HW126522   2.123   2.250   3.326
 8541SOL    HW226523   2.194   2.261   3.472
 8542SOL     OW26524   4.229   3.865   6.602
 8542SOL    HW126525   4.308   3.896   6.550
 8542SOL    HW226526   4.145   3.888   6.553
 8543SOL     OW26527   1.795   2.731   6.599
 8543SOL    HW126528   1.853   2.666   6.648
 8543SOL    HW226529   1.772   2.807   6.659
 8544SOL     OW26530   5.706   2.745   4.445
 8544SOL    HW126531   5.732   2.669   4.386
 8544SOL    HW226532   5.741   2.729   4.538
 8545SOL     OW26533   5.099   6.410   4.515
 8545SOL    HW126534   5.179   6.354   4.494
 8545SOL    HW226535   5.088   6.480   4.443
 8546SOL     OW26536   4.788   1.723   4.896
 8546SOL    HW126537   4.860   1.709   4.964
 8546SOL    HW226538   4.828   1.753   4.810
 8547SOL     OW26539   0.752   4.047   3.161
 8547SOL    HW126540   0.780   4.040   3.256
 8547SOL    HW226541   0.655   4.025   3.152
 8548SOL     OW26542   5.811   1.220   5.553
 8548SOL    HW126543   5.755   1.302   5.545
 8548SOL    HW226544   5.886   1.237   5.617
 8549SOL     OW26545   6.430   3.311   4.893
 8549SOL    HW126546   6.461   3.301   4.798
 8549SOL    HW226547   6.482   3.385   4.937
 8550SOL     OW26548   1.055   4.463   6.734
 8550SOL    HW126549   1.103   4.377   6.717
 8550SOL    HW226550   1.114   4.525   6.786
 8551SOL     OW26551   3.351   4.176   0.027
 8551SOL    HW126552   3.346   4.087   7.000
 8551SOL    HW226553   3.277   4.235   7.010
 8552SOL     OW26554   2.093   6.382   3.949
 8552SOL    HW126555   2.111   6.440   4.029
 8552SOL    HW226556   2.178   6.338   3.920
 8553SOL     OW26557   5.630   0.090   0.199
 8553SOL    HW126558   5.536   0.059   0.201
 8553SOL    HW226559   5.645   0.149   0.119
 8554SOL     OW26560   6.556   3.716   6.574
 8554SOL    HW126561   6.646   3.678   6.595
 8554SOL    HW226562   6.527   3.776   6.649
 8555SOL     OW26563   1.326   6.728   3.733
 8555SOL    HW126564   1.378   6.781   3.666
 8555SOL    HW226565   1.267   6.790   3.786
 8556SOL     OW26566   6.155   0.625   3.594
 8556SOL    HW126567   6.084   0.580   3.649
 8556SOL    HW226568   6.245   0.599   3.629
 8557SOL     OW26569   0.089   0.455   1.482
 8557SOL    HW126570   0.124   0.545   1.505
 8557SOL    HW226571   0.140   0.386   1.534
 8558SOL     OW26572   1.066   5.294   1.977
 8558SOL    HW126573   1.046   5.293   1.879
 8558SOL    HW226574   1.080   5.201   2.009
 8559SOL     OW26575   1.035   0.054   0.932
 8559SOL    HW126576   1.031   0.117   1.010
 8559SOL    HW226577   1.098   0.091   0.863
 8560SOL     OW26578   6.481   1.976   0.214
 8560SOL    HW126579   6.503   1.990   0.117
 8560SOL    HW226580   6.382   1.966   0.225
 8561SOL     OW26581   4.616   6.469   3.517
 8561SOL    HW126582   4.669   6.550   3.490
 8561SOL    HW226583   4.675   6.407   3.568
 8562SOL     OW26584   3.154   6.339   3.941
 8562SOL    HW126585   3.139   6.303   4.033
 8562SOL    HW226586   3.130   6.436   3.939
 8563SOL     OW26587   2.672   2.830   6.429
 8563SOL    HW126588   2.741   2.817   6.358
 8563SOL    HW226589   2.622   2.915   6.412
 8564SOL     OW26590   1.351   0.147   3.698
 8564SOL    HW126591   1.348   0.109   3.790
 8564SOL    HW226592   1.353   0.247   3.702
 8565SOL     OW26593   3.736   6.694   1.691
 8565SOL    HW126594   3.716   6.771   1.631
 8565SOL    HW226595   3.674   6.695   1.769
 8566SOL     OW26596   1.904   2.343   3.574
 8566SOL    HW126597   1.981   2.318   3.515
 8566SOL    HW226598   1.819   2.307   3.535
 8567SOL     OW26599   5.134   0.711   1.531
 8567SOL    HW126600   5.121   0.686   1.435
 8567SOL    HW226601   5.088   0.798   1.549
 8568SOL     OW26602   5.408   1.284   0.237
 8568SOL    HW126603   5.410   1.379   0.267
 8568SOL    HW226604   5.448   1.226   0.308
 8569SOL     OW26605   4.162   1.505   4.389
 8569SOL    HW126606   4.090   1.574   4.397
 8569SOL    HW226607   4.155   1.462   4.299
 8570SOL     OW26608   0.158   4.375   0.106
 8570SOL    HW126609   0.059   4.357   0.099
 8570SOL    HW226610   0.205   4.290   0.131
 8571SOL     OW26611   6.697   4.307   5.330
 8571SOL    HW126612   6.621   4.274   5.274
 8571SOL    HW226613   6.783   4.273   5.292
 8572SOL     OW26614   2.509   5.046   5.130
 8572SOL    HW126615   2.588   5.099   5.097
 8572SOL    HW226616   2.540   4.956   5.159
 8573SOL     OW26617   3.202   5.909   5.421
 8573SOL    HW126618   3.238   5.870   5.336
 8573SOL    HW226619   3.232   5.854   5.499
 8574SOL     OW26620   0.666   3.837   5.195
 8574SOL    HW126621   0.616   3.802   5.115
 8574SOL    HW226622   0.764   3.838   5.174
 8575SOL     OW26623   3.585   2.890   0.244
 8575SOL    HW126624   3.505   2.848   0.201
 8575SOL    HW226625   3.638   2.940   0.175
 8576SOL     OW26626   1.581   6.820   1.463
 8576SOL    HW126627   1.586   6.889   1.391
 8576SOL    HW226628   1.663   6.763   1.461
 8577SOL     OW26629   6.524   6.004   3.333
 8577SOL    HW126630   6.539   6.103   3.339
 8577SOL    HW226631   6.610   5.958   3.311
 8578SOL     OW26632   4.109   6.852   3.610
 8578SOL    HW126633   4.149   6.938   3.578
 8578SOL    HW226634   4.140   6.778   3.550
 8579SOL     OW26635   1.300   4.770   3.064
 8579SOL    HW126636   1.214   4.762   3.115
 8579SOL    HW226637   1.346   4.854   3.090
 8580SOL     OW26638   2.077   4.928   6.786
 8580SOL    HW126639   2.064   4.909   6.883
 8580SOL    HW226640   2.018   4.868   6.732
 8581SOL     OW26641   3.333   1.826   1.301
 8581SOL    HW126642   3.331   1.733   1.338
 8581SOL    HW226643   3.273   1.831   1.221
 8582SOL     OW26644   4.246   4.082   1.738
 8582SOL    HW126645   4.317   4.148   1.762
 8582SOL    HW226646   4.178   4.126   1.680
 8583SOL     OW26647   5.935   0.072   6.267
 8583SOL    HW126648   6.030   0.093   6.241
 8583SOL    HW226649   5.914   6.996   6.240
 8584SOL     OW26650   6.903   5.895   0.530
 8584SOL    HW126651   6.952   5.949   0.599
 8584SOL    HW226652   6.936   5.801   0.534
 8585SOL     OW26653   0.549   1.107   0.267
 8585SOL    HW126654   0.597   1.180   0.218
 8585SOL    HW226655   0.483   1.147   0.331
 8586SOL     OW26656   3.974   5.601   3.387
 8586SOL    HW126657   4.042   5.624   3.456
 8586SOL    HW226658   3.883   5.623   3.421
 8587SOL     OW26659   0.402   1.833   1.327
 8587SOL    HW126660   0.437   1.899   1.393
 8587SOL    HW226661   0.370   1.752   1.376
 8588SOL     OW26662   4.752   2.891   0.023
 8588SOL    HW126663   4.778   2.800   7.008
 8588SOL    HW226664   4.816   2.959   7.006
 8589SOL     OW26665   3.390   2.059   4.669
 8589SOL    HW126666   3.342   1.972   4.677
 8589SOL    HW226667   3.338   2.131   4.715
 8590SOL     OW26668   6.174   4.925   5.491
 8590SOL    HW126669   6.113   4.846   5.499
 8590SOL    HW226670   6.140   5.000   5.548
 8591SOL     OW26671   1.108   3.337   6.794
 8591SOL    HW126672   1.091   3.389   6.711
 8591SOL    HW226673   1.159   3.394   6.859
 8592SOL     OW26674   5.978   4.530   0.119
 8592SOL    HW126675   6.061   4.583   0.105
 8592SOL    HW226676   5.904   4.569   0.064
 8593SOL     OW26677   1.082   0.462   2.658
 8593SOL    HW126678   1.081   0.402   2.737
 8593SOL    HW226679   1.058   0.410   2.576
 8594SOL     OW26680   3.569   3.760   4.262
 8594SOL    HW126681   3.595   3.852   4.232
 8594SOL    HW226682   3.597   3.745   4.356
 8595SOL     OW26683   1.637   1.762   2.584
 8595SOL    HW126684   1.587   1.732   2.503
 8595SOL    HW226685   1.687   1.846   2.564
 8596SOL     OW26686   6.208   5.366   1.774
 8596SOL    HW126687   6.227   5.418   1.858
 8596SOL    HW226688   6.196   5.270   1.796
 8597SOL     OW26689   2.498   1.263   1.037
 8597SOL    HW126690   2.572   1.196   1.031
 8597SOL    HW226691   2.489   1.294   1.132
 8598SOL     OW26692   5.617   5.128   0.990
 8598SOL    HW126693   5.587   5.202   1.050
 8598SOL    HW226694   5.600   5.040   1.034
 8599SOL     OW26695   1.874   2.792   2.605
 8599SOL    HW126696   1.883   2.868   2.670
 8599SOL    HW226697   1.814   2.722   2.644
 8600SOL     OW26698   6.556   4.167   6.636
 8600SOL    HW126699   6.510   4.220   6.708
 8600SOL    HW226700   6.523   4.198   6.547
 8601SOL     OW26701   0.446   0.168   4.486
 8601SOL    HW126702   0.514   0.241   4.482
 8601SOL    HW226703   0.454   0.119   4.572
 8602SOL     OW26704   2.829   5.215   2.386
 8602SOL    HW126705   2.743   5.265   2.388
 8602SOL    HW226706   2.840   5.169   2.298
 8603SOL     OW26707   3.917   3.355   1.097
 8603SOL    HW126708   3.845   3.298   1.135
 8603SOL    HW226709   3.982   3.297   1.046
 8604SOL     OW26710   5.067   2.931   3.504
 8604SOL    HW126711   4.991   2.995   3.490
 8604SOL    HW226712   5.151   2.983   3.521
 8605SOL     OW26713   2.226   6.149   2.459
 8605SOL    HW126714   2.188   6.060   2.485
 8605SOL    HW226715   2.209   6.166   2.362
 8606SOL     OW26716   3.829   4.621   5.678
 8606SOL    HW126717   3.895   4.682   5.722
 8606SOL    HW226718   3.783   4.566   5.748
 8607SOL     OW26719   4.433   5.592   1.327
 8607SOL    HW126720   4.446   5.574   1.229
 8607SOL    HW226721   4.521   5.605   1.371
 8608SOL     OW26722   4.803   5.878   1.753
 8608SOL    HW126723   4.833   5.783   1.752
 8608SOL    HW226724   4.757   5.900   1.667
 8609SOL     OW26725   3.443   0.720   5.302
 8609SOL    HW126726   3.354   0.719   5.257
 8609SOL    HW226727   3.503   0.651   5.262
 8610SOL     OW26728   0.556   6.265   4.071
 8610SOL    HW126729   0.516   6.224   3.990
 8610SOL    HW226730   0.503   6.240   4.152
 8611SOL     OW26731   1.979   1.643   3.600
 8611SOL    HW126732   1.958   1.606   3.690
 8611SOL    HW226733   2.017   1.571   3.542
 8612SOL     OW26734   4.308   3.026   5.331
 8612SOL    HW126735   4.340   3.062   5.419
 8612SOL    HW226736   4.223   3.072   5.305
 8613SOL     OW26737   1.595   1.475   1.200
 8613SOL    HW126738   1.651   1.548   1.238
 8613SOL    HW226739   1.502   1.509   1.184
 8614SOL     OW26740   0.872   1.955   3.322
 8614SOL    HW126741   0.791   2.013   3.315
 8614SOL    HW226742   0.930   1.970   3.242
 8615SOL     OW26743   4.519   2.647   5.249
 8615SOL    HW126744   4.579   2.622   5.325
 8615SOL    HW226745   4.426   2.659   5.283
 8616SOL     OW26746   0.994   4.486   0.317
 8616SOL    HW126747   1.013   4.576   0.278
 8616SOL    HW226748   0.899   4.483   0.348
 8617SOL     OW26749   6.136   2.734   1.364
 8617SOL    HW126750   6.085   2.728   1.450
 8617SOL    HW226751   6.113   2.656   1.306
 8618SOL     OW26752   4.886   7.000   3.671
 8618SOL    HW126753   4.819   0.031   3.615
 8618SOL    HW226754   4.974   6.998   3.623
 8619SOL     OW26755   4.562   5.378   6.963
 8619SOL    HW126756   4.580   5.280   6.974
 8619SOL    HW226757   4.486   5.391   6.900
 8620SOL     OW26758   6.668   6.243   3.056
 8620SOL    HW126759   6.661   6.154   3.011
 8620SOL    HW226760   6.595   6.303   3.023
 8621SOL     OW26761   5.691   0.850   3.457
 8621SOL    HW126762   5.637   0.797   3.522
 8621SOL    HW226763   5.788   0.845   3.482
 8622SOL     OW26764   4.939   5.400   0.542
 8622SOL    HW126765   4.888   5.447   0.615
 8622SOL    HW226766   4.980   5.469   0.482
 8623SOL     OW26767   6.897   3.443   2.788
 8623SOL    HW126768   6.842   3.359   2.794
 8623SOL    HW226769   6.841   3.516   2.748
 8624SOL     OW26770   0.370   4.121   2.801
 8624SOL    HW126771   0.411   4.035   2.834
 8624SOL    HW226772   0.440   4.174   2.754
 8625SOL     OW26773   3.606   0.244   4.576
 8625SOL    HW126774   3.551   0.168   4.608
 8625SOL    HW226775   3.550   0.306   4.520
 8626SOL     OW26776   2.872   3.563   3.395
 8626SOL    HW126777   2.895   3.656   3.367
 8626SOL    HW226778   2.909   3.497   3.330
 8627SOL     OW26779   1.824   6.808   7.014
 8627SOL    HW126780   1.796   6.729   0.051
 8627SOL    HW226781   1.792   6.892   0.038
 8628SOL     OW26782   5.287   0.656   6.790
 8628SOL    HW126783   5.264   0.677   6.885
 8628SOL    HW226784   5.343   0.730   6.752
 8629SOL     OW26785   1.490   4.094   4.149
 8629SOL    HW126786   1.419   4.030   4.180
 8629SOL    HW226787   1.474   4.117   4.053
 8630SOL     OW26788   5.545   4.782   3.822
 8630SOL    HW126789   5.573   4.724   3.746
 8630SOL    HW226790   5.495   4.861   3.786
 8631SOL     OW26791   3.581   5.751   5.036
 8631SOL    HW126792   3.492   5.770   5.077
 8631SOL    HW226793   3.613   5.832   4.987
 8632SOL     OW26794   3.961   0.256   3.563
 8632SOL    HW126795   4.005   0.342   3.588
 8632SOL    HW226796   4.030   0.189   3.536
 8633SOL     OW26797   6.390   1.220   3.613
 8633SOL    HW126798   6.345   1.305   3.641
 8633SOL    HW226799   6.346   1.143   3.657
 8634SOL     OW26800   6.485   5.323   1.907
 8634SOL    HW126801   6.394   5.336   1.947
 8634SOL    HW226802   6.477   5.315   1.808
 8635SOL     OW26803   5.870   3.883   5.328
 8635SOL    HW126804   5.883   3.889   5.230
 8635SOL    HW226805   5.782   3.840   5.348
 8636SOL     OW26806   6.459   5.749   1.072
 8636SOL    HW126807   6.500   5.834   1.105
 8636SOL    HW226808   6.367   5.767   1.038
 8637SOL     OW26809   2.147   0.692   1.110
 8637SOL    HW126810   2.151   0.696   1.011
 8637SOL    HW226811   2.162   0.784   1.148
 8638SOL     OW26812   3.460   4.577   0.177
 8638SOL    HW126813   3.390   4.510   0.201
 8638SOL    HW226814   3.442   4.613   0.086
 8639SOL     OW26815   6.658   3.419   2.212
 8639SOL    HW126816   6.688   3.470   2.293
 8639SOL    HW226817   6.676   3.473   2.130
 8640SOL     OW26818   5.031   5.832   0.775
 8640SOL    HW126819   5.123   5.843   0.814
 8640SOL    HW226820   5.038   5.796   0.682
 8641SOL     OW26821   6.035   4.405   3.287
 8641SOL    HW126822   6.025   4.482   3.223
 8641SOL    HW226823   5.961   4.408   3.354
 8642SOL     OW26824   4.232   1.564   1.242
 8642SOL    HW126825   4.325   1.527   1.240
 8642SOL    HW226826   4.172   1.502   1.292
 8643SOL     OW26827   5.042   0.439   6.001
 8643SOL    HW126828   5.128   0.427   5.952
 8643SOL    HW226829   4.970   0.465   5.937
 8644SOL     OW26830   6.412   3.149   5.264
 8644SOL    HW126831   6.500   3.123   5.304
 8644SOL    HW226832   6.406   3.249   5.260
 8645SOL     OW26833   6.284   4.685   1.513
 8645SOL    HW126834   6.324   4.772   1.483
 8645SOL    HW226835   6.185   4.690   1.506
 8646SOL     OW26836   5.330   0.859   0.299
 8646SOL    HW126837   5.383   0.789   0.346
 8646SOL    HW226838   5.257   0.891   0.359
 8647SOL     OW26839   4.502   5.017   0.373
 8647SOL    HW126840   4.490   5.117   0.371
 8647SOL    HW226841   4.568   4.993   0.444
 8648SOL     OW26842   5.462   1.384   4.115
 8648SOL    HW126843   5.548   1.433   4.100
 8648SOL    HW226844   5.459   1.302   4.058
 8649SOL     OW26845   6.373   4.319   5.548
 8649SOL    HW126846   6.307   4.247   5.526
 8649SOL    HW226847   6.355   4.354   5.640
 8650SOL     OW26848   2.047   4.940   3.135
 8650SOL    HW126849   2.103   4.867   3.174
 8650SOL    HW226850   1.990   4.902   3.061
 8651SOL     OW26851   3.454   1.487   0.431
 8651SOL    HW126852   3.546   1.511   0.398
 8651SOL    HW226853   3.458   1.468   0.529
 8652SOL     OW26854   1.696   3.494   3.747
 8652SOL    HW126855   1.614   3.448   3.714
 8652SOL    HW226856   1.675   3.590   3.765
 8653SOL     OW26857   0.447   3.359   0.112
 8653SOL    HW126858   0.448   3.338   0.015
 8653SOL    HW226859   0.443   3.459   0.124
 8654SOL     OW26860   0.797   0.293   3.500
 8654SOL    HW126861   0.876   0.272   3.443
 8654SOL    HW226862   0.719   0.237   3.472
 8655SOL     OW26863   6.358   6.289   4.687
 8655SOL    HW126864   6.296   6.322   4.758
 8655SOL    HW226865   6.308   6.231   4.623
 8656SOL     OW26866   6.026   1.733   1.048
 8656SOL    HW126867   6.095   1.725   0.976
 8656SOL    HW226868   6.009   1.830   1.066
 8657SOL     OW26869   4.011   3.939   6.466
 8657SOL    HW126870   3.970   3.937   6.375
 8657SOL    HW226871   4.046   4.032   6.485
 8658SOL     OW26872   6.495   5.239   6.877
 8658SOL    HW126873   6.407   5.211   6.838
 8658SOL    HW226874   6.570   5.201   6.823
 8659SOL     OW26875   5.423   0.983   4.320
 8659SOL    HW126876   5.356   1.020   4.255
 8659SOL    HW226877   5.453   0.893   4.288
 8660SOL     OW26878   5.606   3.859   1.225
 8660SOL    HW126879   5.682   3.907   1.179
 8660SOL    HW226880   5.559   3.801   1.159
 8661SOL     OW26881   7.010   3.898   1.435
 8661SOL    HW126882   0.020   3.857   1.522
 8661SOL    HW226883   0.018   3.994   1.433
 8662SOL     OW26884   0.179   6.965   0.705
 8662SOL    HW126885   0.181   6.894   0.776
 8662SOL    HW226886   0.266   6.967   0.657
 8663SOL     OW26887   2.335   5.422   0.466
 8663SOL    HW126888   2.278   5.469   0.398
 8663SOL    HW226889   2.276   5.379   0.535
 8664SOL     OW26890   4.555   5.731   6.976
 8664SOL    HW126891   4.624   5.797   6.949
 8664SOL    HW226892   4.598   5.651   7.018
 8665SOL     OW26893   5.165   5.394   5.446
 8665SOL    HW126894   5.166   5.493   5.428
 8665SOL    HW226895   5.239   5.350   5.394
 8666SOL     OW26896   5.171   2.670   4.377
 8666SOL    HW126897   5.195   2.743   4.442
 8666SOL    HW226898   5.136   2.711   4.293
 8667SOL     OW26899   4.789   1.293   4.238
 8667SOL    HW126900   4.769   1.387   4.213
 8667SOL    HW226901   4.752   1.231   4.169
 8668SOL     OW26902   3.865   1.882   4.169
 8668SOL    HW126903   3.799   1.958   4.172
 8668SOL    HW226904   3.957   1.918   4.181
 8669SOL     OW26905   4.217   0.517   5.562
 8669SOL    HW126906   4.135   0.527   5.618
 8669SOL    HW226907   4.238   0.605   5.518
 8670SOL     OW26908   3.817   5.457   4.071
 8670SOL    HW126909   3.726   5.453   4.029
 8670SOL    HW226910   3.852   5.551   4.064
 8671SOL     OW26911   5.775   6.863   3.691
 8671SOL    HW126912   5.777   6.776   3.740
 8671SOL    HW226913   5.867   6.902   3.688
 8672SOL     OW26914   3.747   4.955   4.739
 8672SOL    HW126915   3.839   4.936   4.771
 8672SOL    HW226916   3.743   4.941   4.640
 8673SOL     OW26917   5.870   2.090   0.582
 8673SOL    HW126918   5.930   2.114   0.505
 8673SOL    HW226919   5.778   2.124   0.564
 8674SOL     OW26920   6.985   6.933   3.257
 8674SOL    HW126921   6.934   7.011   3.293
 8674SOL    HW226922   0.064   6.953   3.260
 8675SOL     OW26923   2.124   1.079   2.458
 8675SOL    HW126924   2.148   1.129   2.375
 8675SOL    HW226925   2.141   0.981   2.444
 8676SOL     OW26926   4.731   6.793   2.689
 8676SOL    HW126927   4.750   6.717   2.751
 8676SOL    HW226928   4.672   6.860   2.734
 8677SOL     OW26929   2.484   4.709   5.452
 8677SOL    HW126930   2.539   4.634   5.415
 8677SOL    HW226931   2.387   4.683   5.451
 8678SOL     OW26932   0.860   6.717   6.350
 8678SOL    HW126933   0.770   6.720   6.394
 8678SOL    HW226934   0.882   6.807   6.313
 8679SOL     OW26935   6.515   2.564   5.321
 8679SOL    HW126936   6.541   2.660   5.308
 8679SOL    HW226937   6.416   2.558   5.335
 8680SOL     OW26938   1.480   3.846   6.929
 8680SOL    HW126939   1.547   3.826   7.000
 8680SOL    HW226940   1.476   3.770   6.864
 8681SOL     OW26941   3.531   4.044   0.549
 8681SOL    HW126942   3.594   4.062   0.625
 8681SOL    HW226943   3.547   4.110   0.476
 8682SOL     OW26944   2.355   6.231   3.006
 8682SOL    HW126945   2.363   6.209   3.103
 8682SOL    HW226946   2.383   6.326   2.992
 8683SOL     OW26947   6.979   3.108   0.432
 8683SOL    HW126948   6.996   3.172   0.356
 8683SOL    HW226949   7.016   3.146   0.516
 8684SOL     OW26950   5.909   3.738   4.329
 8684SOL    HW126951   5.967   3.677   4.383
 8684SOL    HW226952   5.878   3.813   4.387
 8685SOL     OW26953   0.569   2.342   5.967
 8685SOL    HW126954   0.506   2.418   5.952
 8685SOL    HW226955   0.628   2.362   6.045
 8686SOL     OW26956   6.695   2.156   3.285
 8686SOL    HW126957   6.597   2.152   3.267
 8686SOL    HW226958   6.745   2.146   3.199
 8687SOL     OW26959   3.510   0.191   2.765
 8687SOL    HW126960   3.495   0.224   2.672
 8687SOL    HW226961   3.441   0.230   2.826
 8688SOL     OW26962   2.432   0.582   1.680
 8688SOL    HW126963   2.416   0.666   1.733
 8688SOL    HW226964   2.388   0.505   1.726
 8689SOL     OW26965   4.947   5.738   0.186
 8689SOL    HW126966   4.888   5.667   0.148
 8689SOL    HW226967   4.908   5.828   0.166
 8690SOL     OW26968   0.371   1.217   3.110
 8690SOL    HW126969   0.356   1.305   3.065
 8690SOL    HW226970   0.435   1.163   3.056
 8691SOL     OW26971   5.309   2.129   0.142
 8691SOL    HW126972   5.222   2.150   0.187
 8691SOL    HW226973   5.324   2.030   0.146
 8692SOL     OW26974   2.248   1.405   3.954
 8692SOL    HW126975   2.312   1.384   3.880
 8692SOL    HW226976   2.181   1.472   3.921
 8693SOL     OW26977   5.527   2.025   0.861
 8693SOL    HW126978   5.547   1.981   0.948
 8693SOL    HW226979   5.530   2.124   0.872
 8694SOL     OW26980   4.761   7.008   5.924
 8694SOL    HW126981   4.671   6.972   5.901
 8694SOL    HW226982   4.751   0.068   5.986
 8695SOL     OW26983   4.644   4.538   5.581
 8695SOL    HW126984   4.735   4.561   5.616
 8695SOL    HW226985   4.626   4.441   5.596
 8696SOL     OW26986   2.419   5.811   1.590
 8696SOL    HW126987   2.484   5.783   1.660
 8696SOL    HW226988   2.467   5.822   1.503
 8697SOL     OW26989   6.373   4.091   0.376
 8697SOL    HW126990   6.435   4.029   0.329
 8697SOL    HW226991   6.426   4.158   0.427
 8698SOL     OW26992   5.551   6.251   4.606
 8698SOL    HW126993   5.622   6.182   4.588
 8698SOL    HW226994   5.466   6.223   4.562
 8699SOL     OW26995   1.276   1.729   5.460
 8699SOL    HW126996   1.363   1.731   5.412
 8699SOL    HW226997   1.253   1.635   5.483
 8700SOL     OW26998   3.073   1.300   5.698
 8700SOL    HW126999   2.985   1.346   5.690
 8700SOL    HW227000   3.145   1.369   5.706
 8701SOL     OW27001   0.468   1.540   4.773
 8701SOL    HW127002   0.449   1.585   4.861
 8701SOL    HW227003   0.411   1.581   4.702
 8702SOL     OW27004   5.313   5.379   0.402
 8702SOL    HW127005   5.319   5.354   0.499
 8702SOL    HW227006   5.283   5.301   0.349
 8703SOL     OW27007   2.663   5.628   1.084
 8703SOL    HW127008   2.712   5.542   1.072
 8703SOL    HW227009   2.598   5.619   1.160
 8704SOL     OW27010   0.210   4.630   2.119
 8704SOL    HW127011   0.228   4.719   2.162
 8704SOL    HW227012   0.196   4.561   2.190
 8705SOL     OW27013   4.959   0.102   6.279
 8705SOL    HW127014   5.039   0.160   6.265
 8705SOL    HW227015   4.880   0.142   6.232
 8706SOL     OW27016   5.050   1.872   0.267
 8706SOL    HW127017   5.055   1.972   0.275
 8706SOL    HW227018   5.048   1.832   0.359
 8707SOL     OW27019   5.115   2.882   6.050
 8707SOL    HW127020   5.132   2.962   5.992
 8707SOL    HW227021   5.203   2.840   6.076
 8708SOL     OW27022   3.971   1.175   1.147
 8708SOL    HW127023   4.055   1.212   1.107
 8708SOL    HW227024   3.895   1.185   1.083
 8709SOL     OW27025   6.504   4.106   1.250
 8709SOL    HW127026   6.582   4.044   1.257
 8709SOL    HW227027   6.438   4.069   1.184
 8710SOL     OW27028   2.154   3.174   3.307
 8710SOL    HW127029   2.218   3.129   3.370
 8710SOL    HW227030   2.161   3.131   3.217
 8711SOL     OW27031   6.911   0.958   3.187
 8711SOL    HW127032   6.998   0.998   3.215
 8711SOL    HW227033   6.842   0.974   3.257
 8712SOL     OW27034   3.178   1.475   5.041
 8712SOL    HW127035   3.151   1.464   5.137
 8712SOL    HW227036   3.221   1.564   5.029
 8713SOL     OW27037   6.860   4.544   3.861
 8713SOL    HW127038   6.892   4.524   3.768
 8713SOL    HW227039   6.889   4.471   3.923
 8714SOL     OW27040   1.613   0.943   5.505
 8714SOL    HW127041   1.627   0.844   5.504
 8714SOL    HW227042   1.685   0.986   5.558
 8715SOL     OW27043   6.224   2.058   1.583
 8715SOL    HW127044   6.226   2.067   1.683
 8715SOL    HW227045   6.165   1.982   1.557
 8716SOL     OW27046   1.308   1.555   1.252
 8716SOL    HW127047   1.320   1.626   1.183
 8716SOL    HW227048   1.216   1.517   1.245
 8717SOL     OW27049   4.160   3.630   1.772
 8717SOL    HW127050   4.229   3.696   1.743
 8717SOL    HW227051   4.153   3.631   1.872
 8718SOL     OW27052   6.267   3.025   5.460
 8718SOL    HW127053   6.325   3.060   5.386
 8718SOL    HW227054   6.177   3.069   5.457
 8719SOL     OW27055   0.730   0.302   5.441
 8719SOL    HW127056   0.755   0.250   5.359
 8719SOL    HW227057   0.728   0.241   5.520
 8720SOL     OW27058   5.392   4.392   5.427
 8720SOL    HW127059   5.455   4.316   5.414
 8720SOL    HW227060   5.302   4.368   5.393
 8721SOL     OW27061   0.024   2.157   4.598
 8721SOL    HW127062   6.965   2.118   4.546
 8721SOL    HW227063   7.014   2.173   4.692
 8722SOL     OW27064   3.839   2.838   0.385
 8722SOL    HW127065   3.763   2.781   0.352
 8722SOL    HW227066   3.804   2.907   0.448
 8723SOL     OW27067   6.774   5.346   1.532
 8723SOL    HW127068   6.770   5.331   1.433
 8723SOL    HW227069   6.864   5.318   1.566
 8724SOL     OW27070   5.734   0.454   5.561
 8724SOL    HW127071   5.737   0.367   5.512
 8724SOL    HW227072   5.640   0.477   5.584
 8725SOL     OW27073   2.366   6.511   0.345
 8725SOL    HW127074   2.329   6.482   0.257
 8725SOL    HW227075   2.306   6.477   0.418
 8726SOL     OW27076   6.006   0.337   1.618
 8726SOL    HW127077   5.910   0.367   1.624
 8726SOL    HW227078   6.062   0.414   1.587
 8727SOL     OW27079   6.487   6.369   1.350
 8727SOL    HW127080   6.530   6.319   1.425
 8727SOL    HW227081   6.520   6.463   1.350
 8728SOL     OW27082   2.795   6.657   5.019
 8728SOL    HW127083   2.837   6.737   5.062
 8728SOL    HW227084   2.729   6.687   4.950
 8729SOL     OW27085   4.602   5.888   3.666
 8729SOL    HW127086   4.690   5.929   3.692
 8729SOL    HW227087   4.585   5.903   3.569
 8730SOL     OW27088   0.019   6.155   2.394
 8730SOL    HW127089   6.997   6.096   2.324
 8730SOL    HW227090   0.029   6.248   2.357
 8731SOL     OW27091   1.148   1.555   2.799
 8731SOL    HW127092   1.247   1.572   2.795
 8731SOL    HW227093   1.099   1.642   2.788
 8732SOL     OW27094   5.761   3.720   1.751
 8732SOL    HW127095   5.746   3.780   1.672
 8732SOL    HW227096   5.749   3.625   1.724
 8733SOL     OW27097   1.218   6.242   1.429
 8733SOL    HW127098   1.279   6.271   1.355
 8733SOL    HW227099   1.123   6.262   1.403
 8734SOL     OW27100   0.018   6.027   1.389
 8734SOL    HW127101   0.069   5.996   1.470
 8734SOL    HW227102   0.033   6.125   1.376
 8735SOL     OW27103   7.001   1.973   6.733
 8735SOL    HW127104   0.072   2.004   6.700
 8735SOL    HW227105   6.960   1.913   6.665
 8736SOL     OW27106   0.708   4.731   6.744
 8736SOL    HW127107   0.765   4.672   6.687
 8736SOL    HW227108   0.749   4.822   6.750
 8737SOL     OW27109   3.672   5.776   6.294
 8737SOL    HW127110   3.581   5.754   6.259
 8737SOL    HW227111   3.738   5.778   6.218
 8738SOL     OW27112   1.295   3.703   3.723
 8738SOL    HW127113   1.320   3.656   3.808
 8738SOL    HW227114   1.265   3.796   3.743
 8739SOL     OW27115   0.265   3.579   5.499
 8739SOL    HW127116   0.238   3.587   5.595
 8739SOL    HW227117   0.351   3.528   5.493
 8740SOL     OW27118   2.959   6.785   0.739
 8740SOL    HW127119   2.910   6.730   0.806
 8740SOL    HW227120   3.057   6.781   0.758
 8741SOL     OW27121   1.642   3.325   2.900
 8741SOL    HW127122   1.625   3.423   2.916
 8741SOL    HW227123   1.727   3.314   2.849
 8742SOL     OW27124   4.402   0.032   1.480
 8742SOL    HW127125   4.330   0.099   1.496
 8742SOL    HW227126   4.412   6.992   1.561
 8743SOL     OW27127   2.385   4.983   2.470
 8743SOL    HW127128   2.362   5.040   2.391
 8743SOL    HW227129   2.349   5.025   2.553
 8744SOL     OW27130   4.127   2.146   6.065
 8744SOL    HW127131   4.165   2.180   5.978
 8744SOL    HW227132   4.114   2.223   6.127
 8745SOL     OW27133   6.167   2.543   5.853
 8745SOL    HW127134   6.244   2.491   5.891
 8745SOL    HW227135   6.194   2.638   5.842
 8746SOL     OW27136   5.259   5.017   5.743
 8746SOL    HW127137   5.294   5.106   5.714
 8746SOL    HW227138   5.336   4.955   5.759
 8747SOL     OW27139   1.976   2.118   3.970
 8747SOL    HW127140   2.032   2.113   3.887
 8747SOL    HW227141   1.879   2.120   3.945
 8748SOL     OW27142   1.474   0.152   6.859
 8748SOL    HW127143   1.449   0.079   6.795
 8748SOL    HW227144   1.497   0.234   6.807
 8749SOL     OW27145   4.223   0.412   3.580
 8749SOL    HW127146   4.275   0.454   3.505
 8749SOL    HW227147   4.161   0.479   3.619
 8750SOL     OW27148   1.821   1.491   5.507
 8750SOL    HW127149   1.869   1.412   5.544
 8750SOL    HW227150   1.739   1.461   5.459
 8751SOL     OW27151   1.232   0.187   2.449
 8751SOL    HW127152   1.287   0.150   2.374
 8751SOL    HW227153   1.275   0.164   2.536
 8752SOL     OW27154   1.733   2.468   6.292
 8752SOL    HW127155   1.735   2.534   6.217
 8752SOL    HW227156   1.694   2.382   6.259
 8753SOL     OW27157   5.015   1.679   4.625
 8753SOL    HW127158   5.084   1.750   4.636
 8753SOL    HW227159   5.019   1.617   4.704
 8754SOL     OW27160   1.683   1.671   5.982
 8754SOL    HW127161   1.733   1.694   6.066
 8754SOL    HW227162   1.609   1.737   5.968
 8755SOL     OW27163   2.075   1.893   0.756
 8755SOL    HW127164   1.999   1.938   0.708
 8755SOL    HW227165   2.133   1.962   0.798
 8756SOL     OW27166   2.106   2.937   4.046
 8756SOL    HW127167   2.176   2.871   4.071
 8756SOL    HW227168   2.019   2.890   4.031
 8757SOL     OW27169   4.754   6.444   4.942
 8757SOL    HW127170   4.696   6.378   4.991
 8757SOL    HW227171   4.715   6.462   4.852
 8758SOL     OW27172   6.051   6.755   1.076
 8758SOL    HW127173   6.047   6.781   1.172
 8758SOL    HW227174   6.034   6.657   1.067
 8759SOL     OW27175   5.168   0.704   5.571
 8759SOL    HW127176   5.249   0.660   5.532
 8759SOL    HW227177   5.107   0.734   5.497
 8760SOL     OW27178   1.607   1.459   3.997
 8760SOL    HW127179   1.587   1.369   4.035
 8760SOL    HW227180   1.602   1.528   4.069
 8761SOL     OW27181   4.461   6.810   0.071
 8761SOL    HW127182   4.471   6.804   0.170
 8761SOL    HW227183   4.369   6.844   0.049
 8762SOL     OW27184   0.845   4.445   1.128
 8762SOL    HW127185   0.822   4.496   1.045
 8762SOL    HW227186   0.864   4.349   1.104
 8763SOL     OW27187   0.332   6.405   6.326
 8763SOL    HW127188   0.304   6.477   6.389
 8763SOL    HW227189   0.431   6.401   6.320
 8764SOL     OW27190   4.190   1.787   4.800
 8764SOL    HW127191   4.280   1.751   4.776
 8764SOL    HW227192   4.158   1.745   4.885
 8765SOL     OW27193   5.799   0.350   4.349
 8765SOL    HW127194   5.873   0.282   4.355
 8765SOL    HW227195   5.817   0.411   4.271
 8766SOL     OW27196   1.913   4.455   2.451
 8766SOL    HW127197   1.954   4.456   2.543
 8766SOL    HW227198   1.984   4.468   2.383
 8767SOL     OW27199   4.280   0.814   3.860
 8767SOL    HW127200   4.280   0.783   3.955
 8767SOL    HW227201   4.264   0.913   3.857
 8768SOL     OW27202   2.010   3.089   6.820
 8768SOL    HW127203   1.948   3.089   6.898
 8768SOL    HW227204   2.071   3.010   6.826
 8769SOL     OW27205   2.014   0.064   5.936
 8769SOL    HW127206   1.981   6.991   5.911
 8769SOL    HW227207   2.114   0.067   5.926
 8770SOL     OW27208   5.257   3.113   1.623
 8770SOL    HW127209   5.339   3.170   1.620
 8770SOL    HW227210   5.185   3.161   1.671
 8771SOL     OW27211   0.947   1.681   6.326
 8771SOL    HW127212   0.928   1.695   6.423
 8771SOL    HW227213   0.895   1.602   6.293
 8772SOL     OW27214   5.740   1.416   6.652
 8772SOL    HW127215   5.838   1.410   6.631
 8772SOL    HW227216   5.687   1.416   6.567
 8773SOL     OW27217   2.337   2.637   2.875
 8773SOL    HW127218   2.242   2.606   2.881
 8773SOL    HW227219   2.363   2.645   2.778
 8774SOL     OW27220   1.505   1.096   1.102
 8774SOL    HW127221   1.509   1.098   1.202
 8774SOL    HW227222   1.451   1.016   1.073
 8775SOL     OW27223   6.427   6.988   3.733
 8775SOL    HW127224   6.435   7.013   3.637
 8775SOL    HW227225   6.462   6.895   3.746
 8776SOL     OW27226   3.437   2.912   4.863
 8776SOL    HW127227   3.438   3.004   4.902
 8776SOL    HW227228   3.419   2.845   4.936
 8777SOL     OW27229   6.462   6.205   1.713
 8777SOL    HW127230   6.557   6.186   1.689
 8777SOL    HW227231   6.452   6.209   1.812
 8778SOL     OW27232   0.224   2.472   3.894
 8778SOL    HW127233   0.278   2.390   3.911
 8778SOL    HW227234   0.126   2.450   3.904
 8779SOL     OW27235   0.827   5.183   0.716
 8779SOL    HW127236   0.918   5.187   0.758
 8779SOL    HW227237   0.773   5.111   0.759
 8780SOL     OW27238   1.244   5.481   4.350
 8780SOL    HW127239   1.323   5.519   4.398
 8780SOL    HW227240   1.252   5.502   4.252
 8781SOL     OW27241   0.737   1.952   2.433
 8781SOL    HW127242   0.762   1.941   2.529
 8781SOL    HW227243   0.664   2.019   2.424
 8782SOL     OW27244   4.570   1.119   3.297
 8782SOL    HW127245   4.603   1.150   3.386
 8782SOL    HW227246   4.590   1.188   3.228
 8783SOL     OW27247   5.751   3.568   4.667
 8783SOL    HW127248   5.814   3.491   4.656
 8783SOL    HW227249   5.669   3.537   4.714
 8784SOL     OW27250   5.254   4.924   5.410
 8784SOL    HW127251   5.218   4.880   5.493
 8784SOL    HW227252   5.227   5.020   5.408
 8785SOL     OW27253   6.126   4.802   6.565
 8785SOL    HW127254   6.188   4.743   6.616
 8785SOL    HW227255   6.101   4.759   6.478
 8786SOL     OW27256   2.061   6.624   0.245
 8786SOL    HW127257   2.102   6.536   0.268
 8786SOL    HW227258   1.962   6.618   0.256
 8787SOL     OW27259   1.494   3.856   0.802
 8787SOL    HW127260   1.508   3.888   0.708
 8787SOL    HW227261   1.581   3.820   0.837
 8788SOL     OW27262   1.114   1.485   5.531
 8788SOL    HW127263   1.066   1.404   5.565
 8788SOL    HW227264   1.087   1.502   5.436
 8789SOL     OW27265   6.732   0.641   6.323
 8789SOL    HW127266   6.802   0.576   6.354
 8789SOL    HW227267   6.654   0.591   6.285
 8790SOL     OW27268   5.719   1.905   0.041
 8790SOL    HW127269   5.638   1.868   0.087
 8790SOL    HW227270   5.696   1.991   7.014
 8791SOL     OW27271   4.878   6.601   5.584
 8791SOL    HW127272   4.798   6.548   5.557
 8791SOL    HW227273   4.915   6.565   5.669
 8792SOL     OW27274   5.123   0.275   2.902
 8792SOL    HW127275   5.082   0.229   2.823
 8792SOL    HW227276   5.073   0.359   2.921
 8793SOL     OW27277   1.142   5.774   3.784
 8793SOL    HW127278   1.108   5.681   3.787
 8793SOL    HW227279   1.241   5.774   3.790
 8794SOL     OW27280   1.863   0.105   2.546
 8794SOL    HW127281   1.912   0.018   2.545
 8794SOL    HW227282   1.814   0.117   2.460
 8795SOL     OW27283   2.055   6.227   5.588
 8795SOL    HW127284   1.957   6.242   5.574
 8795SOL    HW227285   2.106   6.262   5.509
 8796SOL     OW27286   4.928   2.672   5.530
 8796SOL    HW127287   4.838   2.635   5.507
 8796SOL    HW227288   4.922   2.725   5.615
 8797SOL     OW27289   0.244   6.956   7.006
 8797SOL    HW127290   0.200   0.001   0.052
 8797SOL    HW227291   0.228   6.862   0.019
 8798SOL     OW27292   4.658   3.782   5.509
 8798SOL    HW127293   4.574   3.734   5.484
 8798SOL    HW227294   4.731   3.716   5.525
 8799SOL     OW27295   3.092   5.323   3.168
 8799SOL    HW127296   3.016   5.369   3.123
 8799SOL    HW227297   3.101   5.230   3.132
 8800SOL     OW27298   4.600   4.789   6.907
 8800SOL    HW127299   4.568   4.695   6.918
 8800SOL    HW227300   4.530   4.844   6.861
 8801SOL     OW27301   2.642   1.093   4.828
 8801SOL    HW127302   2.737   1.062   4.828
 8801SOL    HW227303   2.608   1.096   4.734
 8802SOL     OW27304   3.021   6.305   2.665
 8802SOL    HW127305   2.954   6.356   2.718
 8802SOL    HW227306   2.991   6.210   2.656
 8803SOL     OW27307   3.467   5.701   0.567
 8803SOL    HW127308   3.421   5.658   0.489
 8803SOL    HW227309   3.407   5.770   0.607
 8804SOL     OW27310   4.806   0.347   0.903
 8804SOL    HW127311   4.716   0.348   0.860
 8804SOL    HW227312   4.876   0.372   0.836
 8805SOL     OW27313   0.471   0.510   3.238
 8805SOL    HW127314   0.486   0.564   3.321
 8805SOL    HW227315   0.424   0.565   3.170
 8806SOL     OW27316   1.724   4.677   6.681
 8806SOL    HW127317   1.821   4.700   6.687
 8806SOL    HW227318   1.714   4.590   6.633
 8807SOL     OW27319   1.114   6.019   6.053
 8807SOL    HW127320   1.168   6.058   5.978
 8807SOL    HW227321   1.033   6.075   6.068
 8808SOL     OW27322   5.182   1.569   1.027
 8808SOL    HW127323   5.159   1.547   1.122
 8808SOL    HW227324   5.281   1.576   1.017
 8809SOL     OW27325   5.928   4.315   1.551
 8809SOL    HW127326   5.869   4.238   1.573
 8809SOL    HW227327   5.991   4.331   1.627
 8810SOL     OW27328   3.754   1.352   4.507
 8810SOL    HW127329   3.679   1.289   4.529
 8810SOL    HW227330   3.718   1.431   4.457
 8811SOL     OW27331   1.105   1.092   2.746
 8811SOL    HW127332   1.197   1.062   2.769
 8811SOL    HW227333   1.044   1.074   2.823
 8812SOL     OW27334   2.107   0.630   0.828
 8812SOL    HW127335   2.136   0.534   0.837
 8812SOL    HW227336   2.008   0.636   0.845
 8813SOL     OW27337   2.096   6.096   1.862
 8813SOL    HW127338   2.048   6.035   1.798
 8813SOL    HW227339   2.052   6.186   1.862
 8814SOL     OW27340   6.021   1.044   6.119
 8814SOL    HW127341   6.048   0.948   6.128
 8814SOL    HW227342   6.086   1.102   6.169
 8815SOL     OW27343   0.173   6.192   2.641
 8815SOL    HW127344   0.192   6.289   2.631
 8815SOL    HW227345   0.117   6.161   2.564
 8816SOL     OW27346   1.195   5.701   1.642
 8816SOL    HW127347   1.104   5.687   1.603
 8816SOL    HW227348   1.263   5.702   1.569
 8817SOL     OW27349   1.299   5.033   5.222
 8817SOL    HW127350   1.208   4.993   5.225
 8817SOL    HW227351   1.293   5.131   5.239
 8818SOL     OW27352   0.301   5.682   4.034
 8818SOL    HW127353   0.213   5.731   4.039
 8818SOL    HW227354   0.310   5.640   3.945
 8819SOL     OW27355   4.550   6.400   4.446
 8819SOL    HW127356   4.533   6.313   4.493
 8819SOL    HW227357   4.465   6.453   4.441
 8820SOL     OW27358   1.693   2.121   3.947
 8820SOL    HW127359   1.670   2.218   3.944
 8820SOL    HW227360   1.636   2.076   4.016
 8821SOL     OW27361   2.253   0.820   6.429
 8821SOL    HW127362   2.343   0.847   6.463
 8821SOL    HW227363   2.237   0.861   6.339
 8822SOL     OW27364   0.416   2.297   3.332
 8822SOL    HW127365   0.342   2.231   3.322
 8822SOL    HW227366   0.414   2.336   3.424
 8823SOL     OW27367   1.801   5.810   1.401
 8823SOL    HW127368   1.780   5.820   1.498
 8823SOL    HW227369   1.877   5.871   1.377
 8824SOL     OW27370   3.533   3.876   0.939
 8824SOL    HW127371   3.551   3.791   0.988
 8824SOL    HW227372   3.449   3.868   0.885
 8825SOL     OW27373   0.844   1.291   2.266
 8825SOL    HW127374   0.763   1.270   2.212
 8825SOL    HW227375   0.836   1.383   2.304
 8826SOL     OW27376   5.094   1.904   6.624
 8826SOL    HW127377   5.095   1.961   6.542
 8826SOL    HW227378   5.132   1.955   6.701
 8827SOL     OW27379   1.385   1.792   3.163
 8827SOL    HW127380   1.354   1.782   3.258
 8827SOL    HW227381   1.444   1.715   3.139
 8828SOL     OW27382   2.902   0.259   2.826
 8828SOL    HW127383   2.857   0.324   2.765
 8828SOL    HW227384   2.988   0.229   2.785
 8829SOL     OW27385   0.056   2.040   0.449
 8829SOL    HW127386   0.116   2.019   0.372
 8829SOL    HW227387   0.040   1.957   0.502
 8830SOL     OW27388   0.582   2.183   0.815
 8830SOL    HW127389   0.492   2.160   0.850
 8830SOL    HW227390   0.647   2.112   0.839
 8831SOL     OW27391   6.853   0.639   2.807
 8831SOL    HW127392   6.768   0.627   2.857
 8831SOL    HW227393   6.868   0.736   2.788
 8832SOL     OW27394   6.349   0.768   2.449
 8832SOL    HW127395   6.408   0.690   2.429
 8832SOL    HW227396   6.279   0.741   2.516
 8833SOL     OW27397   1.946   4.401   3.493
 8833SOL    HW127398   1.960   4.409   3.395
 8833SOL    HW227399   1.941   4.493   3.533
 8834SOL     OW27400   5.815   3.967   5.050
 8834SOL    HW127401   5.722   3.931   5.046
 8834SOL    HW227402   5.838   4.006   4.961
 8835SOL     OW27403   6.750   0.050   6.432
 8835SOL    HW127404   6.731   0.091   6.342
 8835SOL    HW227405   6.847   0.062   6.454
 8836SOL     OW27406   4.641   1.160   0.291
 8836SOL    HW127407   4.578   1.108   0.234
 8836SOL    HW227408   4.599   1.176   0.381
 8837SOL     OW27409   0.129   1.214   2.039
 8837SOL    HW127410   0.125   1.117   2.015
 8837SOL    HW227411   0.183   1.262   1.970
 8838SOL     OW27412   2.408   5.414   3.763
 8838SOL    HW127413   2.407   5.359   3.846
 8838SOL    HW227414   2.424   5.355   3.684
 8839SOL     OW27415   6.573   0.167   3.893
 8839SOL    HW127416   6.533   0.086   3.851
 8839SOL    HW227417   6.671   0.171   3.871
 8840SOL     OW27418   5.478   2.635   2.301
 8840SOL    HW127419   5.576   2.633   2.321
 8840SOL    HW227420   5.460   2.584   2.216
 8841SOL     OW27421   1.417   1.474   5.095
 8841SOL    HW127422   1.428   1.428   5.007
 8841SOL    HW227423   1.404   1.406   5.167
 8842SOL     OW27424   2.240   3.111   1.599
 8842SOL    HW127425   2.216   3.120   1.696
 8842SOL    HW227426   2.285   3.023   1.584
 8843SOL     OW27427   0.940   3.190   5.284
 8843SOL    HW127428   0.922   3.091   5.288
 8843SOL    HW227429   0.964   3.216   5.191
 8844SOL     OW27430   6.945   1.559   6.480
 8844SOL    HW127431   6.956   1.658   6.487
 8844SOL    HW227432   6.860   1.531   6.524
 8845SOL     OW27433   5.702   4.441   6.826
 8845SOL    HW127434   5.620   4.464   6.774
 8845SOL    HW227435   5.720   4.512   6.894
 8846SOL     OW27436   1.484   4.746   4.057
 8846SOL    HW127437   1.536   4.810   4.001
 8846SOL    HW227438   1.544   4.672   4.088
 8847SOL     OW27439   3.030   0.847   2.568
 8847SOL    HW127440   3.077   0.898   2.640
 8847SOL    HW227441   3.088   0.844   2.487
 8848SOL     OW27442   1.408   0.475   3.035
 8848SOL    HW127443   1.475   0.461   2.963
 8848SOL    HW227444   1.452   0.466   3.124
 8849SOL     OW27445   3.048   6.650   1.212
 8849SOL    HW127446   3.016   6.718   1.278
 8849SOL    HW227447   3.022   6.559   1.243
 8850SOL     OW27448   3.344   2.825   6.580
 8850SOL    HW127449   3.406   2.860   6.509
 8850SOL    HW227450   3.371   2.732   6.605
 8851SOL     OW27451   1.094   3.187   3.165
 8851SOL    HW127452   1.092   3.088   3.183
 8851SOL    HW227453   1.025   3.210   3.097
 8852SOL     OW27454   0.864   1.879   6.108
 8852SOL    HW127455   0.866   1.839   6.016
 8852SOL    HW227456   0.894   1.809   6.174
 8853SOL     OW27457   4.228   0.579   0.512
 8853SOL    HW127458   4.179   0.655   0.469
 8853SOL    HW227459   4.294   0.616   0.578
 8854SOL     OW27460   1.072   3.039   4.942
 8854SOL    HW127461   1.112   2.975   5.008
 8854SOL    HW227462   1.146   3.083   4.890
 8855SOL     OW27463   5.617   5.336   1.193
 8855SOL    HW127464   5.647   5.267   1.259
 8855SOL    HW227465   5.652   5.426   1.220
 8856SOL     OW27466   0.183   6.119   5.329
 8856SOL    HW127467   0.113   6.189   5.312
 8856SOL    HW227468   0.171   6.082   5.421
 8857SOL     OW27469   6.392   1.649   5.618
 8857SOL    HW127470   6.365   1.739   5.651
 8857SOL    HW227471   6.451   1.604   5.685
 8858SOL     OW27472   6.729   5.314   4.262
 8858SOL    HW127473   6.690   5.271   4.344
 8858SOL    HW227474   6.798   5.381   4.289
 8859SOL     OW27475   0.968   6.995   3.980
 8859SOL    HW127476   0.873   6.963   3.983
 8859SOL    HW227477   0.995   7.009   3.885
 8860SOL     OW27478   0.500   3.077   1.972
 8860SOL    HW127479   0.494   3.014   2.050
 8860SOL    HW227480   0.409   3.107   1.946
 8861SOL     OW27481   4.600   2.667   1.490
 8861SOL    HW127482   4.563   2.713   1.571
 8861SOL    HW227483   4.533   2.673   1.415
 8862SOL     OW27484   4.689   4.505   4.832
 8862SOL    HW127485   4.760   4.560   4.789
 8862SOL    HW227486   4.714   4.409   4.830
 8863SOL     OW27487   2.167   4.050   3.390
 8863SOL    HW127488   2.145   4.107   3.468
 8863SOL    HW227489   2.178   3.955   3.420
 8864SOL     OW27490   6.076   2.023   4.893
 8864SOL    HW127491   6.043   1.970   4.971
 8864SOL    HW227492   6.131   2.100   4.926
 8865SOL     OW27493   2.240   1.716   6.571
 8865SOL    HW127494   2.197   1.705   6.661
 8865SOL    HW227495   2.175   1.692   6.499
 8866SOL     OW27496   5.808   6.347   1.745
 8866SOL    HW127497   5.870   6.382   1.674
 8866SOL    HW227498   5.714   6.373   1.723
 8867SOL     OW27499   5.981   4.302   2.815
 8867SOL    HW127500   6.065   4.255   2.788
 8867SOL    HW227501   5.994   4.401   2.803
 8868SOL     OW27502   6.948   3.235   3.676
 8868SOL    HW127503   0.002   3.205   3.614
 8868SOL    HW227504   6.903   3.155   3.716
 8869SOL     OW27505   3.488   0.090   3.019
 8869SOL    HW127506   3.534   0.110   2.933
 8869SOL    HW227507   3.544   0.121   3.095
 8870SOL     OW27508   1.465   0.812   3.571
 8870SOL    HW127509   1.471   0.803   3.472
 8870SOL    HW227510   1.555   0.800   3.612
 8871SOL     OW27511   0.222   0.893   2.949
 8871SOL    HW127512   0.183   0.852   2.867
 8871SOL    HW227513   0.309   0.936   2.927
 8872SOL     OW27514   0.270   5.284   4.525
 8872SOL    HW127515   0.178   5.255   4.553
 8872SOL    HW227516   0.328   5.203   4.515
 8873SOL     OW27517   2.231   1.185   2.683
 8873SOL    HW127518   2.177   1.160   2.763
 8873SOL    HW227519   2.179   1.163   2.600
 8874SOL     OW27520   3.506   6.676   0.760
 8874SOL    HW127521   3.497   6.772   0.735
 8874SOL    HW227522   3.541   6.669   0.854
 8875SOL     OW27523   6.598   3.221   3.934
 8875SOL    HW127524   6.628   3.126   3.949
 8875SOL    HW227525   6.677   3.277   3.910
 8876SOL     OW27526   3.747   0.761   6.391
 8876SOL    HW127527   3.753   0.861   6.388
 8876SOL    HW227528   3.821   0.721   6.337
 8877SOL     OW27529   1.497   4.262   1.240
 8877SOL    HW127530   1.436   4.244   1.317
 8877SOL    HW227531   1.551   4.345   1.259
 8878SOL     OW27532   5.171   4.011   0.831
 8878SOL    HW127533   5.077   4.009   0.797
 8878SOL    HW227534   5.216   4.093   0.798
 8879SOL     OW27535   5.781   4.897   3.017
 8879SOL    HW127536   5.744   4.962   2.950
 8879SOL    HW227537   5.763   4.803   2.987
 8880SOL     OW27538   4.214   0.915   4.355
 8880SOL    HW127539   4.162   0.893   4.438
 8880SOL    HW227540   4.171   0.992   4.308
 8881SOL     OW27541   4.121   4.873   4.531
 8881SOL    HW127542   4.159   4.820   4.606
 8881SOL    HW227543   4.033   4.833   4.503
 8882SOL     OW27544   4.488   0.192   0.623
 8882SOL    HW127545   4.488   0.249   0.705
 8882SOL    HW227546   4.561   0.125   0.628
 8883SOL     OW27547   6.592   6.285   4.809
 8883SOL    HW127548   6.604   6.186   4.815
 8883SOL    HW227549   6.504   6.306   4.766
 8884SOL     OW27550   5.424   3.441   5.335
 8884SOL    HW127551   5.325   3.441   5.323
 8884SOL    HW227552   5.449   3.375   5.405
 8885SOL     OW27553   6.429   5.874   0.686
 8885SOL    HW127554   6.424   5.848   0.589
 8885SOL    HW227555   6.369   5.952   0.702
 8886SOL     OW27556   4.148   5.633   6.111
 8886SOL    HW127557   4.196   5.617   6.024
 8886SOL    HW227558   4.069   5.572   6.116
 8887SOL     OW27559   4.796   0.763   1.473
 8887SOL    HW127560   4.703   0.801   1.477
 8887SOL    HW227561   4.863   0.837   1.482
 8888SOL     OW27562   2.744   2.130   3.080
 8888SOL    HW127563   2.657   2.162   3.119
 8888SOL    HW227564   2.743   2.030   3.075
 8889SOL     OW27565   0.410   5.992   6.565
 8889SOL    HW127566   0.366   6.025   6.482
 8889SOL    HW227567   0.498   5.950   6.542
 8890SOL     OW27568   0.235   6.567   0.361
 8890SOL    HW127569   0.292   6.491   0.394
 8890SOL    HW227570   0.164   6.586   0.428
 8891SOL     OW27571   6.078   3.584   6.831
 8891SOL    HW127572   6.123   3.648   6.769
 8891SOL    HW227573   6.044   3.633   6.911
 8892SOL     OW27574   3.483   4.910   3.799
 8892SOL    HW127575   3.415   4.929   3.729
 8892SOL    HW227576   3.443   4.852   3.870
 8893SOL     OW27577   1.166   5.301   4.669
 8893SOL    HW127578   1.120   5.378   4.625
 8893SOL    HW227579   1.205   5.241   4.600
 8894SOL     OW27580   4.691   1.494   0.532
 8894SOL    HW127581   4.742   1.434   0.594
 8894SOL    HW227582   4.648   1.568   0.585
 8895SOL     OW27583   6.989   3.840   0.701
 8895SOL    HW127584   7.013   3.743   0.690
 8895SOL    HW227585   6.995   3.886   0.613
 8896SOL     OW27586   0.313   2.651   4.945
 8896SOL    HW127587   0.226   2.679   4.986
 8896SOL    HW227588   0.325   2.553   4.956
 8897SOL     OW27589   1.992   3.886   3.884
 8897SOL    HW127590   1.966   3.913   3.792
 8897SOL    HW227591   1.986   3.786   3.892
 8898SOL     OW27592   4.569   4.397   2.629
 8898SOL    HW127593   4.590   4.300   2.617
 8898SOL    HW227594   4.604   4.448   2.550
 8899SOL     OW27595   1.031   3.476   4.717
 8899SOL    HW127596   0.996   3.569   4.731
 8899SOL    HW227597   0.975   3.412   4.769
 8900SOL     OW27598   4.974   2.648   4.004
 8900SOL    HW127599   4.889   2.608   4.038
 8900SOL    HW227600   5.033   2.577   3.967
 8901SOL     OW27601   1.618   3.312   4.765
 8901SOL    HW127602   1.570   3.306   4.678
 8901SOL    HW227603   1.552   3.335   4.838
 8902SOL     OW27604   0.315   4.897   0.580
 8902SOL    HW127605   0.287   4.969   0.516
 8902SOL    HW227606   0.260   4.902   0.663
 8903SOL     OW27607   1.554   6.749   5.250
 8903SOL    HW127608   1.497   6.799   5.185
 8903SOL    HW227609   1.532   6.651   5.246
 8904SOL     OW27610   0.310   0.710   3.134
 8904SOL    HW127611   0.250   0.721   3.213
 8904SOL    HW227612   0.290   0.782   3.067
 8905SOL     OW27613   1.764   3.858   2.438
 8905SOL    HW127614   1.669   3.887   2.425
 8905SOL    HW227615   1.796   3.891   2.527
 8906SOL     OW27616   6.415   0.347   0.602
 8906SOL    HW127617   6.360   0.339   0.519
 8906SOL    HW227618   6.495   0.288   0.595
 8907SOL     OW27619   2.990   3.299   4.852
 8907SOL    HW127620   3.076   3.320   4.806
 8907SOL    HW227621   2.930   3.249   4.790
 8908SOL     OW27622   1.283   5.104   0.189
 8908SOL    HW127623   1.294   5.041   0.112
 8908SOL    HW227624   1.205   5.164   0.173
 8909SOL     OW27625   2.754   6.710   0.432
 8909SOL    HW127626   2.772   6.696   0.530
 8909SOL    HW227627   2.765   6.807   0.410
 8910SOL     OW27628   2.622   0.894   3.742
 8910SOL    HW127629   2.579   0.845   3.666
 8910SOL    HW227630   2.609   0.992   3.729
 8911SOL     OW27631   4.675   2.287   3.845
 8911SOL    HW127632   4.607   2.262   3.914
 8911SOL    HW227633   4.752   2.224   3.850
 8912SOL     OW27634   3.765   3.739   4.515
 8912SOL    HW127635   3.803   3.646   4.515
 8912SOL    HW227636   3.840   3.805   4.518
 8913SOL     OW27637   5.126   6.713   6.517
 8913SOL    HW127638   5.175   6.661   6.587
 8913SOL    HW227639   5.079   6.791   6.560
 8914SOL     OW27640   4.365   5.424   6.706
 8914SOL    HW127641   4.436   5.444   6.638
 8914SOL    HW227642   4.302   5.501   6.712
 8915SOL     OW27643   1.162   1.544   3.868
 8915SOL    HW127644   1.135   1.457   3.909
 8915SOL    HW227645   1.262   1.548   3.862
 8916SOL     OW27646   4.332   1.283   0.189
 8916SOL    HW127647   4.296   1.335   0.112
 8916SOL    HW227648   4.347   1.188   0.161
 8917SOL     OW27649   5.693   1.843   0.485
 8917SOL    HW127650   5.784   1.817   0.454
 8917SOL    HW227651   5.677   1.807   0.577
 8918SOL     OW27652   0.949   3.711   2.664
 8918SOL    HW127653   0.969   3.761   2.748
 8918SOL    HW227654   0.975   3.615   2.674
 8919SOL     OW27655   6.072   3.672   1.439
 8919SOL    HW127656   6.004   3.626   1.495
 8919SOL    HW227657   6.146   3.707   1.497
 8920SOL     OW27658   6.501   2.006   6.972
 8920SOL    HW127659   6.448   1.945   6.913
 8920SOL    HW227660   6.598   1.990   6.958
 8921SOL     OW27661   1.963   2.751   1.954
 8921SOL    HW127662   2.040   2.805   1.986
 8921SOL    HW227663   1.962   2.750   1.854
 8922SOL     OW27664   3.476   6.853   3.493
 8922SOL    HW127665   3.547   6.870   3.561
 8922SOL    HW227666   3.513   6.797   3.419
 8923SOL     OW27667   1.830   2.385   4.797
 8923SOL    HW127668   1.784   2.337   4.723
 8923SOL    HW227669   1.789   2.359   4.885
 8924SOL     OW27670   5.359   5.523   5.102
 8924SOL    HW127671   5.360   5.437   5.154
 8924SOL    HW227672   5.264   5.555   5.092
 8925SOL     OW27673   1.227   6.729   3.241
 8925SOL    HW127674   1.247   6.693   3.150
 8925SOL    HW227675   1.142   6.689   3.275
 8926SOL     OW27676   5.844   2.416   6.286
 8926SOL    HW127677   5.926   2.437   6.233
 8926SOL    HW227678   5.815   2.497   6.336
 8927SOL     OW27679   0.865   1.177   6.074
 8927SOL    HW127680   0.802   1.119   6.125
 8927SOL    HW227681   0.822   1.208   5.989
 8928SOL     OW27682   1.532   6.443   5.211
 8928SOL    HW127683   1.510   6.452   5.114
 8928SOL    HW227684   1.615   6.388   5.222
 8929SOL     OW27685   6.912   2.897   4.654
 8929SOL    HW127686   6.820   2.862   4.672
 8929SOL    HW227687   6.915   2.995   4.676
 8930SOL     OW27688   1.682   4.232   3.436
 8930SOL    HW127689   1.772   4.189   3.441
 8930SOL    HW227690   1.689   4.320   3.389
 8931SOL     OW27691   3.861   2.250   1.405
 8931SOL    HW127692   3.854   2.294   1.495
 8931SOL    HW227693   3.953   2.265   1.368
 8932SOL     OW27694   0.212   3.097   3.584
 8932SOL    HW127695   0.298   3.059   3.549
 8932SOL    HW227696   0.226   3.128   3.678
 8933SOL     OW27697   3.501   1.659   5.491
 8933SOL    HW127698   3.438   1.736   5.479
 8933SOL    HW227699   3.473   1.606   5.572
 8934SOL     OW27700   3.533   5.951   3.322
 8934SOL    HW127701   3.503   5.958   3.227
 8934SOL    HW227702   3.512   6.036   3.370
 8935SOL     OW27703   0.165   4.341   1.186
 8935SOL    HW127704   0.075   4.301   1.167
 8935SOL    HW227705   0.235   4.288   1.138
 8936SOL     OW27706   2.073   2.672   0.581
 8936SOL    HW127707   2.108   2.651   0.672
 8936SOL    HW227708   2.133   2.737   0.536
 8937SOL     OW27709   0.754   5.788   5.384
 8937SOL    HW127710   0.838   5.757   5.340
 8937SOL    HW227711   0.761   5.776   5.483
 8938SOL     OW27712   6.010   5.546   1.193
 8938SOL    HW127713   6.076   5.587   1.255
 8938SOL    HW227714   5.937   5.502   1.246
 8939SOL     OW27715   5.198   2.036   4.453
 8939SOL    HW127716   5.110   2.081   4.438
 8939SOL    HW227717   5.183   1.948   4.500
 8940SOL     OW27718   5.674   0.753   3.135
 8940SOL    HW127719   5.755   0.807   3.159
 8940SOL    HW227720   5.696   0.656   3.137
 8941SOL     OW27721   5.362   2.229   6.149
 8941SOL    HW127722   5.417   2.300   6.106
 8941SOL    HW227723   5.297   2.192   6.083
 8942SOL     OW27724   0.672   2.338   5.564
 8942SOL    HW127725   0.591   2.300   5.519
 8942SOL    HW227726   0.738   2.367   5.494
 8943SOL     OW27727   5.190   4.265   1.274
 8943SOL    HW127728   5.235   4.338   1.222
 8943SOL    HW227729   5.104   4.240   1.229
 8944SOL     OW27730   4.554   5.584   0.595
 8944SOL    HW127731   4.455   5.591   0.609
 8944SOL    HW227732   4.576   5.611   0.501
 8945SOL     OW27733   2.616   1.154   4.302
 8945SOL    HW127734   2.618   1.076   4.239
 8945SOL    HW227735   2.543   1.216   4.275
 8946SOL     OW27736   3.283   1.880   4.228
 8946SOL    HW127737   3.362   1.819   4.219
 8946SOL    HW227738   3.209   1.832   4.275
 8947SOL     OW27739   4.253   4.159   5.297
 8947SOL    HW127740   4.268   4.197   5.206
 8947SOL    HW227741   4.182   4.211   5.343
 8948SOL     OW27742   6.168   5.224   3.118
 8948SOL    HW127743   6.163   5.257   3.213
 8948SOL    HW227744   6.080   5.187   3.091
 8949SOL     OW27745   2.104   6.128   6.827
 8949SOL    HW127746   2.161   6.095   6.903
 8949SOL    HW227747   2.145   6.210   6.788
 8950SOL     OW27748   4.640   2.718   4.254
 8950SOL    HW127749   4.556   2.733   4.202
 8950SOL    HW227750   4.659   2.620   4.259
 8951SOL     OW27751   1.884   2.372   5.406
 8951SOL    HW127752   1.912   2.384   5.310
 8951SOL    HW227753   1.961   2.340   5.460
 8952SOL     OW27754   7.004   1.064   2.261
 8952SOL    HW127755   6.939   1.106   2.324
 8952SOL    HW227756   0.052   1.133   2.231
 8953SOL     OW27757   1.298   3.172   0.032
 8953SOL    HW127758   1.367   3.158   0.102
 8953SOL    HW227759   1.231   3.239   0.064
 8954SOL     OW27760   1.840   5.901   6.141
 8954SOL    HW127761   1.832   5.973   6.210
 8954SOL    HW227762   1.899   5.829   6.175
 8955SOL     OW27763   6.396   3.829   3.499
 8955SOL    HW127764   6.383   3.927   3.517
 8955SOL    HW227765   6.376   3.777   3.582
 8956SOL     OW27766   1.228   0.589   5.979
 8956SOL    HW127767   1.304   0.595   5.914
 8956SOL    HW227768   1.211   0.493   6.001
 8957SOL     OW27769   3.078   4.844   2.534
 8957SOL    HW127770   3.041   4.769   2.589
 8957SOL    HW227771   3.012   4.869   2.463
 8958SOL     OW27772   1.867   6.626   4.207
 8958SOL    HW127773   1.836   6.535   4.234
 8958SOL    HW227774   1.961   6.620   4.174
 8959SOL     OW27775   1.638   4.522   0.341
 8959SOL    HW127776   1.716   4.502   0.401
 8959SOL    HW227777   1.571   4.448   0.348
 8960SOL     OW27778   3.818   5.355   1.054
 8960SOL    HW127779   3.748   5.285   1.038
 8960SOL    HW227780   3.778   5.446   1.045
 8961SOL     OW27781   1.262   2.000   3.554
 8961SOL    HW127782   1.348   1.974   3.510
 8961SOL    HW227783   1.192   1.931   3.534
 8962SOL     OW27784   5.839   0.367   3.405
 8962SOL    HW127785   5.844   0.300   3.331
 8962SOL    HW227786   5.931   0.397   3.429
 8963SOL     OW27787   6.131   1.142   4.092
 8963SOL    HW127788   6.219   1.186   4.106
 8963SOL    HW227789   6.130   1.053   4.138
 8964SOL     OW27790   5.373   4.737   2.549
 8964SOL    HW127791   5.430   4.766   2.472
 8964SOL    HW227792   5.431   4.725   2.630
 8965SOL     OW27793   1.486   5.269   2.190
 8965SOL    HW127794   1.532   5.313   2.267
 8965SOL    HW227795   1.490   5.330   2.110
 8966SOL     OW27796   2.343   2.802   5.878
 8966SOL    HW127797   2.264   2.828   5.933
 8966SOL    HW227798   2.414   2.763   5.937
 8967SOL     OW27799   4.413   0.380   0.162
 8967SOL    HW127800   4.473   0.437   0.218
 8967SOL    HW227801   4.322   0.376   0.204
 8968SOL     OW27802   4.685   5.540   1.584
 8968SOL    HW127803   4.765   5.569   1.636
 8968SOL    HW227804   4.603   5.583   1.622
 8969SOL     OW27805   6.406   0.946   4.121
 8969SOL    HW127806   6.457   1.030   4.106
 8969SOL    HW227807   6.336   0.961   4.191
 8970SOL     OW27808   3.450   1.889   1.729
 8970SOL    HW127809   3.512   1.942   1.672
 8970SOL    HW227810   3.440   1.933   1.818
 8971SOL     OW27811   4.039   5.131   2.251
 8971SOL    HW127812   4.080   5.080   2.326
 8971SOL    HW227813   3.943   5.106   2.242
 8972SOL     OW27814   5.321   0.221   5.107
 8972SOL    HW127815   5.273   0.180   5.185
 8972SOL    HW227816   5.375   0.300   5.139
 8973SOL     OW27817   1.563   5.029   0.112
 8973SOL    HW127818   1.572   5.128   0.128
 8973SOL    HW227819   1.470   5.000   0.134
 8974SOL     OW27820   0.678   3.493   5.153
 8974SOL    HW127821   0.763   3.497   5.099
 8974SOL    HW227822   0.616   3.565   5.122
 8975SOL     OW27823   2.980   6.986   0.540
 8975SOL    HW127824   3.018   6.939   0.461
 8975SOL    HW227825   2.984   6.926   0.620
 8976SOL     OW27826   1.537   5.288   4.230
 8976SOL    HW127827   1.573   5.301   4.322
 8976SOL    HW227828   1.501   5.195   4.222
 8977SOL     OW27829   6.396   1.558   6.002
 8977SOL    HW127830   6.457   1.582   5.925
 8977SOL    HW227831   6.307   1.601   5.989
 8978SOL     OW27832   5.888   0.013   0.247
 8978SOL    HW127833   5.791   0.016   0.224
 8978SOL    HW227834   5.907   6.948   0.300
 8979SOL     OW27835   1.870   3.959   4.871
 8979SOL    HW127836   1.851   3.997   4.961
 8979SOL    HW227837   1.871   4.034   4.804
 8980SOL     OW27838   3.758   2.970   4.404
 8980SOL    HW127839   3.749   2.905   4.480
 8980SOL    HW227840   3.843   3.020   4.413
 8981SOL     OW27841   3.857   1.436   5.196
 8981SOL    HW127842   3.763   1.422   5.227
 8981SOL    HW227843   3.901   1.503   5.256
 8982SOL     OW27844   2.507   4.296   0.685
 8982SOL    HW127845   2.512   4.332   0.779
 8982SOL    HW227846   2.441   4.221   0.682
 8983SOL     OW27847   4.629   5.665   0.356
 8983SOL    HW127848   4.596   5.757   0.336
 8983SOL    HW227849   4.658   5.621   0.272
 8984SOL     OW27850   1.906   5.608   3.303
 8984SOL    HW127851   1.984   5.582   3.360
 8984SOL    HW227852   1.904   5.707   3.293
 8985SOL     OW27853   3.661   3.138   6.282
 8985SOL    HW127854   3.733   3.116   6.217
 8985SOL    HW227855   3.604   3.057   6.298
 8986SOL     OW27856   3.852   4.911   2.785
 8986SOL    HW127857   3.818   4.927   2.692
 8986SOL    HW227858   3.775   4.901   2.847
 8987SOL     OW27859   5.552   6.328   2.083
 8987SOL    HW127860   5.570   6.243   2.132
 8987SOL    HW227861   5.467   6.320   2.032
 8988SOL     OW27862   0.836   5.447   4.458
 8988SOL    HW127863   0.827   5.370   4.521
 8988SOL    HW227864   0.763   5.442   4.389
 8989SOL     OW27865   3.939   2.814   6.226
 8989SOL    HW127866   3.961   2.909   6.249
 8989SOL    HW227867   3.964   2.755   6.303
 8990SOL     OW27868   6.864   5.462   3.248
 8990SOL    HW127869   6.779   5.504   3.216
 8990SOL    HW227870   6.857   5.442   3.345
 8991SOL     OW27871   1.458   2.390   5.143
 8991SOL    HW127872   1.482   2.414   5.237
 8991SOL    HW227873   1.380   2.327   5.143
 8992SOL     OW27874   5.999   2.067   6.674
 8992SOL    HW127875   6.000   2.143   6.609
 8992SOL    HW227876   5.911   2.065   6.722
 8993SOL     OW27877   4.872   2.644   6.414
 8993SOL    HW127878   4.842   2.548   6.418
 8993SOL    HW227879   4.879   2.672   6.318
 8994SOL     OW27880   1.894   5.100   4.358
 8994SOL    HW127881   1.922   5.076   4.451
 8994SOL    HW227882   1.797   5.078   4.346
 8995SOL     OW27883   6.750   1.759   1.276
 8995SOL    HW127884   6.661   1.714   1.280
 8995SOL    HW227885   6.785   1.772   1.369
 8996SOL     OW27886   4.944   4.730   6.308
 8996SOL    HW127887   4.878   4.754   6.379
 8996SOL    HW227888   4.898   4.730   6.219
 8997SOL     OW27889   4.880   1.384   4.974
 8997SOL    HW127890   4.944   1.460   4.967
 8997SOL    HW227891   4.832   1.372   4.887
 8998SOL     OW27892   6.114   4.070   4.205
 8998SOL    HW127893   6.133   4.113   4.117
 8998SOL    HW227894   6.051   3.993   4.191
 8999SOL     OW27895   4.944   6.772   5.981
 8999SOL    HW127896   4.960   6.772   6.079
 8999SOL    HW227897   4.874   6.840   5.959
 9000SOL     OW27898   1.764   3.982   1.388
 9000SOL    HW127899   1.761   3.982   1.488
 9000SOL    HW227900   1.846   4.031   1.358
 9001SOL     OW27901   0.561   4.765   2.016
 9001SOL    HW127902   0.577   4.852   2.063
 9001SOL    HW227903   0.564   4.690   2.082
 9002SOL     OW27904   1.258   4.578   6.167
 9002SOL    HW127905   1.231   4.538   6.255
 9002SOL    HW227906   1.358   4.581   6.162
 9003SOL     OW27907   5.682   1.335   1.582
 9003SOL    HW127908   5.659   1.243   1.551
 9003SOL    HW227909   5.597   1.388   1.593
 9004SOL     OW27910   4.144   4.531   0.765
 9004SOL    HW127911   4.165   4.509   0.669
 9004SOL    HW227912   4.077   4.605   0.768
 9005SOL     OW27913   5.757   1.004   5.373
 9005SOL    HW127914   5.763   1.086   5.430
 9005SOL    HW227915   5.832   0.942   5.395
 9006SOL     OW27916   3.791   6.914   0.939
 9006SOL    HW127917   3.742   6.991   0.980
 9006SOL    HW227918   3.802   6.929   0.841
 9007SOL     OW27919   2.642   1.229   2.806
 9007SOL    HW127920   2.680   1.286   2.733
 9007SOL    HW227921   2.691   1.247   2.892
 9008SOL     OW27922   0.436   5.656   2.718
 9008SOL    HW127923   0.535   5.646   2.709
 9008SOL    HW227924   0.407   5.624   2.808
 9009SOL     OW27925   4.104   5.673   0.363
 9009SOL    HW127926   4.129   5.709   0.452
 9009SOL    HW227927   4.184   5.670   0.303
 9010SOL     OW27928   1.647   6.709   4.061
 9010SOL    HW127929   1.673   6.629   4.008
 9010SOL    HW227930   1.713   6.724   4.134
 9011SOL     OW27931   4.293   0.718   2.852
 9011SOL    HW127932   4.368   0.752   2.908
 9011SOL    HW227933   4.233   0.794   2.826
 9012SOL     OW27934   1.996   5.885   6.906
 9012SOL    HW127935   2.084   5.838   6.915
 9012SOL    HW227936   2.009   5.972   6.859
 9013SOL     OW27937   1.793   6.363   4.287
 9013SOL    HW127938   1.861   6.295   4.262
 9013SOL    HW227939   1.707   6.318   4.310
 9014SOL     OW27940   5.930   2.248   2.435
 9014SOL    HW127941   5.902   2.183   2.365
 9014SOL    HW227942   5.997   2.312   2.396
 9015SOL     OW27943   5.695   1.795   0.756
 9015SOL    HW127944   5.777   1.760   0.803
 9015SOL    HW227945   5.646   1.857   0.817
 9016SOL     OW27946   5.614   5.451   6.021
 9016SOL    HW127947   5.570   5.514   6.085
 9016SOL    HW227948   5.654   5.503   5.946
 9017SOL     OW27949   3.276   0.428   4.987
 9017SOL    HW127950   3.229   0.358   4.932
 9017SOL    HW227951   3.251   0.519   4.954
 9018SOL     OW27952   4.160   3.045   6.539
 9018SOL    HW127953   4.089   3.106   6.503
 9018SOL    HW227954   4.228   3.028   6.468
 9019SOL     OW27955   0.402   2.625   3.281
 9019SOL    HW127956   0.320   2.682   3.274
 9019SOL    HW227957   0.404   2.581   3.370
 9020SOL     OW27958   5.955   5.892   1.787
 9020SOL    HW127959   5.910   5.959   1.846
 9020SOL    HW227960   5.974   5.808   1.840
 9021SOL     OW27961   6.904   0.773   3.956
 9021SOL    HW127962   6.983   0.787   4.016
 9021SOL    HW227963   6.825   0.745   4.011
 9022SOL     OW27964   4.014   2.698   6.457
 9022SOL    HW127965   4.081   2.631   6.489
 9022SOL    HW227966   3.963   2.733   6.536
 9023SOL     OW27967   4.689   3.600   0.887
 9023SOL    HW127968   4.654   3.536   0.957
 9023SOL    HW227969   4.658   3.692   0.909
 9024SOL     OW27970   1.621   5.149   6.252
 9024SOL    HW127971   1.523   5.154   6.233
 9024SOL    HW227972   1.672   5.173   6.169
 9025SOL     OW27973   0.395   5.660   0.918
 9025SOL    HW127974   0.299   5.678   0.898
 9025SOL    HW227975   0.417   5.566   0.894
 9026SOL     OW27976   3.950   1.848   0.363
 9026SOL    HW127977   3.995   1.880   0.280
 9026SOL    HW227978   3.861   1.893   0.372
 9027SOL     OW27979   0.226   3.730   3.630
 9027SOL    HW127980   0.277   3.793   3.572
 9027SOL    HW227981   0.254   3.636   3.608
 9028SOL     OW27982   3.469   4.087   5.727
 9028SOL    HW127983   3.413   4.016   5.684
 9028SOL    HW227984   3.522   4.135   5.656
 9029SOL     OW27985   4.062   6.765   4.737
 9029SOL    HW127986   3.997   6.733   4.806
 9029SOL    HW227987   4.045   6.862   4.718
 9030SOL     OW27988   2.716   1.966   3.586
 9030SOL    HW127989   2.804   1.976   3.633
 9030SOL    HW227990   2.651   1.919   3.647
 9031SOL     OW27991   4.641   0.351   4.618
 9031SOL    HW127992   4.703   0.301   4.679
 9031SOL    HW227993   4.694   0.388   4.541
 9032SOL     OW27994   4.581   3.415   1.690
 9032SOL    HW127995   4.560   3.410   1.592
 9032SOL    HW227996   4.633   3.498   1.709
 9033SOL     OW27997   1.459   5.788   3.221
 9033SOL    HW127998   1.380   5.796   3.161
 9033SOL    HW227999   1.456   5.700   3.269
 9034SOL     OW28000   3.148   6.203   4.620
 9034SOL    HW128001   3.165   6.275   4.552
 9034SOL    HW228002   3.143   6.115   4.574
 9035SOL     OW28003   1.663   4.948   0.551
 9035SOL    HW128004   1.742   4.992   0.510
 9035SOL    HW228005   1.601   5.017   0.588
 9036SOL     OW28006   1.390   3.672   5.900
 9036SOL    HW128007   1.374   3.620   5.817
 9036SOL    HW228008   1.325   3.644   5.970
 9037SOL     OW28009   0.683   2.084   2.976
 9037SOL    HW128010   0.719   2.089   3.070
 9037SOL    HW228011   0.593   2.127   2.972
 9038SOL     OW28012   4.119   3.091   6.215
 9038SOL    HW128013   4.155   3.108   6.123
 9038SOL    HW228014   4.195   3.090   6.280
 9039SOL     OW28015   3.141   5.250   7.002
 9039SOL    HW128016   3.073   5.186   6.966
 9039SOL    HW228017   3.165   5.223   0.077
 9040SOL     OW28018   1.618   2.090   1.112
 9040SOL    HW128019   1.676   2.010   1.097
 9040SOL    HW228020   1.568   2.079   1.198
 9041SOL     OW28021   0.090   2.224   0.814
 9041SOL    HW128022   0.056   2.141   0.859
 9041SOL    HW228023   0.017   2.293   0.812
 9042SOL     OW28024   3.850   5.943   6.401
 9042SOL    HW128025   3.779   5.881   6.370
 9042SOL    HW228026   3.936   5.923   6.353
 9043SOL     OW28027   2.866   1.104   0.296
 9043SOL    HW128028   2.939   1.042   0.326
 9043SOL    HW228029   2.788   1.050   0.263
 9044SOL     OW28030   0.460   0.328   6.386
 9044SOL    HW128031   0.434   0.232   6.375
 9044SOL    HW228032   0.420   0.383   6.312
 9045SOL     OW28033   4.444   0.083   3.027
 9045SOL    HW128034   4.387   0.001   3.018
 9045SOL    HW228035   4.433   0.121   3.119
 9046SOL     OW28036   3.028   3.857   2.763
 9046SOL    HW128037   2.942   3.896   2.731
 9046SOL    HW228038   3.073   3.809   2.688
 9047SOL     OW28039   1.469   4.236   5.959
 9047SOL    HW128040   1.515   4.176   5.895
 9047SOL    HW228041   1.406   4.183   6.016
 9048SOL     OW28042   6.274   2.130   5.960
 9048SOL    HW128043   6.210   2.133   6.036
 9048SOL    HW228044   6.226   2.150   5.875
 9049SOL     OW28045   3.189   6.460   6.200
 9049SOL    HW128046   3.257   6.388   6.190
 9049SOL    HW228047   3.163   6.495   6.110
 9050SOL     OW28048   0.467   4.417   1.558
 9050SOL    HW128049   0.378   4.373   1.550
 9050SOL    HW228050   0.481   4.447   1.653
 9051SOL     OW28051   2.360   2.196   1.050
 9051SOL    HW128052   2.435   2.181   1.114
 9051SOL    HW228053   2.320   2.108   1.025
 9052SOL     OW28054   1.491   3.024   4.965
 9052SOL    HW128055   1.414   3.056   4.909
 9052SOL    HW228056   1.483   3.062   5.057
 9053SOL     OW28057   1.672   1.820   1.158
 9053SOL    HW128058   1.714   1.790   1.243
 9053SOL    HW228059   1.737   1.808   1.082
 9054SOL     OW28060   2.565   5.572   3.345
 9054SOL    HW128061   2.664   5.588   3.345
 9054SOL    HW228062   2.524   5.616   3.265
 9055SOL     OW28063   0.284   4.166   4.738
 9055SOL    HW128064   0.342   4.246   4.726
 9055SOL    HW228065   0.273   4.147   4.835
 9056SOL     OW28066   6.556   1.780   2.432
 9056SOL    HW128067   6.578   1.723   2.511
 9056SOL    HW228068   6.579   1.875   2.451
 9057SOL     OW28069   4.522   1.445   4.281
 9057SOL    HW128070   4.605   1.499   4.295
 9057SOL    HW228071   4.477   1.429   4.370
 9058SOL     OW28072   1.953   0.773   6.707
 9058SOL    HW128073   2.024   0.714   6.668
 9058SOL    HW228074   1.955   0.862   6.661
 9059SOL     OW28075   1.446   1.513   2.372
 9059SOL    HW128076   1.460   1.492   2.275
 9059SOL    HW228077   1.407   1.604   2.381
 9060SOL     OW28078   5.373   2.890   4.934
 9060SOL    HW128079   5.340   2.797   4.946
 9060SOL    HW228080   5.423   2.896   4.847
 9061SOL     OW28081   5.255   5.715   2.482
 9061SOL    HW128082   5.249   5.625   2.438
 9061SOL    HW228083   5.168   5.762   2.476
 9062SOL     OW28084   1.388   5.081   1.098
 9062SOL    HW128085   1.418   5.166   1.141
 9062SOL    HW228086   1.293   5.063   1.124
 9063SOL     OW28087   3.415   2.084   2.496
 9063SOL    HW128088   3.446   2.118   2.407
 9063SOL    HW228089   3.321   2.050   2.488
 9064SOL     OW28090   6.233   3.132   6.843
 9064SOL    HW128091   6.225   3.104   6.747
 9064SOL    HW228092   6.329   3.136   6.869
 9065SOL     OW28093   2.142   0.984   0.684
 9065SOL    HW128094   2.236   0.978   0.650
 9065SOL    HW228095   2.082   0.928   0.626
 9066SOL     OW28096   4.574   6.567   0.016
 9066SOL    HW128097   4.649   6.553   0.080
 9066SOL    HW228098   4.550   6.664   0.012
 9067SOL     OW28099   1.719   6.826   3.724
 9067SOL    HW128100   1.637   6.831   3.667
 9067SOL    HW228101   1.705   6.877   3.808
 9068SOL     OW28102   1.683   5.329   6.867
 9068SOL    HW128103   1.594   5.321   6.912
 9068SOL    HW228104   1.739   5.397   6.915
 9069SOL     OW28105   1.647   2.407   6.570
 9069SOL    HW128106   1.548   2.415   6.556
 9069SOL    HW228107   1.694   2.466   6.505
 9070SOL     OW28108   1.183   4.693   4.356
 9070SOL    HW128109   1.215   4.743   4.275
 9070SOL    HW228110   1.097   4.732   4.388
 9071SOL     OW28111   6.069   6.708   6.647
 9071SOL    HW128112   6.017   6.741   6.726
 9071SOL    HW228113   6.104   6.617   6.666
 9072SOL     OW28114   5.835   4.396   6.601
 9072SOL    HW128115   5.810   4.406   6.697
 9072SOL    HW228116   5.773   4.330   6.557
 9073SOL     OW28117   1.781   0.542   1.517
 9073SOL    HW128118   1.793   0.452   1.559
 9073SOL    HW228119   1.761   0.609   1.588
 9074SOL     OW28120   1.326   0.058   3.035
 9074SOL    HW128121   1.342   7.010   2.962
 9074SOL    HW228122   1.377   0.032   3.116
 9075SOL     OW28123   6.609   1.053   2.363
 9075SOL    HW128124   6.637   0.988   2.433
 9075SOL    HW228125   6.543   1.010   2.302
 9076SOL     OW28126   6.531   1.145   6.012
 9076SOL    HW128127   6.453   1.196   5.976
 9076SOL    HW228128   6.546   1.063   5.957
 9077SOL     OW28129   6.165   6.702   2.330
 9077SOL    HW128130   6.237   6.734   2.268
 9077SOL    HW228131   6.203   6.635   2.394
 9078SOL     OW28132   3.858   2.993   5.187
 9078SOL    HW128133   3.877   2.983   5.090
 9078SOL    HW228134   3.870   2.904   5.233
 9079SOL     OW28135   3.824   0.443   5.915
 9079SOL    HW128136   3.913   0.458   5.957
 9079SOL    HW228137   3.755   0.428   5.987
 9080SOL     OW28138   5.138   2.002   0.877
 9080SOL    HW128139   5.202   2.024   0.804
 9080SOL    HW228140   5.176   2.032   0.965
 9081SOL     OW28141   5.488   0.015   2.166
 9081SOL    HW128142   5.565   0.078   2.180
 9081SOL    HW228143   5.502   6.951   2.220
 9082SOL     OW28144   3.502   1.378   3.506
 9082SOL    HW128145   3.432   1.432   3.553
 9082SOL    HW228146   3.526   1.423   3.420
 9083SOL     OW28147   4.446   4.685   4.782
 9083SOL    HW128148   4.481   4.635   4.703
 9083SOL    HW228149   4.415   4.621   4.852
 9084SOL     OW28150   3.022   3.372   3.289
 9084SOL    HW128151   2.968   3.316   3.352
 9084SOL    HW228152   3.102   3.320   3.258
 9085SOL     OW28153   0.932   2.192   0.713
 9085SOL    HW128154   1.016   2.247   0.720
 9085SOL    HW228155   0.930   2.126   0.788
 9086SOL     OW28156   0.402   4.306   0.881
 9086SOL    HW128157   0.418   4.342   0.789
 9086SOL    HW228158   0.365   4.214   0.874
 9087SOL     OW28159   4.806   3.653   1.761
 9087SOL    HW128160   4.881   3.591   1.738
 9087SOL    HW228161   4.823   3.693   1.851
 9088SOL     OW28162   5.003   6.969   0.218
 9088SOL    HW128163   4.998   0.043   0.181
 9088SOL    HW228164   5.095   6.932   0.203
 9089SOL     OW28165   4.682   0.297   5.546
 9089SOL    HW128166   4.589   0.280   5.515
 9089SOL    HW228167   4.747   0.257   5.481
 9090SOL     OW28168   6.272   1.490   4.697
 9090SOL    HW128169   6.344   1.540   4.745
 9090SOL    HW228170   6.186   1.541   4.701
 9091SOL     OW28171   2.849   3.398   6.781
 9091SOL    HW128172   2.913   3.456   6.832
 9091SOL    HW228173   2.890   3.308   6.766
 9092SOL     OW28174   0.037   2.587   6.966
 9092SOL    HW128175   0.115   2.627   7.015
 9092SOL    HW228176   0.067   2.549   6.879
 9093SOL     OW28177   1.257   6.143   5.859
 9093SOL    HW128178   1.212   6.083   5.793
 9093SOL    HW228179   1.279   6.230   5.816
 9094SOL     OW28180   0.753   3.457   1.960
 9094SOL    HW128181   0.804   3.539   1.935
 9094SOL    HW228182   0.801   3.409   2.035
 9095SOL     OW28183   6.141   6.392   4.840
 9095SOL    HW128184   6.097   6.479   4.817
 9095SOL    HW228185   6.082   6.341   4.902
 9096SOL     OW28186   6.227   5.961   3.358
 9096SOL    HW128187   6.319   5.986   3.329
 9096SOL    HW228188   6.160   6.019   3.311
 9097SOL     OW28189   1.349   2.617   5.950
 9097SOL    HW128190   1.448   2.632   5.959
 9097SOL    HW228191   1.326   2.611   5.853
 9098SOL     OW28192   1.925   3.711   4.206
 9098SOL    HW128193   1.862   3.645   4.247
 9098SOL    HW228194   1.874   3.786   4.164
 9099SOL     OW28195   2.662   2.509   6.812
 9099SOL    HW128196   2.600   2.456   6.753
 9099SOL    HW228197   2.613   2.590   6.846
 9100SOL     OW28198   0.777   4.797   3.067
 9100SOL    HW128199   0.707   4.736   3.104
 9100SOL    HW228200   0.734   4.867   3.010
 9101SOL     OW28201   1.115   2.688   1.737
 9101SOL    HW128202   1.039   2.714   1.677
 9101SOL    HW228203   1.102   2.594   1.768
 9102SOL     OW28204   4.213   6.514   3.161
 9102SOL    HW128205   4.190   6.417   3.148
 9102SOL    HW228206   4.178   6.567   3.084
 9103SOL     OW28207   6.528   1.326   0.532
 9103SOL    HW128208   6.559   1.390   0.462
 9103SOL    HW228209   6.442   1.360   0.572
 9104SOL     OW28210   6.045   1.458   6.690
 9104SOL    HW128211   6.054   1.555   6.712
 9104SOL    HW228212   6.088   1.403   6.762
 9105SOL     OW28213   2.250   0.540   6.238
 9105SOL    HW128214   2.199   0.489   6.307
 9105SOL    HW228215   2.197   0.621   6.211
 9106SOL     OW28216   1.429   4.205   0.964
 9106SOL    HW128217   1.460   4.211   1.059
 9106SOL    HW228218   1.403   4.296   0.931
 9107SOL     OW28219   2.444   1.350   6.982
 9107SOL    HW128220   2.530   1.347   0.015
 9107SOL    HW228221   2.368   1.363   0.027
 9108SOL     OW28222   5.868   5.607   6.531
 9108SOL    HW128223   5.911   5.674   6.471
 9108SOL    HW228224   5.778   5.583   6.495
 9109SOL     OW28225   5.524   3.397   2.429
 9109SOL    HW128226   5.443   3.373   2.376
 9109SOL    HW228227   5.587   3.320   2.430
 9110SOL     OW28228   1.246   5.867   4.521
 9110SOL    HW128229   1.166   5.827   4.475
 9110SOL    HW228230   1.288   5.935   4.461
 9111SOL     OW28231   4.384   2.361   6.348
 9111SOL    HW128232   4.469   2.343   6.300
 9111SOL    HW228233   4.385   2.454   6.384
 9112SOL     OW28234   0.928   5.475   1.806
 9112SOL    HW128235   0.839   5.429   1.802
 9112SOL    HW228236   0.992   5.428   1.744
 9113SOL     OW28237   5.799   1.413   3.827
 9113SOL    HW128238   5.891   1.413   3.867
 9113SOL    HW228239   5.745   1.486   3.868
 9114SOL     OW28240   1.231   6.139   5.455
 9114SOL    HW128241   1.266   6.066   5.513
 9114SOL    HW228242   1.165   6.194   5.507
 9115SOL     OW28243   5.013   4.309   3.634
 9115SOL    HW128244   5.094   4.353   3.673
 9115SOL    HW228245   5.040   4.250   3.558
 9116SOL     OW28246   1.498   6.894   3.564
 9116SOL    HW128247   1.512   6.861   3.471
 9116SOL    HW228248   1.466   6.989   3.561
 9117SOL     OW28249   3.106   6.872   0.330
 9117SOL    HW128250   3.136   6.951   0.276
 9117SOL    HW228251   3.169   6.796   0.314
 9118SOL     OW28252   6.135   4.419   1.756
 9118SOL    HW128253   6.208   4.351   1.750
 9118SOL    HW228254   6.174   4.509   1.773
 9119SOL     OW28255   3.502   0.312   0.611
 9119SOL    HW128256   3.518   0.215   0.625
 9119SOL    HW228257   3.551   0.365   0.681
 9120SOL     OW28258   5.901   4.073   4.821
 9120SOL    HW128259   5.987   4.123   4.835
 9120SOL    HW228260   5.863   4.094   4.731
 9121SOL     OW28261   3.161   0.783   5.109
 9121SOL    HW128262   3.179   0.748   5.017
 9121SOL    HW228263   3.199   0.876   5.117
 9122SOL     OW28264   1.457   3.908   2.378
 9122SOL    HW128265   1.406   3.985   2.340
 9122SOL    HW228266   1.425   3.823   2.338
 9123SOL     OW28267   0.229   0.274   4.273
 9123SOL    HW128268   0.146   0.228   4.305
 9123SOL    HW228269   0.272   0.323   4.349
 9124SOL     OW28270   2.809   5.368   1.049
 9124SOL    HW128271   2.901   5.328   1.040
 9124SOL    HW228272   2.741   5.299   1.024
 9125SOL     OW28273   4.832   6.116   0.932
 9125SOL    HW128274   4.764   6.104   0.860
 9125SOL    HW228275   4.923   6.124   0.892
 9126SOL     OW28276   3.846   4.596   0.345
 9126SOL    HW128277   3.927   4.638   0.384
 9126SOL    HW228278   3.795   4.548   0.417
 9127SOL     OW28279   7.012   4.676   4.136
 9127SOL    HW128280   0.007   4.690   4.038
 9127SOL    HW228281   6.924   4.633   4.153
 9128SOL     OW28282   5.731   4.117   6.141
 9128SOL    HW128283   5.798   4.119   6.067
 9128SOL    HW228284   5.746   4.036   6.198
 9129SOL     OW28285   1.023   3.143   0.940
 9129SOL    HW128286   1.105   3.088   0.956
 9129SOL    HW228287   0.963   3.135   1.019
 9130SOL     OW28288   3.025   4.023   4.972
 9130SOL    HW128289   3.015   4.045   5.069
 9130SOL    HW228290   2.951   4.065   4.920
 9131SOL     OW28291   4.829   2.663   0.477
 9131SOL    HW128292   4.799   2.679   0.571
 9131SOL    HW228293   4.762   2.700   0.414
 9132SOL     OW28294   6.828   3.928   3.622
 9132SOL    HW128295   6.811   3.949   3.719
 9132SOL    HW228296   6.742   3.908   3.576
 9133SOL     OW28297   4.654   0.649   0.862
 9133SOL    HW128298   4.693   0.694   0.942
 9133SOL    HW228299   4.728   0.613   0.805
 9134SOL     OW28300   4.652   4.815   0.867
 9134SOL    HW128301   4.627   4.872   0.789
 9134SOL    HW228302   4.583   4.742   0.879
 9135SOL     OW28303   6.566   6.512   2.311
 9135SOL    HW128304   6.510   6.437   2.349
 9135SOL    HW228305   6.505   6.583   2.275
 9136SOL     OW28306   6.339   4.662   0.177
 9136SOL    HW128307   6.339   4.737   0.111
 9136SOL    HW228308   6.310   4.696   0.267
 9137SOL     OW28309   5.265   6.314   5.967
 9137SOL    HW128310   5.210   6.231   5.970
 9137SOL    HW228311   5.308   6.329   6.056
 9138SOL     OW28312   2.933   3.352   0.281
 9138SOL    HW128313   2.874   3.271   0.279
 9138SOL    HW228314   2.920   3.401   0.367
 9139SOL     OW28315   6.579   0.125   0.968
 9139SOL    HW128316   6.484   0.109   0.942
 9139SOL    HW228317   6.603   0.220   0.950
 9140SOL     OW28318   1.174   3.641   3.399
 9140SOL    HW128319   1.109   3.625   3.474
 9140SOL    HW228320   1.266   3.652   3.437
 9141SOL     OW28321   6.731   5.734   4.831
 9141SOL    HW128322   6.794   5.670   4.786
 9141SOL    HW228323   6.640   5.725   4.792
 9142SOL     OW28324   1.619   4.207   4.683
 9142SOL    HW128325   1.593   4.164   4.596
 9142SOL    HW228326   1.719   4.218   4.685
 9143SOL     OW28327   6.446   4.198   2.652
 9143SOL    HW128328   6.429   4.290   2.687
 9143SOL    HW228329   6.499   4.146   2.718
 9144SOL     OW28330   2.653   4.796   5.180
 9144SOL    HW128331   2.632   4.774   5.275
 9144SOL    HW228332   2.697   4.718   5.136
 9145SOL     OW28333   1.542   6.007   5.791
 9145SOL    HW128334   1.452   6.049   5.799
 9145SOL    HW228335   1.554   5.939   5.864
 9146SOL     OW28336   5.409   2.611   3.331
 9146SOL    HW128337   5.334   2.677   3.332
 9146SOL    HW228338   5.476   2.635   3.402
 9147SOL     OW28339   4.127   0.172   5.066
 9147SOL    HW128340   4.131   0.266   5.100
 9147SOL    HW228341   4.101   0.173   4.970
 9148SOL     OW28342   5.602   5.822   1.562
 9148SOL    HW128343   5.575   5.874   1.643
 9148SOL    HW228344   5.653   5.741   1.590
 9149SOL     OW28345   0.347   3.958   1.336
 9149SOL    HW128346   0.415   3.897   1.378
 9149SOL    HW228347   0.314   4.023   1.404
 9150SOL     OW28348   2.287   3.031   0.096
 9150SOL    HW128349   2.277   3.026   7.015
 9150SOL    HW228350   2.327   2.945   0.130
 9151SOL     OW28351   1.441   3.373   3.722
 9151SOL    HW128352   1.495   3.321   3.789
 9151SOL    HW228353   1.443   3.326   3.634
 9152SOL     OW28354   1.665   3.968   2.041
 9152SOL    HW128355   1.583   3.920   2.071
 9152SOL    HW228356   1.722   3.990   2.121
 9153SOL     OW28357   0.627   3.143   5.938
 9153SOL    HW128358   0.572   3.226   5.934
 9153SOL    HW228359   0.635   3.104   5.846
 9154SOL     OW28360   5.649   5.398   3.046
 9154SOL    HW128361   5.595   5.477   3.015
 9154SOL    HW228362   5.612   5.314   3.006
 9155SOL     OW28363   1.270   6.623   2.967
 9155SOL    HW128364   1.342   6.555   2.950
 9155SOL    HW228365   1.181   6.578   2.969
 9156SOL     OW28366   6.805   3.847   6.139
 9156SOL    HW128367   6.828   3.921   6.202
 9156SOL    HW228368   6.798   3.761   6.189
 9157SOL     OW28369   1.354   4.525   6.533
 9157SOL    HW128370   1.424   4.515   6.462
 9157SOL    HW228371   1.370   4.610   6.584
 9158SOL     OW28372   6.546   4.162   4.841
 9158SOL    HW128373   6.508   4.102   4.771
 9158SOL    HW228374   6.646   4.153   4.842
 9159SOL     OW28375   2.962   1.574   4.158
 9159SOL    HW128376   3.037   1.542   4.098
 9159SOL    HW228377   2.945   1.506   4.229
 9160SOL     OW28378   0.718   4.382   1.936
 9160SOL    HW128379   0.694   4.365   2.031
 9160SOL    HW228380   0.666   4.322   1.876
 9161SOL     OW28381   6.683   4.023   2.415
 9161SOL    HW128382   6.717   3.934   2.385
 9161SOL    HW228383   6.583   4.020   2.422
 9162SOL     OW28384   4.323   2.060   1.560
 9162SOL    HW128385   4.267   2.092   1.636
 9162SOL    HW228386   4.322   1.960   1.558
 9163SOL     OW28387   2.040   2.115   3.195
 9163SOL    HW128388   1.949   2.157   3.190
 9163SOL    HW228389   2.105   2.171   3.145
 9164SOL     OW28390   2.675   6.205   6.608
 9164SOL    HW128391   2.758   6.242   6.568
 9164SOL    HW228392   2.698   6.129   6.669
 9165SOL     OW28393   6.177   1.713   5.962
 9165SOL    HW128394   6.143   1.727   6.055
 9165SOL    HW228395   6.102   1.685   5.903
 9166SOL     OW28396   4.973   6.199   1.530
 9166SOL    HW128397   4.960   6.297   1.522
 9166SOL    HW228398   4.899   6.151   1.481
 9167SOL     OW28399   1.920   1.317   5.153
 9167SOL    HW128400   1.848   1.257   5.187
 9167SOL    HW228401   1.959   1.280   5.069
 9168SOL     OW28402   6.205   6.074   4.598
 9168SOL    HW128403   6.210   6.071   4.698
 9168SOL    HW228404   6.193   5.982   4.562
 9169SOL     OW28405   6.875   6.415   1.874
 9169SOL    HW128406   6.922   6.459   1.797
 9169SOL    HW228407   6.779   6.443   1.875
 9170SOL     OW28408   1.626   0.806   6.531
 9170SOL    HW128409   1.634   0.795   6.432
 9170SOL    HW228410   1.676   0.887   6.560
 9171SOL     OW28411   3.757   5.013   6.465
 9171SOL    HW128412   3.739   5.111   6.466
 9171SOL    HW228413   3.834   4.992   6.525
 9172SOL     OW28414   4.497   1.835   4.904
 9172SOL    HW128415   4.480   1.828   4.806
 9172SOL    HW228416   4.591   1.806   4.924
 9173SOL     OW28417   5.594   3.759   5.025
 9173SOL    HW128418   5.507   3.712   5.038
 9173SOL    HW228419   5.595   3.807   4.938
 9174SOL     OW28420   6.841   4.997   0.904
 9174SOL    HW128421   6.932   5.026   0.934
 9174SOL    HW228422   6.845   4.971   0.808
 9175SOL     OW28423   2.281   6.763   0.072
 9175SOL    HW128424   2.220   6.684   0.082
 9175SOL    HW228425   2.353   6.759   0.141
 9176SOL     OW28426   1.673   1.747   2.275
 9176SOL    HW128427   1.763   1.784   2.250
 9176SOL    HW228428   1.608   1.764   2.201
 9177SOL     OW28429   0.518   5.486   3.577
 9177SOL    HW128430   0.421   5.507   3.567
 9177SOL    HW228431   0.551   5.520   3.665
 9178SOL     OW28432   1.747   4.811   1.230
 9178SOL    HW128433   1.714   4.845   1.142
 9178SOL    HW228434   1.844   4.787   1.222
 9179SOL     OW28435   3.150   5.308   4.071
 9179SOL    HW128436   3.065   5.267   4.103
 9179SOL    HW228437   3.132   5.400   4.037
 9180SOL     OW28438   0.272   1.496   5.240
 9180SOL    HW128439   0.277   1.425   5.170
 9180SOL    HW228440   0.262   1.453   5.330
 9181SOL     OW28441   2.389   2.337   3.547
 9181SOL    HW128442   2.427   2.245   3.532
 9181SOL    HW228443   2.441   2.403   3.492
 9182SOL     OW28444   0.700   1.726   2.729
 9182SOL    HW128445   0.742   1.816   2.727
 9182SOL    HW228446   0.694   1.694   2.824
 9183SOL     OW28447   1.723   1.680   6.267
 9183SOL    HW128448   1.778   1.610   6.313
 9183SOL    HW228449   1.647   1.706   6.326
 9184SOL     OW28450   3.975   3.661   0.661
 9184SOL    HW128451   4.060   3.688   0.704
 9184SOL    HW228452   3.969   3.702   0.570
 9185SOL     OW28453   1.704   0.810   6.246
 9185SOL    HW128454   1.797   0.788   6.276
 9185SOL    HW228455   1.658   0.725   6.218
 9186SOL     OW28456   5.213   1.114   6.368
 9186SOL    HW128457   5.296   1.166   6.349
 9186SOL    HW228458   5.155   1.167   6.430
 9187SOL     OW28459   5.464   2.574   0.543
 9187SOL    HW128460   5.417   2.639   0.603
 9187SOL    HW228461   5.403   2.548   0.468
 9188SOL     OW28462   1.590   0.279   2.131
 9188SOL    HW128463   1.538   0.354   2.171
 9188SOL    HW228464   1.598   0.293   2.032
 9189SOL     OW28465   4.572   0.996   6.077
 9189SOL    HW128466   4.503   1.013   6.006
 9189SOL    HW228467   4.630   0.920   6.048
 9190SOL     OW28468   5.797   1.863   5.484
 9190SOL    HW128469   5.788   1.768   5.454
 9190SOL    HW228470   5.735   1.921   5.430
 9191SOL     OW28471   5.584   0.192   0.791
 9191SOL    HW128472   5.646   0.120   0.762
 9191SOL    HW228473   5.611   0.224   0.882
 9192SOL     OW28474   4.843   3.752   3.975
 9192SOL    HW128475   4.770   3.815   3.948
 9192SOL    HW228476   4.887   3.714   3.893
 9193SOL     OW28477   3.322   2.922   3.101
 9193SOL    HW128478   3.405   2.887   3.059
 9193SOL    HW228479   3.263   2.962   3.031
 9194SOL     OW28480   4.230   5.698   2.890
 9194SOL    HW128481   4.154   5.745   2.844
 9194SOL    HW228482   4.217   5.599   2.882
 9195SOL     OW28483   6.912   2.845   2.828
 9195SOL    HW128484   6.959   2.759   2.806
 9195SOL    HW228485   6.844   2.865   2.758
 9196SOL     OW28486   5.135   6.740   3.792
 9196SOL    HW128487   5.063   6.715   3.856
 9196SOL    HW228488   5.203   6.798   3.838
 9197SOL     OW28489   3.949   2.567   6.013
 9197SOL    HW128490   3.967   2.665   6.009
 9197SOL    HW228491   3.987   2.523   5.931
 9198SOL     OW28492   5.983   2.203   5.417
 9198SOL    HW128493   5.916   2.232   5.485
 9198SOL    HW228494   5.996   2.104   5.423
 9199SOL     OW28495   2.069   3.320   6.160
 9199SOL    HW128496   2.076   3.411   6.118
 9199SOL    HW228497   2.153   3.269   6.143
 9200SOL     OW28498   5.642   6.464   1.032
 9200SOL    HW128499   5.641   6.409   1.115
 9200SOL    HW228500   5.650   6.404   0.952
 9201SOL     OW28501   1.501   4.073   2.847
 9201SOL    HW128502   1.589   4.109   2.816
 9201SOL    HW228503   1.442   4.055   2.768
 9202SOL     OW28504   3.251   5.516   3.861
 9202SOL    HW128505   3.282   5.458   3.786
 9202SOL    HW228506   3.295   5.488   3.946
 9203SOL     OW28507   4.542   0.703   6.266
 9203SOL    HW128508   4.617   0.750   6.312
 9203SOL    HW228509   4.455   0.729   6.308
 9204SOL     OW28510   5.312   4.346   2.273
 9204SOL    HW128511   5.334   4.404   2.195
 9204SOL    HW228512   5.296   4.402   2.353
 9205SOL     OW28513   4.879   3.190   2.172
 9205SOL    HW128514   4.865   3.190   2.271
 9205SOL    HW228515   4.825   3.117   2.131
 9206SOL     OW28516   1.090   6.347   3.224
 9206SOL    HW128517   1.189   6.348   3.237
 9206SOL    HW228518   1.051   6.429   3.267
 9207SOL     OW28519   4.138   5.962   6.830
 9207SOL    HW128520   4.133   6.052   6.873
 9207SOL    HW228521   4.140   5.973   6.730
 9208SOL     OW28522   4.778   4.121   1.975
 9208SOL    HW128523   4.687   4.152   2.003
 9208SOL    HW228524   4.847   4.158   2.038
 9209SOL     OW28525   3.816   6.953   3.121
 9209SOL    HW128526   3.765   6.999   3.193
 9209SOL    HW228527   3.912   6.981   3.125
 9210SOL     OW28528   1.057   6.452   0.357
 9210SOL    HW128529   1.048   6.435   0.455
 9210SOL    HW228530   1.151   6.480   0.336
 9211SOL     OW28531   5.169   1.061   6.073
 9211SOL    HW128532   5.093   1.083   6.134
 9211SOL    HW228533   5.243   1.127   6.087
 9212SOL     OW28534   5.361   3.635   5.132
 9212SOL    HW128535   5.405   3.596   5.213
 9212SOL    HW228536   5.265   3.654   5.152
 9213SOL     OW28537   6.435   6.756   2.768
 9213SOL    HW128538   6.429   6.822   2.843
 9213SOL    HW228539   6.516   6.776   2.712
 9214SOL     OW28540   2.328   2.353   5.440
 9214SOL    HW128541   2.406   2.387   5.492
 9214SOL    HW228542   2.254   2.421   5.444
 9215SOL     OW28543   6.933   2.953   3.081
 9215SOL    HW128544   6.937   2.915   2.988
 9215SOL    HW228545   6.970   3.045   3.082
 9216SOL     OW28546   2.803   5.832   3.722
 9216SOL    HW128547   2.803   5.733   3.737
 9216SOL    HW228548   2.897   5.866   3.725
 9217SOL     OW28549   3.714   1.250   6.607
 9217SOL    HW128550   3.734   1.348   6.619
 9217SOL    HW228551   3.775   1.196   6.665
 9218SOL     OW28552   5.511   5.656   6.186
 9218SOL    HW128553   5.417   5.645   6.153
 9218SOL    HW228554   5.515   5.735   6.247
 9219SOL     OW28555   3.290   2.265   5.698
 9219SOL    HW128556   3.370   2.324   5.701
 9219SOL    HW228557   3.212   2.315   5.663
 9220SOL     OW28558   0.549   6.999   3.239
 9220SOL    HW128559   0.513   6.939   3.168
 9220SOL    HW228560   0.641   0.010   3.215
 9221SOL     OW28561   2.400   1.809   0.256
 9221SOL    HW128562   2.432   1.897   0.220
 9221SOL    HW228563   2.305   1.818   0.286
 9222SOL     OW28564   1.568   3.076   4.260
 9222SOL    HW128565   1.516   3.010   4.206
 9222SOL    HW228566   1.646   3.108   4.206
 9223SOL     OW28567   0.527   3.040   5.251
 9223SOL    HW128568   0.453   3.026   5.186
 9223SOL    HW228569   0.556   2.952   5.288
 9224SOL     OW28570   2.735   4.688   3.332
 9224SOL    HW128571   2.692   4.623   3.269
 9224SOL    HW228572   2.808   4.737   3.284
 9225SOL     OW28573   5.732   5.906   6.165
 9225SOL    HW128574   5.805   5.846   6.199
 9225SOL    HW228575   5.651   5.895   6.221
 9226SOL     OW28576   0.741   0.572   0.486
 9226SOL    HW128577   0.755   0.473   0.491
 9226SOL    HW228578   0.755   0.603   0.392
 9227SOL     OW28579   2.977   4.147   0.542
 9227SOL    HW128580   2.994   4.130   0.445
 9227SOL    HW228581   2.879   4.139   0.560
 9228SOL     OW28582   3.546   3.440   5.004
 9228SOL    HW128583   3.603   3.516   4.972
 9228SOL    HW228584   3.452   3.453   4.973
 9229SOL     OW28585   6.739   4.985   0.379
 9229SOL    HW128586   6.835   5.012   0.385
 9229SOL    HW228587   6.716   4.966   0.284
 9230SOL     OW28588   3.953   1.269   5.455
 9230SOL    HW128589   4.036   1.274   5.511
 9230SOL    HW228590   3.978   1.267   5.358
 9231SOL     OW28591   6.711   6.073   2.424
 9231SOL    HW128592   6.741   6.020   2.345
 9231SOL    HW228593   6.775   6.058   2.500
 9232SOL     OW28594   1.041   5.194   2.338
 9232SOL    HW128595   1.095   5.148   2.268
 9232SOL    HW228596   1.089   5.190   2.425
 9233SOL     OW28597   0.893   6.518   6.183
 9233SOL    HW128598   0.938   6.444   6.234
 9233SOL    HW228599   0.890   6.600   6.240
 9234SOL     OW28600   2.567   3.480   6.682
 9234SOL    HW128601   2.485   3.427   6.663
 9234SOL    HW228602   2.603   3.519   6.597
 9235SOL     OW28603   1.814   1.635   3.152
 9235SOL    HW128604   1.862   1.722   3.167
 9235SOL    HW228605   1.718   1.655   3.130
 9236SOL     OW28606   1.749   2.995   6.278
 9236SOL    HW128607   1.776   3.091   6.285
 9236SOL    HW228608   1.683   2.973   6.350
 9237SOL     OW28609   5.906   5.183   3.047
 9237SOL    HW128610   5.828   5.245   3.052
 9237SOL    HW228611   5.923   5.158   2.951
 9238SOL     OW28612   1.768   3.019   4.441
 9238SOL    HW128613   1.682   3.019   4.390
 9238SOL    HW228614   1.749   3.008   4.539
 9239SOL     OW28615   1.263   4.576   6.886
 9239SOL    HW128616   1.292   4.545   6.977
 9239SOL    HW228617   1.337   4.628   6.843
 9240SOL     OW28618   4.542   1.768   3.288
 9240SOL    HW128619   4.556   1.844   3.351
 9240SOL    HW228620   4.515   1.686   3.340
 9241SOL     OW28621   5.393   0.319   0.652
 9241SOL    HW128622   5.320   0.352   0.712
 9241SOL    HW228623   5.461   0.271   0.707
 9242SOL     OW28624   2.101   2.419   0.458
 9242SOL    HW128625   2.165   2.368   0.516
 9242SOL    HW228626   2.074   2.504   0.505
 9243SOL     OW28627   1.559   0.155   0.091
 9243SOL    HW128628   1.655   0.165   0.118
 9243SOL    HW228629   1.553   0.142   7.011
 9244SOL     OW28630   4.036   6.702   6.126
 9244SOL    HW128631   4.077   6.622   6.171
 9244SOL    HW228632   3.963   6.671   6.065
 9245SOL     OW28633   1.291   4.619   2.804
 9245SOL    HW128634   1.279   4.658   2.896
 9245SOL    HW228635   1.209   4.638   2.750
 9246SOL     OW28636   5.058   6.950   6.683
 9246SOL    HW128637   4.977   7.005   6.708
 9246SOL    HW228638   5.105   6.995   6.607
 9247SOL     OW28639   4.180   5.437   2.889
 9247SOL    HW128640   4.176   5.377   2.809
 9247SOL    HW228641   4.137   5.391   2.967
 9248SOL     OW28642   2.496   0.863   6.852
 9248SOL    HW128643   2.461   0.912   6.931
 9248SOL    HW228644   2.536   0.929   6.787
 9249SOL     OW28645   2.493   6.433   0.618
 9249SOL    HW128646   2.468   6.468   0.528
 9249SOL    HW228647   2.497   6.333   0.616
 9250SOL     OW28648   0.477   2.731   4.169
 9250SOL    HW128649   0.421   2.654   4.199
 9250SOL    HW228650   0.439   2.816   4.206
 9251SOL     OW28651   2.828   2.151   0.725
 9251SOL    HW128652   2.802   2.243   0.754
 9251SOL    HW228653   2.910   2.123   0.774
 9252SOL     OW28654   5.602   1.356   5.265
 9252SOL    HW128655   5.543   1.305   5.327
 9252SOL    HW228656   5.576   1.453   5.265
 9253SOL     OW28657   1.290   6.000   5.088
 9253SOL    HW128658   1.210   6.001   5.148
 9253SOL    HW228659   1.336   6.089   5.094
 9254SOL     OW28660   0.513   4.959   2.200
 9254SOL    HW128661   0.421   4.930   2.224
 9254SOL    HW228662   0.518   5.059   2.203
 9255SOL     OW28663   6.540   4.479   0.956
 9255SOL    HW128664   6.553   4.464   1.054
 9255SOL    HW228665   6.576   4.569   0.931
 9256SOL     OW28666   2.813   6.435   1.121
 9256SOL    HW128667   2.827   6.357   1.181
 9256SOL    HW228668   2.824   6.406   1.026
 9257SOL     OW28669   6.084   5.926   4.360
 9257SOL    HW128670   6.151   5.854   4.343
 9257SOL    HW228671   6.008   5.890   4.413
 9258SOL     OW28672   3.609   5.162   1.086
 9258SOL    HW128673   3.653   5.143   1.173
 9258SOL    HW228674   3.531   5.223   1.101
 9259SOL     OW28675   1.679   2.015   0.335
 9259SOL    HW128676   1.597   2.019   0.392
 9259SOL    HW228677   1.663   1.951   0.260
 9260SOL     OW28678   5.299   3.958   4.514
 9260SOL    HW128679   5.270   3.863   4.525
 9260SOL    HW228680   5.372   3.978   4.579
 9261SOL     OW28681   3.073   2.160   1.332
 9261SOL    HW128682   3.143   2.120   1.390
 9261SOL    HW228683   2.996   2.191   1.389
 9262SOL     OW28684   6.595   6.049   5.705
 9262SOL    HW128685   6.578   6.092   5.794
 9262SOL    HW228686   6.694   6.047   5.688
 9263SOL     OW28687   1.963   4.535   3.236
 9263SOL    HW128688   2.007   4.499   3.154
 9263SOL    HW228689   2.009   4.618   3.266
 9264SOL     OW28690   5.352   4.256   6.360
 9264SOL    HW128691   5.401   4.338   6.329
 9264SOL    HW228692   5.329   4.265   6.457
 9265SOL     OW28693   5.832   1.553   1.737
 9265SOL    HW128694   5.791   1.463   1.719
 9265SOL    HW228695   5.923   1.556   1.696
 9266SOL     OW28696   1.276   4.396   1.375
 9266SOL    HW128697   1.229   4.367   1.458
 9266SOL    HW228698   1.224   4.366   1.295
 9267SOL     OW28699   6.667   0.518   4.035
 9267SOL    HW128700   6.666   0.613   4.066
 9267SOL    HW228701   6.583   0.473   4.064
 9268SOL     OW28702   0.404   6.964   1.222
 9268SOL    HW128703   0.467   6.927   1.290
 9268SOL    HW228704   0.311   6.962   1.258
 9269SOL     OW28705   3.072   0.972   0.395
 9269SOL    HW128706   3.117   0.965   0.484
 9269SOL    HW228707   3.085   0.887   0.344
 9270SOL     OW28708   2.804   0.280   6.620
 9270SOL    HW128709   2.756   0.210   6.672
 9270SOL    HW228710   2.830   0.355   6.682
 9271SOL     OW28711   1.341   5.742   5.127
 9271SOL    HW128712   1.315   5.837   5.107
 9271SOL    HW228713   1.331   5.687   5.045
 9272SOL     OW28714   6.933   6.441   6.191
 9272SOL    HW128715   6.960   6.450   6.287
 9272SOL    HW228716   7.015   6.439   6.134
 9273SOL     OW28717   5.175   4.183   3.455
 9273SOL    HW128718   5.202   4.201   3.360
 9273SOL    HW228719   5.253   4.144   3.504
 9274SOL     OW28720   0.492   3.231   0.641
 9274SOL    HW128721   0.539   3.217   0.729
 9274SOL    HW228722   0.467   3.327   0.632
 9275SOL     OW28723   5.964   0.959   0.431
 9275SOL    HW128724   5.997   0.882   0.486
 9275SOL    HW228725   6.036   1.027   0.422
 9276SOL     OW28726   2.428   5.173   0.169
 9276SOL    HW128727   2.378   5.235   0.109
 9276SOL    HW228728   2.446   5.087   0.120
 9277SOL     OW28729   5.256   5.161   2.247
 9277SOL    HW128730   5.157   5.151   2.234
 9277SOL    HW228731   5.296   5.071   2.268
 9278SOL     OW28732   1.000   6.968   5.250
 9278SOL    HW128733   1.001   6.933   5.156
 9278SOL    HW228734   0.927   0.017   5.259
 9279SOL     OW28735   3.368   5.520   1.688
 9279SOL    HW128736   3.299   5.568   1.741
 9279SOL    HW228737   3.328   5.439   1.645
 9280SOL     OW28738   1.944   6.545   2.921
 9280SOL    HW128739   1.903   6.504   3.002
 9280SOL    HW228740   1.910   6.500   2.838
 9281SOL     OW28741   2.003   5.788   0.763
 9281SOL    HW128742   1.942   5.765   0.686
 9281SOL    HW228743   1.948   5.797   0.846
 9282SOL     OW28744   3.327   6.781   5.009
 9282SOL    HW128745   3.306   6.712   5.078
 9282SOL    HW228746   3.422   6.769   4.979
 9283SOL     OW28747   4.243   6.555   1.220
 9283SOL    HW128748   4.300   6.633   1.245
 9283SOL    HW228749   4.280   6.472   1.262
 9284SOL     OW28750   4.586   4.241   5.633
 9284SOL    HW128751   4.517   4.175   5.602
 9284SOL    HW228752   4.579   4.252   5.732
 9285SOL     OW28753   0.404   5.229   2.960
 9285SOL    HW128754   0.361   5.319   2.967
 9285SOL    HW228755   0.352   5.163   3.015
 9286SOL     OW28756   4.222   0.212   1.505
 9286SOL    HW128757   4.130   0.174   1.498
 9286SOL    HW228758   4.222   0.306   1.471
 9287SOL     OW28759   3.870   4.108   5.779
 9287SOL    HW128760   3.873   4.018   5.822
 9287SOL    HW228761   3.839   4.100   5.685
 9288SOL     OW28762   3.449   1.369   2.282
 9288SOL    HW128763   3.430   1.465   2.301
 9288SOL    HW228764   3.429   1.349   2.186
 9289SOL     OW28765   5.111   6.872   0.512
 9289SOL    HW128766   5.133   6.775   0.507
 9289SOL    HW228767   5.056   6.898   0.433
 9290SOL     OW28768   5.155   1.351   4.404
 9290SOL    HW128769   5.071   1.392   4.440
 9290SOL    HW228770   5.145   1.338   4.305
 9291SOL     OW28771   1.146   4.020   6.229
 9291SOL    HW128772   1.146   4.090   6.301
 9291SOL    HW228773   1.076   4.042   6.161
 9292SOL     OW28774   1.048   1.183   6.991
 9292SOL    HW128775   1.010   1.257   6.935
 9292SOL    HW228776   1.098   1.120   6.932
 9293SOL     OW28777   5.010   2.460   4.478
 9293SOL    HW128778   5.092   2.506   4.445
 9293SOL    HW228779   4.935   2.525   4.486
 9294SOL     OW28780   4.241   6.893   6.326
 9294SOL    HW128781   4.296   6.955   6.382
 9294SOL    HW228782   4.181   6.946   6.266
 9295SOL     OW28783   0.020   1.098   4.778
 9295SOL    HW128784   0.068   1.163   4.719
 9295SOL    HW228785   6.982   1.037   4.723
 9296SOL     OW28786   2.408   5.121   6.151
 9296SOL    HW128787   2.347   5.059   6.103
 9296SOL    HW228788   2.410   5.209   6.104
 9297SOL     OW28789   6.216   6.085   2.492
 9297SOL    HW128790   6.314   6.071   2.507
 9297SOL    HW228791   6.187   6.033   2.412
 9298SOL     OW28792   1.137   4.416   6.404
 9298SOL    HW128793   1.087   4.361   6.470
 9298SOL    HW228794   1.220   4.452   6.447
 9299SOL     OW28795   2.399   2.584   4.507
 9299SOL    HW128796   2.377   2.677   4.538
 9299SOL    HW228797   2.418   2.526   4.587
 9300SOL     OW28798   2.084   6.037   4.970
 9300SOL    HW128799   2.028   6.097   5.027
 9300SOL    HW228800   2.170   6.017   5.016
 9301SOL     OW28801   7.011   4.132   4.291
 9301SOL    HW128802   0.087   4.115   4.262
 9301SOL    HW228803   7.010   4.203   4.362
 9302SOL     OW28804   2.131   3.608   4.754
 9302SOL    HW128805   2.117   3.638   4.660
 9302SOL    HW228806   2.118   3.685   4.816
 9303SOL     OW28807   2.440   4.704   6.875
 9303SOL    HW128808   2.437   4.609   6.845
 9303SOL    HW228809   2.375   4.758   6.821
 9304SOL     OW28810   4.963   5.500   6.532
 9304SOL    HW128811   4.935   5.559   6.457
 9304SOL    HW228812   4.972   5.406   6.500
 9305SOL     OW28813   1.545   2.260   0.916
 9305SOL    HW128814   1.580   2.206   0.993
 9305SOL    HW228815   1.451   2.288   0.935
 9306SOL     OW28816   0.116   6.291   4.845
 9306SOL    HW128817   0.187   6.233   4.884
 9306SOL    HW228818   0.032   6.239   4.833
 9307SOL     OW28819   1.714   3.544   1.476
 9307SOL    HW128820   1.759   3.583   1.396
 9307SOL    HW228821   1.686   3.450   1.457
 9308SOL     OW28822   1.863   3.104   1.827
 9308SOL    HW128823   1.814   3.022   1.801
 9308SOL    HW228824   1.877   3.162   1.747
 9309SOL     OW28825   5.087   5.234   6.606
 9309SOL    HW128826   5.184   5.208   6.606
 9309SOL    HW228827   5.055   5.242   6.512
 9310SOL     OW28828   6.126   5.677   6.694
 9310SOL    HW128829   6.085   5.624   6.620
 9310SOL    HW228830   6.054   5.714   6.753
 9311SOL     OW28831   4.990   3.790   0.554
 9311SOL    HW128832   5.072   3.741   0.521
 9311SOL    HW228833   4.914   3.772   0.491
 9312SOL     OW28834   0.591   2.932   3.134
 9312SOL    HW128835   0.585   3.030   3.154
 9312SOL    HW228836   0.510   2.904   3.082
 9313SOL     OW28837   0.390   0.655   2.195
 9313SOL    HW128838   0.416   0.587   2.263
 9313SOL    HW228839   0.302   0.630   2.154
 9314SOL     OW28840   5.204   4.343   0.806
 9314SOL    HW128841   5.220   4.330   0.708
 9314SOL    HW228842   5.105   4.346   0.824
 9315SOL     OW28843   4.868   6.467   6.238
 9315SOL    HW128844   4.843   6.447   6.333
 9315SOL    HW228845   4.923   6.551   6.236
 9316SOL     OW28846   5.428   0.970   5.870
 9316SOL    HW128847   5.434   1.042   5.939
 9316SOL    HW228848   5.345   0.916   5.887
 9317SOL     OW28849   3.493   6.254   3.203
 9317SOL    HW128850   3.541   6.331   3.162
 9317SOL    HW228851   3.474   6.273   3.299
 9318SOL     OW28852   3.920   6.971   2.141
 9318SOL    HW128853   3.918   6.981   2.042
 9318SOL    HW228854   3.844   6.912   2.170
 9319SOL     OW28855   3.497   2.265   6.808
 9319SOL    HW128856   3.564   2.192   6.800
 9319SOL    HW228857   3.425   2.238   6.873
 9320SOL     OW28858   6.735   6.601   6.661
 9320SOL    HW128859   6.637   6.583   6.672
 9320SOL    HW228860   6.748   6.689   6.616
 9321SOL     OW28861   0.319   2.963   5.075
 9321SOL    HW128862   0.347   2.944   4.981
 9321SOL    HW228863   0.262   2.888   5.109
 9322SOL     OW28864   5.958   3.187   6.854
 9322SOL    HW128865   6.056   3.172   6.839
 9322SOL    HW228866   5.908   3.102   6.839
 9323SOL     OW28867   0.777   1.784   5.846
 9323SOL    HW128868   0.697   1.830   5.807
 9323SOL    HW228869   0.824   1.733   5.775
 9324SOL     OW28870   0.630   4.129   1.855
 9324SOL    HW128871   0.573   4.079   1.789
 9324SOL    HW228872   0.696   4.066   1.896
 9325SOL     OW28873   0.852   3.964   3.401
 9325SOL    HW128874   0.938   3.913   3.400
 9325SOL    HW228875   0.865   4.049   3.454
 9326SOL     OW28876   4.712   4.103   1.696
 9326SOL    HW128877   4.756   4.094   1.785
 9326SOL    HW228878   4.654   4.184   1.695
 9327SOL     OW28879   2.883   0.846   3.160
 9327SOL    HW128880   2.948   0.922   3.152
 9327SOL    HW228881   2.800   0.868   3.108
 9328SOL     OW28882   2.470   0.748   3.940
 9328SOL    HW128883   2.414   0.676   3.900
 9328SOL    HW228884   2.526   0.791   3.868
 9329SOL     OW28885   0.137   5.507   6.856
 9329SOL    HW128886   0.070   5.551   6.796
 9329SOL    HW228887   0.125   5.408   6.851
 9330SOL     OW28888   6.598   6.259   6.973
 9330SOL    HW128889   6.658   6.338   6.983
 9330SOL    HW228890   6.653   6.176   6.963
 9331SOL     OW28891   2.066   3.220   3.635
 9331SOL    HW128892   1.980   3.213   3.687
 9331SOL    HW228893   2.098   3.128   3.612
 9332SOL     OW28894   5.481   6.149   0.818
 9332SOL    HW128895   5.405   6.171   0.879
 9332SOL    HW228896   5.529   6.068   0.852
 9333SOL     OW28897   3.525   3.446   0.932
 9333SOL    HW128898   3.458   3.371   0.934
 9333SOL    HW228899   3.598   3.423   0.867
 9334SOL     OW28900   6.182   6.209   6.021
 9334SOL    HW128901   6.185   6.267   6.102
 9334SOL    HW228902   6.095   6.221   5.974
 9335SOL     OW28903   1.027   3.318   2.081
 9335SOL    HW128904   0.962   3.267   2.024
 9335SOL    HW228905   1.119   3.281   2.067
 9336SOL     OW28906   5.380   0.417   5.651
 9336SOL    HW128907   5.387   0.505   5.604
 9336SOL    HW228908   5.310   0.362   5.606
 9337SOL     OW28909   2.107   0.657   6.006
 9337SOL    HW128910   2.106   0.713   5.923
 9337SOL    HW228911   2.126   0.562   5.982
 9338SOL     OW28912   5.645   6.372   0.260
 9338SOL    HW128913   5.615   6.359   0.166
 9338SOL    HW228914   5.668   6.468   0.275
 9339SOL     OW28915   7.012   4.007   5.780
 9339SOL    HW128916   6.953   3.956   5.717
 9339SOL    HW228917   6.956   4.072   5.833
 9340SOL     OW28918   3.363   4.921   1.100
 9340SOL    HW128919   3.400   4.990   1.037
 9340SOL    HW228920   3.406   4.833   1.082
 9341SOL     OW28921   5.349   5.172   6.574
 9341SOL    HW128922   5.389   5.262   6.558
 9341SOL    HW228923   5.335   5.125   6.487
 9342SOL     OW28924   3.281   0.285   4.242
 9342SOL    HW128925   3.349   0.336   4.295
 9342SOL    HW228926   3.214   0.349   4.204
 9343SOL     OW28927   4.399   3.946   1.016
 9343SOL    HW128928   4.423   3.918   0.923
 9343SOL    HW228929   4.381   4.045   1.017
 9344SOL     OW28930   5.982   0.009   5.321
 9344SOL    HW128931   5.991   6.970   5.240
 9344SOL    HW228932   5.955   0.101   5.293
 9345SOL     OW28933   0.469   5.000   0.100
 9345SOL    HW128934   0.504   4.906   0.105
 9345SOL    HW228935   0.379   4.999   0.055
 9346SOL     OW28936   6.008   6.392   1.192
 9346SOL    HW128937   6.021   6.405   1.094
 9346SOL    HW228938   6.094   6.361   1.233
 9347SOL     OW28939   4.008   5.361   0.740
 9347SOL    HW128940   4.008   5.446   0.688
 9347SOL    HW228941   4.100   5.321   0.738
 9348SOL     OW28942   2.227   5.796   2.313
 9348SOL    HW128943   2.171   5.720   2.345
 9348SOL    HW228944   2.188   5.832   2.228
 9349SOL     OW28945   6.463   6.078   2.002
 9349SOL    HW128946   6.399   6.019   2.050
 9349SOL    HW228947   6.534   6.110   2.066
 9350SOL     OW28948   6.708   0.915   6.415
 9350SOL    HW128949   6.689   0.817   6.409
 9350SOL    HW228950   6.677   0.949   6.504
 9351SOL     OW28951   3.862   3.019   5.833
 9351SOL    HW128952   3.877   3.054   5.741
 9351SOL    HW228953   3.764   3.011   5.851
 9352SOL     OW28954   3.723   2.632   6.369
 9352SOL    HW128955   3.797   2.628   6.302
 9352SOL    HW228956   3.758   2.600   6.458
 9353SOL     OW28957   0.497   3.922   0.802
 9353SOL    HW128958   0.535   3.995   0.857
 9353SOL    HW228959   0.420   3.880   0.851
 9354SOL     OW28960   4.847   2.076   1.939
 9354SOL    HW128961   4.912   2.108   1.870
 9354SOL    HW228962   4.890   2.080   2.029
 9355SOL     OW28963   6.242   0.710   3.225
 9355SOL    HW128964   6.233   0.723   3.127
 9355SOL    HW228965   6.247   0.800   3.270
 9356SOL     OW28966   4.422   4.677   2.288
 9356SOL    HW128967   4.377   4.672   2.199
 9356SOL    HW228968   4.372   4.739   2.348
 9357SOL     OW28969   3.417   2.987   0.645
 9357SOL    HW128970   3.431   2.933   0.562
 9357SOL    HW228971   3.393   3.081   0.620
 9358SOL     OW28972   5.612   4.466   2.028
 9358SOL    HW128973   5.692   4.424   1.984
 9358SOL    HW228974   5.528   4.427   1.990
 9359SOL     OW28975   5.174   4.376   5.912
 9359SOL    HW128976   5.270   4.363   5.885
 9359SOL    HW228977   5.171   4.399   6.010
 9360SOL     OW28978   2.074   0.358   5.958
 9360SOL    HW128979   2.069   0.305   6.043
 9360SOL    HW228980   2.149   0.323   5.902
 9361SOL     OW28981   2.916   0.806   2.285
 9361SOL    HW128982   2.999   0.842   2.240
 9361SOL    HW228983   2.892   0.864   2.362
 9362SOL     OW28984   2.373   1.787   3.056
 9362SOL    HW128985   2.416   1.862   3.106
 9362SOL    HW228986   2.433   1.707   3.057
 9363SOL     OW28987   2.486   5.822   2.223
 9363SOL    HW128988   2.398   5.830   2.271
 9363SOL    HW228989   2.556   5.789   2.286
 9364SOL     OW28990   5.587   4.972   0.166
 9364SOL    HW128991   5.599   4.962   0.265
 9364SOL    HW228992   5.653   5.038   0.130
 9365SOL     OW28993   2.071   1.320   5.411
 9365SOL    HW128994   2.154   1.371   5.430
 9365SOL    HW228995   2.042   1.338   5.317
 9366SOL     OW28996   3.222   1.906   0.715
 9366SOL    HW128997   3.255   1.814   0.735
 9366SOL    HW228998   3.171   1.942   0.793
 9367SOL     OW28999   6.930   5.940   2.916
 9367SOL    HW129000   6.943   5.859   2.858
 9367SOL    HW229001   7.018   5.968   2.953
 9368SOL     OW29002   3.826   2.593   1.281
 9368SOL    HW129003   3.796   2.688   1.274
 9368SOL    HW229004   3.926   2.591   1.284
 9369SOL     OW29005   0.281   2.386   5.135
 9369SOL    HW129006   0.232   2.344   5.211
 9369SOL    HW229007   0.370   2.418   5.167
 9370SOL     OW29008   6.085   1.031   2.942
 9370SOL    HW129009   6.097   0.987   2.853
 9370SOL    HW229010   6.154   1.102   2.954
 9371SOL     OW29011   0.604   6.576   0.572
 9371SOL    HW129012   0.533   6.520   0.531
 9371SOL    HW229013   0.678   6.589   0.506
 9372SOL     OW29014   6.549   6.473   6.053
 9372SOL    HW129015   6.523   6.570   6.051
 9372SOL    HW229016   6.583   6.450   6.144
 9373SOL     OW29017   4.273   1.341   3.495
 9373SOL    HW129018   4.183   1.384   3.493
 9373SOL    HW229019   4.269   1.255   3.546
 9374SOL     OW29020   5.262   3.730   0.540
 9374SOL    HW129021   5.359   3.710   0.555
 9374SOL    HW229022   5.224   3.770   0.623
 9375SOL     OW29023   0.945   1.078   4.035
 9375SOL    HW129024   0.931   1.015   4.112
 9375SOL    HW229025   0.872   1.146   4.034
 9376SOL     OW29026   1.872   3.192   2.177
 9376SOL    HW129027   1.854   3.095   2.162
 9376SOL    HW229028   1.827   3.245   2.105
 9377SOL     OW29029   6.047   5.801   3.870
 9377SOL    HW129030   6.122   5.861   3.899
 9377SOL    HW229031   6.028   5.734   3.941
 9378SOL     OW29032   3.018   6.400   0.599
 9378SOL    HW129033   2.949   6.422   0.531
 9378SOL    HW229034   3.072   6.481   0.620
 9379SOL     OW29035   5.241   4.818   4.851
 9379SOL    HW129036   5.247   4.775   4.941
 9379SOL    HW229037   5.332   4.819   4.809
 9380SOL     OW29038   6.387   6.619   6.466
 9380SOL    HW129039   6.454   6.545   6.462
 9380SOL    HW229040   6.332   6.619   6.383
 9381SOL     OW29041   2.417   1.192   6.623
 9381SOL    HW129042   2.340   1.143   6.663
 9381SOL    HW229043   2.402   1.291   6.634
 9382SOL     OW29044   4.381   2.376   2.707
 9382SOL    HW129045   4.473   2.344   2.687
 9382SOL    HW229046   4.356   2.350   2.800
 9383SOL     OW29047   4.766   5.724   5.356
 9383SOL    HW129048   4.823   5.643   5.341
 9383SOL    HW229049   4.815   5.805   5.326
 9384SOL     OW29050   5.117   5.805   1.273
 9384SOL    HW129051   5.211   5.786   1.302
 9384SOL    HW229052   5.108   5.903   1.252
 9385SOL     OW29053   3.957   1.261   3.472
 9385SOL    HW129054   3.936   1.205   3.392
 9385SOL    HW229055   3.960   1.357   3.446
 9386SOL     OW29056   3.254   6.782   4.355
 9386SOL    HW129057   3.307   6.816   4.432
 9386SOL    HW229058   3.276   6.686   4.338
 9387SOL     OW29059   3.963   6.961   6.660
 9387SOL    HW129060   3.888   0.005   6.636
 9387SOL    HW229061   4.050   7.009   6.649
 9388SOL     OW29062   6.726   0.366   3.112
 9388SOL    HW129063   6.710   0.459   3.079
 9388SOL    HW229064   6.766   0.311   3.039
 9389SOL     OW29065   2.869   0.602   6.390
 9389SOL    HW129066   2.907   0.655   6.467
 9389SOL    HW229067   2.775   0.632   6.372
 9390SOL     OW29068   3.273   5.555   2.232
 9390SOL    HW129069   3.241   5.470   2.273
 9390SOL    HW229070   3.372   5.549   2.216
 9391SOL     OW29071   0.328   1.302   5.428
 9391SOL    HW129072   0.413   1.273   5.383
 9391SOL    HW229073   0.254   1.240   5.403
 9392SOL     OW29074   1.106   5.974   4.870
 9392SOL    HW129075   1.094   5.875   4.864
 9392SOL    HW229076   1.158   5.996   4.952
 9393SOL     OW29077   3.806   2.225   5.279
 9393SOL    HW129078   3.758   2.139   5.263
 9393SOL    HW229079   3.894   2.224   5.231
 9394SOL     OW29080   5.979   2.184   2.685
 9394SOL    HW129081   5.977   2.192   2.586
 9394SOL    HW229082   5.886   2.168   2.719
 9395SOL     OW29083   2.207   3.300   6.815
 9395SOL    HW129084   2.125   3.243   6.828
 9395SOL    HW229085   2.288   3.242   6.815
 9396SOL     OW29086   6.564   0.400   6.464
 9396SOL    HW129087   6.536   0.450   6.546
 9396SOL    HW229088   6.541   0.454   6.383
 9397SOL     OW29089   2.829   0.569   0.907
 9397SOL    HW129090   2.780   0.650   0.938
 9397SOL    HW229091   2.791   0.488   0.952
 9398SOL     OW29092   2.636   1.551   6.456
 9398SOL    HW129093   2.652   1.628   6.518
 9398SOL    HW229094   2.674   1.573   6.366
 9399SOL     OW29095   6.857   0.329   5.562
 9399SOL    HW129096   6.796   0.311   5.485
 9399SOL    HW229097   6.803   0.341   5.645
 9400SOL     OW29098   5.419   2.226   2.639
 9400SOL    HW129099   5.400   2.241   2.541
 9400SOL    HW229100   5.381   2.138   2.667
 9401SOL     OW29101   3.305   0.346   2.948
 9401SOL    HW129102   3.305   0.319   3.045
 9401SOL    HW229103   3.237   0.417   2.934
 9402SOL     OW29104   2.503   5.080   6.406
 9402SOL    HW129105   2.529   5.096   6.311
 9402SOL    HW229106   2.585   5.083   6.464
 9403SOL     OW29107   5.530   1.206   4.429
 9403SOL    HW129108   5.491   1.117   4.405
 9403SOL    HW229109   5.456   1.269   4.450
 9404SOL     OW29110   0.998   4.111   5.992
 9404SOL    HW129111   0.984   4.113   5.893
 9404SOL    HW229112   1.016   4.204   6.025
 9405SOL     OW29113   5.672   6.931   0.960
 9405SOL    HW129114   5.726   6.944   0.877
 9405SOL    HW229115   5.714   6.861   1.017
 9406SOL     OW29116   7.007   1.387   5.651
 9406SOL    HW129117   7.018   1.478   5.689
 9406SOL    HW229118   6.988   1.394   5.553
 9407SOL     OW29119   3.336   6.209   2.570
 9407SOL    HW129120   3.266   6.261   2.619
 9407SOL    HW229121   3.306   6.195   2.475
 9408SOL     OW29122   3.770   1.682   5.907
 9408SOL    HW129123   3.672   1.697   5.895
 9408SOL    HW229124   3.811   1.763   5.950
 9409SOL     OW29125   5.470   4.293   3.515
 9409SOL    HW129126   5.430   4.212   3.557
 9409SOL    HW229127   5.520   4.267   3.432
 9410SOL     OW29128   4.387   6.366   2.546
 9410SOL    HW129129   4.410   6.435   2.614
 9410SOL    HW229130   4.452   6.289   2.552
 9411SOL     OW29131   4.877   5.276   0.917
 9411SOL    HW129132   4.830   5.289   0.829
 9411SOL    HW229133   4.934   5.355   0.937
 9412SOL     OW29134   6.444   2.451   1.049
 9412SOL    HW129135   6.428   2.411   1.140
 9412SOL    HW229136   6.417   2.548   1.051
 9413SOL     OW29137   3.816   5.888   6.054
 9413SOL    HW129138   3.814   5.981   6.089
 9413SOL    HW229139   3.904   5.870   6.012
 9414SOL     OW29140   2.599   1.887   1.714
 9414SOL    HW129141   2.659   1.964   1.692
 9414SOL    HW229142   2.523   1.885   1.648
 9415SOL     OW29143   2.627   0.047   1.987
 9415SOL    HW129144   2.705   0.018   1.932
 9415SOL    HW229145   2.566   6.987   2.003
 9416SOL     OW29146   0.916   2.738   1.574
 9416SOL    HW129147   0.854   2.808   1.539
 9416SOL    HW229148   0.927   2.666   1.505
 9417SOL     OW29149   2.268   5.854   4.819
 9417SOL    HW129150   2.173   5.828   4.835
 9417SOL    HW229151   2.288   5.850   4.721
 9418SOL     OW29152   3.295   5.180   0.778
 9418SOL    HW129153   3.297   5.268   0.730
 9418SOL    HW229154   3.247   5.113   0.721
 9419SOL     OW29155   3.506   6.740   5.493
 9419SOL    HW129156   3.602   6.762   5.511
 9419SOL    HW229157   3.461   6.817   5.447
 9420SOL     OW29158   0.276   1.367   4.130
 9420SOL    HW129159   0.187   1.325   4.147
 9420SOL    HW229160   0.338   1.299   4.091
 9421SOL     OW29161   1.446   4.358   5.461
 9421SOL    HW129162   1.486   4.450   5.456
 9421SOL    HW229163   1.346   4.366   5.465
 9422SOL     OW29164   4.266   1.118   2.524
 9422SOL    HW129165   4.328   1.172   2.581
 9422SOL    HW229166   4.282   1.021   2.540
 9423SOL     OW29167   4.225   0.953   5.011
 9423SOL    HW129168   4.303   1.015   5.003
 9423SOL    HW229169   4.140   1.006   5.000
 9424SOL     OW29170   3.202   6.369   4.417
 9424SOL    HW129171   3.116   6.381   4.367
 9424SOL    HW229172   3.278   6.402   4.362
 9425SOL     OW29173   1.508   3.213   4.534
 9425SOL    HW129174   1.512   3.169   4.444
 9425SOL    HW229175   1.428   3.272   4.539
 9426SOL     OW29176   3.474   0.230   0.217
 9426SOL    HW129177   3.551   0.291   0.231
 9426SOL    HW229178   3.388   0.282   0.218
 9427SOL     OW29179   2.906   5.263   4.276
 9427SOL    HW129180   2.893   5.338   4.341
 9427SOL    HW229181   2.972   5.197   4.313
 9428SOL     OW29182   5.197   6.625   2.688
 9428SOL    HW129183   5.170   6.667   2.775
 9428SOL    HW229184   5.172   6.686   2.613
 9429SOL     OW29185   0.214   3.716   2.696
 9429SOL    HW129186   0.204   3.811   2.725
 9429SOL    HW229187   0.267   3.713   2.611
 9430SOL     OW29188   6.275   6.721   1.620
 9430SOL    HW129189   6.273   6.808   1.668
 9430SOL    HW229190   6.200   6.663   1.654
 9431SOL     OW29191   6.472   4.031   2.136
 9431SOL    HW129192   6.467   4.064   2.230
 9431SOL    HW229193   6.550   4.073   2.089
 9432SOL     OW29194   6.644   6.844   3.992
 9432SOL    HW129195   6.586   6.849   4.073
 9432SOL    HW229196   6.699   6.928   3.985
 9433SOL     OW29197   3.163   4.890   5.138
 9433SOL    HW129198   3.169   4.972   5.193
 9433SOL    HW229199   3.083   4.895   5.078
 9434SOL     OW29200   5.006   5.104   2.479
 9434SOL    HW129201   4.951   5.040   2.425
 9434SOL    HW229202   4.994   5.196   2.443
 9435SOL     OW29203   1.423   0.735   4.627
 9435SOL    HW129204   1.333   0.739   4.672
 9435SOL    HW229205   1.466   0.647   4.645
 9436SOL     OW29206   2.355   2.901   6.506
 9436SOL    HW129207   2.413   2.951   6.441
 9436SOL    HW229208   2.396   2.903   6.597
 9437SOL     OW29209   1.228   4.815   4.111
 9437SOL    HW129210   1.322   4.786   4.091
 9437SOL    HW229211   1.184   4.845   4.027
 9438SOL     OW29212   1.419   6.402   2.581
 9438SOL    HW129213   1.428   6.318   2.633
 9438SOL    HW229214   1.410   6.479   2.644
 9439SOL     OW29215   0.449   2.926   1.533
 9439SOL    HW129216   0.458   2.857   1.462
 9439SOL    HW229217   0.540   2.949   1.569
 9440SOL     OW29218   5.012   6.545   5.832
 9440SOL    HW129219   5.110   6.529   5.820
 9440SOL    HW229220   4.998   6.623   5.893
 9441SOL     OW29221   1.517   4.610   5.346
 9441SOL    HW129222   1.582   4.634   5.418
 9441SOL    HW229223   1.528   4.672   5.269
 9442SOL     OW29224   0.172   3.640   1.443
 9442SOL    HW129225   0.107   3.708   1.411
 9442SOL    HW229226   0.138   3.548   1.424
 9443SOL     OW29227   1.625   3.792   1.620
 9443SOL    HW129228   1.664   3.798   1.712
 9443SOL    HW229229   1.668   3.717   1.570
 9444SOL     OW29230   0.109   3.728   6.736
 9444SOL    HW129231   0.091   3.637   6.700
 9444SOL    HW229232   0.195   3.763   6.698
 9445SOL     OW29233   5.676   3.778   1.491
 9445SOL    HW129234   5.643   3.699   1.440
 9445SOL    HW229235   5.668   3.860   1.433
 9446SOL     OW29236   6.759   6.135   1.744
 9446SOL    HW129237   6.789   6.210   1.803
 9446SOL    HW229238   6.787   6.047   1.785
 9447SOL     OW29239   5.716   3.005   1.892
 9447SOL    HW129240   5.774   2.978   1.815
 9447SOL    HW229241   5.767   2.993   1.977
 9448SOL     OW29242   6.202   6.627   0.310
 9448SOL    HW129243   6.165   6.681   0.235
 9448SOL    HW229244   6.131   6.564   0.343
 9449SOL     OW29245   6.716   5.024   4.968
 9449SOL    HW129246   6.808   5.046   4.937
 9449SOL    HW229247   6.704   4.925   4.970
 9450SOL     OW29248   3.264   4.897   4.239
 9450SOL    HW129249   3.213   4.864   4.318
 9450SOL    HW229250   3.270   4.997   4.242
 9451SOL     OW29251   4.767   5.047   5.973
 9451SOL    HW129252   4.844   5.027   5.913
 9451SOL    HW229253   4.682   5.046   5.920
 9452SOL     OW29254   2.373   4.495   1.679
 9452SOL    HW129255   2.305   4.540   1.621
 9452SOL    HW229256   2.443   4.562   1.705
 9453SOL     OW29257   3.244   5.027   2.671
 9453SOL    HW129258   3.208   5.120   2.678
 9453SOL    HW229259   3.171   4.965   2.644
 9454SOL     OW29260   2.076   2.974   5.389
 9454SOL    HW129261   2.055   2.876   5.381
 9454SOL    HW229262   2.085   3.013   5.297
 9455SOL     OW29263   3.701   1.740   2.312
 9455SOL    HW129264   3.719   1.720   2.215
 9455SOL    HW229265   3.763   1.812   2.343
 9456SOL     OW29266   1.255   3.329   1.152
 9456SOL    HW129267   1.185   3.328   1.223
 9456SOL    HW229268   1.211   3.335   1.062
 9457SOL     OW29269   0.665   3.514   0.797
 9457SOL    HW129270   0.643   3.499   0.893
 9457SOL    HW229271   0.718   3.435   0.763
 9458SOL     OW29272   6.727   5.618   5.083
 9458SOL    HW129273   6.724   5.660   4.992
 9458SOL    HW229274   6.666   5.539   5.086
 9459SOL     OW29275   5.908   5.421   1.814
 9459SOL    HW129276   5.927   5.323   1.816
 9459SOL    HW229277   5.986   5.469   1.775
 9460SOL     OW29278   1.260   2.203   5.513
 9460SOL    HW129279   1.201   2.158   5.579
 9460SOL    HW229280   1.216   2.204   5.423
 9461SOL     OW29281   1.200   1.051   3.970
 9461SOL    HW129282   1.250   0.970   4.000
 9461SOL    HW229283   1.102   1.037   3.983
 9462SOL     OW29284   0.763   3.508   2.414
 9462SOL    HW129285   0.741   3.444   2.488
 9462SOL    HW229286   0.848   3.479   2.369
 9463SOL     OW29287   5.477   1.506   0.392
 9463SOL    HW129288   5.432   1.493   0.480
 9463SOL    HW229289   5.474   1.603   0.367
 9464SOL     OW29290   5.787   0.329   6.164
 9464SOL    HW129291   5.698   0.309   6.122
 9464SOL    HW229292   5.823   0.245   6.204
 9465SOL     OW29293   6.369   1.270   4.155
 9465SOL    HW129294   6.453   1.247   4.205
 9465SOL    HW229295   6.393   1.312   4.067
 9466SOL     OW29296   3.142   2.399   6.640
 9466SOL    HW129297   3.067   2.461   6.617
 9466SOL    HW229298   3.190   2.434   6.721
 9467SOL     OW29299   2.186   3.187   1.851
 9467SOL    HW129300   2.218   3.279   1.873
 9467SOL    HW229301   2.087   3.188   1.839
 9468SOL     OW29302   0.169   3.208   5.991
 9468SOL    HW129303   0.183   3.288   6.049
 9468SOL    HW229304   0.181   3.235   5.895
 9469SOL     OW29305   6.372   5.017   2.105
 9469SOL    HW129306   6.337   4.923   2.110
 9469SOL    HW229307   6.375   5.056   2.197
 9470SOL     OW29308   4.919   3.568   0.747
 9470SOL    HW129309   4.952   3.659   0.723
 9470SOL    HW229310   4.826   3.575   0.783
 9471SOL     OW29311   0.464   1.829   5.462
 9471SOL    HW129312   0.528   1.877   5.522
 9471SOL    HW229313   0.418   1.895   5.402
 9472SOL     OW29314   6.280   4.091   3.924
 9472SOL    HW129315   6.273   4.010   3.984
 9472SOL    HW229316   6.352   4.151   3.958
 9473SOL     OW29317   2.909   5.163   5.691
 9473SOL    HW129318   3.002   5.128   5.687
 9473SOL    HW229319   2.855   5.122   5.617
 9474SOL     OW29320   4.235   4.918   2.138
 9474SOL    HW129321   4.184   4.860   2.075
 9474SOL    HW229322   4.282   4.990   2.087
 9475SOL     OW29323   2.461   3.605   1.408
 9475SOL    HW129324   2.397   3.649   1.345
 9475SOL    HW229325   2.414   3.531   1.457
 9476SOL     OW29326   3.390   3.375   5.711
 9476SOL    HW129327   3.444   3.330   5.640
 9476SOL    HW229328   3.451   3.405   5.785
 9477SOL     OW29329   1.298   2.611   1.562
 9477SOL    HW129330   1.231   2.631   1.633
 9477SOL    HW229331   1.362   2.541   1.594
 9478SOL     OW29332   5.801   4.614   5.566
 9478SOL    HW129333   5.792   4.541   5.634
 9478SOL    HW229334   5.752   4.588   5.483
 9479SOL     OW29335   6.166   5.798   6.385
 9479SOL    HW129336   6.218   5.713   6.383
 9479SOL    HW229337   6.204   5.861   6.317
 9480SOL     OW29338   5.896   4.965   6.989
 9480SOL    HW129339   5.807   4.927   6.963
 9480SOL    HW229340   5.894   5.064   6.980
 9481SOL     OW29341   0.256   3.895   2.393
 9481SOL    HW129342   0.176   3.838   2.412
 9481SOL    HW229343   0.318   3.845   2.331
 9482SOL     OW29344   4.636   1.058   1.929
 9482SOL    HW129345   4.686   0.974   1.949
 9482SOL    HW229346   4.596   1.094   2.013
 9483SOL     OW29347   1.920   1.723   6.943
 9483SOL    HW129348   1.970   1.636   6.935
 9483SOL    HW229349   1.957   1.776   0.001
 9484SOL     OW29350   6.607   1.645   3.650
 9484SOL    HW129351   6.667   1.649   3.570
 9484SOL    HW229352   6.533   1.711   3.640
 9485SOL     OW29353   0.774   0.339   2.347
 9485SOL    HW129354   0.743   0.420   2.396
 9485SOL    HW229355   0.874   0.333   2.353
 9486SOL     OW29356   3.088   5.940   1.637
 9486SOL    HW129357   3.145   5.858   1.638
 9486SOL    HW229358   3.058   5.961   1.730
 9487SOL     OW29359   2.915   3.578   4.092
 9487SOL    HW129360   2.926   3.484   4.123
 9487SOL    HW229361   2.918   3.640   4.171
 9488SOL     OW29362   1.533   6.540   1.205
 9488SOL    HW129363   1.442   6.580   1.216
 9488SOL    HW229364   1.602   6.612   1.216
 9489SOL     OW29365   3.728   5.074   0.572
 9489SOL    HW129366   3.629   5.057   0.573
 9489SOL    HW229367   3.751   5.127   0.491
 9490SOL     OW29368   4.625   1.238   1.526
 9490SOL    HW129369   4.545   1.289   1.558
 9490SOL    HW229370   4.615   1.218   1.429
 9491SOL     OW29371   5.535   4.970   6.173
 9491SOL    HW129372   5.538   5.062   6.211
 9491SOL    HW229373   5.603   4.962   6.100
 9492SOL     OW29374   3.195   3.872   1.569
 9492SOL    HW129375   3.279   3.927   1.567
 9492SOL    HW229376   3.124   3.922   1.619
 9493SOL     OW29377   4.892   6.395   3.246
 9493SOL    HW129378   4.971   6.363   3.298
 9493SOL    HW229379   4.807   6.367   3.292
 9494SOL     OW29380   4.338   3.327   5.363
 9494SOL    HW129381   4.387   3.322   5.276
 9494SOL    HW229382   4.244   3.296   5.350
 9495SOL     OW29383   5.782   2.290   5.242
 9495SOL    HW129384   5.874   2.283   5.281
 9495SOL    HW229385   5.787   2.282   5.143
 9496SOL     OW29386   5.645   4.191   6.979
 9496SOL    HW129387   5.637   4.276   6.928
 9496SOL    HW229388   5.704   4.127   6.930
 9497SOL     OW29389   5.720   5.934   6.549
 9497SOL    HW129390   5.819   5.935   6.537
 9497SOL    HW229391   5.696   5.979   6.635
 9498SOL     OW29392   3.740   0.153   6.220
 9498SOL    HW129393   3.650   0.135   6.260
 9498SOL    HW229394   3.751   0.252   6.207
 9499SOL     OW29395   3.301   4.151   5.085
 9499SOL    HW129396   3.375   4.208   5.050
 9499SOL    HW229397   3.313   4.057   5.053
 9500SOL     OW29398   5.123   5.687   1.863
 9500SOL    HW129399   5.195   5.625   1.896
 9500SOL    HW229400   5.165   5.767   1.822
 9501SOL     OW29401   3.267   1.248   4.914
 9501SOL    HW129402   3.326   1.255   4.834
 9501SOL    HW229403   3.241   1.339   4.945
 9502SOL     OW29404   6.223   2.788   5.561
 9502SOL    HW129405   6.252   2.867   5.506
 9502SOL    HW229406   6.148   2.741   5.514
 9503SOL     OW29407   1.286   6.680   1.204
 9503SOL    HW129408   1.307   6.692   1.107
 9503SOL    HW229409   1.206   6.737   1.228
 9504SOL     OW29410   0.642   3.149   6.634
 9504SOL    HW129411   0.700   3.068   6.637
 9504SOL    HW229412   0.609   3.170   6.726
 9505SOL     OW29413   5.939   3.068   3.295
 9505SOL    HW129414   5.951   3.167   3.309
 9505SOL    HW229415   6.002   3.038   3.223
 9506SOL     OW29416   6.606   3.876   0.638
 9506SOL    HW129417   6.512   3.853   0.613
 9506SOL    HW229418   6.668   3.839   0.569
 9507SOL     OW29419   0.918   1.571   3.582
 9507SOL    HW129420   0.983   1.495   3.582
 9507SOL    HW229421   0.870   1.574   3.670
 9508SOL     OW29422   5.822   2.116   1.009
 9508SOL    HW129423   5.896   2.140   1.073
 9508SOL    HW229424   5.734   2.121   1.057
 9509SOL     OW29425   2.337   6.275   5.701
 9509SOL    HW129426   2.240   6.260   5.684
 9509SOL    HW229427   2.351   6.302   5.796
 9510SOL     OW29428   6.321   4.443   3.322
 9510SOL    HW129429   6.238   4.468   3.271
 9510SOL    HW229430   6.365   4.525   3.357
 9511SOL     OW29431   0.375   1.642   0.887
 9511SOL    HW129432   0.317   1.618   0.809
 9511SOL    HW229433   0.319   1.682   0.959
 9512SOL     OW29434   1.368   2.401   3.718
 9512SOL    HW129435   1.411   2.386   3.807
 9512SOL    HW229436   1.343   2.497   3.710
 9513SOL     OW29437   2.198   4.231   4.260
 9513SOL    HW129438   2.198   4.242   4.359
 9513SOL    HW229439   2.200   4.133   4.238
 9514SOL     OW29440   2.336   2.640   6.866
 9514SOL    HW129441   2.327   2.566   6.799
 9514SOL    HW229442   2.258   2.638   6.928
 9515SOL     OW29443   1.951   5.470   6.239
 9515SOL    HW129444   1.932   5.544   6.304
 9515SOL    HW229445   1.931   5.502   6.146
 9516SOL     OW29446   4.968   3.713   4.228
 9516SOL    HW129447   5.064   3.685   4.223
 9516SOL    HW229448   4.926   3.705   4.138
 9517SOL     OW29449   0.283   5.790   1.941
 9517SOL    HW129450   0.381   5.794   1.960
 9517SOL    HW229451   0.264   5.715   1.878
 9518SOL     OW29452   0.739   2.309   6.387
 9518SOL    HW129453   0.751   2.210   6.391
 9518SOL    HW229454   0.749   2.347   6.479
 9519SOL     OW29455   3.680   3.849   3.464
 9519SOL    HW129456   3.702   3.787   3.389
 9519SOL    HW229457   3.733   3.824   3.545
 9520SOL     OW29458   6.676   0.213   5.385
 9520SOL    HW129459   6.581   0.217   5.354
 9520SOL    HW229460   6.734   0.182   5.311
 9521SOL     OW29461   3.341   0.633   1.119
 9521SOL    HW129462   3.392   0.552   1.089
 9521SOL    HW229463   3.243   0.612   1.120
 9522SOL     OW29464   3.640   6.065   2.060
 9522SOL    HW129465   3.713   6.116   2.015
 9522SOL    HW229466   3.559   6.123   2.069
 9523SOL     OW29467   2.508   4.946   3.944
 9523SOL    HW129468   2.542   4.932   3.851
 9523SOL    HW229469   2.416   4.909   3.951
 9524SOL     OW29470   1.643   4.366   1.733
 9524SOL    HW129471   1.598   4.286   1.693
 9524SOL    HW229472   1.742   4.356   1.726
 9525SOL     OW29473   1.996   3.052   5.674
 9525SOL    HW129474   2.019   3.147   5.696
 9525SOL    HW229475   2.001   3.039   5.575
 9526SOL     OW29476   5.311   4.607   6.871
 9526SOL    HW129477   5.378   4.558   6.814
 9526SOL    HW229478   5.249   4.659   6.812
 9527SOL     OW29479   3.901   6.655   3.132
 9527SOL    HW129480   3.908   6.615   3.223
 9527SOL    HW229481   3.862   6.747   3.138
 9528SOL     OW29482   5.481   1.676   1.225
 9528SOL    HW129483   5.467   1.633   1.136
 9528SOL    HW229484   5.564   1.639   1.268
 9529SOL     OW29485   6.044   1.346   1.710
 9529SOL    HW129486   6.136   1.313   1.689
 9529SOL    HW229487   6.030   1.347   1.809
 9530SOL     OW29488   0.581   5.825   3.874
 9530SOL    HW129489   0.676   5.843   3.902
 9530SOL    HW229490   0.552   5.894   3.809
 9531SOL     OW29491   3.805   5.058   2.527
 9531SOL    HW129492   3.720   5.025   2.484
 9531SOL    HW229493   3.797   5.157   2.544
 9532SOL     OW29494   5.985   4.963   2.502
 9532SOL    HW129495   6.032   4.907   2.433
 9532SOL    HW229496   5.943   5.042   2.457
 9533SOL     OW29497   2.208   4.723   3.201
 9533SOL    HW129498   2.282   4.725   3.268
 9533SOL    HW229499   2.247   4.722   3.109
 9534SOL     OW29500   5.284   4.717   5.079
 9534SOL    HW129501   5.281   4.618   5.065
 9534SOL    HW229502   5.313   4.736   5.173
 9535SOL     OW29503   0.764   0.918   5.643
 9535SOL    HW129504   0.826   0.845   5.613
 9535SOL    HW229505   0.670   0.894   5.620
 9536SOL     OW29506   4.121   3.745   4.768
 9536SOL    HW129507   4.111   3.666   4.828
 9536SOL    HW229508   4.168   3.819   4.816
 9537SOL     OW29509   1.573   1.264   3.655
 9537SOL    HW129510   1.552   1.229   3.564
 9537SOL    HW229511   1.498   1.241   3.718
 9538SOL     OW29512   3.574   0.987   4.859
 9538SOL    HW129513   3.518   0.914   4.899
 9538SOL    HW229514   3.554   1.074   4.904
 9539SOL     OW29515   3.719   2.908   2.724
 9539SOL    HW129516   3.762   2.933   2.810
 9539SOL    HW229517   3.790   2.897   2.654
 9540SOL     OW29518   4.659   4.729   4.091
 9540SOL    HW129519   4.753   4.745   4.120
 9540SOL    HW229520   4.605   4.698   4.169
 9541SOL     OW29521   1.706   5.816   5.210
 9541SOL    HW129522   1.799   5.850   5.217
 9541SOL    HW229523   1.707   5.721   5.180
 9542SOL     OW29524   6.146   4.350   4.107
 9542SOL    HW129525   6.242   4.375   4.115
 9542SOL    HW229526   6.108   4.389   4.023
 9543SOL     OW29527   2.362   0.520   5.999
 9543SOL    HW129528   2.460   0.515   6.019
 9543SOL    HW229529   2.311   0.518   6.085
 9544SOL     OW29530   5.536   3.664   3.909
 9544SOL    HW129531   5.469   3.655   3.835
 9544SOL    HW229532   5.493   3.708   3.987
 9545SOL     OW29533   1.527   4.529   1.908
 9545SOL    HW129534   1.588   4.608   1.913
 9545SOL    HW229535   1.563   4.463   1.842
 9546SOL     OW29536   2.653   1.720   6.668
 9546SOL    HW129537   2.597   1.796   6.634
 9546SOL    HW229538   2.691   1.745   6.757
 9547SOL     OW29539   3.707   6.035   3.935
 9547SOL    HW129540   3.704   6.040   3.835
 9547SOL    HW229541   3.801   6.017   3.965
 9548SOL     OW29542   1.021   4.645   0.012
 9548SOL    HW129543   1.073   4.612   6.952
 9548SOL    HW229544   0.924   4.623   7.018
 9549SOL     OW29545   4.453   2.242   1.380
 9549SOL    HW129546   4.397   2.324   1.388
 9549SOL    HW229547   4.398   2.162   1.403
 9550SOL     OW29548   5.251   2.771   1.656
 9550SOL    HW129549   5.294   2.832   1.589
 9550SOL    HW229550   5.153   2.790   1.661
 9551SOL     OW29551   0.097   2.423   6.754
 9551SOL    HW129552   0.036   2.360   6.804
 9551SOL    HW229553   0.057   2.442   6.664
 9552SOL     OW29554   3.198   1.632   6.917
 9552SOL    HW129555   3.130   1.703   6.901
 9552SOL    HW229556   3.183   1.556   6.853
 9553SOL     OW29557   5.633   1.948   6.603
 9553SOL    HW129558   5.700   1.931   6.530
 9553SOL    HW229559   5.633   1.872   6.667
 9554SOL     OW29560   2.142   6.574   4.155
 9554SOL    HW129561   2.199   6.640   4.107
 9554SOL    HW229562   2.163   6.576   4.253
 9555SOL     OW29563   6.373   0.813   3.887
 9555SOL    HW129564   6.319   0.729   3.898
 9555SOL    HW229565   6.365   0.868   3.970
 9556SOL     OW29566   2.008   4.219   0.847
 9556SOL    HW129567   1.995   4.244   0.944
 9556SOL    HW229568   1.971   4.292   0.789
 9557SOL     OW29569   4.955   0.388   1.828
 9557SOL    HW129570   4.903   0.438   1.758
 9557SOL    HW229571   4.896   0.372   1.907
 9558SOL     OW29572   5.296   6.743   6.259
 9558SOL    HW129573   5.268   6.836   6.235
 9558SOL    HW229574   5.279   6.726   6.356
 9559SOL     OW29575   1.729   3.881   0.108
 9559SOL    HW129576   1.650   3.822   0.126
 9559SOL    HW229577   1.714   3.971   0.150
 9560SOL     OW29578   3.167   6.554   1.981
 9560SOL    HW129579   3.247   6.518   1.932
 9560SOL    HW229580   3.098   6.482   1.988
 9561SOL     OW29581   1.078   0.743   1.087
 9561SOL    HW129582   1.050   0.666   1.144
 9561SOL    HW229583   1.010   0.757   1.015
 9562SOL     OW29584   3.020   5.243   3.650
 9562SOL    HW129585   2.981   5.300   3.722
 9562SOL    HW229586   3.104   5.200   3.683
 9563SOL     OW29587   0.950   5.748   1.333
 9563SOL    HW129588   0.936   5.689   1.412
 9563SOL    HW229589   0.900   5.712   1.255
 9564SOL     OW29590   1.749   6.876   0.379
 9564SOL    HW129591   1.677   6.827   0.428
 9564SOL    HW229592   1.820   6.904   0.443
 9565SOL     OW29593   3.373   1.286   4.177
 9565SOL    HW129594   3.335   1.322   4.262
 9565SOL    HW229595   3.307   1.224   4.134
 9566SOL     OW29596   2.390   6.911   0.432
 9566SOL    HW129597   2.418   6.993   0.383
 9566SOL    HW229598   2.420   6.830   0.381
 9567SOL     OW29599   6.650   4.965   1.078
 9567SOL    HW129600   6.722   5.000   1.018
 9567SOL    HW229601   6.690   4.936   1.164
 9568SOL     OW29602   4.182   1.819   6.618
 9568SOL    HW129603   4.082   1.825   6.611
 9568SOL    HW229604   4.208   1.725   6.643
 9569SOL     OW29605   5.409   0.520   1.850
 9569SOL    HW129606   5.345   0.588   1.812
 9569SOL    HW229607   5.421   0.446   1.784
 9570SOL     OW29608   6.956   2.990   1.126
 9570SOL    HW129609   6.979   3.078   1.168
 9570SOL    HW229610   6.917   3.006   1.035
 9571SOL     OW29611   2.970   2.393   0.061
 9571SOL    HW129612   2.973   2.315   7.017
 9571SOL    HW229613   2.885   2.390   0.114
 9572SOL     OW29614   2.172   3.778   3.505
 9572SOL    HW129615   2.096   3.803   3.564
 9572SOL    HW229616   2.228   3.709   3.551
 9573SOL     OW29617   6.784   1.075   4.468
 9573SOL    HW129618   6.757   1.168   4.442
 9573SOL    HW229619   6.703   1.017   4.472
 9574SOL     OW29620   3.757   3.152   1.250
 9574SOL    HW129621   3.846   3.128   1.289
 9574SOL    HW229622   3.710   3.214   1.313
 9575SOL     OW29623   6.093   6.547   1.717
 9575SOL    HW129624   6.109   6.449   1.726
 9575SOL    HW229625   6.081   6.587   1.808
 9576SOL     OW29626   1.214   0.379   0.258
 9576SOL    HW129627   1.297   0.353   0.208
 9576SOL    HW229628   1.169   0.454   0.211
 9577SOL     OW29629   6.512   5.357   1.649
 9577SOL    HW129630   6.446   5.328   1.580
 9577SOL    HW229631   6.602   5.319   1.628
 9578SOL     OW29632   1.356   2.478   2.808
 9578SOL    HW129633   1.398   2.388   2.796
 9578SOL    HW229634   1.257   2.469   2.811
 9579SOL     OW29635   5.711   6.781   2.472
 9579SOL    HW129636   5.778   6.732   2.415
 9579SOL    HW229637   5.712   6.742   2.564
 9580SOL     OW29638   4.747   4.947   1.832
 9580SOL    HW129639   4.765   5.006   1.912
 9580SOL    HW229640   4.823   4.954   1.768
 9581SOL     OW29641   6.209   1.307   6.843
 9581SOL    HW129642   6.131   1.252   6.874
 9581SOL    HW229643   6.294   1.259   6.862
 9582SOL     OW29644   4.277   5.674   4.305
 9582SOL    HW129645   4.331   5.755   4.329
 9582SOL    HW229646   4.186   5.681   4.344
 9583SOL     OW29647   3.402   4.530   1.690
 9583SOL    HW129648   3.466   4.596   1.731
 9583SOL    HW229649   3.449   4.443   1.674
 9584SOL     OW29650   1.883   4.087   4.460
 9584SOL    HW129651   1.934   4.011   4.501
 9584SOL    HW229652   1.869   4.070   4.363
 9585SOL     OW29653   5.226   5.887   1.682
 9585SOL    HW129654   5.260   5.950   1.611
 9585SOL    HW229655   5.178   5.811   1.638
 9586SOL     OW29656   4.455   5.154   1.562
 9586SOL    HW129657   4.368   5.201   1.547
 9586SOL    HW229658   4.501   5.140   1.474
 9587SOL     OW29659   2.442   6.289   1.569
 9587SOL    HW129660   2.481   6.211   1.522
 9587SOL    HW229661   2.490   6.372   1.543
 9588SOL     OW29662   6.679   6.013   0.732
 9588SOL    HW129663   6.604   5.959   0.693
 9588SOL    HW229664   6.764   5.994   0.682
 9589SOL     OW29665   1.491   3.843   6.354
 9589SOL    HW129666   1.401   3.844   6.397
 9589SOL    HW229667   1.482   3.867   6.257
 9590SOL     OW29668   5.249   1.459   2.245
 9590SOL    HW129669   5.237   1.500   2.155
 9590SOL    HW229670   5.261   1.531   2.313
 9591SOL     OW29671   3.194   0.306   6.514
 9591SOL    HW129672   3.099   0.320   6.487
 9591SOL    HW229673   3.213   0.208   6.521
 9592SOL     OW29674   2.757   4.450   6.673
 9592SOL    HW129675   2.716   4.426   6.584
 9592SOL    HW229676   2.732   4.381   6.741
 9593SOL     OW29677   1.558   1.474   5.400
 9593SOL    HW129678   1.576   1.558   5.349
 9593SOL    HW229679   1.466   1.441   5.380
 9594SOL     OW29680   1.028   5.648   4.060
 9594SOL    HW129681   1.126   5.644   4.076
 9594SOL    HW229682   1.009   5.631   3.963
 9595SOL     OW29683   0.169   2.989   4.031
 9595SOL    HW129684   0.232   3.043   3.976
 9595SOL    HW229685   0.154   2.901   3.987
 9596SOL     OW29686   0.119   5.908   0.958
 9596SOL    HW129687   0.101   5.859   1.044
 9596SOL    HW229688   0.189   5.978   0.974
 9597SOL     OW29689   1.053   3.916   2.866
 9597SOL    HW129690   1.069   3.916   2.965
 9597SOL    HW229691   1.096   3.996   2.825
 9598SOL     OW29692   1.602   3.599   2.912
 9598SOL    HW129693   1.558   3.672   2.965
 9598SOL    HW229694   1.677   3.638   2.858
 9599SOL     OW29695   3.095   0.018   3.556
 9599SOL    HW129696   3.068   0.047   3.648
 9599SOL    HW229697   3.048   0.073   3.488
 9600SOL     OW29698   3.049   0.676   1.091
 9600SOL    HW129699   2.996   0.643   1.013
 9600SOL    HW229700   3.003   0.755   1.131
 9601SOL     OW29701   6.555   4.421   1.235
 9601SOL    HW129702   6.481   4.481   1.266
 9601SOL    HW229703   6.526   4.326   1.241
 9602SOL     OW29704   4.877   3.925   5.464
 9602SOL    HW129705   4.788   3.883   5.446
 9602SOL    HW229706   4.872   3.976   5.550
 9603SOL     OW29707   5.668   6.844   5.608
 9603SOL    HW129708   5.595   6.907   5.638
 9603SOL    HW229709   5.752   6.895   5.591
 9604SOL     OW29710   5.514   0.446   0.442
 9604SOL    HW129711   5.497   0.544   0.449
 9604SOL    HW229712   5.476   0.400   0.522
 9605SOL     OW29713   6.643   5.153   3.529
 9605SOL    HW129714   6.695   5.165   3.445
 9605SOL    HW229715   6.548   5.130   3.507
 9606SOL     OW29716   0.912   1.290   6.483
 9606SOL    HW129717   1.004   1.324   6.504
 9606SOL    HW229718   0.917   1.194   6.454
 9607SOL     OW29719   3.282   2.356   5.974
 9607SOL    HW129720   3.202   2.404   5.939
 9607SOL    HW229721   3.357   2.421   5.986
 9608SOL     OW29722   6.425   4.407   2.835
 9608SOL    HW129723   6.450   4.503   2.844
 9608SOL    HW229724   6.403   4.369   2.925
 9609SOL     OW29725   4.036   2.379   6.233
 9609SOL    HW129726   3.977   2.357   6.311
 9609SOL    HW229727   3.990   2.448   6.176
 9610SOL     OW29728   1.806   3.729   2.783
 9610SOL    HW129729   1.823   3.819   2.742
 9610SOL    HW229730   1.893   3.685   2.804
 9611SOL     OW29731   1.905   6.925   1.199
 9611SOL    HW129732   1.889   7.008   1.251
 9611SOL    HW229733   2.003   6.904   1.197
 9612SOL     OW29734   0.634   2.925   2.753
 9612SOL    HW129735   0.551   2.975   2.779
 9612SOL    HW229736   0.707   2.945   2.818
 9613SOL     OW29737   6.411   6.091   3.747
 9613SOL    HW129738   6.430   6.177   3.701
 9613SOL    HW229739   6.472   6.020   3.712
 9614SOL     OW29740   4.345   2.343   3.230
 9614SOL    HW129741   4.437   2.380   3.239
 9614SOL    HW229742   4.347   2.244   3.246
 9615SOL     OW29743   2.500   2.577   1.205
 9615SOL    HW129744   2.488   2.561   1.303
 9615SOL    HW229745   2.465   2.667   1.181
 9616SOL     OW29746   3.711   2.744   0.966
 9616SOL    HW129747   3.756   2.764   0.879
 9616SOL    HW229748   3.697   2.645   0.974
 9617SOL     OW29749   2.218   2.973   3.612
 9617SOL    HW129750   2.264   2.973   3.701
 9617SOL    HW229751   2.252   2.896   3.558
 9618SOL     OW29752   2.887   1.006   0.748
 9618SOL    HW129753   2.880   0.951   0.664
 9618SOL    HW229754   2.855   0.952   0.826
 9619SOL     OW29755   2.014   0.736   5.287
 9619SOL    HW129756   1.965   0.720   5.373
 9619SOL    HW229757   2.057   0.826   5.289
 9620SOL     OW29758   4.950   0.384   4.983
 9620SOL    HW129759   4.869   0.327   4.998
 9620SOL    HW229760   4.967   0.440   5.064
 9621SOL     OW29761   1.647   2.721   2.243
 9621SOL    HW129762   1.561   2.761   2.276
 9621SOL    HW229763   1.653   2.626   2.272
 9622SOL     OW29764   5.658   1.107   1.052
 9622SOL    HW129765   5.756   1.124   1.058
 9622SOL    HW229766   5.620   1.090   1.143
 9623SOL     OW29767   3.474   2.944   6.354
 9623SOL    HW129768   3.485   2.854   6.312
 9623SOL    HW229769   3.423   3.004   6.293
 9624SOL     OW29770   5.548   3.144   3.065
 9624SOL    HW129771   5.552   3.045   3.082
 9624SOL    HW229772   5.489   3.187   3.134
 9625SOL     OW29773   6.016   6.179   0.430
 9625SOL    HW129774   6.105   6.146   0.398
 9625SOL    HW229775   6.015   6.279   0.428
 9626SOL     OW29776   4.011   5.396   0.291
 9626SOL    HW129777   4.036   5.476   0.346
 9626SOL    HW229778   3.995   5.424   0.197
 9627SOL     OW29779   1.281   6.161   6.245
 9627SOL    HW129780   1.214   6.123   6.181
 9627SOL    HW229781   1.373   6.141   6.212
 9628SOL     OW29782   4.337   6.128   0.958
 9628SOL    HW129783   4.350   6.181   0.874
 9628SOL    HW229784   4.244   6.142   0.992
 9629SOL     OW29785   2.714   0.163   1.330
 9629SOL    HW129786   2.741   0.151   1.235
 9629SOL    HW229787   2.627   0.115   1.346
 9630SOL     OW29788   6.342   0.439   6.038
 9630SOL    HW129789   6.250   0.447   5.999
 9630SOL    HW229790   6.387   0.358   6.001
 9631SOL     OW29791   6.496   0.144   6.578
 9631SOL    HW129792   6.530   0.215   6.517
 9631SOL    HW229793   6.494   0.178   6.672
 9632SOL     OW29794   1.776   6.309   2.127
 9632SOL    HW129795   1.720   6.389   2.106
 9632SOL    HW229796   1.722   6.226   2.115
 9633SOL     OW29797   6.243   5.439   6.896
 9633SOL    HW129798   6.212   5.532   6.874
 9633SOL    HW229799   6.166   5.386   6.933
 9634SOL     OW29800   1.464   6.116   4.689
 9634SOL    HW129801   1.370   6.148   4.701
 9634SOL    HW229802   1.465   6.016   4.685
 9635SOL     OW29803   2.733   5.293   4.571
 9635SOL    HW129804   2.802   5.254   4.632
 9635SOL    HW229805   2.642   5.275   4.607
 9636SOL     OW29806   4.185   1.191   5.257
 9636SOL    HW129807   4.201   1.278   5.305
 9636SOL    HW229808   4.207   1.202   5.160
 9637SOL     OW29809   1.719   1.859   6.552
 9637SOL    HW129810   1.799   1.891   6.604
 9637SOL    HW229811   1.651   1.932   6.546
 9638SOL     OW29812   6.658   3.140   5.374
 9638SOL    HW129813   6.673   3.190   5.459
 9638SOL    HW229814   6.746   3.115   5.334
 9639SOL     OW29815   4.488   1.268   2.670
 9639SOL    HW129816   4.535   1.289   2.585
 9639SOL    HW229817   4.506   1.340   2.737
 9640SOL     OW29818   2.042   2.602   3.097
 9640SOL    HW129819   1.945   2.629   3.097
 9640SOL    HW229820   2.099   2.682   3.078
 9641SOL     OW29821   5.953   6.834   0.412
 9641SOL    HW129822   6.018   6.777   0.362
 9641SOL    HW229823   5.976   6.834   0.509
 9642SOL     OW29824   3.053   0.778   4.696
 9642SOL    HW129825   2.984   0.707   4.708
 9642SOL    HW229826   3.014   0.867   4.719
 9643SOL     OW29827   4.848   5.105   3.785
 9643SOL    HW129828   4.749   5.103   3.770
 9643SOL    HW229829   4.876   5.028   3.842
 9644SOL     OW29830   1.500   2.710   6.277
 9644SOL    HW129831   1.573   2.717   6.209
 9644SOL    HW229832   1.510   2.626   6.329
 9645SOL     OW29833   2.935   5.324   5.139
 9645SOL    HW129834   2.987   5.254   5.189
 9645SOL    HW229835   2.908   5.397   5.203
 9646SOL     OW29836   4.070   4.756   2.750
 9646SOL    HW129837   3.985   4.798   2.782
 9646SOL    HW229838   4.103   4.806   2.670
 9647SOL     OW29839   6.624   3.533   0.935
 9647SOL    HW129840   6.677   3.528   0.850
 9647SOL    HW229841   6.542   3.588   0.920
 9648SOL     OW29842   4.634   2.814   1.232
 9648SOL    HW129843   4.656   2.911   1.240
 9648SOL    HW229844   4.624   2.774   1.323
 9649SOL     OW29845   2.172   5.856   0.372
 9649SOL    HW129846   2.103   5.928   0.384
 9649SOL    HW229847   2.242   5.865   0.443
 9650SOL     OW29848   6.346   5.654   1.967
 9650SOL    HW129849   6.440   5.637   1.995
 9650SOL    HW229850   6.345   5.721   1.893
 9651SOL     OW29851   1.023   0.904   6.621
 9651SOL    HW129852   0.954   0.960   6.667
 9651SOL    HW229853   1.030   0.933   6.525
 9652SOL     OW29854   0.210   5.106   3.152
 9652SOL    HW129855   0.152   5.026   3.134
 9652SOL    HW229856   0.163   5.189   3.124
 9653SOL     OW29857   5.754   4.947   4.494
 9653SOL    HW129858   5.850   4.965   4.475
 9653SOL    HW229859   5.712   5.029   4.532
 9654SOL     OW29860   2.256   2.778   1.675
 9654SOL    HW129861   2.306   2.745   1.755
 9654SOL    HW229862   2.320   2.817   1.609
 9655SOL     OW29863   0.053   1.780   6.921
 9655SOL    HW129864   0.151   1.803   6.924
 9655SOL    HW229865   0.000   1.864   6.909
 9656SOL     OW29866   3.391   0.576   2.661
 9656SOL    HW129867   3.434   0.512   2.724
 9656SOL    HW229868   3.344   0.526   2.588
 9657SOL     OW29869   6.590   0.875   4.537
 9657SOL    HW129870   6.583   0.777   4.521
 9657SOL    HW229871   6.499   0.914   4.551
 9658SOL     OW29872   6.433   2.513   1.769
 9658SOL    HW129873   6.380   2.543   1.689
 9658SOL    HW229874   6.374   2.515   1.849
 9659SOL     OW29875   0.572   4.388   6.937
 9659SOL    HW129876   0.519   4.436   6.867
 9659SOL    HW229877   0.550   4.291   6.935
 9660SOL     OW29878   0.573   5.334   0.479
 9660SOL    HW129879   0.543   5.240   0.464
 9660SOL    HW229880   0.563   5.358   0.575
 9661SOL     OW29881   4.330   6.342   0.731
 9661SOL    HW129882   4.368   6.392   0.653
 9661SOL    HW229883   4.293   6.407   0.797
 9662SOL     OW29884   6.017   1.607   4.725
 9662SOL    HW129885   5.986   1.527   4.673
 9662SOL    HW229886   6.003   1.592   4.822
 9663SOL     OW29887   2.283   5.243   2.909
 9663SOL    HW129888   2.344   5.321   2.918
 9663SOL    HW229889   2.285   5.189   2.994
 9664SOL     OW29890   3.847   6.227   1.966
 9664SOL    HW129891   3.863   6.259   2.059
 9664SOL    HW229892   3.830   6.306   1.907
 9665SOL     OW29893   5.453   4.312   4.399
 9665SOL    HW129894   5.433   4.398   4.351
 9665SOL    HW229895   5.397   4.239   4.359
 9666SOL     OW29896   5.646   4.299   3.276
 9666SOL    HW129897   5.565   4.315   3.220
 9666SOL    HW229898   5.724   4.277   3.217
 9667SOL     OW29899   4.134   3.273   3.996
 9667SOL    HW129900   4.111   3.257   3.900
 9667SOL    HW229901   4.130   3.371   4.015
 9668SOL     OW29902   0.215   0.994   5.565
 9668SOL    HW129903   0.130   1.031   5.602
 9668SOL    HW229904   0.194   0.935   5.486
 9669SOL     OW29905   1.321   5.577   0.741
 9669SOL    HW129906   1.274   5.585   0.829
 9669SOL    HW229907   1.349   5.668   0.709
 9670SOL     OW29908   4.985   4.973   6.869
 9670SOL    HW129909   4.983   5.071   6.852
 9670SOL    HW229910   5.080   4.943   6.877
 9671SOL     OW29911   6.823   5.829   5.711
 9671SOL    HW129912   6.861   5.795   5.625
 9671SOL    HW229913   6.736   5.782   5.729
 9672SOL     OW29914   0.765   6.602   4.766
 9672SOL    HW129915   0.698   6.653   4.820
 9672SOL    HW229916   0.721   6.564   4.685
 9673SOL     OW29917   3.147   4.291   6.907
 9673SOL    HW129918   3.112   4.239   6.829
 9673SOL    HW229919   3.093   4.375   6.917
 9674SOL     OW29920   3.284   6.032   2.341
 9674SOL    HW129921   3.240   6.035   2.252
 9674SOL    HW229922   3.363   5.970   2.337
 9675SOL     OW29923   6.331   2.168   1.812
 9675SOL    HW129924   6.395   2.166   1.735
 9675SOL    HW229925   6.366   2.112   1.887
 9676SOL     OW29926   0.702   3.614   4.606
 9676SOL    HW129927   0.693   3.665   4.520
 9676SOL    HW229928   0.697   3.516   4.586
 9677SOL     OW29929   1.830   3.352   6.002
 9677SOL    HW129930   1.742   3.307   6.018
 9677SOL    HW229931   1.889   3.339   6.081
 9678SOL     OW29932   3.631   3.498   3.060
 9678SOL    HW129933   3.578   3.533   2.982
 9678SOL    HW229934   3.612   3.400   3.071
 9679SOL     OW29935   1.357   2.940   2.027
 9679SOL    HW129936   1.359   3.013   2.096
 9679SOL    HW229937   1.441   2.943   1.972
 9680SOL     OW29938   5.928   5.957   3.438
 9680SOL    HW129939   5.988   5.908   3.501
 9680SOL    HW229940   5.906   5.898   3.360
 9681SOL     OW29941   2.252   0.820   2.412
 9681SOL    HW129942   2.346   0.851   2.399
 9681SOL    HW229943   2.251   0.736   2.467
 9682SOL     OW29944   5.591   4.688   3.207
 9682SOL    HW129945   5.591   4.708   3.305
 9682SOL    HW229946   5.504   4.644   3.182
 9683SOL     OW29947   4.477   6.123   6.873
 9683SOL    HW129948   4.396   6.180   6.882
 9683SOL    HW229949   4.453   6.038   6.825
 9684SOL     OW29950   1.272   3.597   4.974
 9684SOL    HW129951   1.201   3.553   5.029
 9684SOL    HW229952   1.311   3.674   5.025
 9685SOL     OW29953   0.874   3.108   0.586
 9685SOL    HW129954   0.871   3.169   0.665
 9685SOL    HW229955   0.782   3.076   0.564
 9686SOL     OW29956   6.410   0.612   1.207
 9686SOL    HW129957   6.334   0.550   1.190
 9686SOL    HW229958   6.496   0.563   1.195
 9687SOL     OW29959   2.921   0.106   3.823
 9687SOL    HW129960   3.001   0.054   3.852
 9687SOL    HW229961   2.936   0.203   3.843
 9688SOL     OW29962   0.055   1.327   2.794
 9688SOL    HW129963   0.127   1.388   2.825
 9688SOL    HW229964   7.003   1.380   2.745
 9689SOL     OW29965   2.731   6.292   6.295
 9689SOL    HW129966   2.662   6.232   6.335
 9689SOL    HW229967   2.726   6.288   6.196
 9690SOL     OW29968   6.566   5.135   1.320
 9690SOL    HW129969   6.501   5.059   1.320
 9690SOL    HW229970   6.657   5.101   1.347
 9691SOL     OW29971   1.878   4.866   2.326
 9691SOL    HW129972   1.904   4.896   2.418
 9691SOL    HW229973   1.817   4.787   2.332
 9692SOL     OW29974   2.650   5.214   1.517
 9692SOL    HW129975   2.608   5.124   1.529
 9692SOL    HW229976   2.581   5.285   1.530
 9693SOL     OW29977   6.198   6.291   1.744
 9693SOL    HW129978   6.140   6.215   1.773
 9693SOL    HW229979   6.289   6.256   1.722
 9694SOL     OW29980   1.235   2.647   6.556
 9694SOL    HW129981   1.152   2.685   6.597
 9694SOL    HW229982   1.315   2.695   6.592
 9695SOL     OW29983   6.667   4.383   1.758
 9695SOL    HW129984   6.614   4.446   1.702
 9695SOL    HW229985   6.736   4.337   1.702
 9696SOL     OW29986   3.971   3.211   1.432
 9696SOL    HW129987   3.932   3.199   1.523
 9696SOL    HW229988   4.071   3.200   1.436
 9697SOL     OW29989   0.782   5.624   6.896
 9697SOL    HW129990   0.756   5.676   6.815
 9697SOL    HW229991   0.700   5.602   6.949
 9698SOL     OW29992   5.752   2.015   5.034
 9698SOL    HW129993   5.789   2.107   5.026
 9698SOL    HW229994   5.760   1.968   4.947
 9699SOL     OW29995   1.898   3.489   6.680
 9699SOL    HW129996   1.914   3.587   6.672
 9699SOL    HW229997   1.875   3.466   6.774
 9700SOL     OW29998   3.823   3.806   4.904
 9700SOL    HW129999   3.840   3.902   4.881
 9700SOL    HW230000   3.870   3.747   4.839
 9701SOL     OW30001   4.720   5.420   4.791
 9701SOL    HW130002   4.789   5.388   4.726
 9701SOL    HW230003   4.692   5.513   4.766
 9702SOL     OW30004   4.583   0.985   0.586
 9702SOL    HW130005   4.514   0.942   0.643
 9702SOL    HW230006   4.597   0.931   0.503
 9703SOL     OW30007   2.985   5.615   4.345
 9703SOL    HW130008   2.888   5.592   4.334
 9703SOL    HW230009   3.009   5.611   4.442
 9704SOL     OW30010   3.644   0.239   3.191
 9704SOL    HW130011   3.687   0.328   3.176
 9704SOL    HW230012   3.668   0.205   3.282
 9705SOL     OW30013   3.252   4.410   0.287
 9705SOL    HW130014   3.260   4.312   0.302
 9705SOL    HW230015   3.174   4.445   0.339
 9706SOL     OW30016   5.512   2.774   2.781
 9706SOL    HW130017   5.447   2.847   2.760
 9706SOL    HW230018   5.474   2.686   2.751
 9707SOL     OW30019   2.558   5.296   2.381
 9707SOL    HW130020   2.541   5.392   2.401
 9707SOL    HW230021   2.475   5.253   2.344
 9708SOL     OW30022   2.191   1.307   3.103
 9708SOL    HW130023   2.279   1.330   3.060
 9708SOL    HW230024   2.172   1.210   3.088
 9709SOL     OW30025   1.954   6.109   2.958
 9709SOL    HW130026   2.021   6.177   2.928
 9709SOL    HW230027   1.986   6.018   2.931
 9710SOL     OW30028   0.557   0.864   3.485
 9710SOL    HW130029   0.518   0.946   3.443
 9710SOL    HW230030   0.642   0.840   3.438
 9711SOL     OW30031   1.606   3.753   5.279
 9711SOL    HW130032   1.637   3.811   5.354
 9711SOL    HW230033   1.533   3.799   5.228
 9712SOL     OW30034   5.077   1.835   4.151
 9712SOL    HW130035   5.148   1.826   4.222
 9712SOL    HW230036   5.065   1.932   4.129
 9713SOL     OW30037   6.897   5.109   2.809
 9713SOL    HW130038   6.933   5.188   2.761
 9713SOL    HW230039   6.837   5.140   2.883
 9714SOL     OW30040   2.307   2.572   1.466
 9714SOL    HW130041   2.304   2.513   1.547
 9714SOL    HW230042   2.300   2.668   1.495
 9715SOL     OW30043   5.208   6.070   4.885
 9715SOL    HW130044   5.209   6.161   4.843
 9715SOL    HW230045   5.292   6.056   4.937
 9716SOL     OW30046   4.254   1.784   6.338
 9716SOL    HW130047   4.329   1.721   6.322
 9716SOL    HW230048   4.244   1.801   6.437
 9717SOL     OW30049   5.793   5.504   3.920
 9717SOL    HW130050   5.703   5.546   3.938
 9717SOL    HW230051   5.785   5.440   3.843
 9718SOL     OW30052   4.235   3.299   1.433
 9718SOL    HW130053   4.308   3.238   1.401
 9718SOL    HW230054   4.269   3.353   1.510
 9719SOL     OW30055   0.486   2.159   0.086
 9719SOL    HW130056   0.493   2.126   7.010
 9719SOL    HW230057   0.562   2.122   0.140
 9720SOL     OW30058   6.781   0.305   1.837
 9720SOL    HW130059   6.783   0.257   1.924
 9720SOL    HW230060   6.698   0.280   1.787
 9721SOL     OW30061   6.673   3.702   2.356
 9721SOL    HW130062   6.600   3.711   2.288
 9721SOL    HW230063   6.754   3.752   2.325
 9722SOL     OW30064   0.815   0.839   3.824
 9722SOL    HW130065   0.902   0.888   3.817
 9722SOL    HW230066   0.766   0.870   3.905
 9723SOL     OW30067   0.310   1.195   3.550
 9723SOL    HW130068   0.257   1.110   3.544
 9723SOL    HW230069   0.272   1.253   3.622
 9724SOL     OW30070   3.627   2.239   1.270
 9724SOL    HW130071   3.579   2.160   1.232
 9724SOL    HW230072   3.721   2.214   1.293
 9725SOL     OW30073   4.512   3.346   5.593
 9725SOL    HW130074   4.454   3.361   5.514
 9725SOL    HW230075   4.488   3.259   5.636
 9726SOL     OW30076   4.668   6.481   4.680
 9726SOL    HW130077   4.762   6.451   4.664
 9726SOL    HW230078   4.619   6.489   4.593
 9727SOL     OW30079   1.582   2.879   5.776
 9727SOL    HW130080   1.488   2.894   5.806
 9727SOL    HW230081   1.637   2.960   5.796
 9728SOL     OW30082   2.812   5.845   6.841
 9728SOL    HW130083   2.909   5.826   6.855
 9728SOL    HW230084   2.757   5.773   6.883
 9729SOL     OW30085   2.494   5.053   2.816
 9729SOL    HW130086   2.542   5.001   2.886
 9729SOL    HW230087   2.419   5.103   2.857
 9730SOL     OW30088   6.269   2.771   2.562
 9730SOL    HW130089   6.272   2.846   2.495
 9730SOL    HW230090   6.282   2.684   2.514
 9731SOL     OW30091   3.545   4.736   0.707
 9731SOL    HW130092   3.446   4.748   0.704
 9731SOL    HW230093   3.586   4.808   0.763
 9732SOL     OW30094   6.522   6.103   2.809
 9732SOL    HW130095   6.577   6.067   2.884
 9732SOL    HW230096   6.455   6.167   2.844
 9733SOL     OW30097   5.008   4.811   5.270
 9733SOL    HW130098   5.103   4.841   5.266
 9733SOL    HW230099   4.997   4.728   5.216
 9734SOL     OW30100   5.340   2.518   4.262
 9734SOL    HW130101   5.289   2.466   4.193
 9734SOL    HW230102   5.276   2.571   4.317
 9735SOL     OW30103   1.902   4.415   1.373
 9735SOL    HW130104   1.902   4.420   1.472
 9735SOL    HW230105   1.930   4.324   1.344
 9736SOL     OW30106   4.186   0.998   6.907
 9736SOL    HW130107   4.124   0.930   6.867
 9736SOL    HW230108   4.134   1.077   6.939
 9737SOL     OW30109   4.027   2.160   5.128
 9737SOL    HW130110   4.073   2.249   5.122
 9737SOL    HW230111   4.090   2.089   5.097
 9738SOL     OW30112   1.572   0.901   2.839
 9738SOL    HW130113   1.545   0.825   2.781
 9738SOL    HW230114   1.628   0.867   2.915
 9739SOL     OW30115   5.988   4.817   1.739
 9739SOL    HW130116   6.037   4.788   1.657
 9739SOL    HW230117   5.902   4.766   1.746
 9740SOL     OW30118   6.686   4.886   3.037
 9740SOL    HW130119   6.729   4.976   3.034
 9740SOL    HW230120   6.651   4.869   3.129
 9741SOL     OW30121   4.355   2.319   2.120
 9741SOL    HW130122   4.367   2.303   2.218
 9741SOL    HW230123   4.427   2.380   2.088
 9742SOL     OW30124   5.401   1.228   3.810
 9742SOL    HW130125   5.390   1.306   3.748
 9742SOL    HW230126   5.335   1.156   3.784
 9743SOL     OW30127   1.754   3.075   5.800
 9743SOL    HW130128   1.845   3.054   5.765
 9743SOL    HW230129   1.721   3.159   5.757
 9744SOL     OW30130   2.301   1.144   2.236
 9744SOL    HW130131   2.269   1.236   2.216
 9744SOL    HW230132   2.305   1.091   2.151
 9745SOL     OW30133   0.007   2.556   4.959
 9745SOL    HW130134   0.034   2.649   4.936
 9745SOL    HW230135   6.954   2.559   5.029
 9746SOL     OW30136   6.068   1.016   4.773
 9746SOL    HW130137   5.999   1.084   4.798
 9746SOL    HW230138   6.132   1.003   4.849
 9747SOL     OW30139   0.523   0.103   5.947
 9747SOL    HW130140   0.431   0.070   5.966
 9747SOL    HW230141   0.540   0.186   5.999
 9748SOL     OW30142   0.865   6.221   3.921
 9748SOL    HW130143   0.882   6.177   4.009
 9748SOL    HW230144   0.935   6.291   3.905
 9749SOL     OW30145   0.237   4.043   4.193
 9749SOL    HW130146   0.280   3.953   4.192
 9749SOL    HW230147   0.266   4.093   4.275
 9750SOL     OW30148   4.078   4.759   3.746
 9750SOL    HW130149   4.086   4.761   3.845
 9750SOL    HW230150   4.075   4.664   3.714
 9751SOL     OW30151   1.689   2.330   0.513
 9751SOL    HW130152   1.636   2.413   0.499
 9751SOL    HW230153   1.722   2.296   0.425
 9752SOL     OW30154   4.148   1.311   6.134
 9752SOL    HW130155   4.100   1.382   6.186
 9752SOL    HW230156   4.243   1.340   6.119
 9753SOL     OW30157   0.051   5.601   4.821
 9753SOL    HW130158   0.130   5.632   4.873
 9753SOL    HW230159   7.013   5.540   4.878
 9754SOL     OW30160   1.165   1.410   6.509
 9754SOL    HW130161   1.177   1.476   6.434
 9754SOL    HW230162   1.216   1.441   6.589
 9755SOL     OW30163   3.662   4.800   5.522
 9755SOL    HW130164   3.624   4.731   5.460
 9755SOL    HW230165   3.720   4.755   5.590
 9756SOL     OW30166   6.062   2.448   6.128
 9756SOL    HW130167   6.114   2.482   6.049
 9756SOL    HW230168   6.109   2.474   6.212
 9757SOL     OW30169   5.852   2.388   3.683
 9757SOL    HW130170   5.832   2.484   3.703
 9757SOL    HW230171   5.924   2.355   3.744
 9758SOL     OW30172   2.950   0.480   0.204
 9758SOL    HW130173   2.863   0.483   0.154
 9758SOL    HW230174   2.934   0.505   0.299
 9759SOL     OW30175   3.047   6.076   1.164
 9759SOL    HW130176   3.125   6.054   1.105
 9759SOL    HW230177   3.074   6.072   1.260
 9760SOL     OW30178   5.997   4.436   5.745
 9760SOL    HW130179   5.915   4.458   5.798
 9760SOL    HW230180   5.970   4.393   5.659
 9761SOL     OW30181   5.561   5.301   1.593
 9761SOL    HW130182   5.479   5.320   1.648
 9761SOL    HW230183   5.641   5.301   1.652
 9762SOL     OW30184   2.294   1.486   4.863
 9762SOL    HW130185   2.227   1.560   4.859
 9762SOL    HW230186   2.345   1.492   4.949
 9763SOL     OW30187   2.510   2.007   0.812
 9763SOL    HW130188   2.524   1.919   0.766
 9763SOL    HW230189   2.561   2.078   0.765
 9764SOL     OW30190   1.028   1.739   2.191
 9764SOL    HW130191   0.942   1.734   2.243
 9764SOL    HW230192   1.088   1.664   2.219
 9765SOL     OW30193   0.842   1.826   5.417
 9765SOL    HW130194   0.916   1.839   5.483
 9765SOL    HW230195   0.799   1.914   5.396
 9766SOL     OW30196   2.917   0.537   2.127
 9766SOL    HW130197   2.853   0.528   2.051
 9766SOL    HW230198   2.898   0.622   2.176
 9767SOL     OW30199   5.514   0.365   4.710
 9767SOL    HW130200   5.507   0.285   4.770
 9767SOL    HW230201   5.471   0.444   4.754
 9768SOL     OW30202   4.354   2.303   2.433
 9768SOL    HW130203   4.262   2.268   2.417
 9768SOL    HW230204   4.357   2.347   2.523
 9769SOL     OW30205   0.822   1.623   0.942
 9769SOL    HW130206   0.757   1.680   0.992
 9769SOL    HW230207   0.771   1.557   0.886
 9770SOL     OW30208   5.724   4.946   5.989
 9770SOL    HW130209   5.777   4.879   5.938
 9770SOL    HW230210   5.786   5.007   6.038
 9771SOL     OW30211   4.035   5.360   6.020
 9771SOL    HW130212   4.066   5.338   5.928
 9771SOL    HW230213   4.093   5.314   6.087
 9772SOL     OW30214   6.664   0.730   1.551
 9772SOL    HW130215   6.744   0.712   1.494
 9772SOL    HW230216   6.585   0.750   1.493
 9773SOL     OW30217   6.335   5.678   3.287
 9773SOL    HW130218   6.285   5.610   3.341
 9773SOL    HW230219   6.335   5.765   3.334
 9774SOL     OW30220   6.598   4.641   3.257
 9774SOL    HW130221   6.530   4.699   3.303
 9774SOL    HW230222   6.654   4.594   3.325
 9775SOL     OW30223   2.112   2.418   4.760
 9775SOL    HW130224   2.127   2.501   4.706
 9775SOL    HW230225   2.015   2.411   4.785
 9776SOL     OW30226   0.495   6.347   5.127
 9776SOL    HW130227   0.490   6.381   5.033
 9776SOL    HW230228   0.469   6.251   5.130
 9777SOL     OW30229   5.687   4.443   6.095
 9777SOL    HW130230   5.686   4.345   6.075
 9777SOL    HW230231   5.620   4.464   6.166
 9778SOL     OW30232   4.744   6.908   2.348
 9778SOL    HW130233   4.789   6.951   2.427
 9778SOL    HW230234   4.653   6.947   2.337
 9779SOL     OW30235   2.717   1.953   5.607
 9779SOL    HW130236   2.756   1.971   5.517
 9779SOL    HW230237   2.617   1.960   5.602
 9780SOL     OW30238   3.308   4.595   6.963
 9780SOL    HW130239   3.309   4.495   6.967
 9780SOL    HW230240   3.388   4.627   6.912
 9781SOL     OW30241   1.332   5.113   4.547
 9781SOL    HW130242   1.276   5.047   4.597
 9781SOL    HW230243   1.407   5.143   4.605
 9782SOL     OW30244   6.640   0.473   1.156
 9782SOL    HW130245   6.736   0.488   1.135
 9782SOL    HW230246   6.631   0.415   1.236
 9783SOL     OW30247   5.168   1.109   2.085
 9783SOL    HW130248   5.088   1.072   2.038
 9783SOL    HW230249   5.142   1.138   2.177
 9784SOL     OW30250   4.842   0.495   3.878
 9784SOL    HW130251   4.812   0.572   3.822
 9784SOL    HW230252   4.818   0.409   3.834
 9785SOL     OW30253   0.836   2.982   1.884
 9785SOL    HW130254   0.804   2.889   1.868
 9785SOL    HW230255   0.814   3.009   1.978
 9786SOL     OW30256   3.237   5.878   4.780
 9786SOL    HW130257   3.197   5.918   4.697
 9786SOL    HW230258   3.284   5.949   4.832
 9787SOL     OW30259   4.963   4.197   2.182
 9787SOL    HW130260   4.877   4.240   2.210
 9787SOL    HW230261   5.025   4.266   2.146
 9788SOL     OW30262   6.680   1.369   5.970
 9788SOL    HW130263   6.624   1.296   6.009
 9788SOL    HW230264   6.712   1.430   6.042
 9789SOL     OW30265   2.315   5.860   4.544
 9789SOL    HW130266   2.255   5.857   4.464
 9789SOL    HW230267   2.393   5.798   4.529
 9790SOL     OW30268   6.139   2.280   4.401
 9790SOL    HW130269   6.164   2.279   4.498
 9790SOL    HW230270   6.205   2.335   4.350
 9791SOL     OW30271   0.652   2.403   1.111
 9791SOL    HW130272   0.685   2.309   1.100
 9791SOL    HW230273   0.711   2.465   1.059
 9792SOL     OW30274   4.267   5.375   1.394
 9792SOL    HW130275   4.323   5.457   1.401
 9792SOL    HW230276   4.173   5.400   1.370
 9793SOL     OW30277   4.902   6.352   1.862
 9793SOL    HW130278   4.935   6.259   1.844
 9793SOL    HW230279   4.852   6.353   1.948
 9794SOL     OW30280   3.863   2.754   6.684
 9794SOL    HW130281   3.914   2.769   6.769
 9794SOL    HW230282   3.811   2.669   6.691
 9795SOL     OW30283   1.701   2.989   3.980
 9795SOL    HW130284   1.754   3.068   4.011
 9795SOL    HW230285   1.639   3.017   3.906
 9796SOL     OW30286   2.981   5.051   6.913
 9796SOL    HW130287   2.900   5.000   6.942
 9796SOL    HW230288   3.051   4.987   6.881
 9797SOL     OW30289   4.459   3.064   5.623
 9797SOL    HW130290   4.425   3.032   5.712
 9797SOL    HW230291   4.552   3.030   5.609
 9798SOL     OW30292   2.108   1.881   1.398
 9798SOL    HW130293   2.036   1.941   1.363
 9798SOL    HW230294   2.180   1.937   1.439
 9799SOL     OW30295   3.027   3.950   1.772
 9799SOL    HW130296   2.959   4.018   1.745
 9799SOL    HW230297   2.981   3.869   1.808
 9800SOL     OW30298   4.429   4.926   6.742
 9800SOL    HW130299   4.362   4.989   6.782
 9800SOL    HW230300   4.422   4.929   6.642
 9801SOL     OW30301   4.160   5.214   0.051
 9801SOL    HW130302   4.060   5.214   0.052
 9801SOL    HW230303   4.195   5.299   0.091
 9802SOL     OW30304   6.780   3.557   0.716
 9802SOL    HW130305   6.748   3.498   0.642
 9802SOL    HW230306   6.829   3.635   0.678
 9803SOL     OW30307   6.145   1.029   6.622
 9803SOL    HW130308   6.069   1.015   6.560
 9803SOL    HW230309   6.111   1.040   6.715
 9804SOL     OW30310   5.952   5.770   4.544
 9804SOL    HW130311   5.947   5.673   4.519
 9804SOL    HW230312   5.866   5.798   4.587
 9805SOL     OW30313   2.158   5.406   6.806
 9805SOL    HW130314   2.105   5.488   6.783
 9805SOL    HW230315   2.125   5.329   6.751
 9806SOL     OW30316   6.886   1.494   2.653
 9806SOL    HW130317   6.927   1.565   2.596
 9806SOL    HW230318   6.818   1.444   2.599
 9807SOL     OW30319   3.966   2.435   1.022
 9807SOL    HW130320   3.996   2.528   1.040
 9807SOL    HW230321   3.866   2.433   1.014
 9808SOL     OW30322   0.936   1.395   4.851
 9808SOL    HW130323   0.865   1.457   4.817
 9808SOL    HW230324   1.017   1.447   4.877
 9809SOL     OW30325   0.811   1.006   5.017
 9809SOL    HW130326   0.778   1.010   4.923
 9809SOL    HW230327   0.816   1.099   5.055
 9810SOL     OW30328   3.705   1.110   3.871
 9810SOL    HW130329   3.708   1.165   3.954
 9810SOL    HW230330   3.709   1.171   3.791
 9811SOL     OW30331   0.653   6.613   3.030
 9811SOL    HW130332   0.553   6.614   3.025
 9811SOL    HW230333   0.692   6.623   2.939
 9812SOL     OW30334   4.912   2.365   5.912
 9812SOL    HW130335   4.832   2.318   5.949
 9812SOL    HW230336   4.936   2.326   5.823
 9813SOL     OW30337   6.621   4.803   0.552
 9813SOL    HW130338   6.521   4.801   0.545
 9813SOL    HW230339   6.657   4.867   0.484
 9814SOL     OW30340   0.293   0.433   5.538
 9814SOL    HW130341   0.237   0.500   5.587
 9814SOL    HW230342   0.358   0.391   5.601
 9815SOL     OW30343   6.087   3.497   2.655
 9815SOL    HW130344   6.007   3.487   2.596
 9815SOL    HW230345   6.104   3.594   2.673
 9816SOL     OW30346   0.061   6.710   6.271
 9816SOL    HW130347   0.086   6.647   6.345
 9816SOL    HW230348   6.980   6.718   6.266
 9817SOL     OW30349   2.927   6.574   0.006
 9817SOL    HW130350   2.829   6.592   7.013
 9817SOL    HW230351   2.977   6.614   6.947
 9818SOL     OW30352   0.577   0.136   3.524
 9818SOL    HW130353   0.527   0.058   3.488
 9818SOL    HW230354   0.587   0.126   3.623
 9819SOL     OW30355   0.005   3.500   4.774
 9819SOL    HW130356   0.002   3.413   4.726
 9819SOL    HW230357   6.995   3.487   4.869
 9820SOL     OW30358   3.849   1.913   5.576
 9820SOL    HW130359   3.809   1.823   5.591
 9820SOL    HW230360   3.909   1.936   5.653
 9821SOL     OW30361   4.002   2.936   1.296
 9821SOL    HW130362   3.914   2.888   1.287
 9821SOL    HW230363   4.031   2.936   1.391
 9822SOL     OW30364   3.511   6.294   5.564
 9822SOL    HW130365   3.422   6.339   5.570
 9822SOL    HW230366   3.539   6.288   5.468
 9823SOL     OW30367   2.310   0.372   2.752
 9823SOL    HW130368   2.244   0.423   2.697
 9823SOL    HW230369   2.324   0.281   2.712
 9824SOL     OW30370   0.875   6.512   5.217
 9824SOL    HW130371   0.835   6.422   5.201
 9824SOL    HW230372   0.975   6.505   5.218
 9825SOL     OW30373   5.699   6.314   5.521
 9825SOL    HW130374   5.650   6.389   5.477
 9825SOL    HW230375   5.774   6.350   5.576
 9826SOL     OW30376   2.065   5.685   4.609
 9826SOL    HW130377   2.155   5.656   4.642
 9826SOL    HW230378   2.019   5.738   4.681
 9827SOL     OW30379   1.341   5.086   1.737
 9827SOL    HW130380   1.312   5.181   1.734
 9827SOL    HW230381   1.420   5.073   1.676
 9828SOL     OW30382   4.511   2.235   4.411
 9828SOL    HW130383   4.436   2.270   4.467
 9828SOL    HW230384   4.530   2.300   4.337
 9829SOL     OW30385   4.384   5.476   5.646
 9829SOL    HW130386   4.288   5.501   5.641
 9829SOL    HW230387   4.414   5.439   5.558
 9830SOL     OW30388   6.023   2.386   3.119
 9830SOL    HW130389   6.009   2.484   3.123
 9830SOL    HW230390   5.936   2.338   3.133
 9831SOL     OW30391   0.580   3.614   2.989
 9831SOL    HW130392   0.483   3.616   3.012
 9831SOL    HW230393   0.633   3.649   3.067
 9832SOL     OW30394   4.691   4.801   4.791
 9832SOL    HW130395   4.707   4.855   4.874
 9832SOL    HW230396   4.601   4.757   4.797
 9833SOL     OW30397   4.064   3.731   3.431
 9833SOL    HW130398   4.088   3.717   3.527
 9833SOL    HW230399   4.042   3.828   3.416
 9834SOL     OW30400   3.009   6.403   5.953
 9834SOL    HW130401   2.961   6.450   6.027
 9834SOL    HW230402   2.997   6.304   5.962
 9835SOL     OW30403   4.102   3.708   3.699
 9835SOL    HW130404   4.185   3.762   3.703
 9835SOL    HW230405   4.090   3.659   3.786
 9836SOL     OW30406   0.607   4.163   5.930
 9836SOL    HW130407   0.585   4.072   5.897
 9836SOL    HW230408   0.707   4.176   5.926
 9837SOL     OW30409   5.510   1.859   3.149
 9837SOL    HW130410   5.582   1.850   3.218
 9837SOL    HW230411   5.455   1.775   3.148
 9838SOL     OW30412   1.811   6.659   1.477
 9838SOL    HW130413   1.837   6.566   1.504
 9838SOL    HW230414   1.893   6.713   1.460
 9839SOL     OW30415   5.290   0.181   3.907
 9839SOL    HW130416   5.220   0.218   3.969
 9839SOL    HW230417   5.301   0.243   3.829
 9840SOL     OW30418   6.110   1.800   6.950
 9840SOL    HW130419   6.055   1.845   6.879
 9840SOL    HW230420   6.207   1.808   6.926
 9841SOL     OW30421   0.388   6.560   3.008
 9841SOL    HW130422   0.323   6.519   3.072
 9841SOL    HW230423   0.383   6.511   2.921
 9842SOL     OW30424   3.256   1.246   6.554
 9842SOL    HW130425   3.233   1.159   6.597
 9842SOL    HW230426   3.174   1.285   6.513
 9843SOL     OW30427   0.494   0.193   1.186
 9843SOL    HW130428   0.445   0.259   1.244
 9843SOL    HW230429   0.467   0.100   1.212
 9844SOL     OW30430   4.295   0.020   3.927
 9844SOL    HW130431   4.305   0.081   4.006
 9844SOL    HW230432   4.321   0.068   3.844
 9845SOL     OW30433   2.082   3.344   2.511
 9845SOL    HW130434   2.056   3.252   2.541
 9845SOL    HW230435   2.124   3.338   2.420
 9846SOL     OW30436   5.901   2.337   1.584
 9846SOL    HW130437   5.830   2.279   1.625
 9846SOL    HW230438   5.883   2.349   1.487
 9847SOL     OW30439   4.326   4.081   6.789
 9847SOL    HW130440   4.272   4.053   6.868
 9847SOL    HW230441   4.300   4.025   6.710
 9848SOL     OW30442   3.255   4.024   5.886
 9848SOL    HW130443   3.247   3.927   5.907
 9848SOL    HW230444   3.326   4.038   5.817
 9849SOL     OW30445   0.418   2.308   4.416
 9849SOL    HW130446   0.372   2.227   4.453
 9849SOL    HW230447   0.417   2.380   4.485
 9850SOL     OW30448   1.175   0.638   4.416
 9850SOL    HW130449   1.129   0.549   4.407
 9850SOL    HW230450   1.272   0.623   4.433
 9851SOL     OW30451   3.801   5.215   4.811
 9851SOL    HW130452   3.762   5.135   4.764
 9851SOL    HW230453   3.890   5.237   4.771
 9852SOL     OW30454   2.286   0.506   0.012
 9852SOL    HW130455   2.304   0.573   6.959
 9852SOL    HW230456   2.211   0.539   0.070
 9853SOL     OW30457   6.739   4.535   3.497
 9853SOL    HW130458   6.715   4.459   3.436
 9853SOL    HW230459   6.837   4.529   3.519
 9854SOL     OW30460   0.872   4.071   5.750
 9854SOL    HW130461   0.826   3.983   5.764
 9854SOL    HW230462   0.818   4.127   5.687
 9855SOL     OW30463   1.131   5.020   1.135
 9855SOL    HW130464   1.049   5.047   1.185
 9855SOL    HW230465   1.138   4.920   1.133
 9856SOL     OW30466   5.823   4.060   3.211
 9856SOL    HW130467   5.732   4.044   3.174
 9856SOL    HW230468   5.856   4.150   3.180
 9857SOL     OW30469   4.215   0.432   5.205
 9857SOL    HW130470   4.249   0.412   5.113
 9857SOL    HW230471   4.251   0.521   5.235
 9858SOL     OW30472   6.411   6.267   2.351
 9858SOL    HW130473   6.427   6.170   2.368
 9858SOL    HW230474   6.322   6.293   2.388
 9859SOL     OW30475   0.022   5.069   3.376
 9859SOL    HW130476   0.112   5.073   3.331
 9859SOL    HW230477   6.985   4.997   3.334
 9860SOL     OW30478   1.328   2.763   4.719
 9860SOL    HW130479   1.401   2.775   4.786
 9860SOL    HW230480   1.336   2.832   4.648
 9861SOL     OW30481   3.218   2.050   3.313
 9861SOL    HW130482   3.308   2.006   3.308
 9861SOL    HW230483   3.159   2.012   3.242
 9862SOL     OW30484   1.028   4.236   0.402
 9862SOL    HW130485   1.043   4.330   0.372
 9862SOL    HW230486   1.086   4.216   0.481
 9863SOL     OW30487   3.768   6.016   0.833
 9863SOL    HW130488   3.831   6.092   0.817
 9863SOL    HW230489   3.816   5.930   0.816
 9864SOL     OW30490   2.297   5.536   5.431
 9864SOL    HW130491   2.203   5.564   5.454
 9864SOL    HW230492   2.297   5.490   5.343
 9865SOL     OW30493   0.448   5.772   5.319
 9865SOL    HW130494   0.420   5.780   5.415
 9865SOL    HW230495   0.545   5.793   5.310
 9866SOL     OW30496   6.303   4.871   5.237
 9866SOL    HW130497   6.320   4.968   5.220
 9866SOL    HW230498   6.250   4.860   5.321
 9867SOL     OW30499   4.051   1.636   2.359
 9867SOL    HW130500   4.144   1.652   2.395
 9867SOL    HW230501   4.008   1.724   2.340
 9868SOL     OW30502   2.116   4.371   4.031
 9868SOL    HW130503   2.174   4.318   4.093
 9868SOL    HW230504   2.115   4.327   3.941
 9869SOL     OW30505   6.434   2.916   0.831
 9869SOL    HW130506   6.419   3.000   0.883
 9869SOL    HW230507   6.485   2.936   0.748
 9870SOL     OW30508   2.639   1.985   2.189
 9870SOL    HW130509   2.654   1.955   2.094
 9870SOL    HW230510   2.543   2.007   2.202
 9871SOL     OW30511   6.197   4.971   4.008
 9871SOL    HW130512   6.158   5.041   3.948
 9871SOL    HW230513   6.272   4.925   3.961
 9872SOL     OW30514   0.750   4.884   6.189
 9872SOL    HW130515   0.716   4.941   6.114
 9872SOL    HW230516   0.820   4.822   6.155
 9873SOL     OW30517   1.279   1.510   5.768
 9873SOL    HW130518   1.351   1.446   5.739
 9873SOL    HW230519   1.216   1.525   5.693
 9874SOL     OW30520   0.115   3.119   4.850
 9874SOL    HW130521   0.110   3.180   4.929
 9874SOL    HW230522   0.189   3.149   4.790
 9875SOL     OW30523   6.554   5.981   1.139
 9875SOL    HW130524   6.646   6.006   1.170
 9875SOL    HW230525   6.524   6.044   1.068
 9876SOL     OW30526   1.165   6.566   3.524
 9876SOL    HW130527   1.169   6.630   3.600
 9876SOL    HW230528   1.256   6.526   3.508
 9877SOL     OW30529   0.742   5.171   5.102
 9877SOL    HW130530   0.650   5.210   5.113
 9877SOL    HW230531   0.774   5.137   5.190
 9878SOL     OW30532   3.084   2.802   6.475
 9878SOL    HW130533   3.078   2.901   6.460
 9878SOL    HW230534   3.179   2.777   6.496
 9879SOL     OW30535   6.570   4.910   6.269
 9879SOL    HW130536   6.631   4.964   6.210
 9879SOL    HW230537   6.619   4.830   6.303
 9880SOL     OW30538   2.328   1.411   0.863
 9880SOL    HW130539   2.335   1.506   0.833
 9880SOL    HW230540   2.398   1.393   0.932
 9881SOL     OW30541   6.405   1.248   3.343
 9881SOL    HW130542   6.312   1.240   3.308
 9881SOL    HW230543   6.404   1.238   3.443
 9882SOL     OW30544   3.407   3.016   5.258
 9882SOL    HW130545   3.464   3.095   5.237
 9882SOL    HW230546   3.312   3.035   5.234
 9883SOL     OW30547   2.364   0.423   1.956
 9883SOL    HW130548   2.391   0.498   2.016
 9883SOL    HW230549   2.268   0.434   1.929
 9884SOL     OW30550   3.156   2.516   5.602
 9884SOL    HW130551   3.133   2.483   5.510
 9884SOL    HW230552   3.136   2.614   5.608
 9885SOL     OW30553   5.473   3.101   5.537
 9885SOL    HW130554   5.516   3.148   5.460
 9885SOL    HW230555   5.383   3.067   5.508
 9886SOL     OW30556   3.502   5.970   1.689
 9886SOL    HW130557   3.594   5.943   1.661
 9886SOL    HW230558   3.435   5.918   1.636
 9887SOL     OW30559   3.206   0.754   6.938
 9887SOL    HW130560   3.164   0.673   6.898
 9887SOL    HW230561   3.134   0.815   6.973
 9888SOL     OW30562   6.462   6.293   3.588
 9888SOL    HW130563   6.401   6.362   3.547
 9888SOL    HW230564   6.545   6.286   3.533
 9889SOL     OW30565   0.143   6.062   3.037
 9889SOL    HW130566   0.081   6.129   3.078
 9889SOL    HW230567   0.194   6.015   3.110
 9890SOL     OW30568   0.862   3.679   1.393
 9890SOL    HW130569   0.895   3.622   1.318
 9890SOL    HW230570   0.886   3.635   1.480
 9891SOL     OW30571   5.832   5.453   1.387
 9891SOL    HW130572   5.746   5.504   1.383
 9891SOL    HW230573   5.878   5.470   1.474
 9892SOL     OW30574   1.423   5.332   3.943
 9892SOL    HW130575   1.462   5.377   4.023
 9892SOL    HW230576   1.480   5.253   3.918
 9893SOL     OW30577   5.185   5.086   4.459
 9893SOL    HW130578   5.116   5.073   4.388
 9893SOL    HW230579   5.265   5.133   4.421
 9894SOL     OW30580   4.436   2.913   5.881
 9894SOL    HW130581   4.356   2.869   5.923
 9894SOL    HW230582   4.481   2.971   5.948
 9895SOL     OW30583   5.438   2.125   6.544
 9895SOL    HW130584   5.394   2.126   6.634
 9895SOL    HW230585   5.524   2.074   6.551
 9896SOL     OW30586   4.305   3.393   0.333
 9896SOL    HW130587   4.297   3.293   0.341
 9896SOL    HW230588   4.328   3.416   0.238
 9897SOL     OW30589   6.783   1.857   4.006
 9897SOL    HW130590   6.795   1.943   4.056
 9897SOL    HW230591   6.688   1.849   3.976
 9898SOL     OW30592   0.957   5.535   5.452
 9898SOL    HW130593   1.014   5.543   5.370
 9898SOL    HW230594   0.897   5.456   5.444
 9899SOL     OW30595   4.880   5.222   2.116
 9899SOL    HW130596   4.876   5.320   2.138
 9899SOL    HW230597   4.787   5.185   2.110
 9900SOL     OW30598   0.875   3.269   2.996
 9900SOL    HW130599   0.878   3.342   3.064
 9900SOL    HW230600   0.900   3.305   2.906
 9901SOL     OW30601   2.820   1.664   5.192
 9901SOL    HW130602   2.829   1.731   5.118
 9901SOL    HW230603   2.743   1.689   5.251
 9902SOL     OW30604   4.620   3.888   7.007
 9902SOL    HW130605   4.603   3.796   0.024
 9902SOL    HW230606   4.595   3.891   6.910
 9903SOL     OW30607   3.766   1.020   1.346
 9903SOL    HW130608   3.801   1.061   1.431
 9903SOL    HW230609   3.666   1.017   1.350
 9904SOL     OW30610   6.782   0.345   2.313
 9904SOL    HW130611   6.808   0.318   2.405
 9904SOL    HW230612   6.811   0.439   2.296
 9905SOL     OW30613   1.547   6.149   6.211
 9905SOL    HW130614   1.541   6.240   6.171
 9905SOL    HW230615   1.640   6.133   6.243
 9906SOL     OW30616   3.482   3.696   5.966
 9906SOL    HW130617   3.532   3.609   5.963
 9906SOL    HW230618   3.526   3.762   5.906
 9907SOL     OW30619   1.706   6.620   2.727
 9907SOL    HW130620   1.685   6.684   2.801
 9907SOL    HW230621   1.717   6.528   2.765
 9908SOL     OW30622   1.111   3.442   5.135
 9908SOL    HW130623   1.103   3.445   5.235
 9908SOL    HW230624   1.156   3.357   5.107
 9909SOL     OW30625   3.609   6.849   2.500
 9909SOL    HW130626   3.706   6.840   2.480
 9909SOL    HW230627   3.557   6.857   2.415
 9910SOL     OW30628   0.380   4.292   1.975
 9910SOL    HW130629   0.471   4.258   2.000
 9910SOL    HW230630   0.387   4.387   1.944
 9911SOL     OW30631   3.345   4.877   3.138
 9911SOL    HW130632   3.382   4.968   3.117
 9911SOL    HW230633   3.403   4.833   3.207
 9912SOL     OW30634   4.446   0.100   1.186
 9912SOL    HW130635   4.465   0.046   1.268
 9912SOL    HW230636   4.515   0.079   1.117
 9913SOL     OW30637   4.371   1.862   2.550
 9913SOL    HW130638   4.353   1.953   2.588
 9913SOL    HW230639   4.356   1.793   2.621
 9914SOL     OW30640   1.728   5.420   5.574
 9914SOL    HW130641   1.734   5.509   5.530
 9914SOL    HW230642   1.682   5.355   5.514
 9915SOL     OW30643   5.240   3.702   4.591
 9915SOL    HW130644   5.189   3.627   4.550
 9915SOL    HW230645   5.223   3.704   4.690
 9916SOL     OW30646   2.475   3.091   0.984
 9916SOL    HW130647   2.563   3.092   1.031
 9916SOL    HW230648   2.451   3.183   0.956
 9917SOL     OW30649   2.431   3.255   5.363
 9917SOL    HW130650   2.444   3.170   5.312
 9917SOL    HW230651   2.385   3.235   5.450
 9918SOL     OW30652   1.962   1.215   4.775
 9918SOL    HW130653   1.895   1.267   4.724
 9918SOL    HW230654   1.927   1.123   4.792
 9919SOL     OW30655   6.978   5.397   2.651
 9919SOL    HW130656   0.007   5.326   2.599
 9919SOL    HW230657   0.019   5.478   2.658
 9920SOL     OW30658   4.200   6.786   1.837
 9920SOL    HW130659   4.266   6.787   1.913
 9920SOL    HW230660   4.184   6.692   1.808
 9921SOL     OW30661   4.625   0.030   3.619
 9921SOL    HW130662   4.568   6.985   3.670
 9921SOL    HW230663   4.568   0.082   3.555
 9922SOL     OW30664   4.464   3.170   1.327
 9922SOL    HW130665   4.491   3.100   1.394
 9922SOL    HW230666   4.511   3.256   1.349
 9923SOL     OW30667   6.543   0.922   6.182
 9923SOL    HW130668   6.539   1.007   6.129
 9923SOL    HW230669   6.603   0.936   6.261
 9924SOL     OW30670   5.278   0.896   2.990
 9924SOL    HW130671   5.276   0.821   2.924
 9924SOL    HW230672   5.367   0.942   2.986
 9925SOL     OW30673   2.920   2.304   4.461
 9925SOL    HW130674   2.984   2.313   4.537
 9925SOL    HW230675   2.837   2.355   4.481
 9926SOL     OW30676   1.502   1.380   0.223
 9926SOL    HW130677   1.473   1.451   0.160
 9926SOL    HW230678   1.573   1.415   0.283
 9927SOL     OW30679   0.632   2.450   2.460
 9927SOL    HW130680   0.570   2.372   2.453
 9927SOL    HW230681   0.631   2.486   2.553
 9928SOL     OW30682   6.714   3.021   2.342
 9928SOL    HW130683   6.801   2.974   2.330
 9928SOL    HW230684   6.725   3.118   2.318
 9929SOL     OW30685   1.848   4.167   5.791
 9929SOL    HW130686   1.894   4.109   5.724
 9929SOL    HW230687   1.905   4.248   5.809
 9930SOL     OW30688   0.571   6.022   6.857
 9930SOL    HW130689   0.626   6.011   6.940
 9930SOL    HW230690   0.489   5.966   6.863
 9931SOL     OW30691   2.763   5.368   6.957
 9931SOL    HW130692   2.730   5.287   7.006
 9931SOL    HW230693   2.755   5.449   7.016
 9932SOL     OW30694   1.874   2.719   0.372
 9932SOL    HW130695   1.902   2.789   0.306
 9932SOL    HW230696   1.943   2.710   0.443
 9933SOL     OW30697   0.856   1.579   2.915
 9933SOL    HW130698   0.814   1.489   2.929
 9933SOL    HW230699   0.931   1.571   2.850
 9934SOL     OW30700   4.744   1.518   6.656
 9934SOL    HW130701   4.737   1.481   6.748
 9934SOL    HW230702   4.829   1.487   6.614
 9935SOL     OW30703   2.610   2.258   0.833
 9935SOL    HW130704   2.672   2.289   0.906
 9935SOL    HW230705   2.516   2.266   0.864
 9936SOL     OW30706   6.191   6.367   6.274
 9936SOL    HW130707   6.093   6.359   6.293
 9936SOL    HW230708   6.242   6.309   6.338
 9937SOL     OW30709   1.129   0.142   3.542
 9937SOL    HW130710   1.058   0.122   3.611
 9937SOL    HW230711   1.218   0.146   3.587
 9938SOL     OW30712   6.881   1.837   3.039
 9938SOL    HW130713   6.862   1.755   2.986
 9938SOL    HW230714   6.918   1.812   3.128
 9939SOL     OW30715   3.321   4.273   1.383
 9939SOL    HW130716   3.366   4.349   1.337
 9939SOL    HW230717   3.311   4.197   1.319
 9940SOL     OW30718   6.958   0.805   3.533
 9940SOL    HW130719   6.915   0.754   3.608
 9940SOL    HW230720   6.899   0.801   3.453
 9941SOL     OW30721   5.344   5.071   0.557
 9941SOL    HW130722   5.332   4.990   0.615
 9941SOL    HW230723   5.284   5.144   0.588
 9942SOL     OW30724   5.241   5.082   2.930
 9942SOL    HW130725   5.196   5.094   2.841
 9942SOL    HW230726   5.251   4.984   2.949
 9943SOL     OW30727   1.581   4.084   5.770
 9943SOL    HW130728   1.574   3.987   5.790
 9943SOL    HW230729   1.676   4.114   5.784
 9944SOL     OW30730   0.632   5.135   6.069
 9944SOL    HW130731   0.537   5.161   6.053
 9944SOL    HW230732   0.674   5.198   6.134
 9945SOL     OW30733   6.680   3.600   6.251
 9945SOL    HW130734   6.733   3.601   6.336
 9945SOL    HW230735   6.582   3.607   6.272
 9946SOL     OW30736   5.207   1.979   1.428
 9946SOL    HW130737   5.120   1.960   1.382
 9946SOL    HW230738   5.223   1.912   1.500
 9947SOL     OW30739   0.588   1.931   3.687
 9947SOL    HW130740   0.666   1.974   3.642
 9947SOL    HW230741   0.564   1.846   3.640
 9948SOL     OW30742   5.799   0.393   4.678
 9948SOL    HW130743   5.700   0.383   4.688
 9948SOL    HW230744   5.823   0.391   4.581
 9949SOL     OW30745   6.556   4.945   3.278
 9949SOL    HW130746   6.495   5.002   3.334
 9949SOL    HW230747   6.642   4.994   3.262
 9950SOL     OW30748   4.990   4.076   5.242
 9950SOL    HW130749   5.018   4.005   5.178
 9950SOL    HW230750   4.939   4.035   5.318
 9951SOL     OW30751   0.245   2.006   3.030
 9951SOL    HW130752   0.206   1.929   3.080
 9951SOL    HW230753   0.262   2.082   3.092
 9952SOL     OW30754   1.101   4.986   1.994
 9952SOL    HW130755   1.017   4.935   1.978
 9952SOL    HW230756   1.165   4.971   1.919
 9953SOL     OW30757   5.844   3.100   3.861
 9953SOL    HW130758   5.894   3.186   3.868
 9953SOL    HW230759   5.750   3.114   3.893
 9954SOL     OW30760   3.728   1.283   0.026
 9954SOL    HW130761   3.691   1.190   0.021
 9954SOL    HW230762   3.659   1.348   7.013
 9955SOL     OW30763   5.483   4.313   1.166
 9955SOL    HW130764   5.553   4.312   1.237
 9955SOL    HW230765   5.446   4.220   1.155
 9956SOL     OW30766   2.311   2.752   3.473
 9956SOL    HW130767   2.354   2.709   3.394
 9956SOL    HW230768   2.374   2.749   3.551
 9957SOL     OW30769   5.524   0.440   0.148
 9957SOL    HW130770   5.568   0.528   0.136
 9957SOL    HW230771   5.507   0.424   0.246
 9958SOL     OW30772   5.576   5.933   0.258
 9958SOL    HW130773   5.593   5.837   0.279
 9958SOL    HW230774   5.657   5.987   0.283
 9959SOL     OW30775   5.035   5.062   0.867
 9959SOL    HW130776   5.133   5.076   0.851
 9959SOL    HW230777   4.989   5.150   0.876
 9960SOL     OW30778   0.247   0.324   0.378
 9960SOL    HW130779   0.327   0.363   0.421
 9960SOL    HW230780   0.206   0.255   0.438
 9961SOL     OW30781   3.129   5.378   1.090
 9961SOL    HW130782   3.228   5.367   1.086
 9961SOL    HW230783   3.103   5.409   1.182
 9962SOL     OW30784   2.860   0.374   1.681
 9962SOL    HW130785   2.936   0.386   1.745
 9962SOL    HW230786   2.778   0.347   1.732
 9963SOL     OW30787   0.984   0.754   5.924
 9963SOL    HW130788   0.991   0.854   5.933
 9963SOL    HW230789   1.073   0.713   5.945
 9964SOL     OW30790   4.531   4.570   5.974
 9964SOL    HW130791   4.560   4.568   6.070
 9964SOL    HW230792   4.431   4.559   5.969
 9965SOL     OW30793   2.926   5.338   3.876
 9965SOL    HW130794   2.909   5.242   3.902
 9965SOL    HW230795   2.897   5.398   3.950
 9966SOL     OW30796   3.607   4.882   2.419
 9966SOL    HW130797   3.555   4.912   2.339
 9966SOL    HW230798   3.544   4.858   2.493
 9967SOL     OW30799   6.710   7.018   3.435
 9967SOL    HW130800   6.753   0.082   3.471
 9967SOL    HW230801   6.621   0.022   3.397
 9968SOL     OW30802   3.750   6.347   0.291
 9968SOL    HW130803   3.830   6.369   0.237
 9968SOL    HW230804   3.713   6.259   0.262
 9969SOL     OW30805   0.932   5.921   3.686
 9969SOL    HW130806   0.968   5.858   3.756
 9969SOL    HW230807   0.848   5.963   3.720
 9970SOL     OW30808   6.823   3.592   1.572
 9970SOL    HW130809   6.883   3.612   1.494
 9970SOL    HW230810   6.869   3.529   1.634
 9971SOL     OW30811   0.713   4.946   3.769
 9971SOL    HW130812   0.779   4.919   3.700
 9971SOL    HW230813   0.696   5.045   3.762
 9972SOL     OW30814   2.905   4.126   6.610
 9972SOL    HW130815   2.995   4.153   6.643
 9972SOL    HW230816   2.882   4.179   6.529
 9973SOL     OW30817   2.163   2.323   3.070
 9973SOL    HW130818   2.149   2.417   3.101
 9973SOL    HW230819   2.187   2.323   2.973
 9974SOL     OW30820   1.096   2.454   2.676
 9974SOL    HW130821   1.024   2.519   2.702
 9974SOL    HW230822   1.144   2.489   2.595
 9975SOL     OW30823   2.474   4.936   0.034
 9975SOL    HW130824   2.527   4.935   0.119
 9975SOL    HW230825   2.501   4.858   6.995
 9976SOL     OW30826   3.973   4.891   6.058
 9976SOL    HW130827   3.895   4.927   6.007
 9976SOL    HW230828   4.052   4.884   5.998
 9977SOL     OW30829   4.714   6.847   5.319
 9977SOL    HW130830   4.778   6.821   5.246
 9977SOL    HW230831   4.765   6.871   5.401
 9978SOL     OW30832   0.876   3.615   6.753
 9978SOL    HW130833   0.839   3.655   6.669
 9978SOL    HW230834   0.915   3.687   6.810
 9979SOL     OW30835   3.253   3.396   5.267
 9979SOL    HW130836   3.185   3.467   5.247
 9979SOL    HW230837   3.339   3.439   5.292
 9980SOL     OW30838   2.253   1.953   0.969
 9980SOL    HW130839   2.333   1.923   0.917
 9980SOL    HW230840   2.228   1.884   1.036
 9981SOL     OW30841   6.196   1.878   0.740
 9981SOL    HW130842   6.104   1.912   0.762
 9981SOL    HW230843   6.237   1.937   0.671
 9982SOL     OW30844   2.237   2.012   4.401
 9982SOL    HW130845   2.161   2.057   4.447
 9982SOL    HW230846   2.204   1.969   4.317
 9983SOL     OW30847   0.835   3.161   2.396
 9983SOL    HW130848   0.880   3.227   2.456
 9983SOL    HW230849   0.780   3.099   2.451
 9984SOL     OW30850   0.196   5.330   1.437
 9984SOL    HW130851   0.157   5.422   1.428
 9984SOL    HW230852   0.265   5.330   1.509
 9985SOL     OW30853   5.105   4.870   0.172
 9985SOL    HW130854   5.188   4.858   0.118
 9985SOL    HW230855   5.066   4.780   0.194
 9986SOL     OW30856   5.712   5.223   7.003
 9986SOL    HW130857   5.653   5.239   0.064
 9986SOL    HW230858   5.682   5.280   6.927
 9987SOL     OW30859   5.579   2.732   1.389
 9987SOL    HW130860   5.485   2.734   1.355
 9987SOL    HW230861   5.589   2.659   1.456
 9988SOL     OW30862   5.783   6.322   3.966
 9988SOL    HW130863   5.753   6.380   3.890
 9988SOL    HW230864   5.724   6.339   4.046
 9989SOL     OW30865   0.063   5.289   2.327
 9989SOL    HW130866   0.108   5.236   2.399
 9989SOL    HW230867   6.982   5.289   2.343
 9990SOL     OW30868   0.263   6.718   4.022
 9990SOL    HW130869   0.217   6.776   3.955
 9990SOL    HW230870   0.207   6.710   4.104
 9991SOL     OW30871   1.654   4.940   3.166
 9991SOL    HW130872   1.662   4.925   3.265
 9991SOL    HW230873   1.704   4.868   3.118
 9992SOL     OW30874   2.815   4.435   0.854
 9992SOL    HW130875   2.857   4.442   0.763
 9992SOL    HW230876   2.732   4.379   0.848
 9993SOL     OW30877   3.530   6.307   4.284
 9993SOL    HW130878   3.478   6.230   4.321
 9993SOL    HW230879   3.566   6.362   4.359
 9994SOL     OW30880   5.904   5.145   5.093
 9994SOL    HW130881   5.887   5.239   5.123
 9994SOL    HW230882   5.820   5.091   5.104
 9995SOL     OW30883   2.796   0.541   5.395
 9995SOL    HW130884   2.802   0.589   5.307
 9995SOL    HW230885   2.789   0.608   5.469
 9996SOL     OW30886   3.116   3.621   1.015
 9996SOL    HW130887   3.207   3.617   0.974
 9996SOL    HW230888   3.116   3.573   1.102
 9997SOL     OW30889   6.296   2.543   3.372
 9997SOL    HW130890   6.268   2.507   3.283
 9997SOL    HW230891   6.228   2.519   3.441
 9998SOL     OW30892   4.650   4.496   2.371
 9998SOL    HW130893   4.726   4.560   2.385
 9998SOL    HW230894   4.567   4.548   2.347
 9999SOL     OW30895   0.608   0.069   3.782
 9999SOL    HW130896   0.660   0.140   3.827
 9999SOL    HW230897   0.574   0.004   3.850
10000SOL     OW30898   4.958   2.236   1.185
10000SOL    HW130899   5.044   2.247   1.234
10000SOL    HW230900   4.976   2.222   1.087
10001SOL     OW30901   4.320   6.051   1.793
10001SOL    HW130902   4.410   6.086   1.822
10001SOL    HW230903   4.249   6.113   1.826
10002SOL     OW30904   3.427   1.081   1.876
10002SOL    HW130905   3.411   1.139   1.956
10002SOL    HW230906   3.401   0.987   1.899
10003SOL     OW30907   1.417   1.197   3.868
10003SOL    HW130908   1.485   1.127   3.892
10003SOL    HW230909   1.325   1.163   3.887
10004SOL     OW30910   6.305   4.355   4.715
10004SOL    HW130911   6.292   4.351   4.616
10004SOL    HW230912   6.377   4.420   4.737
10005SOL     OW30913   2.300   5.101   3.148
10005SOL    HW130914   2.382   5.047   3.166
10005SOL    HW230915   2.219   5.044   3.159
10006SOL     OW30916   5.708   0.255   5.217
10006SOL    HW130917   5.686   0.241   5.313
10006SOL    HW230918   5.636   0.310   5.174
10007SOL     OW30919   1.494   4.951   4.401
10007SOL    HW130920   1.448   4.998   4.476
10007SOL    HW230921   1.427   4.929   4.330
10008SOL     OW30922   3.917   1.216   5.998
10008SOL    HW130923   4.003   1.246   6.039
10008SOL    HW230924   3.918   1.239   5.901
10009SOL     OW30925   1.210   3.279   2.488
10009SOL    HW130926   1.225   3.223   2.570
10009SOL    HW230927   1.285   3.265   2.423
10010SOL     OW30928   2.639   3.922   0.437
10010SOL    HW130929   2.695   3.905   0.356
10010SOL    HW230930   2.697   3.951   0.513
10011SOL     OW30931   1.910   3.461   0.036
10011SOL    HW130932   1.832   3.474   0.097
10011SOL    HW230933   1.910   3.368   0.001
10012SOL     OW30934   5.750   2.313   3.134
10012SOL    HW130935   5.680   2.263   3.083
10012SOL    HW230936   5.707   2.382   3.191
10013SOL     OW30937   0.426   6.075   5.201
10013SOL    HW130938   0.350   6.078   5.266
10013SOL    HW230939   0.492   6.006   5.231
10014SOL     OW30940   1.261   0.458   3.370
10014SOL    HW130941   1.244   0.556   3.379
10014SOL    HW230942   1.196   0.418   3.305
10015SOL     OW30943   4.233   4.765   5.603
10015SOL    HW130944   4.232   4.668   5.628
10015SOL    HW230945   4.231   4.774   5.503
10016SOL     OW30946   2.222   0.343   3.699
10016SOL    HW130947   2.267   0.254   3.711
10016SOL    HW230948   2.184   0.349   3.607
10017SOL     OW30949   2.451   2.334   2.272
10017SOL    HW130950   2.426   2.429   2.255
10017SOL    HW230951   2.542   2.316   2.235
10018SOL     OW30952   0.076   3.467   6.109
10018SOL    HW130953   0.064   3.480   6.207
10018SOL    HW230954   7.007   3.439   6.068
10019SOL     OW30955   0.522   2.150   2.080
10019SOL    HW130956   0.520   2.051   2.067
10019SOL    HW230957   0.470   2.194   2.006
10020SOL     OW30958   6.495   0.554   2.353
10020SOL    HW130959   6.520   0.582   2.260
10020SOL    HW230960   6.460   0.461   2.351
10021SOL     OW30961   1.008   3.377   2.329
10021SOL    HW130962   1.089   3.335   2.371
10021SOL    HW230963   1.003   3.350   2.233
10022SOL     OW30964   2.639   5.658   6.973
10022SOL    HW130965   2.558   5.626   0.005
10022SOL    HW230966   2.618   5.661   6.875
10023SOL     OW30967   1.414   0.422   6.218
10023SOL    HW130968   1.408   0.513   6.260
10023SOL    HW230969   1.498   0.416   6.164
10024SOL     OW30970   1.325   4.723   2.224
10024SOL    HW130971   1.307   4.727   2.126
10024SOL    HW230972   1.297   4.634   2.260
10025SOL     OW30973   1.030   4.651   1.947
10025SOL    HW130974   1.014   4.568   2.000
10025SOL    HW230975   1.124   4.681   1.960
10026SOL     OW30976   5.275   1.763   4.295
10026SOL    HW130977   5.349   1.828   4.276
10026SOL    HW230978   5.314   1.672   4.312
10027SOL     OW30979   2.720   1.682   5.598
10027SOL    HW130980   2.687   1.677   5.504
10027SOL    HW230981   2.746   1.776   5.619
10028SOL     OW30982   4.433   0.450   1.046
10028SOL    HW130983   4.407   0.435   1.141
10028SOL    HW230984   4.415   0.545   1.021
10029SOL     OW30985   0.488   3.663   5.068
10029SOL    HW130986   0.496   3.644   4.971
10029SOL    HW230987   0.391   3.661   5.095
10030SOL     OW30988   2.140   0.001   4.820
10030SOL    HW130989   2.133   0.090   4.865
10030SOL    HW230990   2.233   7.007   4.786
10031SOL     OW30991   2.773   4.836   3.952
10031SOL    HW130992   2.728   4.777   3.884
10031SOL    HW230993   2.727   4.826   4.040
10032SOL     OW30994   3.075   6.189   5.025
10032SOL    HW130995   3.080   6.257   4.952
10032SOL    HW230996   3.132   6.218   5.102
10033SOL     OW30997   3.285   1.283   3.309
10033SOL    HW130998   3.273   1.374   3.348
10033SOL    HW230999   3.380   1.255   3.318
10034SOL     OW31000   2.829   0.886   3.907
10034SOL    HW131001   2.922   0.893   3.871
10034SOL    HW231002   2.763   0.899   3.833
10035SOL     OW31003   5.599   3.115   2.287
10035SOL    HW131004   5.561   3.038   2.236
10035SOL    HW231005   5.579   3.104   2.384
10036SOL     OW31006   0.242   0.987   6.876
10036SOL    HW131007   0.228   0.952   6.969
10036SOL    HW231008   0.325   1.043   6.874
10037SOL     OW31009   6.272   0.311   6.699
10037SOL    HW131010   6.228   0.267   6.778
10037SOL    HW231011   6.251   0.258   6.617
10038SOL     OW31012   4.512   6.604   6.530
10038SOL    HW131013   4.577   6.628   6.457
10038SOL    HW231014   4.562   6.589   6.615
10039SOL     OW31015   6.440   5.271   2.985
10039SOL    HW131016   6.423   5.369   2.980
10039SOL    HW231017   6.361   5.225   3.025
10040SOL     OW31018   3.771   6.639   1.279
10040SOL    HW131019   3.760   6.689   1.193
10040SOL    HW231020   3.747   6.699   1.356
10041SOL     OW31021   0.001   5.128   4.590
10041SOL    HW131022   6.936   5.182   4.605
10041SOL    HW231023   6.994   5.033   4.572
10042SOL     OW31024   0.511   0.889   4.781
10042SOL    HW131025   0.535   0.806   4.732
10042SOL    HW231026   0.515   0.873   4.879
10043SOL     OW31027   0.701   0.717   3.296
10043SOL    HW131028   0.800   0.733   3.297
10043SOL    HW231029   0.680   0.635   3.349
10044SOL     OW31030   2.750   1.697   6.207
10044SOL    HW131031   2.834   1.673   6.159
10044SOL    HW231032   2.771   1.766   6.277
10045SOL     OW31033   3.937   6.764   5.029
10045SOL    HW131034   3.867   6.756   5.099
10045SOL    HW231035   4.012   6.821   5.063
10046SOL     OW31036   0.186   2.676   1.320
10046SOL    HW131037   0.108   2.614   1.324
10046SOL    HW231038   0.204   2.702   1.225
10047SOL     OW31039   0.032   1.844   4.758
10047SOL    HW131040   0.062   1.820   4.850
10047SOL    HW231041   0.094   1.913   4.720
10048SOL     OW31042   3.901   1.721   1.581
10048SOL    HW131043   3.949   1.795   1.534
10048SOL    HW231044   3.860   1.659   1.514
10049SOL     OW31045   1.980   6.795   5.568
10049SOL    HW131046   1.934   6.800   5.657
10049SOL    HW231047   1.915   6.818   5.495
10050SOL     OW31048   4.922   3.067   4.039
10050SOL    HW131049   4.995   3.082   3.973
10050SOL    HW231050   4.855   3.002   4.001
10051SOL     OW31051   5.955   3.064   5.072
10051SOL    HW131052   6.012   3.007   5.013
10051SOL    HW231053   5.867   3.080   5.028
10052SOL     OW31054   0.882   3.452   1.637
10052SOL    HW131055   0.977   3.430   1.614
10052SOL    HW231056   0.859   3.414   1.726
10053SOL     OW31057   3.419   5.694   3.389
10053SOL    HW131058   3.400   5.632   3.313
10053SOL    HW231059   3.464   5.776   3.354
10054SOL     OW31060   3.707   5.572   5.228
10054SOL    HW131061   3.659   5.633   5.164
10054SOL    HW231062   3.648   5.553   5.306
10055SOL     OW31063   6.050   2.566   5.441
10055SOL    HW131064   6.004   2.626   5.376
10055SOL    HW231065   5.985   2.500   5.478
10056SOL     OW31066   6.273   4.674   1.789
10056SOL    HW131067   6.364   4.692   1.825
10056SOL    HW231068   6.271   4.695   1.692
10057SOL     OW31069   3.681   2.080   4.197
10057SOL    HW131070   3.702   2.177   4.191
10057SOL    HW231071   3.613   2.065   4.269
10058SOL     OW31072   0.580   5.554   3.832
10058SOL    HW131073   0.627   5.502   3.904
10058SOL    HW231074   0.587   5.651   3.852
10059SOL     OW31075   5.701   0.857   0.980
10059SOL    HW131076   5.674   0.952   1.001
10059SOL    HW231077   5.800   0.848   0.988
10060SOL     OW31078   2.710   2.835   1.732
10060SOL    HW131079   2.792   2.891   1.736
10060SOL    HW231080   2.731   2.747   1.688
10061SOL     OW31081   6.287   1.590   4.436
10061SOL    HW131082   6.300   1.544   4.524
10061SOL    HW231083   6.374   1.628   4.405
10062SOL     OW31084   6.663   5.973   2.996
10062SOL    HW131085   6.760   5.967   2.972
10062SOL    HW231086   6.648   5.937   3.088
10063SOL     OW31087   1.054   3.171   3.583
10063SOL    HW131088   1.013   3.091   3.540
10063SOL    HW231089   1.128   3.205   3.526
10064SOL     OW31090   5.655   6.369   4.189
10064SOL    HW131091   5.663   6.415   4.278
10064SOL    HW231092   5.594   6.291   4.197
10065SOL     OW31093   1.778   6.312   2.819
10065SOL    HW131094   1.680   6.291   2.816
10065SOL    HW231095   1.826   6.241   2.869
10066SOL     OW31096   0.717   6.851   4.063
10066SOL    HW131097   0.776   6.790   4.010
10066SOL    HW231098   0.632   6.867   4.014
10067SOL     OW31099   4.536   4.954   4.315
10067SOL    HW131100   4.561   4.897   4.393
10067SOL    HW231101   4.537   4.899   4.232
10068SOL     OW31102   5.071   3.712   5.130
10068SOL    HW131103   4.984   3.684   5.090
10068SOL    HW231104   5.055   3.765   5.213
10069SOL     OW31105   2.812   1.650   3.385
10069SOL    HW131106   2.752   1.729   3.378
10069SOL    HW231107   2.828   1.629   3.482
10070SOL     OW31108   1.227   6.958   4.621
10070SOL    HW131109   1.310   6.901   4.618
10070SOL    HW231110   1.229   0.003   4.544
10071SOL     OW31111   5.192   5.710   4.670
10071SOL    HW131112   5.112   5.652   4.680
10071SOL    HW231113   5.172   5.801   4.707
10072SOL     OW31114   0.886   6.748   3.165
10072SOL    HW131115   0.803   6.722   3.114
10072SOL    HW231116   0.922   6.668   3.212
10073SOL     OW31117   0.027   4.581   5.779
10073SOL    HW131118   0.070   4.538   5.700
10073SOL    HW231119   0.091   4.583   5.855
10074SOL     OW31120   2.436   0.323   6.563
10074SOL    HW131121   2.478   0.368   6.485
10074SOL    HW231122   2.489   0.341   6.646
10075SOL     OW31123   1.007   2.393   3.794
10075SOL    HW131124   1.077   2.451   3.835
10075SOL    HW231125   1.044   2.301   3.780
10076SOL     OW31126   4.947   6.938   4.789
10076SOL    HW131127   5.011   6.915   4.862
10076SOL    HW231128   4.917   6.855   4.744
10077SOL     OW31129   4.330   1.670   5.897
10077SOL    HW131130   4.246   1.659   5.950
10077SOL    HW231131   4.347   1.768   5.882
10078SOL     OW31132   5.893   6.989   5.591
10078SOL    HW131133   5.926   6.990   5.497
10078SOL    HW231134   5.948   0.033   5.647
10079SOL     OW31135   1.035   3.281   1.329
10079SOL    HW131136   1.066   3.338   1.405
10079SOL    HW231137   1.023   3.187   1.361
10080SOL     OW31138   1.997   2.921   0.190
10080SOL    HW131139   2.008   2.958   0.098
10080SOL    HW231140   2.047   2.834   0.197
10081SOL     OW31141   0.883   0.484   6.565
10081SOL    HW131142   0.815   0.411   6.563
10081SOL    HW231143   0.929   0.490   6.477
10082SOL     OW31144   6.126   2.412   1.831
10082SOL    HW131145   6.068   2.382   1.755
10082SOL    HW231146   6.206   2.351   1.838
10083SOL     OW31147   4.553   0.209   3.929
10083SOL    HW131148   4.542   0.167   4.019
10083SOL    HW231149   4.645   0.192   3.895
10084SOL     OW31150   2.493   1.125   5.919
10084SOL    HW131151   2.424   1.054   5.931
10084SOL    HW231152   2.542   1.110   5.833
10085SOL     OW31153   0.634   6.056   2.851
10085SOL    HW131154   0.537   6.067   2.827
10085SOL    HW231155   0.664   5.964   2.824
10086SOL     OW31156   5.963   4.321   1.936
10086SOL    HW131157   5.985   4.369   2.021
10086SOL    HW231158   6.021   4.355   1.862
10087SOL     OW31159   1.136   0.376   4.250
10087SOL    HW131160   1.227   0.358   4.287
10087SOL    HW231161   1.070   0.313   4.292
10088SOL     OW31162   1.010   6.795   4.725
10088SOL    HW131163   1.082   6.851   4.684
10088SOL    HW231164   1.008   6.705   4.682
10089SOL     OW31165   1.689   2.141   2.118
10089SOL    HW131166   1.678   2.224   2.065
10089SOL    HW231167   1.697   2.164   2.215
10090SOL     OW31168   0.907   4.209   1.004
10090SOL    HW131169   0.942   4.225   0.912
10090SOL    HW231170   0.974   4.156   1.056
10091SOL     OW31171   1.017   2.748   4.535
10091SOL    HW131172   1.078   2.681   4.493
10091SOL    HW231173   0.924   2.712   4.537
10092SOL     OW31174   1.892   3.678   4.981
10092SOL    HW131175   1.903   3.613   4.906
10092SOL    HW231176   1.844   3.759   4.948
10093SOL     OW31177   5.982   5.513   6.053
10093SOL    HW131178   6.010   5.609   6.042
10093SOL    HW231179   5.944   5.480   5.967
10094SOL     OW31180   1.915   1.597   2.905
10094SOL    HW131181   2.013   1.581   2.915
10094SOL    HW231182   1.871   1.601   2.995
10095SOL     OW31183   0.031   1.037   6.284
10095SOL    HW131184   0.003   0.942   6.266
10095SOL    HW231185   6.998   1.098   6.224
10096SOL     OW31186   0.485   5.630   2.390
10096SOL    HW131187   0.476   5.724   2.422
10096SOL    HW231188   0.438   5.620   2.302
10097SOL     OW31189   1.548   0.694   1.152
10097SOL    HW131190   1.481   0.768   1.160
10097SOL    HW231191   1.640   0.733   1.148
10098SOL     OW31192   2.262   5.246   6.431
10098SOL    HW131193   2.229   5.278   6.343
10098SOL    HW231194   2.325   5.169   6.417
10099SOL     OW31195   6.652   4.572   5.073
10099SOL    HW131196   6.662   4.569   5.173
10099SOL    HW231197   6.672   4.664   5.041
10100SOL     OW31198   5.035   0.948   4.754
10100SOL    HW131199   4.937   0.931   4.739
10100SOL    HW231200   5.088   0.876   4.709
10101SOL     OW31201   6.806   4.656   2.458
10101SOL    HW131202   6.902   4.629   2.457
10101SOL    HW231203   6.797   4.747   2.500
10102SOL     OW31204   3.252   1.632   2.079
10102SOL    HW131205   3.322   1.643   2.149
10102SOL    HW231206   3.273   1.692   2.001
10103SOL     OW31207   2.885   1.522   5.998
10103SOL    HW131208   2.967   1.467   6.019
10103SOL    HW231209   2.805   1.478   6.038
10104SOL     OW31210   0.731   5.553   5.039
10104SOL    HW131211   0.761   5.464   5.003
10104SOL    HW231212   0.769   5.566   5.131
10105SOL     OW31213   2.248   0.709   6.865
10105SOL    HW131214   2.202   0.672   6.784
10105SOL    HW231215   2.327   0.763   6.837
10106SOL     OW31216   5.260   5.895   0.900
10106SOL    HW131217   5.244   5.985   0.940
10106SOL    HW231218   5.292   5.832   0.970
10107SOL     OW31219   6.031   1.445   5.897
10107SOL    HW131220   6.065   1.462   5.989
10107SOL    HW231221   6.104   1.405   5.841
10108SOL     OW31222   6.679   6.931   0.469
10108SOL    HW131223   6.641   6.839   0.457
10108SOL    HW231224   6.749   6.929   0.541
10109SOL     OW31225   4.301   5.400   3.892
10109SOL    HW131226   4.266   5.389   3.799
10109SOL    HW231227   4.379   5.339   3.906
10110SOL     OW31228   4.058   0.412   6.036
10110SOL    HW131229   4.098   0.398   6.126
10110SOL    HW231230   4.093   0.342   5.973
10111SOL     OW31231   6.529   3.149   2.992
10111SOL    HW131232   6.558   3.084   3.063
10111SOL    HW231233   6.431   3.164   2.999
10112SOL     OW31234   4.820   4.097   5.681
10112SOL    HW131235   4.865   4.144   5.757
10112SOL    HW231236   4.760   4.162   5.634
10113SOL     OW31237   3.890   0.019   6.915
10113SOL    HW131238   3.913   0.006   6.818
10113SOL    HW231239   3.908   6.953   6.965
10114SOL     OW31240   5.218   1.194   0.834
10114SOL    HW131241   5.136   1.251   0.833
10114SOL    HW231242   5.299   1.252   0.849
10115SOL     OW31243   2.080   2.142   3.718
10115SOL    HW131244   2.049   2.063   3.665
10115SOL    HW231245   2.040   2.226   3.680
10116SOL     OW31246   0.876   1.029   1.173
10116SOL    HW131247   0.865   0.930   1.179
10116SOL    HW231248   0.926   1.052   1.090
10117SOL     OW31249   5.948   0.167   5.792
10117SOL    HW131250   5.927   0.265   5.788
10117SOL    HW231251   5.863   0.116   5.806
10118SOL     OW31252   6.804   5.297   2.384
10118SOL    HW131253   6.777   5.389   2.410
10118SOL    HW231254   6.730   5.233   2.407
10119SOL     OW31255   2.512   0.844   5.762
10119SOL    HW131256   2.474   0.809   5.848
10119SOL    HW231257   2.611   0.829   5.762
10120SOL     OW31258   0.265   3.193   3.860
10120SOL    HW131259   0.348   3.220   3.909
10120SOL    HW231260   0.194   3.261   3.876
10121SOL     OW31261   5.702   4.434   4.791
10121SOL    HW131262   5.697   4.441   4.691
10121SOL    HW231263   5.676   4.341   4.819
10122SOL     OW31264   5.391   3.265   0.188
10122SOL    HW131265   5.452   3.287   0.113
10122SOL    HW231266   5.310   3.324   0.184
10123SOL     OW31267   6.811   6.648   0.885
10123SOL    HW131268   6.871   6.594   0.943
10123SOL    HW231269   6.716   6.634   0.912
10124SOL     OW31270   3.184   3.878   0.102
10124SOL    HW131271   3.157   3.857   0.196
10124SOL    HW231272   3.103   3.878   0.043
10125SOL     OW31273   1.427   0.448   2.462
10125SOL    HW131274   1.488   0.377   2.497
10125SOL    HW231275   1.339   0.443   2.508
10126SOL     OW31276   6.180   5.295   0.743
10126SOL    HW131277   6.231   5.242   0.675
10126SOL    HW231278   6.151   5.382   0.702
10127SOL     OW31279   3.407   5.653   5.294
10127SOL    HW131280   3.454   5.617   5.375
10127SOL    HW231281   3.333   5.590   5.268
10128SOL     OW31282   6.924   1.850   0.636
10128SOL    HW131283   6.927   1.861   0.735
10128SOL    HW231284   6.859   1.914   0.597
10129SOL     OW31285   5.696   2.180   3.589
10129SOL    HW131286   5.757   2.239   3.643
10129SOL    HW231287   5.731   2.173   3.495
10130SOL     OW31288   6.745   5.612   2.733
10130SOL    HW131289   6.660   5.657   2.707
10130SOL    HW231290   6.728   5.514   2.748
10131SOL     OW31291   0.861   1.610   1.953
10131SOL    HW131292   0.918   1.655   2.022
10131SOL    HW231293   0.900   1.521   1.931
10132SOL     OW31294   2.966   6.668   3.081
10132SOL    HW131295   2.962   6.571   3.055
10132SOL    HW231296   2.878   6.710   3.061
10133SOL     OW31297   4.554   6.175   3.526
10133SOL    HW131298   4.599   6.130   3.448
10133SOL    HW231299   4.621   6.231   3.575
10134SOL     OW31300   6.957   1.113   3.568
10134SOL    HW131301   6.936   1.076   3.658
10134SOL    HW231302   0.022   1.070   3.533
10135SOL     OW31303   4.218   5.126   2.676
10135SOL    HW131304   4.206   5.075   2.591
10135SOL    HW231305   4.283   5.079   2.735
10136SOL     OW31306   6.030   0.194   3.559
10136SOL    HW131307   6.103   0.255   3.591
10136SOL    HW231308   6.043   0.175   3.462
10137SOL     OW31309   6.497   5.737   4.688
10137SOL    HW131310   6.558   5.777   4.620
10137SOL    HW231311   6.404   5.735   4.652
10138SOL     OW31312   5.854   2.229   7.006
10138SOL    HW131313   5.896   2.154   6.954
10138SOL    HW231314   5.762   2.203   0.015
10139SOL     OW31315   3.099   3.062   3.321
10139SOL    HW131316   3.097   3.059   3.221
10139SOL    HW231317   3.164   2.993   3.355
10140SOL     OW31318   0.030   5.272   6.826
10140SOL    HW131319   7.018   5.202   6.761
10140SOL    HW231320   7.004   5.258   6.914
10141SOL     OW31321   2.015   1.456   4.605
10141SOL    HW131322   2.036   1.520   4.679
10141SOL    HW231323   2.039   1.363   4.633
10142SOL     OW31324   3.939   5.991   4.506
10142SOL    HW131325   3.921   5.987   4.605
10142SOL    HW231326   3.918   5.902   4.465
10143SOL     OW31327   4.859   7.012   1.268
10143SOL    HW131328   4.878   0.075   1.213
10143SOL    HW231329   4.879   0.013   1.364
10144SOL     OW31330   3.167   5.383   4.621
10144SOL    HW131331   3.117   5.298   4.640
10144SOL    HW231332   3.125   5.458   4.671
10145SOL     OW31333   3.064   5.725   6.037
10145SOL    HW131334   3.071   5.793   6.111
10145SOL    HW231335   3.130   5.747   5.965
10146SOL     OW31336   3.911   5.379   4.344
10146SOL    HW131337   3.879   5.396   4.251
10146SOL    HW231338   3.844   5.416   4.409
10147SOL     OW31339   4.702   4.165   3.964
10147SOL    HW131340   4.752   4.150   4.049
10147SOL    HW231341   4.663   4.257   3.963
10148SOL     OW31342   6.205   5.731   0.989
10148SOL    HW131343   6.185   5.636   1.013
10148SOL    HW231344   6.131   5.767   0.933
10149SOL     OW31345   4.503   1.779   1.247
10149SOL    HW131346   4.424   1.793   1.187
10149SOL    HW231347   4.561   1.860   1.246
10150SOL     OW31348   4.834   4.571   0.596
10150SOL    HW131349   4.744   4.600   0.566
10150SOL    HW231350   4.853   4.479   0.563
10151SOL     OW31351   1.132   7.009   6.314
10151SOL    HW131352   1.111   7.010   6.412
10151SOL    HW231353   1.047   0.001   6.263
10152SOL     OW31354   1.014   4.628   3.423
10152SOL    HW131355   1.065   4.634   3.509
10152SOL    HW231356   0.938   4.564   3.433
10153SOL     OW31357   4.853   6.022   3.703
10153SOL    HW131358   4.933   5.961   3.703
10153SOL    HW231359   4.873   6.103   3.757
10154SOL     OW31360   6.410   5.897   5.564
10154SOL    HW131361   6.489   5.942   5.607
10154SOL    HW231362   6.391   5.811   5.611
10155SOL     OW31363   4.043   0.854   5.929
10155SOL    HW131364   4.122   0.798   5.956
10155SOL    HW231365   4.038   0.859   5.830
10156SOL     OW31366   5.418   0.323   2.251
10156SOL    HW131367   5.421   0.224   2.234
10156SOL    HW231368   5.451   0.342   2.344
10157SOL     OW31369   5.892   1.310   6.289
10157SOL    HW131370   5.930   1.400   6.272
10157SOL    HW231371   5.942   1.267   6.365
10158SOL     OW31372   4.369   3.476   0.083
10158SOL    HW131373   4.383   3.442   7.008
10158SOL    HW231374   4.285   3.529   0.087
10159SOL     OW31375   2.364   2.609   6.450
10159SOL    HW131376   2.450   2.560   6.441
10159SOL    HW231377   2.382   2.705   6.472
10160SOL     OW31378   0.410   4.621   3.473
10160SOL    HW131379   0.495   4.665   3.501
10160SOL    HW231380   0.430   4.527   3.443
10161SOL     OW31381   3.406   5.009   6.716
10161SOL    HW131382   3.333   4.968   6.660
10161SOL    HW231383   3.367   5.081   6.772
10162SOL     OW31384   2.517   3.034   6.333
10162SOL    HW131385   2.509   3.023   6.234
10162SOL    HW231386   2.494   3.129   6.358
10163SOL     OW31387   6.551   3.976   6.104
10163SOL    HW131388   6.606   3.919   6.166
10163SOL    HW231389   6.455   3.968   6.128
10164SOL     OW31390   6.358   3.067   5.011
10164SOL    HW131391   6.347   3.080   5.109
10164SOL    HW231392   6.369   3.155   4.966
10165SOL     OW31393   0.728   2.263   4.356
10165SOL    HW131394   0.638   2.307   4.351
10165SOL    HW231395   0.771   2.266   4.266
10166SOL     OW31396   3.106   1.809   1.487
10166SOL    HW131397   3.086   1.818   1.585
10166SOL    HW231398   3.142   1.895   1.452
10167SOL     OW31399   5.543   1.129   6.822
10167SOL    HW131400   5.542   1.041   6.869
10167SOL    HW231401   5.460   1.181   6.845
10168SOL     OW31402   6.649   4.300   4.372
10168SOL    HW131403   6.672   4.365   4.444
10168SOL    HW231404   6.604   4.220   4.412
10169SOL     OW31405   6.754   5.217   3.002
10169SOL    HW131406   6.659   5.243   2.986
10169SOL    HW231407   6.814   5.296   2.986
10170SOL     OW31408   1.140   3.946   5.271
10170SOL    HW131409   1.072   4.013   5.302
10170SOL    HW231410   1.209   3.933   5.343
10171SOL     OW31411   6.447   4.029   5.836
10171SOL    HW131412   6.376   4.039   5.767
10171SOL    HW231413   6.458   3.932   5.858
10172SOL     OW31414   5.386   0.414   2.957
10172SOL    HW131415   5.297   0.369   2.961
10172SOL    HW231416   5.375   0.506   2.920
10173SOL     OW31417   1.869   1.571   1.204
10173SOL    HW131418   1.933   1.621   1.262
10173SOL    HW231419   1.913   1.551   1.116
10174SOL     OW31420   5.850   4.583   3.128
10174SOL    HW131421   5.759   4.613   3.158
10174SOL    HW231422   5.919   4.647   3.161
10175SOL     OW31423   5.979   2.485   4.845
10175SOL    HW131424   5.995   2.541   4.927
10175SOL    HW231425   6.022   2.530   4.766
10176SOL     OW31426   1.758   3.513   6.449
10176SOL    HW131427   1.799   3.499   6.539
10176SOL    HW231428   1.661   3.534   6.460
10177SOL     OW31429   2.914   6.820   0.149
10177SOL    HW131430   2.894   6.722   0.147
10177SOL    HW231431   2.989   6.838   0.212
10178SOL     OW31432   5.787   3.027   4.651
10178SOL    HW131433   5.790   2.928   4.667
10178SOL    HW231434   5.786   3.044   4.552
10179SOL     OW31435   1.352   2.432   6.422
10179SOL    HW131436   1.303   2.504   6.471
10179SOL    HW231437   1.304   2.345   6.435
10180SOL     OW31438   2.863   5.569   5.982
10180SOL    HW131439   2.946   5.620   6.004
10180SOL    HW231440   2.832   5.593   5.890
10181SOL     OW31441   5.603   3.536   1.396
10181SOL    HW131442   5.508   3.569   1.390
10181SOL    HW231443   5.606   3.439   1.371
10182SOL     OW31444   5.601   1.120   1.326
10182SOL    HW131445   5.503   1.138   1.325
10182SOL    HW231446   5.630   1.095   1.418
10183SOL     OW31447   1.237   1.963   6.758
10183SOL    HW131448   1.200   2.048   6.721
10183SOL    HW231449   1.257   1.900   6.683
10184SOL     OW31450   4.850   1.721   6.205
10184SOL    HW131451   4.799   1.755   6.126
10184SOL    HW231452   4.943   1.756   6.202
10185SOL     OW31453   5.189   6.721   0.959
10185SOL    HW131454   5.197   6.700   1.057
10185SOL    HW231455   5.167   6.818   0.948
10186SOL     OW31456   4.972   2.763   3.693
10186SOL    HW131457   4.901   2.698   3.666
10186SOL    HW231458   4.993   2.824   3.617
10187SOL     OW31459   0.682   2.100   1.781
10187SOL    HW131460   0.727   2.184   1.810
10187SOL    HW231461   0.751   2.032   1.755
10188SOL     OW31462   3.942   6.510   0.508
10188SOL    HW131463   3.854   6.478   0.544
10188SOL    HW231464   3.951   6.482   0.413
10189SOL     OW31465   2.446   6.347   4.961
10189SOL    HW131466   2.381   6.392   4.900
10189SOL    HW231467   2.471   6.258   4.924
10190SOL     OW31468   4.711   2.291   0.375
10190SOL    HW131469   4.764   2.367   0.412
10190SOL    HW231470   4.690   2.308   0.279
10191SOL     OW31471   4.746   4.734   6.489
10191SOL    HW131472   4.650   4.764   6.492
10191SOL    HW231473   4.782   4.732   6.582
10192SOL     OW31474   3.551   0.322   5.031
10192SOL    HW131475   3.454   0.300   5.037
10192SOL    HW231476   3.563   0.419   5.014
10193SOL     OW31477   4.366   4.196   1.079
10193SOL    HW131478   4.335   4.246   1.160
10193SOL    HW231479   4.457   4.227   1.053
10194SOL     OW31480   6.159   4.157   4.782
10194SOL    HW131481   6.213   4.129   4.862
10194SOL    HW231482   6.209   4.228   4.732
10195SOL     OW31483   6.554   4.571   1.599
10195SOL    HW131484   6.569   4.667   1.577
10195SOL    HW231485   6.481   4.534   1.541
10196SOL     OW31486   6.566   1.353   5.012
10196SOL    HW131487   6.595   1.268   4.969
10196SOL    HW231488   6.555   1.338   5.111
10197SOL     OW31489   6.482   0.664   5.253
10197SOL    HW131490   6.492   0.569   5.283
10197SOL    HW231491   6.397   0.675   5.202
10198SOL     OW31492   3.982   0.429   2.452
10198SOL    HW131493   3.999   0.345   2.504
10198SOL    HW231494   3.962   0.504   2.516
10199SOL     OW31495   1.145   2.952   5.390
10199SOL    HW131496   1.109   3.002   5.469
10199SOL    HW231497   1.069   2.929   5.329
10200SOL     OW31498   5.613   2.659   1.112
10200SOL    HW131499   5.651   2.730   1.052
10200SOL    HW231500   5.666   2.654   1.196
10201SOL     OW31501   1.163   4.316   1.134
10201SOL    HW131502   1.161   4.216   1.139
10201SOL    HW231503   1.116   4.346   1.051
10202SOL     OW31504   4.133   1.374   5.681
10202SOL    HW131505   4.070   1.408   5.751
10202SOL    HW231506   4.198   1.446   5.656
10203SOL     OW31507   5.565   2.431   5.243
10203SOL    HW131508   5.585   2.466   5.151
10203SOL    HW231509   5.632   2.361   5.266
10204SOL     OW31510   5.232   0.114   6.433
10204SOL    HW131511   5.194   0.102   6.342
10204SOL    HW231512   5.296   0.039   6.453
10205SOL     OW31513   1.206   0.731   6.694
10205SOL    HW131514   1.264   0.713   6.615
10205SOL    HW231515   1.139   0.802   6.670
10206SOL     OW31516   1.199   0.894   5.684
10206SOL    HW131517   1.166   0.918   5.775
10206SOL    HW231518   1.217   0.796   5.680
10207SOL     OW31519   1.377   1.792   5.831
10207SOL    HW131520   1.419   1.842   5.755
10207SOL    HW231521   1.340   1.705   5.797
10208SOL     OW31522   5.935   5.101   4.819
10208SOL    HW131523   6.033   5.120   4.824
10208SOL    HW231524   5.891   5.130   4.904
10209SOL     OW31525   6.610   0.209   6.247
10209SOL    HW131526   6.533   0.160   6.288
10209SOL    HW231527   6.614   0.302   6.284
10210SOL     OW31528   4.138   5.959   1.622
10210SOL    HW131529   4.216   6.011   1.659
10210SOL    HW231530   4.062   5.962   1.687
10211SOL     OW31531   4.125   6.414   5.630
10211SOL    HW131532   4.218   6.376   5.633
10211SOL    HW231533   4.092   6.426   5.724
10212SOL     OW31534   0.898   0.357   6.079
10212SOL    HW131535   0.992   0.379   6.103
10212SOL    HW231536   0.836   0.416   6.131
10213SOL     OW31537   5.084   2.178   0.338
10213SOL    HW131538   5.005   2.146   0.389
10213SOL    HW231539   5.057   2.252   0.277
10214SOL     OW31540   1.035   3.053   1.494
10214SOL    HW131541   0.999   3.084   1.582
10214SOL    HW231542   0.986   2.970   1.466
10215SOL     OW31543   3.814   3.669   2.463
10215SOL    HW131544   3.842   3.606   2.391
10215SOL    HW231545   3.714   3.671   2.470
10216SOL     OW31546   6.384   0.265   1.615
10216SOL    HW131547   6.469   0.230   1.656
10216SOL    HW231548   6.356   0.204   1.541
10217SOL     OW31549   2.912   0.998   3.545
10217SOL    HW131550   2.968   0.986   3.627
10217SOL    HW231551   2.904   0.911   3.496
10218SOL     OW31552   1.111   2.758   3.000
10218SOL    HW131553   1.152   2.772   2.910
10218SOL    HW231554   1.120   2.661   3.026
10219SOL     OW31555   0.603   1.245   2.152
10219SOL    HW131556   0.599   1.164   2.094
10219SOL    HW231557   0.542   1.233   2.230
10220SOL     OW31558   3.508   2.534   1.716
10220SOL    HW131559   3.531   2.508   1.622
10220SOL    HW231560   3.555   2.473   1.780
10221SOL     OW31561   1.112   6.212   2.968
10221SOL    HW131562   1.026   6.160   2.976
10221SOL    HW231563   1.121   6.273   3.047
10222SOL     OW31564   3.585   3.687   4.875
10222SOL    HW131565   3.677   3.727   4.883
10222SOL    HW231566   3.519   3.759   4.855
10223SOL     OW31567   0.739   5.354   1.518
10223SOL    HW131568   0.659   5.406   1.547
10223SOL    HW231569   0.734   5.261   1.555
10224SOL     OW31570   6.119   4.146   3.315
10224SOL    HW131571   6.092   4.241   3.300
10224SOL    HW231572   6.174   4.140   3.398
10225SOL     OW31573   2.387   3.631   6.050
10225SOL    HW131574   2.397   3.533   6.036
10225SOL    HW231575   2.413   3.655   6.144
10226SOL     OW31576   4.496   2.457   0.201
10226SOL    HW131577   4.530   2.519   0.271
10226SOL    HW231578   4.427   2.503   0.146
10227SOL     OW31579   5.813   3.965   0.951
10227SOL    HW131580   5.858   4.017   0.878
10227SOL    HW231581   5.878   3.899   0.989
10228SOL     OW31582   5.415   0.631   0.735
10228SOL    HW131583   5.393   0.728   0.743
10228SOL    HW231584   5.481   0.605   0.806
10229SOL     OW31585   0.652   3.342   4.566
10229SOL    HW131586   0.752   3.338   4.574
10229SOL    HW231587   0.610   3.317   4.653
10230SOL     OW31588   6.753   6.336   2.273
10230SOL    HW131589   6.815   6.346   2.195
10230SOL    HW231590   6.698   6.418   2.283
10231SOL     OW31591   1.353   6.000   2.982
10231SOL    HW131592   1.296   6.081   2.973
10231SOL    HW231593   1.299   5.925   3.021
10232SOL     OW31594   5.016   6.666   3.355
10232SOL    HW131595   5.021   6.716   3.269
10232SOL    HW231596   5.107   6.639   3.383
10233SOL     OW31597   4.139   4.229   6.433
10233SOL    HW131598   4.070   4.264   6.496
10233SOL    HW231599   4.175   4.305   6.378
10234SOL     OW31600   0.099   0.759   1.556
10234SOL    HW131601   0.174   0.763   1.489
10234SOL    HW231602   0.034   0.833   1.538
10235SOL     OW31603   1.481   1.091   3.452
10235SOL    HW131604   1.384   1.084   3.425
10235SOL    HW231605   1.519   1.000   3.462
10236SOL     OW31606   2.376   6.742   1.585
10236SOL    HW131607   2.386   6.806   1.661
10236SOL    HW231608   2.320   6.665   1.614
10237SOL     OW31609   0.487   3.577   6.558
10237SOL    HW131610   0.483   3.615   6.650
10237SOL    HW231611   0.442   3.488   6.557
10238SOL     OW31612   3.962   5.585   0.925
10238SOL    HW131613   3.950   5.491   0.957
10238SOL    HW231614   4.047   5.622   0.963
10239SOL     OW31615   1.765   2.148   4.566
10239SOL    HW131616   1.669   2.176   4.576
10239SOL    HW231617   1.769   2.053   4.537
10240SOL     OW31618   2.833   6.312   0.872
10240SOL    HW131619   2.756   6.257   0.840
10240SOL    HW231620   2.874   6.361   0.795
10241SOL     OW31621   3.838   2.359   1.640
10241SOL    HW131622   3.920   2.411   1.663
10241SOL    HW231623   3.763   2.386   1.700
10242SOL     OW31624   6.786   2.682   6.960
10242SOL    HW131625   6.763   2.706   0.036
10242SOL    HW231626   6.876   2.639   6.957
10243SOL     OW31627   2.442   5.432   1.136
10243SOL    HW131628   2.510   5.364   1.166
10243SOL    HW231629   2.427   5.498   1.210
10244SOL     OW31630   2.607   4.063   1.685
10244SOL    HW131631   2.553   4.123   1.744
10244SOL    HW231632   2.695   4.105   1.667
10245SOL     OW31633   3.985   4.251   0.650
10245SOL    HW131634   4.058   4.262   0.718
10245SOL    HW231635   4.022   4.203   0.570
10246SOL     OW31636   3.198   2.987   4.571
10246SOL    HW131637   3.227   2.965   4.477
10246SOL    HW231638   3.133   2.918   4.602
10247SOL     OW31639   1.015   3.075   4.592
10247SOL    HW131640   0.966   2.998   4.633
10247SOL    HW231641   0.967   3.107   4.511
10248SOL     OW31642   1.020   0.292   3.341
10248SOL    HW131643   1.064   0.232   3.408
10248SOL    HW231644   1.055   0.271   3.250
10249SOL     OW31645   2.488   4.774   6.163
10249SOL    HW131646   2.426   4.699   6.188
10249SOL    HW231647   2.435   4.851   6.128
10250SOL     OW31648   4.805   2.650   6.935
10250SOL    HW131649   4.810   2.550   6.933
10250SOL    HW231650   4.796   2.685   6.842
10251SOL     OW31651   2.105   0.241   4.303
10251SOL    HW131652   2.119   0.161   4.360
10251SOL    HW231653   2.193   0.278   4.274
10252SOL     OW31654   4.959   4.196   5.901
10252SOL    HW131655   4.916   4.241   5.980
10252SOL    HW231656   5.041   4.247   5.874
10253SOL     OW31657   4.113   6.413   6.664
10253SOL    HW131658   4.033   6.355   6.681
10253SOL    HW231659   4.083   6.505   6.638
10254SOL     OW31660   5.320   1.555   4.600
10254SOL    HW131661   5.320   1.497   4.519
10254SOL    HW231662   5.228   1.591   4.615
10255SOL     OW31663   3.464   5.402   1.953
10255SOL    HW131664   3.404   5.448   1.887
10255SOL    HW231665   3.439   5.306   1.959
10256SOL     OW31666   4.413   0.477   3.059
10256SOL    HW131667   4.348   0.412   3.097
10256SOL    HW231668   4.366   0.562   3.036
10257SOL     OW31669   3.104   5.007   3.036
10257SOL    HW131670   3.197   4.976   3.057
10257SOL    HW231671   3.096   5.025   2.938
10258SOL     OW31672   1.782   1.663   1.973
10258SOL    HW131673   1.789   1.564   1.965
10258SOL    HW231674   1.721   1.698   1.903
10259SOL     OW31675   0.568   3.539   3.876
10259SOL    HW131676   0.668   3.547   3.867
10259SOL    HW231677   0.527   3.546   3.785
10260SOL     OW31678   1.209   1.202   3.674
10260SOL    HW131679   1.250   1.203   3.582
10260SOL    HW231680   1.280   1.219   3.742
10261SOL     OW31681   6.402   3.701   0.926
10261SOL    HW131682   6.378   3.781   0.871
10261SOL    HW231683   6.396   3.724   1.023
10262SOL     OW31684   3.426   1.029   0.104
10262SOL    HW131685   3.512   1.002   0.062
10262SOL    HW231686   3.356   1.040   0.033
10263SOL     OW31687   5.720   0.769   1.827
10263SOL    HW131688   5.784   0.720   1.887
10263SOL    HW231689   5.636   0.789   1.877
10264SOL     OW31690   6.870   5.467   6.752
10264SOL    HW131691   6.947   5.404   6.763
10264SOL    HW231692   6.899   5.545   6.696
10265SOL     OW31693   2.145   1.802   0.349
10265SOL    HW131694   2.154   1.895   0.386
10265SOL    HW231695   2.081   1.803   0.272
10266SOL     OW31696   2.885   3.582   2.313
10266SOL    HW131697   2.851   3.649   2.378
10266SOL    HW231698   2.848   3.491   2.335
10267SOL     OW31699   6.001   1.137   0.793
10267SOL    HW131700   5.940   1.178   0.861
10267SOL    HW231701   5.994   1.189   0.707
10268SOL     OW31702   4.640   0.084   0.987
10268SOL    HW131703   4.653   7.008   0.958
10268SOL    HW231704   4.652   0.145   0.908
10269SOL     OW31705   2.384   2.040   6.342
10269SOL    HW131706   2.318   1.966   6.335
10269SOL    HW231707   2.349   2.111   6.403
10270SOL     OW31708   3.239   6.189   1.907
10270SOL    HW131709   3.211   6.096   1.883
10270SOL    HW231710   3.165   6.253   1.888
10271SOL     OW31711   1.723   2.582   0.176
10271SOL    HW131712   1.679   2.500   0.211
10271SOL    HW231713   1.799   2.607   0.237
10272SOL     OW31714   6.677   0.616   4.635
10272SOL    HW131715   6.688   0.520   4.611
10272SOL    HW231716   6.656   0.625   4.732
10273SOL     OW31717   2.465   4.969   3.462
10273SOL    HW131718   2.368   4.995   3.457
10273SOL    HW231719   2.521   5.051   3.474
10274SOL     OW31720   0.603   5.017   4.881
10274SOL    HW131721   0.633   5.017   4.977
10274SOL    HW231722   0.544   4.938   4.864
10275SOL     OW31723   0.267   0.432   2.913
10275SOL    HW131724   0.330   0.354   2.912
10275SOL    HW231725   0.317   0.515   2.886
10276SOL     OW31726   4.148   6.058   6.142
10276SOL    HW131727   4.140   6.014   6.053
10276SOL    HW231728   4.220   6.128   6.138
10277SOL     OW31729   0.947   6.610   4.553
10277SOL    HW131730   0.889   6.634   4.630
10277SOL    HW231731   0.895   6.553   4.489
10278SOL     OW31732   0.060   0.624   5.308
10278SOL    HW131733   0.009   0.578   5.380
10278SOL    HW231734   0.093   0.557   5.241
10279SOL     OW31735   1.834   5.513   4.023
10279SOL    HW131736   1.934   5.514   4.020
10279SOL    HW231737   1.799   5.433   3.975
10280SOL     OW31738   5.534   4.164   0.490
10280SOL    HW131739   5.580   4.078   0.509
10280SOL    HW231740   5.555   4.192   0.396
10281SOL     OW31741   6.654   2.427   3.743
10281SOL    HW131742   6.601   2.403   3.662
10281SOL    HW231743   6.708   2.349   3.773
10282SOL     OW31744   4.874   3.891   3.274
10282SOL    HW131745   4.826   3.956   3.333
10282SOL    HW231746   4.931   3.941   3.209
10283SOL     OW31747   0.558   4.227   1.130
10283SOL    HW131748   0.575   4.226   1.031
10283SOL    HW231749   0.528   4.137   1.160
10284SOL     OW31750   0.419   2.729   3.625
10284SOL    HW131751   0.507   2.772   3.609
10284SOL    HW231752   0.371   2.776   3.700
10285SOL     OW31753   4.807   5.902   4.492
10285SOL    HW131754   4.728   5.948   4.451
10285SOL    HW231755   4.874   5.881   4.420
10286SOL     OW31756   2.892   1.462   4.408
10286SOL    HW131757   2.808   1.517   4.414
10286SOL    HW231758   2.917   1.429   4.499
10287SOL     OW31759   2.296   5.663   2.903
10287SOL    HW131760   2.284   5.677   2.805
10287SOL    HW231761   2.369   5.723   2.937
10288SOL     OW31762   3.729   0.181   5.521
10288SOL    HW131763   3.720   0.281   5.517
10288SOL    HW231764   3.735   0.145   5.428
10289SOL     OW31765   2.502   5.900   6.384
10289SOL    HW131766   2.413   5.864   6.354
10289SOL    HW231767   2.513   5.993   6.350
10290SOL     OW31768   3.201   2.947   2.225
10290SOL    HW131769   3.173   2.994   2.141
10290SOL    HW231770   3.161   2.994   2.304
10291SOL     OW31771   3.063   1.193   2.443
10291SOL    HW131772   3.051   1.287   2.411
10291SOL    HW231773   2.974   1.149   2.452
10292SOL     OW31774   6.527   6.390   6.521
10292SOL    HW131775   6.493   6.303   6.557
10292SOL    HW231776   6.626   6.393   6.529
10293SOL     OW31777   0.913   3.903   4.035
10293SOL    HW131778   0.818   3.876   4.049
10293SOL    HW231779   0.937   3.892   3.939
10294SOL     OW31780   3.564   1.769   2.790
10294SOL    HW131781   3.546   1.868   2.793
10294SOL    HW231782   3.645   1.751   2.734
10295SOL     OW31783   1.125   2.346   0.296
10295SOL    HW131784   1.201   2.409   0.305
10295SOL    HW231785   1.050   2.390   0.247
10296SOL     OW31786   5.878   1.093   5.825
10296SOL    HW131787   5.818   1.016   5.847
10296SOL    HW231788   5.873   1.161   5.898
10297SOL     OW31789   2.929   1.953   6.680
10297SOL    HW131790   3.025   1.981   6.673
10297SOL    HW231791   2.919   1.886   6.754
10298SOL     OW31792   0.574   2.632   2.702
10298SOL    HW131793   0.597   2.728   2.719
10298SOL    HW231794   0.518   2.598   2.777
10299SOL     OW31795   4.235   6.372   2.144
10299SOL    HW131796   4.325   6.351   2.183
10299SOL    HW231797   4.174   6.295   2.158
10300SOL     OW31798   0.697   3.446   1.440
10300SOL    HW131799   0.613   3.497   1.456
10300SOL    HW231800   0.751   3.443   1.524
10301SOL     OW31801   4.545   1.022   6.524
10301SOL    HW131802   4.518   1.118   6.537
10301SOL    HW231803   4.477   0.962   6.567
10302SOL     OW31804   2.679   5.840   4.261
10302SOL    HW131805   2.620   5.919   4.242
10302SOL    HW231806   2.691   5.786   4.178
10303SOL     OW31807   0.914   6.422   4.905
10303SOL    HW131808   0.981   6.445   4.975
10303SOL    HW231809   0.859   6.503   4.883
10304SOL     OW31810   6.288   6.924   6.976
10304SOL    HW131811   6.385   6.926   7.002
10304SOL    HW231812   6.274   6.989   6.901
10305SOL     OW31813   2.153   4.032   6.029
10305SOL    HW131814   2.194   3.947   5.996
10305SOL    HW231815   2.176   4.044   6.126
10306SOL     OW31816   5.413   6.927   1.283
10306SOL    HW131817   5.480   6.994   1.251
10306SOL    HW231818   5.320   6.964   1.268
10307SOL     OW31819   2.539   0.316   4.996
10307SOL    HW131820   2.519   0.251   5.069
10307SOL    HW231821   2.512   0.408   5.025
10308SOL     OW31822   2.546   4.661   2.593
10308SOL    HW131823   2.630   4.634   2.546
10308SOL    HW231824   2.469   4.653   2.530
10309SOL     OW31825   6.491   0.989   5.689
10309SOL    HW131826   6.534   0.924   5.752
10309SOL    HW231827   6.461   0.940   5.607
10310SOL     OW31828   3.100   2.831   6.166
10310SOL    HW131829   3.134   2.764   6.231
10310SOL    HW231830   3.175   2.889   6.135
10311SOL     OW31831   5.835   6.587   6.943
10311SOL    HW131832   5.746   6.610   6.983
10311SOL    HW231833   5.856   6.491   6.961
10312SOL     OW31834   4.514   0.414   2.021
10312SOL    HW131835   4.533   0.387   2.115
10312SOL    HW231836   4.444   0.353   1.983
10313SOL     OW31837   4.769   6.443   2.708
10313SOL    HW131838   4.858   6.443   2.754
10313SOL    HW231839   4.696   6.434   2.777
10314SOL     OW31840   0.737   6.831   0.670
10314SOL    HW131841   0.680   6.753   0.645
10314SOL    HW231842   0.799   6.853   0.594
10315SOL     OW31843   5.052   6.323   3.468
10315SOL    HW131844   5.022   6.375   3.549
10315SOL    HW231845   4.989   6.246   3.454
10316SOL     OW31846   0.207   2.776   6.476
10316SOL    HW131847   0.234   2.681   6.496
10316SOL    HW231848   0.146   2.776   6.396
10317SOL     OW31849   3.363   5.802   5.939
10317SOL    HW131850   3.367   5.776   6.036
10317SOL    HW231851   3.308   5.884   5.929
10318SOL     OW31852   6.020   0.259   0.176
10318SOL    HW131853   5.988   0.166   0.160
10318SOL    HW231854   5.976   0.295   0.259
10319SOL     OW31855   0.268   4.509   4.212
10319SOL    HW131856   0.335   4.511   4.286
10319SOL    HW231857   0.285   4.585   4.149
10320SOL     OW31858   0.610   0.468   3.662
10320SOL    HW131859   0.565   0.540   3.609
10320SOL    HW231860   0.681   0.425   3.607
10321SOL     OW31861   5.651   2.239   1.668
10321SOL    HW131862   5.667   2.218   1.765
10321SOL    HW231863   5.590   2.170   1.629
10322SOL     OW31864   4.681   4.283   4.607
10322SOL    HW131865   4.589   4.287   4.569
10322SOL    HW231866   4.678   4.243   4.699
10323SOL     OW31867   0.190   4.296   5.207
10323SOL    HW131868   0.235   4.367   5.260
10323SOL    HW231869   0.160   4.222   5.267
10324SOL     OW31870   3.269   3.364   2.214
10324SOL    HW131871   3.368   3.355   2.230
10324SOL    HW231872   3.249   3.458   2.185
10325SOL     OW31873   0.440   5.914   2.563
10325SOL    HW131874   0.376   5.981   2.600
10325SOL    HW231875   0.433   5.829   2.615
10326SOL     OW31876   5.486   3.525   6.783
10326SOL    HW131877   5.574   3.571   6.769
10326SOL    HW231878   5.416   3.571   6.728
10327SOL     OW31879   2.807   3.984   1.382
10327SOL    HW131880   2.891   3.964   1.331
10327SOL    HW231881   2.772   3.900   1.423
10328SOL     OW31882   6.632   2.921   1.746
10328SOL    HW131883   6.630   2.822   1.730
10328SOL    HW231884   6.541   2.952   1.773
10329SOL     OW31885   3.314   1.604   3.374
10329SOL    HW131886   3.214   1.602   3.370
10329SOL    HW231887   3.352   1.566   3.289
10330SOL     OW31888   4.821   6.919   0.858
10330SOL    HW131889   4.848   6.924   0.954
10330SOL    HW231890   4.878   6.851   0.811
10331SOL     OW31891   6.713   5.626   0.313
10331SOL    HW131892   6.643   5.555   0.320
10331SOL    HW231893   6.803   5.586   0.334
10332SOL     OW31894   1.406   0.756   0.782
10332SOL    HW131895   1.324   0.752   0.724
10332SOL    HW231896   1.459   0.838   0.759
10333SOL     OW31897   0.966   5.805   4.449
10333SOL    HW131898   0.972   5.735   4.520
10333SOL    HW231899   0.880   5.794   4.398
10334SOL     OW31900   3.144   6.954   3.831
10334SOL    HW131901   3.165   6.889   3.905
10334SOL    HW231902   3.214   6.946   3.760
10335SOL     OW31903   0.523   3.902   5.852
10335SOL    HW131904   0.459   3.878   5.779
10335SOL    HW231905   0.615   3.873   5.826
10336SOL     OW31906   5.574   0.028   2.944
10336SOL    HW131907   5.663   0.008   2.985
10336SOL    HW231908   5.536   6.962   2.907
10337SOL     OW31909   6.178   5.397   0.321
10337SOL    HW131910   6.218   5.409   0.412
10337SOL    HW231911   6.241   5.433   0.252
10338SOL     OW31912   1.677   6.066   2.105
10338SOL    HW131913   1.607   6.013   2.153
10338SOL    HW231914   1.763   6.062   2.156
10339SOL     OW31915   6.986   2.876   5.799
10339SOL    HW131916   6.950   2.860   5.891
10339SOL    HW231917   0.024   2.798   5.771
10340SOL     OW31918   1.772   3.710   6.255
10340SOL    HW131919   1.701   3.672   6.195
10340SOL    HW231920   1.792   3.646   6.328
10341SOL     OW31921   2.203   2.879   2.549
10341SOL    HW131922   2.131   2.937   2.509
10341SOL    HW231923   2.247   2.826   2.476
10342SOL     OW31924   1.711   0.781   3.753
10342SOL    HW131925   1.775   0.806   3.680
10342SOL    HW231926   1.686   0.685   3.743
10343SOL     OW31927   1.911   5.835   1.038
10343SOL    HW131928   1.985   5.898   1.061
10343SOL    HW231929   1.928   5.746   1.080
10344SOL     OW31930   3.690   4.364   6.619
10344SOL    HW131931   3.650   4.448   6.583
10344SOL    HW231932   3.789   4.367   6.607
10345SOL     OW31933   1.280   2.946   5.147
10345SOL    HW131934   1.327   2.858   5.137
10345SOL    HW231935   1.242   2.953   5.239
10346SOL     OW31936   0.298   6.065   1.821
10346SOL    HW131937   0.346   6.058   1.734
10346SOL    HW231938   0.268   5.974   1.850
10347SOL     OW31939   4.344   1.260   4.106
10347SOL    HW131940   4.387   1.325   4.169
10347SOL    HW231941   4.401   1.178   4.098
10348SOL     OW31942   6.036   3.835   0.567
10348SOL    HW131943   6.038   3.772   0.645
10348SOL    HW231944   6.080   3.921   0.591
10349SOL     OW31945   0.257   6.688   6.503
10349SOL    HW131946   0.338   6.713   6.450
10349SOL    HW231947   0.275   6.604   6.554
10350SOL     OW31948   3.035   6.593   5.359
10350SOL    HW131949   2.991   6.676   5.392
10350SOL    HW231950   2.985   6.513   5.392
10351SOL     OW31951   4.339   5.148   5.601
10351SOL    HW131952   4.309   5.131   5.695
10351SOL    HW231953   4.259   5.170   5.545
10352SOL     OW31954   3.519   2.035   5.907
10352SOL    HW131955   3.455   2.052   5.832
10352SOL    HW231956   3.470   2.041   5.994
10353SOL     OW31957   6.666   2.801   4.707
10353SOL    HW131958   6.611   2.823   4.788
10353SOL    HW231959   6.703   2.709   4.716
10354SOL     OW31960   5.094   1.253   2.345
10354SOL    HW131961   5.168   1.305   2.302
10354SOL    HW231962   5.132   1.180   2.402
10355SOL     OW31963   2.689   5.607   2.464
10355SOL    HW131964   2.698   5.560   2.553
10355SOL    HW231965   2.613   5.671   2.468
10356SOL     OW31966   6.939   4.151   5.358
10356SOL    HW131967   6.994   4.080   5.314
10356SOL    HW231968   6.988   4.186   5.438
10357SOL     OW31969   2.473   1.918   6.635
10357SOL    HW131970   2.425   2.000   6.665
10357SOL    HW231971   2.409   1.857   6.588
10358SOL     OW31972   0.345   2.245   1.909
10358SOL    HW131973   0.314   2.339   1.898
10358SOL    HW231974   0.327   2.194   1.825
10359SOL     OW31975   0.146   1.443   1.586
10359SOL    HW131976   0.155   1.345   1.601
10359SOL    HW231977   0.051   1.470   1.599
10360SOL     OW31978   5.611   5.914   3.418
10360SOL    HW131979   5.579   5.834   3.367
10360SOL    HW231980   5.690   5.889   3.474
10361SOL     OW31981   2.750   5.420   1.996
10361SOL    HW131982   2.798   5.431   2.083
10361SOL    HW231983   2.655   5.449   2.006
10362SOL     OW31984   1.904   4.206   4.729
10362SOL    HW131985   1.958   4.231   4.649
10362SOL    HW231986   1.949   4.240   4.811
10363SOL     OW31987   4.810   0.646   3.636
10363SOL    HW131988   4.748   0.626   3.560
10363SOL    HW231989   4.829   0.744   3.638
10364SOL     OW31990   2.322   4.295   1.365
10364SOL    HW131991   2.336   4.294   1.266
10364SOL    HW231992   2.345   4.386   1.401
10365SOL     OW31993   5.145   5.505   7.011
10365SOL    HW131994   5.063   5.502   0.050
10365SOL    HW231995   5.139   5.583   6.948
10366SOL     OW31996   3.216   0.026   2.943
10366SOL    HW131997   3.307   0.062   2.964
10366SOL    HW231998   3.175   0.080   2.869
10367SOL     OW31999   6.059   2.462   3.486
10367SOL    HW132000   5.990   2.416   3.542
10367SOL    HW232001   6.014   2.516   3.415
10368SOL     OW32002   1.691   0.863   1.757
10368SOL    HW132003   1.745   0.784   1.786
10368SOL    HW232004   1.699   0.936   1.825
10369SOL     OW32005   3.650   2.478   6.978
10369SOL    HW132006   3.552   2.491   6.966
10369SOL    HW232007   3.665   2.403   0.025
10370SOL     OW32008   3.864   0.747   5.334
10370SOL    HW132009   3.841   0.844   5.335
10370SOL    HW232010   3.910   0.723   5.419
10371SOL     OW32011   4.666   5.998   5.243
10371SOL    HW132012   4.734   6.059   5.204
10371SOL    HW232013   4.650   5.921   5.181
10372SOL     OW32014   2.297   0.804   4.127
10372SOL    HW132015   2.363   0.758   4.067
10372SOL    HW232016   2.213   0.751   4.130
10373SOL     OW32017   0.974   6.220   4.190
10373SOL    HW132018   0.948   6.317   4.193
10373SOL    HW232019   1.065   6.212   4.149
10374SOL     OW32020   2.559   2.500   3.036
10374SOL    HW132021   2.610   2.437   2.977
10374SOL    HW232022   2.476   2.530   2.988
10375SOL     OW32023   5.954   1.980   0.814
10375SOL    HW132024   5.911   2.030   0.739
10375SOL    HW232025   5.902   1.995   0.898
10376SOL     OW32026   0.858   1.129   3.603
10376SOL    HW132027   0.888   1.221   3.625
10376SOL    HW232028   0.903   1.063   3.664
10377SOL     OW32029   0.864   0.608   4.045
10377SOL    HW132030   0.859   0.525   3.989
10377SOL    HW232031   0.824   0.685   3.995
10378SOL     OW32032   6.988   0.240   6.260
10378SOL    HW132033   0.001   0.293   6.181
10378SOL    HW232034   6.908   0.285   6.300
10379SOL     OW32035   5.290   1.226   4.619
10379SOL    HW132036   5.251   1.215   4.711
10379SOL    HW232037   5.226   1.278   4.562
10380SOL     OW32038   5.268   0.612   2.078
10380SOL    HW132039   5.205   0.537   2.101
10380SOL    HW232040   5.340   0.577   2.019
10381SOL     OW32041   4.570   4.744   5.751
10381SOL    HW132042   4.586   4.690   5.668
10381SOL    HW232043   4.571   4.683   5.830
10382SOL     OW32044   2.239   5.140   0.365
10382SOL    HW132045   2.315   5.202   0.345
10382SOL    HW232046   2.263   5.080   0.441
10383SOL     OW32047   0.595   2.626   0.671
10383SOL    HW132048   0.508   2.654   0.711
10383SOL    HW232049   0.600   2.656   0.576
10384SOL     OW32050   6.461   0.249   0.141
10384SOL    HW132051   6.556   0.280   0.140
10384SOL    HW232052   6.454   0.166   0.196
10385SOL     OW32053   6.391   1.767   6.575
10385SOL    HW132054   6.322   1.837   6.591
10385SOL    HW232055   6.346   1.680   6.551
10386SOL     OW32056   6.298   2.784   5.842
10386SOL    HW132057   6.288   2.814   5.747
10386SOL    HW232058   6.395   2.786   5.868
10387SOL     OW32059   1.771   2.481   3.360
10387SOL    HW132060   1.849   2.511   3.414
10387SOL    HW232061   1.722   2.410   3.410
10388SOL     OW32062   1.481   5.092   2.613
10388SOL    HW132063   1.383   5.114   2.611
10388SOL    HW232064   1.523   5.137   2.692
10389SOL     OW32065   0.964   4.877   2.774
10389SOL    HW132066   0.919   4.961   2.804
10389SOL    HW232067   0.918   4.842   2.692
10390SOL     OW32068   1.262   2.969   3.770
10390SOL    HW132069   1.259   3.005   3.676
10390SOL    HW232070   1.170   2.944   3.799
10391SOL     OW32071   2.578   6.345   5.898
10391SOL    HW132072   2.643   6.271   5.882
10391SOL    HW232073   2.569   6.401   5.816
10392SOL     OW32074   6.312   5.426   0.552
10392SOL    HW132075   6.385   5.367   0.515
10392SOL    HW232076   6.347   5.476   0.631
10393SOL     OW32077   1.436   1.192   4.240
10393SOL    HW132078   1.349   1.230   4.210
10393SOL    HW232079   1.423   1.138   4.323
10394SOL     OW32080   2.100   6.563   6.914
10394SOL    HW132081   2.014   6.556   6.966
10394SOL    HW232082   2.103   6.651   6.867
10395SOL     OW32083   0.145   1.254   4.595
10395SOL    HW132084   0.108   1.191   4.527
10395SOL    HW232085   0.221   1.305   4.555
10396SOL     OW32086   0.726   0.119   5.227
10396SOL    HW132087   0.628   0.106   5.238
10396SOL    HW232088   0.750   0.108   5.131
10397SOL     OW32089   4.309   1.410   3.063
10397SOL    HW132090   4.237   1.392   3.129
10397SOL    HW232091   4.344   1.324   3.026
10398SOL     OW32092   6.320   2.605   2.356
10398SOL    HW132093   6.365   2.693   2.341
10398SOL    HW232094   6.388   2.537   2.383
10399SOL     OW32095   5.623   2.114   5.371
10399SOL    HW132096   5.535   2.152   5.401
10399SOL    HW232097   5.667   2.178   5.308
10400SOL     OW32098   2.628   5.201   1.897
10400SOL    HW132099   2.669   5.127   1.949
10400SOL    HW232100   2.654   5.289   1.938
10401SOL     OW32101   0.434   6.397   1.727
10401SOL    HW132102   0.358   6.463   1.734
10401SOL    HW232103   0.440   6.344   1.811
10402SOL     OW32104   0.441   2.967   4.314
10402SOL    HW132105   0.419   2.902   4.387
10402SOL    HW232106   0.485   3.048   4.354
10403SOL     OW32107   5.356   0.924   2.160
10403SOL    HW132108   5.323   0.846   2.213
10403SOL    HW232109   5.280   0.985   2.138
10404SOL     OW32110   0.387   6.534   3.700
10404SOL    HW132111   0.391   6.630   3.673
10404SOL    HW232112   0.474   6.508   3.742
10405SOL     OW32113   1.666   6.455   5.748
10405SOL    HW132114   1.704   6.525   5.808
10405SOL    HW232115   1.656   6.492   5.656
10406SOL     OW32116   2.271   4.928   5.979
10406SOL    HW132117   2.314   4.942   5.890
10406SOL    HW232118   2.198   4.861   5.971
10407SOL     OW32119   0.884   1.669   0.034
10407SOL    HW132120   0.838   1.588   0.072
10407SOL    HW232121   0.982   1.653   0.031
10408SOL     OW32122   4.467   5.505   3.074
10408SOL    HW132123   4.377   5.484   3.037
10408SOL    HW232124   4.536   5.450   3.027
10409SOL     OW32125   5.940   4.688   2.601
10409SOL    HW132126   5.927   4.644   2.513
10409SOL    HW232127   5.976   4.781   2.588
10410SOL     OW32128   5.704   0.126   0.484
10410SOL    HW132129   5.739   0.140   0.392
10410SOL    HW232130   5.605   0.117   0.482
10411SOL     OW32131   2.351   4.522   2.859
10411SOL    HW132132   2.369   4.621   2.858
10411SOL    HW232133   2.346   4.488   2.765
10412SOL     OW32134   0.517   2.309   0.555
10412SOL    HW132135   0.441   2.284   0.494
10412SOL    HW232136   0.480   2.342   0.642
10413SOL     OW32137   0.591   2.066   6.866
10413SOL    HW132138   0.550   2.103   6.783
10413SOL    HW232139   0.554   1.974   6.882
10414SOL     OW32140   5.536   6.552   5.373
10414SOL    HW132141   5.449   6.570   5.418
10414SOL    HW232142   5.555   6.625   5.306
10415SOL     OW32143   0.819   5.839   3.174
10415SOL    HW132144   0.764   5.760   3.149
10415SOL    HW232145   0.771   5.893   3.243
10416SOL     OW32146   5.486   1.210   6.006
10416SOL    HW132147   5.521   1.220   6.100
10416SOL    HW232148   5.515   1.289   5.952
10417SOL     OW32149   3.615   4.936   4.167
10417SOL    HW132150   3.555   4.998   4.117
10417SOL    HW232151   3.576   4.915   4.256
10418SOL     OW32152   6.282   3.918   6.188
10418SOL    HW132153   6.281   3.974   6.271
10418SOL    HW232154   6.301   3.823   6.212
10419SOL     OW32155   2.486   1.147   4.590
10419SOL    HW132156   2.402   1.200   4.603
10419SOL    HW232157   2.519   1.159   4.496
10420SOL     OW32158   5.744   3.461   3.065
10420SOL    HW132159   5.778   3.373   3.031
10420SOL    HW232160   5.662   3.446   3.121
10421SOL     OW32161   0.629   4.639   4.357
10421SOL    HW132162   0.643   4.738   4.349
10421SOL    HW232163   0.683   4.592   4.288
10422SOL     OW32164   6.470   3.941   5.143
10422SOL    HW132165   6.480   4.038   5.166
10422SOL    HW232166   6.560   3.903   5.120
10423SOL     OW32167   2.609   5.060   4.387
10423SOL    HW132168   2.618   5.105   4.298
10423SOL    HW232169   2.668   4.980   4.391
10424SOL     OW32170   3.352   1.081   0.510
10424SOL    HW132171   3.293   1.093   0.591
10424SOL    HW232172   3.442   1.120   0.528
10425SOL     OW32173   1.394   2.382   1.121
10425SOL    HW132174   1.350   2.430   1.045
10425SOL    HW232175   1.478   2.431   1.146
10426SOL     OW32176   6.801   2.359   6.304
10426SOL    HW132177   6.729   2.413   6.260
10426SOL    HW232178   6.806   2.269   6.261
10427SOL     OW32179   5.250   0.053   4.239
10427SOL    HW132180   5.207   6.999   4.292
10427SOL    HW232181   5.204   0.063   4.151
10428SOL     OW32182   2.534   0.315   3.888
10428SOL    HW132183   2.526   0.366   3.803
10428SOL    HW232184   2.449   0.264   3.904
10429SOL     OW32185   1.711   2.899   1.654
10429SOL    HW132186   1.645   2.841   1.606
10429SOL    HW232187   1.765   2.950   1.588
10430SOL     OW32188   3.004   0.259   3.372
10430SOL    HW132189   2.943   0.338   3.373
10430SOL    HW232190   2.966   0.188   3.313
10431SOL     OW32191   4.146   0.263   2.954
10431SOL    HW132192   4.175   0.332   2.888
10431SOL    HW232193   4.077   0.204   2.913
10432SOL     OW32194   0.698   5.395   6.160
10432SOL    HW132195   0.795   5.394   6.184
10432SOL    HW232196   0.644   5.410   6.243
10433SOL     OW32197   2.281   0.152   2.576
10433SOL    HW132198   2.288   0.065   2.624
10433SOL    HW232199   2.191   0.161   2.534
10434SOL     OW32200   5.401   0.604   5.473
10434SOL    HW132201   5.434   0.682   5.526
10434SOL    HW232202   5.412   0.622   5.376
10435SOL     OW32203   2.044   1.932   0.114
10435SOL    HW132204   2.105   1.951   0.037
10435SOL    HW232205   2.033   2.014   0.169
10436SOL     OW32206   6.400   3.427   5.285
10436SOL    HW132207   6.449   3.435   5.372
10436SOL    HW232208   6.324   3.492   5.283
10437SOL     OW32209   5.762   6.624   4.766
10437SOL    HW132210   5.712   6.709   4.785
10437SOL    HW232211   5.699   6.547   4.767
10438SOL     OW32212   6.799   6.082   7.011
10438SOL    HW132213   6.836   6.130   0.072
10438SOL    HW232214   6.853   6.000   6.993
10439SOL     OW32215   6.629   6.035   4.877
10439SOL    HW132216   6.677   5.947   4.874
10439SOL    HW232217   6.532   6.020   4.896
10440SOL     OW32218   6.665   2.743   0.869
10440SOL    HW132219   6.683   2.683   0.792
10440SOL    HW232220   6.567   2.766   0.871
10441SOL     OW32221   4.757   1.684   6.916
10441SOL    HW132222   4.708   1.735   6.846
10441SOL    HW232223   4.692   1.632   6.971
10442SOL     OW32224   2.025   1.965   5.313
10442SOL    HW132225   2.007   1.870   5.336
10442SOL    HW232226   2.029   2.019   5.397
10443SOL     OW32227   0.377   1.582   1.888
10443SOL    HW132228   0.424   1.564   1.802
10443SOL    HW232229   0.443   1.576   1.963
10444SOL     OW32230   3.858   4.870   4.443
10444SOL    HW132231   3.769   4.913   4.456
10444SOL    HW232232   3.875   4.856   4.345
10445SOL     OW32233   0.545   3.201   3.219
10445SOL    HW132234   0.496   3.223   3.134
10445SOL    HW232235   0.586   3.285   3.256
10446SOL     OW32236   2.260   4.539   5.485
10446SOL    HW132237   2.188   4.494   5.432
10446SOL    HW232238   2.271   4.491   5.572
10447SOL     OW32239   0.369   2.239   2.834
10447SOL    HW132240   0.419   2.256   2.919
10447SOL    HW232241   0.297   2.307   2.823
10448SOL     OW32242   2.179   6.424   2.040
10448SOL    HW132243   2.263   6.371   2.044
10448SOL    HW232244   2.132   6.407   1.954
10449SOL     OW32245   3.718   5.122   5.099
10449SOL    HW132246   3.745   5.158   5.010
10449SOL    HW232247   3.650   5.050   5.087
10450SOL     OW32248   6.630   0.358   5.792
10450SOL    HW132249   6.688   0.334   5.870
10450SOL    HW232250   6.535   0.338   5.815
10451SOL     OW32251   3.570   1.296   3.196
10451SOL    HW132252   3.543   1.203   3.170
10451SOL    HW232253   3.662   1.315   3.162
10452SOL     OW32254   6.099   3.603   4.505
10452SOL    HW132255   6.142   3.608   4.595
10452SOL    HW232256   6.155   3.546   4.445
10453SOL     OW32257   4.043   6.136   3.416
10453SOL    HW132258   4.033   6.039   3.394
10453SOL    HW232259   4.140   6.159   3.424
10454SOL     OW32260   6.744   1.556   6.206
10454SOL    HW132261   6.796   1.615   6.145
10454SOL    HW232262   6.798   1.537   6.288
10455SOL     OW32263   6.829   5.406   3.558
10455SOL    HW132264   6.760   5.336   3.573
10455SOL    HW232265   6.815   5.482   3.622
10456SOL     OW32266   1.135   5.177   6.618
10456SOL    HW132267   1.050   5.228   6.627
10456SOL    HW232268   1.182   5.204   6.533
10457SOL     OW32269   3.953   2.496   0.004
10457SOL    HW132270   3.866   2.491   6.973
10457SOL    HW232271   3.943   2.557   0.082
10458SOL     OW32272   0.178   6.014   0.137
10458SOL    HW132273   0.085   6.025   0.172
10458SOL    HW232274   0.217   6.104   0.118
10459SOL     OW32275   6.617   5.153   0.816
10459SOL    HW132276   6.700   5.109   0.851
10459SOL    HW232277   6.585   5.221   0.882
10460SOL     OW32278   0.078   1.058   1.084
10460SOL    HW132279   7.005   1.018   1.075
10460SOL    HW232280   0.069   1.156   1.104
10461SOL     OW32281   6.765   5.120   6.078
10461SOL    HW132282   6.763   5.076   5.988
10461SOL    HW232283   6.858   5.153   6.096
10462SOL     OW32284   4.494   2.220   0.100
10462SOL    HW132285   4.455   2.220   0.008
10462SOL    HW232286   4.475   2.308   0.144
10463SOL     OW32287   5.061   2.334   6.523
10463SOL    HW132288   5.057   2.347   6.622
10463SOL    HW232289   4.985   2.381   6.480
10464SOL     OW32290   6.288   5.056   2.362
10464SOL    HW132291   6.194   5.079   2.335
10464SOL    HW232292   6.286   4.975   2.421
10465SOL     OW32293   5.772   4.597   1.738
10465SOL    HW132294   5.772   4.497   1.739
10465SOL    HW232295   5.766   4.631   1.832
10466SOL     OW32296   6.512   4.456   6.055
10466SOL    HW132297   6.458   4.538   6.038
10466SOL    HW232298   6.459   4.375   6.029
10467SOL     OW32299   0.903   3.792   0.239
10467SOL    HW132300   1.000   3.773   0.249
10467SOL    HW232301   0.888   3.891   0.239
10468SOL     OW32302   1.699   4.457   3.292
10468SOL    HW132303   1.788   4.476   3.252
10468SOL    HW232304   1.628   4.474   3.223
10469SOL     OW32305   0.289   1.630   3.965
10469SOL    HW132306   0.274   1.545   4.017
10469SOL    HW232307   0.201   1.677   3.953
10470SOL     OW32308   2.003   3.109   2.623
10470SOL    HW132309   2.091   3.077   2.658
10470SOL    HW232310   1.931   3.080   2.686
10471SOL     OW32311   2.909   6.354   6.723
10471SOL    HW132312   2.875   6.351   6.817
10471SOL    HW232313   2.991   6.297   6.716
10472SOL     OW32314   3.945   4.977   6.654
10472SOL    HW132315   3.942   4.887   6.697
10472SOL    HW232316   4.023   4.983   6.592
10473SOL     OW32317   5.512   4.670   0.478
10473SOL    HW132318   5.573   4.631   0.409
10473SOL    HW232319   5.566   4.720   0.545
10474SOL     OW32320   5.715   1.203   4.645
10474SOL    HW132321   5.677   1.128   4.699
10474SOL    HW232322   5.656   1.220   4.566
10475SOL     OW32323   1.574   5.565   1.398
10475SOL    HW132324   1.620   5.613   1.323
10475SOL    HW232325   1.625   5.482   1.420
10476SOL     OW32326   4.848   6.037   0.340
10476SOL    HW132327   4.788   6.115   0.349
10476SOL    HW232328   4.859   5.992   0.429
10477SOL     OW32329   6.566   5.382   3.794
10477SOL    HW132330   6.626   5.462   3.788
10477SOL    HW232331   6.584   5.334   3.879
10478SOL     OW32332   6.406   1.756   6.871
10478SOL    HW132333   6.396   1.780   6.774
10478SOL    HW232334   6.491   1.706   6.884
10479SOL     OW32335   0.858   2.522   2.054
10479SOL    HW132336   0.932   2.473   2.008
10479SOL    HW232337   0.831   2.472   2.136
10480SOL     OW32338   2.540   6.997   2.499
10480SOL    HW132339   2.505   0.056   2.445
10480SOL    HW232340   2.489   6.914   2.474
10481SOL     OW32341   6.791   0.605   2.211
10481SOL    HW132342   6.716   0.608   2.145
10481SOL    HW232343   6.858   0.676   2.189
10482SOL     OW32344   4.915   3.426   4.190
10482SOL    HW132345   4.841   3.381   4.240
10482SOL    HW232346   4.925   3.520   4.224
10483SOL     OW32347   6.103   6.759   0.101
10483SOL    HW132348   6.047   6.706   0.037
10483SOL    HW232349   6.157   6.826   0.051
10484SOL     OW32350   6.482   1.180   2.704
10484SOL    HW132351   6.466   1.082   2.718
10484SOL    HW232352   6.580   1.199   2.706
10485SOL     OW32353   5.329   4.120   5.568
10485SOL    HW132354   5.265   4.175   5.514
10485SOL    HW232355   5.365   4.047   5.511
10486SOL     OW32356   5.127   3.014   1.957
10486SOL    HW132357   5.144   2.999   2.055
10486SOL    HW232358   5.196   3.076   1.920
10487SOL     OW32359   5.869   6.235   1.463
10487SOL    HW132360   5.845   6.146   1.501
10487SOL    HW232361   5.965   6.254   1.481
10488SOL     OW32362   2.344   2.384   6.710
10488SOL    HW132363   2.414   2.338   6.655
10488SOL    HW232364   2.269   2.414   6.651
10489SOL     OW32365   0.841   5.675   6.114
10489SOL    HW132366   0.890   5.729   6.046
10489SOL    HW232367   0.744   5.669   6.088
10490SOL     OW32368   0.119   0.371   4.009
10490SOL    HW132369   0.139   0.361   4.106
10490SOL    HW232370   0.123   0.468   3.984
10491SOL     OW32371   1.308   4.099   5.665
10491SOL    HW132372   1.318   4.031   5.593
10491SOL    HW232373   1.395   4.110   5.713
10492SOL     OW32374   4.054   3.718   5.694
10492SOL    HW132375   4.072   3.673   5.607
10492SOL    HW232376   4.070   3.653   5.769
10493SOL     OW32377   2.819   0.712   1.447
10493SOL    HW132378   2.871   0.693   1.531
10493SOL    HW232379   2.805   0.627   1.397
10494SOL     OW32380   5.592   2.384   4.492
10494SOL    HW132381   5.495   2.394   4.470
10494SOL    HW232382   5.603   2.365   4.590
10495SOL     OW32383   1.124   6.568   6.889
10495SOL    HW132384   1.110   6.615   6.802
10495SOL    HW232385   1.051   6.594   6.953
10496SOL     OW32386   0.015   0.166   5.711
10496SOL    HW132387   6.987   0.214   5.637
10496SOL    HW232388   7.015   0.068   5.704
10497SOL     OW32389   1.498   1.055   1.366
10497SOL    HW132390   1.510   1.148   1.400
10497SOL    HW232391   1.559   0.994   1.416
10498SOL     OW32392   3.111   5.511   6.183
10498SOL    HW132393   3.101   5.602   6.142
10498SOL    HW232394   3.120   5.521   6.282
10499SOL     OW32395   3.598   5.516   2.893
10499SOL    HW132396   3.551   5.601   2.870
10499SOL    HW232397   3.690   5.517   2.852
10500SOL     OW32398   1.581   2.231   6.273
10500SOL    HW132399   1.527   2.290   6.333
10500SOL    HW232400   1.527   2.206   6.193
10501SOL     OW32401   1.848   3.250   3.107
10501SOL    HW132402   1.764   3.225   3.058
10501SOL    HW232403   1.825   3.279   3.200
10502SOL     OW32404   3.397   5.972   6.384
10502SOL    HW132405   3.373   5.956   6.479
10502SOL    HW232406   3.418   6.069   6.370
10503SOL     OW32407   2.881   3.491   6.018
10503SOL    HW132408   2.957   3.503   6.082
10503SOL    HW232409   2.832   3.406   6.040
10504SOL     OW32410   3.131   3.270   0.555
10504SOL    HW132411   3.048   3.299   0.603
10504SOL    HW232412   3.183   3.350   0.527
10505SOL     OW32413   6.699   6.259   1.491
10505SOL    HW132414   6.734   6.226   1.579
10505SOL    HW232415   6.736   6.203   1.417
10506SOL     OW32416   0.504   4.322   5.185
10506SOL    HW132417   0.440   4.367   5.249
10506SOL    HW232418   0.568   4.390   5.150
10507SOL     OW32419   1.197   0.594   5.651
10507SOL    HW132420   1.142   0.527   5.702
10507SOL    HW232421   1.269   0.546   5.601
10508SOL     OW32422   4.878   4.302   2.740
10508SOL    HW132423   4.832   4.389   2.723
10508SOL    HW232424   4.815   4.240   2.786
10509SOL     OW32425   1.748   0.513   6.187
10509SOL    HW132426   1.823   0.473   6.241
10509SOL    HW232427   1.785   0.584   6.127
10510SOL     OW32428   6.943   5.948   0.263
10510SOL    HW132429   6.960   5.866   0.208
10510SOL    HW232430   6.890   5.923   0.344
10511SOL     OW32431   4.742   3.320   0.416
10511SOL    HW132432   4.713   3.244   0.475
10511SOL    HW232433   4.757   3.286   0.323
10512SOL     OW32434   3.745   6.580   6.378
10512SOL    HW132435   3.785   6.672   6.377
10512SOL    HW232436   3.654   6.583   6.418
10513SOL     OW32437   6.821   2.298   0.349
10513SOL    HW132438   6.887   2.257   0.285
10513SOL    HW232439   6.805   2.393   0.324
10514SOL     OW32440   0.246   4.844   1.351
10514SOL    HW132441   0.146   4.846   1.341
10514SOL    HW232442   0.281   4.755   1.324
10515SOL     OW32443   6.714   2.329   4.114
10515SOL    HW132444   6.640   2.307   4.050
10515SOL    HW232445   6.729   2.428   4.116
10516SOL     OW32446   4.110   0.868   6.356
10516SOL    HW132447   4.058   0.806   6.297
10516SOL    HW232448   4.185   0.908   6.304
10517SOL     OW32449   6.900   1.887   2.680
10517SOL    HW132450   6.842   1.840   2.746
10517SOL    HW232451   6.956   1.956   2.727
10518SOL     OW32452   1.024   6.763   1.209
10518SOL    HW132453   0.974   6.677   1.196
10518SOL    HW232454   0.963   6.840   1.188
10519SOL     OW32455   2.762   3.654   5.284
10519SOL    HW132456   2.777   3.622   5.190
10519SOL    HW232457   2.673   3.700   5.289
10520SOL     OW32458   4.196   2.809   6.697
10520SOL    HW132459   4.189   2.853   6.608
10520SOL    HW232460   4.218   2.713   6.685
10521SOL     OW32461   6.726   5.786   1.496
10521SOL    HW132462   6.756   5.719   1.428
10521SOL    HW232463   6.667   5.741   1.563
10522SOL     OW32464   6.261   0.651   2.132
10522SOL    HW132465   6.222   0.573   2.181
10522SOL    HW232466   6.194   0.726   2.132
10523SOL     OW32467   0.360   5.595   6.611
10523SOL    HW132468   0.399   5.527   6.673
10523SOL    HW232469   0.322   5.670   6.665
10524SOL     OW32470   3.427   0.894   4.128
10524SOL    HW132471   3.404   0.911   4.223
10524SOL    HW232472   3.525   0.911   4.114
10525SOL     OW32473   2.835   6.011   4.444
10525SOL    HW132474   2.776   6.059   4.509
10525SOL    HW232475   2.782   5.944   4.393
10526SOL     OW32476   6.286   0.131   2.341
10526SOL    HW132477   6.302   0.065   2.414
10526SOL    HW232478   6.309   0.223   2.374
10527SOL     OW32479   0.999   2.373   4.712
10527SOL    HW132480   0.910   2.405   4.678
10527SOL    HW232481   1.024   2.288   4.666
10528SOL     OW32482   6.922   4.840   4.530
10528SOL    HW132483   6.914   4.813   4.626
10528SOL    HW232484   0.000   4.838   4.503
10529SOL     OW32485   6.943   6.684   3.878
10529SOL    HW132486   6.892   6.728   3.804
10529SOL    HW232487   7.016   6.744   3.909
10530SOL     OW32488   2.188   1.339   6.162
10530SOL    HW132489   2.183   1.439   6.170
10530SOL    HW232490   2.166   1.312   6.069
10531SOL     OW32491   2.041   2.719   5.168
10531SOL    HW132492   2.033   2.620   5.178
10531SOL    HW232493   1.958   2.763   5.204
10532SOL     OW32494   3.731   2.444   5.727
10532SOL    HW132495   3.734   2.357   5.775
10532SOL    HW232496   3.636   2.476   5.723
10533SOL     OW32497   2.472   1.087   6.259
10533SOL    HW132498   2.440   1.181   6.270
10533SOL    HW232499   2.561   1.087   6.215
10534SOL     OW32500   6.737   5.565   1.317
10534SOL    HW132501   6.776   5.606   1.234
10534SOL    HW232502   6.651   5.520   1.294
10535SOL     OW32503   0.382   0.916   2.187
10535SOL    HW132504   0.373   0.816   2.184
10535SOL    HW232505   0.417   0.943   2.276
10536SOL     OW32506   4.386   0.170   3.308
10536SOL    HW132507   4.309   0.227   3.279
10536SOL    HW232508   4.463   0.228   3.334
10537SOL     OW32509   0.862   4.352   1.585
10537SOL    HW132510   0.839   4.433   1.639
10537SOL    HW232511   0.779   4.310   1.550
10538SOL     OW32512   4.521   3.809   0.519
10538SOL    HW132513   4.541   3.711   0.523
10538SOL    HW232514   4.456   3.826   0.445
10539SOL     OW32515   0.451   3.337   5.896
10539SOL    HW132516   0.407   3.411   5.947
10539SOL    HW232517   0.383   3.288   5.843
10540SOL     OW32518   2.785   0.458   6.818
10540SOL    HW132519   2.755   0.430   6.909
10540SOL    HW232520   2.781   0.558   6.811
10541SOL     OW32521   3.741   2.547   0.262
10541SOL    HW132522   3.741   2.451   0.291
10541SOL    HW232523   3.647   2.573   0.238
10542SOL     OW32524   0.565   2.721   0.413
10542SOL    HW132525   0.504   2.690   0.341
10542SOL    HW232526   0.651   2.752   0.373
10543SOL     OW32527   1.662   1.066   5.866
10543SOL    HW132528   1.563   1.069   5.880
10543SOL    HW232529   1.689   1.146   5.811
10544SOL     OW32530   1.043   2.441   1.821
10544SOL    HW132531   1.026   2.401   1.731
10544SOL    HW232532   1.092   2.375   1.879
10545SOL     OW32533   6.279   0.373   2.486
10545SOL    HW132534   6.272   0.294   2.547
10545SOL    HW232535   6.248   0.455   2.534
10546SOL     OW32536   3.173   0.582   3.885
10546SOL    HW132537   3.130   0.640   3.816
10546SOL    HW232538   3.239   0.635   3.938
10547SOL     OW32539   4.152   1.760   0.891
10547SOL    HW132540   4.225   1.738   0.826
10547SOL    HW232541   4.192   1.777   0.981
10548SOL     OW32542   5.335   3.916   5.240
10548SOL    HW132543   5.401   3.881   5.306
10548SOL    HW232544   5.245   3.922   5.283
10549SOL     OW32545   1.052   1.122   1.851
10549SOL    HW132546   1.044   1.075   1.938
10549SOL    HW232547   1.123   1.077   1.795
10550SOL     OW32548   4.859   6.931   4.183
10550SOL    HW132549   4.918   7.001   4.141
10550SOL    HW232550   4.871   6.934   4.282
10551SOL     OW32551   1.086   2.680   5.965
10551SOL    HW132552   1.040   2.600   6.002
10551SOL    HW232553   1.185   2.672   5.979
10552SOL     OW32554   3.405   2.327   5.292
10552SOL    HW132555   3.422   2.230   5.277
10552SOL    HW232556   3.317   2.352   5.252
10553SOL     OW32557   2.403   5.403   6.942
10553SOL    HW132558   2.315   5.411   6.895
10553SOL    HW232559   2.463   5.343   6.889
10554SOL     OW32560   6.672   4.623   6.321
10554SOL    HW132561   6.662   4.561   6.242
10554SOL    HW232562   6.618   4.588   6.397
10555SOL     OW32563   3.209   1.936   0.981
10555SOL    HW132564   3.178   1.844   1.004
10555SOL    HW232565   3.146   2.003   1.021
10556SOL     OW32566   2.099   3.224   4.704
10556SOL    HW132567   2.110   3.290   4.779
10556SOL    HW232568   2.144   3.138   4.729
10557SOL     OW32569   6.826   2.599   3.854
10557SOL    HW132570   6.740   2.568   3.814
10557SOL    HW232571   6.817   2.602   3.954
10558SOL     OW32572   5.073   6.339   5.303
10558SOL    HW132573   5.150   6.288   5.341
10558SOL    HW232574   5.088   6.354   5.205
10559SOL     OW32575   4.459   2.210   0.500
10559SOL    HW132576   4.388   2.229   0.432
10559SOL    HW232577   4.546   2.248   0.469
10560SOL     OW32578   1.353   2.923   4.178
10560SOL    HW132579   1.375   2.851   4.113
10560SOL    HW232580   1.297   2.886   4.252
10561SOL     OW32581   2.325   4.331   0.049
10561SOL    HW132582   2.281   4.335   6.978
10561SOL    HW232583   2.344   4.236   0.073
10562SOL     OW32584   3.657   0.788   0.393
10562SOL    HW132585   3.674   0.823   0.485
10562SOL    HW232586   3.695   0.696   0.386
10563SOL     OW32587   1.611   1.685   5.083
10563SOL    HW132588   1.697   1.646   5.117
10563SOL    HW232589   1.540   1.614   5.084
10564SOL     OW32590   5.806   2.025   1.953
10564SOL    HW132591   5.901   2.047   1.974
10564SOL    HW232592   5.752   2.109   1.950
10565SOL     OW32593   5.199   1.865   4.698
10565SOL    HW132594   5.292   1.887   4.670
10565SOL    HW232595   5.184   1.894   4.793
10566SOL     OW32596   3.784   4.487   6.100
10566SOL    HW132597   3.810   4.405   6.150
10566SOL    HW232598   3.793   4.567   6.159
10567SOL     OW32599   1.893   4.257   4.152
10567SOL    HW132600   1.990   4.281   4.142
10567SOL    HW232601   1.862   4.211   4.069
10568SOL     OW32602   4.725   1.168   3.523
10568SOL    HW132603   4.704   1.184   3.619
10568SOL    HW232604   4.760   1.253   3.482
10569SOL     OW32605   6.000   2.964   4.241
10569SOL    HW132606   5.940   2.995   4.315
10569SOL    HW232607   6.088   3.011   4.248
10570SOL     OW32608   1.599   4.936   2.271
10570SOL    HW132609   1.696   4.934   2.250
10570SOL    HW232610   1.550   4.983   2.197
10571SOL     OW32611   6.515   6.695   3.787
10571SOL    HW132612   6.441   6.660   3.845
10571SOL    HW232613   6.572   6.757   3.840
10572SOL     OW32614   6.266   3.630   2.273
10572SOL    HW132615   6.270   3.532   2.290
10572SOL    HW232616   6.173   3.656   2.247
10573SOL     OW32617   5.956   5.376   5.390
10573SOL    HW132618   5.872   5.430   5.386
10573SOL    HW232619   6.025   5.418   5.332
10574SOL     OW32620   0.520   1.635   3.050
10574SOL    HW132621   0.472   1.704   2.995
10574SOL    HW232622   0.606   1.673   3.084
10575SOL     OW32623   1.251   0.067   5.372
10575SOL    HW132624   1.330   0.012   5.347
10575SOL    HW232625   1.171   0.037   5.321
10576SOL     OW32626   1.531   5.113   3.869
10576SOL    HW132627   1.521   5.131   3.772
10576SOL    HW232628   1.560   5.018   3.883
10577SOL     OW32629   1.647   2.343   5.834
10577SOL    HW132630   1.746   2.352   5.839
10577SOL    HW232631   1.606   2.433   5.815
10578SOL     OW32632   6.345   0.735   5.954
10578SOL    HW132633   6.395   0.653   5.982
10578SOL    HW232634   6.409   0.811   5.940
10579SOL     OW32635   4.464   1.761   0.371
10579SOL    HW132636   4.416   1.680   0.405
10579SOL    HW232637   4.449   1.771   0.273
10580SOL     OW32638   6.410   6.170   6.686
10580SOL    HW132639   6.392   6.241   6.754
10580SOL    HW232640   6.447   6.089   6.732
10581SOL     OW32641   5.234   1.013   3.733
10581SOL    HW132642   5.231   0.936   3.669
10581SOL    HW232643   5.142   1.035   3.764
10582SOL     OW32644   3.556   4.840   6.571
10582SOL    HW132645   3.628   4.901   6.537
10582SOL    HW232646   3.484   4.895   6.614
10583SOL     OW32647   4.298   1.503   0.368
10583SOL    HW132648   4.342   1.425   0.323
10583SOL    HW232649   4.202   1.507   0.340
10584SOL     OW32650   5.713   0.099   1.766
10584SOL    HW132651   5.715   0.183   1.712
10584SOL    HW232652   5.804   0.080   1.802
10585SOL     OW32653   1.535   3.228   6.398
10585SOL    HW132654   1.632   3.250   6.389
10585SOL    HW232655   1.524   3.146   6.453
10586SOL     OW32656   3.659   0.630   6.832
10586SOL    HW132657   3.742   0.644   6.886
10586SOL    HW232658   3.682   0.578   6.750
10587SOL     OW32659   6.116   4.170   0.899
10587SOL    HW132660   6.149   4.254   0.855
10587SOL    HW232661   6.022   4.154   0.872
10588SOL     OW32662   0.293   5.474   2.989
10588SOL    HW132663   0.346   5.483   3.074
10588SOL    HW232664   0.211   5.531   2.994
10589SOL     OW32665   6.080   2.107   3.962
10589SOL    HW132666   6.062   2.204   3.944
10589SOL    HW232667   6.107   2.095   4.057
10590SOL     OW32668   1.307   0.793   4.053
10590SOL    HW132669   1.214   0.782   4.089
10590SOL    HW232670   1.316   0.739   3.969
10591SOL     OW32671   1.297   3.035   0.746
10591SOL    HW132672   1.229   3.000   0.683
10591SOL    HW232673   1.282   2.996   0.837
10592SOL     OW32674   6.672   1.633   6.873
10592SOL    HW132675   6.717   1.544   6.885
10592SOL    HW232676   6.736   1.706   6.897
10593SOL     OW32677   1.792   4.583   1.015
10593SOL    HW132678   1.715   4.560   1.074
10593SOL    HW232679   1.759   4.600   0.922
10594SOL     OW32680   0.009   1.688   4.146
10594SOL    HW132681   6.964   1.630   4.095
10594SOL    HW232682   6.983   1.774   4.168
10595SOL     OW32683   3.661   6.218   6.304
10595SOL    HW132684   3.732   6.285   6.284
10595SOL    HW232685   3.698   6.147   6.364
10596SOL     OW32686   3.973   0.854   2.003
10596SOL    HW132687   3.874   0.853   1.996
10596SOL    HW232688   4.003   0.942   2.040
10597SOL     OW32689   1.948   0.361   4.987
10597SOL    HW132690   2.042   0.352   5.020
10597SOL    HW232691   1.884   0.354   5.064
10598SOL     OW32692   1.812   2.482   6.904
10598SOL    HW132693   1.760   2.398   6.892
10598SOL    HW232694   1.790   2.523   6.992
10599SOL     OW32695   5.607   1.586   7.004
10599SOL    HW132696   5.569   1.628   0.068
10599SOL    HW232697   5.663   1.507   0.011
10600SOL     OW32698   2.471   3.025   6.015
10600SOL    HW132699   2.384   3.010   5.966
10600SOL    HW232700   2.517   3.105   5.976
10601SOL     OW32701   3.349   6.262   6.131
10601SOL    HW132702   3.439   6.232   6.162
10601SOL    HW232703   3.325   6.215   6.046
10602SOL     OW32704   4.900   1.039   2.255
10602SOL    HW132705   4.935   1.074   2.342
10602SOL    HW232706   4.830   0.971   2.273
10603SOL     OW32707   1.646   5.299   4.497
10603SOL    HW132708   1.727   5.347   4.531
10603SOL    HW232709   1.612   5.237   4.568
10604SOL     OW32710   6.795   4.356   4.948
10604SOL    HW132711   6.883   4.396   4.972
10604SOL    HW232712   6.724   4.391   5.010
10605SOL     OW32713   1.558   4.823   6.506
10605SOL    HW132714   1.638   4.770   6.535
10605SOL    HW232715   1.587   4.915   6.478
10606SOL     OW32716   0.791   0.408   1.904
10606SOL    HW132717   0.824   0.469   1.975
10606SOL    HW232718   0.716   0.451   1.855
10607SOL     OW32719   5.638   4.877   6.945
10607SOL    HW132720   5.568   4.908   6.881
10607SOL    HW232721   5.608   4.895   0.021
10608SOL     OW32722   6.096   1.600   3.546
10608SOL    HW132723   6.159   1.561   3.613
10608SOL    HW232724   6.121   1.695   3.528
10609SOL     OW32725   3.992   6.504   1.353
10609SOL    HW132726   3.915   6.566   1.338
10609SOL    HW232727   4.067   6.528   1.291
10610SOL     OW32728   1.676   2.616   5.797
10610SOL    HW132729   1.657   2.714   5.795
10610SOL    HW232730   1.736   2.592   5.721
10611SOL     OW32731   5.636   2.820   5.833
10611SOL    HW132732   5.681   2.779   5.912
10611SOL    HW232733   5.557   2.765   5.807
10612SOL     OW32734   2.109   6.941   0.388
10612SOL    HW132735   2.070   6.900   0.306
10612SOL    HW232736   2.207   6.920   0.393
10613SOL     OW32737   0.235   6.210   5.842
10613SOL    HW132738   0.310   6.241   5.783
10613SOL    HW232739   0.195   6.127   5.805
10614SOL     OW32740   6.847   0.966   4.216
10614SOL    HW132741   6.840   0.994   4.312
10614SOL    HW232742   6.944   0.957   4.192
10615SOL     OW32743   5.381   5.273   5.324
10615SOL    HW132744   5.471   5.270   5.366
10615SOL    HW232745   5.367   5.192   5.268
10616SOL     OW32746   2.830   5.339   0.440
10616SOL    HW132747   2.732   5.329   0.421
10616SOL    HW232748   2.880   5.349   0.353
10617SOL     OW32749   1.359   2.270   6.934
10617SOL    HW132750   1.345   2.205   7.009
10617SOL    HW232751   1.298   2.348   6.946
10618SOL     OW32752   6.046   3.644   0.758
10618SOL    HW132753   6.130   3.590   0.756
10618SOL    HW232754   5.967   3.584   0.740
10619SOL     OW32755   1.415   4.182   3.900
10619SOL    HW132756   1.357   4.263   3.914
10619SOL    HW232757   1.358   4.100   3.905
10620SOL     OW32758   1.429   5.713   4.658
10620SOL    HW132759   1.351   5.754   4.611
10620SOL    HW232760   1.453   5.626   4.613
10621SOL     OW32761   2.563   6.140   1.272
10621SOL    HW132762   2.614   6.074   1.327
10621SOL    HW232763   2.615   6.224   1.263
10622SOL     OW32764   3.873   0.830   1.160
10622SOL    HW132765   3.942   0.879   1.106
10622SOL    HW232766   3.843   0.889   1.235
10623SOL     OW32767   6.507   1.838   3.927
10623SOL    HW132768   6.410   1.837   3.953
10623SOL    HW232769   6.525   1.767   3.859
10624SOL     OW32770   2.062   0.672   4.046
10624SOL    HW132771   1.985   0.715   4.092
10624SOL    HW232772   2.057   0.689   3.948
10625SOL     OW32773   0.037   3.394   0.010
10625SOL    HW132774   0.099   3.347   6.966
10625SOL    HW232775   0.065   3.489   0.021
10626SOL     OW32776   0.514   2.477   1.353
10626SOL    HW132777   0.493   2.403   1.417
10626SOL    HW232778   0.543   2.438   1.266
10627SOL     OW32779   6.142   6.068   3.699
10627SOL    HW132780   6.092   6.112   3.774
10627SOL    HW232781   6.240   6.088   3.707
10628SOL     OW32782   5.845   5.994   5.946
10628SOL    HW132783   5.784   5.975   6.023
10628SOL    HW232784   5.805   5.958   5.862
10629SOL     OW32785   2.950   5.311   6.078
10629SOL    HW132786   2.898   5.369   6.016
10629SOL    HW232787   3.019   5.366   6.125
10630SOL     OW32788   7.007   1.457   3.375
10630SOL    HW132789   6.958   1.395   3.436
10630SOL    HW232790   7.015   1.547   3.418
10631SOL     OW32791   0.853   6.627   3.964
10631SOL    HW132792   0.934   6.617   4.022
10631SOL    HW232793   0.772   6.594   4.014
10632SOL     OW32794   0.418   2.304   5.451
10632SOL    HW132795   0.472   2.362   5.389
10632SOL    HW232796   0.321   2.328   5.444
10633SOL     OW32797   1.029   4.978   1.418
10633SOL    HW132798   1.048   4.888   1.458
10633SOL    HW232799   0.947   5.016   1.459
10634SOL     OW32800   3.025   6.362   1.679
10634SOL    HW132801   3.119   6.392   1.691
10634SOL    HW232802   2.973   6.433   1.632
10635SOL     OW32803   2.626   1.630   1.006
10635SOL    HW132804   2.639   1.727   1.024
10635SOL    HW232805   2.699   1.597   0.946
10636SOL     OW32806   0.708   2.528   1.660
10636SOL    HW132807   0.717   2.624   1.684
10636SOL    HW232808   0.769   2.507   1.583
10637SOL     OW32809   3.568   4.437   5.294
10637SOL    HW132810   3.534   4.528   5.318
10637SOL    HW232811   3.537   4.371   5.362
10638SOL     OW32812   0.198   0.237   5.369
10638SOL    HW132813   0.250   0.287   5.438
10638SOL    HW232814   0.181   0.298   5.291
10639SOL     OW32815   2.427   0.491   4.281
10639SOL    HW132816   2.493   0.455   4.215
10639SOL    HW232817   2.455   0.582   4.310
10640SOL     OW32818   4.088   0.149   0.070
10640SOL    HW132819   4.063   0.081   0.002
10640SOL    HW232820   4.099   0.239   0.027
10641SOL     OW32821   5.418   1.527   6.790
10641SOL    HW132822   5.494   1.499   6.732
10641SOL    HW232823   5.451   1.593   6.858
10642SOL     OW32824   6.989   2.839   1.461
10642SOL    HW132825   0.056   2.834   1.409
10642SOL    HW232826   6.925   2.771   1.425
10643SOL     OW32827   3.101   3.111   5.910
10643SOL    HW132828   3.004   3.093   5.893
10643SOL    HW232829   3.122   3.205   5.883
10644SOL     OW32830   4.142   1.450   5.107
10644SOL    HW132831   4.045   1.434   5.123
10644SOL    HW232832   4.188   1.465   5.194
10645SOL     OW32833   2.552   1.079   5.124
10645SOL    HW132834   2.503   1.088   5.038
10645SOL    HW232835   2.526   0.994   5.169
10646SOL     OW32836   0.468   3.723   6.795
10646SOL    HW132837   0.517   3.782   6.730
10646SOL    HW232838   0.533   3.686   6.862
10647SOL     OW32839   0.289   5.242   1.202
10647SOL    HW132840   0.260   5.276   1.291
10647SOL    HW232841   0.334   5.315   1.151
10648SOL     OW32842   4.670   3.286   6.351
10648SOL    HW132843   4.759   3.293   6.396
10648SOL    HW232844   4.598   3.281   6.420
10649SOL     OW32845   0.243   4.766   5.918
10649SOL    HW132846   0.183   4.841   5.948
10649SOL    HW232847   0.237   4.691   5.984
10650SOL     OW32848   3.254   6.709   3.550
10650SOL    HW132849   3.234   6.688   3.646
10650SOL    HW232850   3.327   6.778   3.546
10651SOL     OW32851   4.128   6.468   6.275
10651SOL    HW132852   4.203   6.446   6.213
10651SOL    HW232853   4.165   6.504   6.361
10652SOL     OW32854   3.233   0.826   6.684
10652SOL    HW132855   3.283   0.770   6.619
10652SOL    HW232856   3.237   0.784   6.775
10653SOL     OW32857   5.215   3.635   4.218
10653SOL    HW132858   5.233   3.603   4.125
10653SOL    HW232859   5.299   3.629   4.272
10654SOL     OW32860   4.027   0.262   0.540
10654SOL    HW132861   3.950   0.225   0.593
10654SOL    HW232862   4.027   0.361   0.547
10655SOL     OW32863   2.849   5.677   1.712
10655SOL    HW132864   2.889   5.586   1.706
10655SOL    HW232865   2.880   5.722   1.796
10656SOL     OW32866   6.994   2.984   6.910
10656SOL    HW132867   6.969   2.914   6.843
10656SOL    HW232868   0.004   2.940   6.995
10657SOL     OW32869   5.957   0.690   1.127
10657SOL    HW132870   5.860   0.713   1.139
10657SOL    HW232871   6.013   0.770   1.147
10658SOL     OW32872   0.109   5.492   5.216
10658SOL    HW132873   0.063   5.537   5.293
10658SOL    HW232874   0.131   5.560   5.146
10659SOL     OW32875   5.554   0.738   0.456
10659SOL    HW132876   5.561   0.721   0.554
10659SOL    HW232877   5.633   0.791   0.425
10660SOL     OW32878   4.824   5.055   5.612
10660SOL    HW132879   4.735   5.044   5.656
10660SOL    HW232880   4.897   5.049   5.680
10661SOL     OW32881   0.387   0.209   2.730
10661SOL    HW132882   0.360   0.216   2.634
10661SOL    HW232883   0.481   0.241   2.741
10662SOL     OW32884   5.906   1.468   0.771
10662SOL    HW132885   5.964   1.538   0.728
10662SOL    HW232886   5.941   1.377   0.749
10663SOL     OW32887   6.942   0.599   0.443
10663SOL    HW132888   6.969   0.516   0.492
10663SOL    HW232889   6.911   0.668   0.508
10664SOL     OW32890   1.971   4.713   6.562
10664SOL    HW132891   2.017   4.628   6.536
10664SOL    HW232892   1.962   4.772   6.482
10665SOL     OW32893   6.543   1.069   0.223
10665SOL    HW132894   6.448   1.056   0.193
10665SOL    HW232895   6.558   1.020   0.309
10666SOL     OW32896   1.426   6.700   0.229
10666SOL    HW132897   1.467   6.614   0.262
10666SOL    HW232898   1.413   6.695   0.130
10667SOL     OW32899   3.468   1.651   5.098
10667SOL    HW132900   3.529   1.684   5.026
10667SOL    HW232901   3.514   1.577   5.148
10668SOL     OW32902   2.084   1.033   5.647
10668SOL    HW132903   2.157   1.100   5.661
10668SOL    HW232904   2.070   1.019   5.549
10669SOL     OW32905   0.937   6.572   6.573
10669SOL    HW132906   0.888   6.618   6.499
10669SOL    HW232907   0.935   6.629   6.655
10670SOL     OW32908   6.775   4.595   5.828
10670SOL    HW132909   6.722   4.541   5.763
10670SOL    HW232910   6.872   4.585   5.808
10671SOL     OW32911   1.845   1.449   3.348
10671SOL    HW132912   1.838   1.528   3.288
10671SOL    HW232913   1.933   1.450   3.395
10672SOL     OW32914   6.714   2.974   0.337
10672SOL    HW132915   6.807   2.994   0.366
10672SOL    HW232916   6.658   2.951   0.417
10673SOL     OW32917   2.843   3.480   5.063
10673SOL    HW132918   2.779   3.409   5.092
10673SOL    HW232919   2.895   3.447   4.984
10674SOL     OW32920   3.827   2.115   2.362
10674SOL    HW132921   3.865   2.026   2.339
10674SOL    HW232922   3.786   2.156   2.281
10675SOL     OW32923   0.582   0.343   6.125
10675SOL    HW132924   0.642   0.405   6.175
10675SOL    HW232925   0.491   0.345   6.165
10676SOL     OW32926   6.982   0.551   6.708
10676SOL    HW132927   0.007   0.497   6.636
10676SOL    HW232928   6.963   0.492   6.787
10677SOL     OW32929   0.117   0.840   0.344
10677SOL    HW132930   0.194   0.898   0.370
10677SOL    HW232931   0.034   0.873   0.389
10678SOL     OW32932   2.501   6.477   3.468
10678SOL    HW132933   2.437   6.547   3.437
10678SOL    HW232934   2.568   6.517   3.530
10679SOL     OW32935   6.021   4.749   4.020
10679SOL    HW132936   5.924   4.773   4.012
10679SOL    HW232937   6.073   4.829   4.049
10680SOL     OW32938   1.653   2.254   3.478
10680SOL    HW132939   1.572   2.267   3.422
10680SOL    HW232940   1.629   2.200   3.559
10681SOL     OW32941   0.422   1.270   5.713
10681SOL    HW132942   0.369   1.225   5.640
10681SOL    HW232943   0.426   1.209   5.793
10682SOL     OW32944   6.609   1.888   3.162
10682SOL    HW132945   6.551   1.962   3.126
10682SOL    HW232946   6.701   1.896   3.124
10683SOL     OW32947   1.703   1.603   4.806
10683SOL    HW132948   1.700   1.582   4.904
10683SOL    HW232949   1.654   1.688   4.789
10684SOL     OW32950   5.631   5.945   0.609
10684SOL    HW132951   5.700   5.992   0.666
10684SOL    HW232952   5.677   5.879   0.549
10685SOL     OW32953   0.300   2.518   1.852
10685SOL    HW132954   0.277   2.605   1.809
10685SOL    HW232955   0.400   2.505   1.850
10686SOL     OW32956   3.632   4.544   0.525
10686SOL    HW132957   3.584   4.558   0.438
10686SOL    HW232958   3.597   4.609   0.593
10687SOL     OW32959   0.751   5.068   1.929
10687SOL    HW132960   0.734   5.128   2.007
10687SOL    HW232961   0.775   4.977   1.961
10688SOL     OW32962   6.626   5.625   2.032
10688SOL    HW132963   6.707   5.569   2.013
10688SOL    HW232964   6.629   5.658   2.126
10689SOL     OW32965   0.244   0.839   1.783
10689SOL    HW132966   0.165   0.828   1.723
10689SOL    HW232967   0.316   0.888   1.735
10690SOL     OW32968   4.478   5.663   1.709
10690SOL    HW132969   4.504   5.644   1.803
10690SOL    HW232970   4.389   5.622   1.690
10691SOL     OW32971   6.530   1.397   1.377
10691SOL    HW132972   6.559   1.318   1.432
10691SOL    HW232973   6.539   1.480   1.431
10692SOL     OW32974   4.743   6.192   4.104
10692SOL    HW132975   4.652   6.233   4.105
10692SOL    HW232976   4.783   6.198   4.196
10693SOL     OW32977   6.063   2.052   2.082
10693SOL    HW132978   5.991   2.038   2.150
10693SOL    HW232979   6.149   2.071   2.128
10694SOL     OW32980   3.603   6.180   0.675
10694SOL    HW132981   3.602   6.105   0.609
10694SOL    HW232982   3.624   6.145   0.766
10695SOL     OW32983   6.179   3.252   4.498
10695SOL    HW132984   6.253   3.316   4.519
10695SOL    HW232985   6.139   3.219   4.583
10696SOL     OW32986   6.000   6.941   0.867
10696SOL    HW132987   6.011   6.863   0.930
10696SOL    HW232988   5.983   6.907   0.775
10697SOL     OW32989   2.398   6.088   3.270
10697SOL    HW132990   2.483   6.044   3.299
10697SOL    HW232991   2.324   6.021   3.267
10698SOL     OW32992   3.084   0.550   2.929
10698SOL    HW132993   2.985   0.558   2.916
10698SOL    HW232994   3.111   0.600   3.011
10699SOL     OW32995   1.690   2.128   2.373
10699SOL    HW132996   1.595   2.110   2.349
10699SOL    HW232997   1.708   2.093   2.466
10700SOL     OW32998   6.418   0.789   1.399
10700SOL    HW132999   6.348   0.860   1.392
10700SOL    HW233000   6.403   0.721   1.327
10701SOL     OW33001   3.400   6.417   0.691
10701SOL    HW133002   3.480   6.356   0.697
10701SOL    HW233003   3.431   6.512   0.685
10702SOL     OW33004   6.177   3.011   1.239
10702SOL    HW133005   6.254   2.949   1.253
10702SOL    HW233006   6.211   3.099   1.206
10703SOL     OW33007   3.975   3.124   3.680
10703SOL    HW133008   4.028   3.207   3.664
10703SOL    HW233009   3.893   3.147   3.732
10704SOL     OW33010   5.581   6.611   2.049
10704SOL    HW133011   5.600   6.525   2.096
10704SOL    HW233012   5.600   6.601   1.951
10705SOL     OW33013   0.748   2.390   6.642
10705SOL    HW133014   0.840   2.387   6.681
10705SOL    HW233015   0.680   2.386   6.716
10706SOL     OW33016   3.774   1.124   2.185
10706SOL    HW133017   3.873   1.134   2.174
10706SOL    HW233018   3.753   1.037   2.229
10707SOL     OW33019   6.501   6.733   6.014
10707SOL    HW133020   6.529   6.790   5.937
10707SOL    HW233021   6.435   6.782   6.071
10708SOL     OW33022   4.107   0.948   1.390
10708SOL    HW133023   4.041   1.023   1.383
10708SOL    HW233024   4.146   0.930   1.300
10709SOL     OW33025   0.720   6.507   5.968
10709SOL    HW133026   0.765   6.584   5.922
10709SOL    HW233027   0.755   6.498   6.061
10710SOL     OW33028   6.187   5.850   3.036
10710SOL    HW133029   6.231   5.815   3.119
10710SOL    HW233030   6.250   5.841   2.959
10711SOL     OW33031   1.980   5.852   5.246
10711SOL    HW133032   1.966   5.911   5.326
10711SOL    HW233033   2.062   5.883   5.197
10712SOL     OW33034   4.421   1.060   5.354
10712SOL    HW133035   4.455   1.090   5.443
10712SOL    HW233036   4.350   1.123   5.322
10713SOL     OW33037   1.391   6.292   1.242
10713SOL    HW133038   1.415   6.219   1.178
10713SOL    HW233039   1.455   6.368   1.232
10714SOL     OW33040   6.877   5.417   5.526
10714SOL    HW133041   6.819   5.339   5.548
10714SOL    HW233042   6.820   5.495   5.500
10715SOL     OW33043   6.010   1.655   3.821
10715SOL    HW133044   6.053   1.610   3.743
10715SOL    HW233045   6.018   1.597   3.902
10716SOL     OW33046   6.559   0.795   3.057
10716SOL    HW133047   6.522   0.767   3.146
10716SOL    HW233048   6.628   0.729   3.027
10717SOL     OW33049   6.561   6.670   1.603
10717SOL    HW133050   6.586   6.630   1.690
10717SOL    HW233051   6.462   6.685   1.600
10718SOL     OW33052   0.898   3.886   6.076
10718SOL    HW133053   0.897   3.811   6.010
10718SOL    HW233054   0.955   3.961   6.042
10719SOL     OW33055   3.903   0.847   2.465
10719SOL    HW133056   3.979   0.812   2.410
10719SOL    HW233057   3.931   0.933   2.507
10720SOL     OW33058   0.714   3.261   0.102
10720SOL    HW133059   0.620   3.272   0.131
10720SOL    HW233060   0.768   3.221   0.177
10721SOL     OW33061   4.787   2.891   3.889
10721SOL    HW133062   4.863   2.887   3.824
10721SOL    HW233063   4.743   2.802   3.894
10722SOL     OW33064   0.061   4.393   0.844
10722SOL    HW133065   0.119   4.353   0.915
10722SOL    HW233066   6.984   4.396   0.877
10723SOL     OW33067   6.155   4.508   6.922
10723SOL    HW133068   6.116   4.450   6.992
10723SOL    HW233069   6.116   4.600   6.928
10724SOL     OW33070   3.954   6.973   5.225
10724SOL    HW133071   4.002   0.029   5.178
10724SOL    HW233072   3.990   6.963   5.318
10725SOL     OW33073   6.671   6.976   4.644
10725SOL    HW133074   6.688   6.886   4.685
10725SOL    HW233075   6.653   0.024   4.717
10726SOL     OW33076   5.320   1.169   5.299
10726SOL    HW133077   5.353   1.239   5.362
10726SOL    HW233078   5.340   1.197   5.205
10727SOL     OW33079   2.203   6.359   6.755
10727SOL    HW133080   2.147   6.438   6.782
10727SOL    HW233081   2.299   6.380   6.770
10728SOL     OW33082   6.077   6.221   3.427
10728SOL    HW133083   6.131   6.301   3.456
10728SOL    HW233084   6.108   6.141   3.477
10729SOL     OW33085   5.728   3.528   4.270
10729SOL    HW133086   5.738   3.453   4.336
10729SOL    HW233087   5.777   3.609   4.303
10730SOL     OW33088   1.916   5.301   3.461
10730SOL    HW133089   1.993   5.347   3.418
10730SOL    HW233090   1.922   5.202   3.443
10731SOL     OW33091   4.714   6.286   6.759
10731SOL    HW133092   4.788   6.265   6.823
10731SOL    HW233093   4.635   6.228   6.780
10732SOL     OW33094   6.346   6.253   2.941
10732SOL    HW133095   6.292   6.299   2.871
10732SOL    HW233096   6.362   6.316   3.017
10733SOL     OW33097   0.548   0.951   6.452
10733SOL    HW133098   0.546   0.978   6.548
10733SOL    HW233099   0.458   0.969   6.411
10734SOL     OW33100   1.638   0.311   4.344
10734SOL    HW133101   1.705   0.378   4.311
10734SOL    HW233102   1.685   0.239   4.394
10735SOL     OW33103   6.809   6.778   2.406
10735SOL    HW133104   6.858   6.691   2.415
10735SOL    HW233105   6.782   6.791   2.310
10736SOL     OW33106   5.385   6.678   3.638
10736SOL    HW133107   5.444   6.674   3.719
10736SOL    HW233108   5.302   6.728   3.660
10737SOL     OW33109   6.096   0.867   2.122
10737SOL    HW133110   6.132   0.934   2.187
10737SOL    HW233111   6.027   0.910   2.064
10738SOL     OW33112   3.561   0.417   1.285
10738SOL    HW133113   3.498   0.364   1.227
10738SOL    HW233114   3.537   0.402   1.381
10739SOL     OW33115   5.487   2.922   3.754
10739SOL    HW133116   5.441   2.868   3.825
10739SOL    HW233117   5.539   2.996   3.796
10740SOL     OW33118   2.902   0.317   6.010
10740SOL    HW133119   2.974   0.385   6.024
10740SOL    HW233120   2.921   0.237   6.066
10741SOL     OW33121   1.794   1.824   3.509
10741SOL    HW133122   1.764   1.868   3.593
10741SOL    HW233123   1.850   1.744   3.531
10742SOL     OW33124   6.358   6.497   2.752
10742SOL    HW133125   6.372   6.593   2.730
10742SOL    HW233126   6.435   6.463   2.806
10743SOL     OW33127   2.848   1.959   5.314
10743SOL    HW133128   2.921   2.014   5.354
10743SOL    HW233129   2.796   2.014   5.249
10744SOL     OW33130   2.176   1.406   0.436
10744SOL    HW133131   2.154   1.504   0.441
10744SOL    HW233132   2.170   1.366   0.527
10745SOL     OW33133   1.556   4.401   2.155
10745SOL    HW133134   1.519   4.446   2.074
10745SOL    HW233135   1.656   4.403   2.152
10746SOL     OW33136   1.924   6.339   6.682
10746SOL    HW133137   1.874   6.253   6.677
10746SOL    HW233138   2.023   6.320   6.678
10747SOL     OW33139   6.450   1.233   4.625
10747SOL    HW133140   6.496   1.316   4.656
10747SOL    HW233141   6.354   1.254   4.605
10748SOL     OW33142   3.244   6.358   1.360
10748SOL    HW133143   3.271   6.387   1.268
10748SOL    HW233144   3.241   6.258   1.365
10749SOL     OW33145   5.761   4.335   1.774
10749SOL    HW133146   5.694   4.261   1.783
10749SOL    HW233147   5.842   4.314   1.828
10750SOL     OW33148   4.150   2.310   4.344
10750SOL    HW133149   4.200   2.304   4.431
10750SOL    HW233150   4.202   2.264   4.272
10751SOL     OW33151   0.489   6.165   4.320
10751SOL    HW133152   0.571   6.154   4.376
10751SOL    HW233153   0.445   6.076   4.307
10752SOL     OW33154   6.611   6.623   0.485
10752SOL    HW133155   6.603   6.523   0.484
10752SOL    HW233156   6.524   6.663   0.455
10753SOL     OW33157   5.160   0.390   4.042
10753SOL    HW133158   5.196   0.464   4.098
10753SOL    HW233159   5.199   0.395   3.951
10754SOL     OW33160   0.718   4.111   2.312
10754SOL    HW133161   0.724   4.017   2.279
10754SOL    HW233162   0.723   4.112   2.412
10755SOL     OW33163   0.418   2.731   1.022
10755SOL    HW133164   0.331   2.778   1.039
10755SOL    HW233165   0.401   2.650   0.965
10756SOL     OW33166   1.389   0.419   0.573
10756SOL    HW133167   1.457   0.476   0.527
10756SOL    HW233168   1.298   0.444   0.542
10757SOL     OW33169   0.557   3.774   1.770
10757SOL    HW133170   0.466   3.802   1.742
10757SOL    HW233171   0.624   3.808   1.704
10758SOL     OW33172   0.859   0.337   0.568
10758SOL    HW133173   0.881   0.243   0.541
10758SOL    HW233174   0.781   0.336   0.629
10759SOL     OW33175   2.834   2.708   5.749
10759SOL    HW133176   2.853   2.648   5.671
10759SOL    HW233177   2.780   2.786   5.718
10760SOL     OW33178   1.131   4.886   6.619
10760SOL    HW133179   1.127   4.985   6.627
10760SOL    HW233180   1.067   4.856   6.548
10761SOL     OW33181   1.046   1.799   5.605
10761SOL    HW133182   1.136   1.796   5.562
10761SOL    HW233183   1.026   1.712   5.649
10762SOL     OW33184   3.085   5.912   6.224
10762SOL    HW133185   2.993   5.909   6.264
10762SOL    HW233186   3.153   5.909   6.297
10763SOL     OW33187   5.097   0.593   3.625
10763SOL    HW133188   4.998   0.587   3.628
10763SOL    HW233189   5.133   0.536   3.551
10764SOL     OW33190   4.824   6.753   4.603
10764SOL    HW133191   4.838   6.677   4.666
10764SOL    HW233192   4.783   6.719   4.519
10765SOL     OW33193   0.206   1.993   2.102
10765SOL    HW133194   0.191   1.970   2.006
10765SOL    HW233195   0.221   2.092   2.110
10766SOL     OW33196   2.241   4.922   0.193
10766SOL    HW133197   2.299   4.930   0.112
10766SOL    HW233198   2.233   5.012   0.237
10767SOL     OW33199   1.402   5.056   6.857
10767SOL    HW133200   1.500   5.054   6.836
10767SOL    HW233201   1.361   4.967   6.835
10768SOL     OW33202   5.338   6.155   6.544
10768SOL    HW133203   5.388   6.230   6.501
10768SOL    HW233204   5.381   6.133   6.632
10769SOL     OW33205   2.949   3.294   4.143
10769SOL    HW133206   3.024   3.229   4.127
10769SOL    HW233207   2.901   3.271   4.227
10770SOL     OW33208   5.664   0.004   3.424
10770SOL    HW133209   5.659   0.029   3.521
10770SOL    HW233210   5.584   6.967   3.399
10771SOL     OW33211   4.633   5.934   5.757
10771SOL    HW133212   4.601   5.839   5.752
10771SOL    HW233213   4.559   5.993   5.789
10772SOL     OW33214   5.713   5.150   2.441
10772SOL    HW133215   5.657   5.117   2.517
10772SOL    HW233216   5.691   5.099   2.358
10773SOL     OW33217   6.906   3.317   0.866
10773SOL    HW133218   6.860   3.392   0.818
10773SOL    HW233219   6.837   3.258   0.908
10774SOL     OW33220   0.694   4.036   0.522
10774SOL    HW133221   0.672   3.958   0.581
10774SOL    HW233222   0.614   4.058   0.466
10775SOL     OW33223   1.468   4.154   0.550
10775SOL    HW133224   1.493   4.234   0.497
10775SOL    HW233225   1.493   4.167   0.646
10776SOL     OW33226   0.758   2.475   3.907
10776SOL    HW133227   0.678   2.426   3.872
10776SOL    HW233228   0.840   2.441   3.862
10777SOL     OW33229   2.186   0.808   1.727
10777SOL    HW133230   2.148   0.899   1.740
10777SOL    HW233231   2.201   0.792   1.629
10778SOL     OW33232   4.997   0.341   2.497
10778SOL    HW133233   5.012   0.249   2.532
10778SOL    HW233234   4.899   0.360   2.494
10779SOL     OW33235   5.549   3.592   5.680
10779SOL    HW133236   5.501   3.532   5.743
10779SOL    HW233237   5.560   3.546   5.592
10780SOL     OW33238   1.880   5.451   4.572
10780SOL    HW133239   1.940   5.394   4.630
10780SOL    HW233240   1.905   5.547   4.583
10781SOL     OW33241   5.384   2.164   4.832
10781SOL    HW133242   5.285   2.181   4.837
10781SOL    HW233243   5.400   2.072   4.796
10782SOL     OW33244   0.889   1.346   5.607
10782SOL    HW133245   0.873   1.282   5.532
10782SOL    HW233246   0.803   1.361   5.656
10783SOL     OW33247   0.751   2.403   3.525
10783SOL    HW133248   0.830   2.433   3.578
10783SOL    HW233249   0.672   2.393   3.586
10784SOL     OW33250   3.814   5.733   2.981
10784SOL    HW133251   3.824   5.771   3.073
10784SOL    HW233252   3.720   5.743   2.950
10785SOL     OW33253   0.886   5.135   1.708
10785SOL    HW133254   0.822   5.127   1.785
10785SOL    HW233255   0.869   5.061   1.643
10786SOL     OW33256   4.354   1.732   2.772
10786SOL    HW133257   4.392   1.736   2.864
10786SOL    HW233258   4.305   1.645   2.761
10787SOL     OW33259   4.376   0.753   3.588
10787SOL    HW133260   4.341   0.703   3.509
10787SOL    HW233261   4.312   0.744   3.664
10788SOL     OW33262   1.963   3.827   6.935
10788SOL    HW133263   2.017   3.749   6.968
10788SOL    HW233264   1.880   3.835   6.990
10789SOL     OW33265   6.403   1.311   1.699
10789SOL    HW133266   6.485   1.336   1.750
10789SOL    HW233267   6.347   1.249   1.755
10790SOL     OW33268   0.495   1.708   5.909
10790SOL    HW133269   0.589   1.673   5.908
10790SOL    HW233270   0.444   1.670   5.832
10791SOL     OW33271   1.539   2.318   3.138
10791SOL    HW133272   1.638   2.304   3.136
10791SOL    HW233273   1.492   2.230   3.143
10792SOL     OW33274   3.699   1.570   2.574
10792SOL    HW133275   3.725   1.476   2.551
10792SOL    HW233276   3.708   1.627   2.492
10793SOL     OW33277   4.105   1.783   4.541
10793SOL    HW133278   4.129   1.810   4.635
10793SOL    HW233279   4.006   1.771   4.535
10794SOL     OW33280   5.316   2.033   0.652
10794SOL    HW133281   5.401   2.021   0.702
10794SOL    HW233282   5.301   2.130   0.635
10795SOL     OW33283   6.804   3.380   3.440
10795SOL    HW133284   6.831   3.330   3.523
10795SOL    HW233285   6.746   3.458   3.466
10796SOL     OW33286   0.255   0.065   6.020
10796SOL    HW133287   0.219   0.139   5.962
10796SOL    HW233288   0.251   0.094   6.116
10797SOL     OW33289   4.410   4.651   0.134
10797SOL    HW133290   4.322   4.692   0.109
10797SOL    HW233291   4.394   4.565   0.183
10798SOL     OW33292   1.737   6.615   6.357
10798SOL    HW133293   1.737   6.709   6.389
10798SOL    HW233294   1.657   6.600   6.298
10799SOL     OW33295   2.915   1.638   2.947
10799SOL    HW133296   3.006   1.597   2.951
10799SOL    HW233297   2.851   1.574   2.904
10800SOL     OW33298   2.506   0.019   5.442
10800SOL    HW133299   2.527   0.085   5.514
10800SOL    HW233300   2.409   0.025   5.418
10801SOL     OW33301   3.014   6.135   5.994
10801SOL    HW133302   2.987   6.089   6.079
10801SOL    HW233303   3.078   6.078   5.944
10802SOL     OW33304   0.776   5.157   4.037
10802SOL    HW133305   0.702   5.091   4.046
10802SOL    HW233306   0.861   5.116   4.070
10803SOL     OW33307   0.056   3.981   4.805
10803SOL    HW133308   0.072   3.991   4.707
10803SOL    HW233309   0.139   4.005   4.855
10804SOL     OW33310   5.088   4.573   1.079
10804SOL    HW133311   5.006   4.620   1.046
10804SOL    HW233312   5.144   4.544   1.001
10805SOL     OW33313   3.616   5.976   0.476
10805SOL    HW133314   3.620   5.903   0.545
10805SOL    HW233315   3.522   5.990   0.448
10806SOL     OW33316   6.171   4.101   6.413
10806SOL    HW133317   6.163   4.186   6.465
10806SOL    HW233318   6.108   4.033   6.451
10807SOL     OW33319   4.536   0.711   4.233
10807SOL    HW133320   4.586   0.722   4.147
10807SOL    HW233321   4.589   0.752   4.307
10808SOL     OW33322   0.226   2.091   0.218
10808SOL    HW133323   0.286   2.015   0.245
10808SOL    HW233324   0.281   2.164   0.178
10809SOL     OW33325   3.144   1.342   3.070
10809SOL    HW133326   3.175   1.431   3.034
10809SOL    HW233327   3.189   1.324   3.157
10810SOL     OW33328   1.251   1.502   6.825
10810SOL    HW133329   1.268   1.600   6.823
10810SOL    HW233330   1.244   1.471   6.920
10811SOL     OW33331   4.693   4.475   6.345
10811SOL    HW133332   4.757   4.550   6.365
10811SOL    HW233333   4.603   4.513   6.326
10812SOL     OW33334   6.855   2.598   2.472
10812SOL    HW133335   6.865   2.537   2.393
10812SOL    HW233336   6.782   2.564   2.532
10813SOL     OW33337   3.147   5.787   2.332
10813SOL    HW133338   3.202   5.871   2.336
10813SOL    HW233339   3.199   5.716   2.285
10814SOL     OW33340   2.148   6.258   4.785
10814SOL    HW133341   2.132   6.355   4.805
10814SOL    HW233342   2.107   6.202   4.857
10815SOL     OW33343   4.664   2.434   3.334
10815SOL    HW133344   4.615   2.521   3.331
10815SOL    HW233345   4.728   2.429   3.257
10816SOL     OW33346   2.027   2.349   1.790
10816SOL    HW133347   1.972   2.422   1.832
10816SOL    HW233348   2.031   2.271   1.851
10817SOL     OW33349   4.314   0.355   1.795
10817SOL    HW133350   4.379   0.420   1.756
10817SOL    HW233351   4.285   0.290   1.724
10818SOL     OW33352   4.314   2.760   6.203
10818SOL    HW133353   4.241   2.788   6.141
10818SOL    HW233354   4.365   2.684   6.163
10819SOL     OW33355   0.460   4.062   5.091
10819SOL    HW133356   0.542   4.032   5.042
10819SOL    HW233357   0.467   4.160   5.111
10820SOL     OW33358   0.093   0.532   4.600
10820SOL    HW133359   0.055   0.579   4.679
10820SOL    HW233360   0.102   0.596   4.523
10821SOL     OW33361   6.674   6.928   1.147
10821SOL    HW133362   6.625   6.993   1.089
10821SOL    HW233363   6.684   6.967   1.239
10822SOL     OW33364   0.396   4.660   0.318
10822SOL    HW133365   0.312   4.640   0.369
10822SOL    HW233366   0.436   4.574   0.286
10823SOL     OW33367   1.255   1.962   1.658
10823SOL    HW133368   1.239   1.889   1.724
10823SOL    HW233369   1.337   2.014   1.685
10824SOL     OW33370   5.755   0.495   3.156
10824SOL    HW133371   5.716   0.404   3.144
10824SOL    HW233372   5.822   0.493   3.230
10825SOL     OW33373   3.855   1.517   1.354
10825SOL    HW133374   3.811   1.469   1.278
10825SOL    HW233375   3.940   1.470   1.378
10826SOL     OW33376   6.744   2.703   1.363
10826SOL    HW133377   6.685   2.782   1.380
10826SOL    HW233378   6.769   2.699   1.266
10827SOL     OW33379   1.635   2.389   3.956
10827SOL    HW133380   1.626   2.443   4.040
10827SOL    HW233381   1.676   2.445   3.884
10828SOL     OW33382   1.091   5.839   0.623
10828SOL    HW133383   1.175   5.864   0.671
10828SOL    HW233384   1.056   5.753   0.661
10829SOL     OW33385   2.299   3.576   1.632
10829SOL    HW133386   2.326   3.525   1.714
10829SOL    HW233387   2.368   3.646   1.611
10830SOL     OW33388   4.709   1.629   3.801
10830SOL    HW133389   4.716   1.529   3.803
10830SOL    HW233390   4.770   1.668   3.869
10831SOL     OW33391   4.862   2.967   2.523
10831SOL    HW133392   4.951   2.939   2.559
10831SOL    HW233393   4.863   3.065   2.505
10832SOL     OW33394   6.656   2.519   2.640
10832SOL    HW133395   6.578   2.559   2.688
10832SOL    HW233396   6.712   2.469   2.705
10833SOL     OW33397   2.724   0.289   4.385
10833SOL    HW133398   2.735   0.191   4.399
10833SOL    HW233399   2.638   0.307   4.337
10834SOL     OW33400   6.812   0.980   5.552
10834SOL    HW133401   6.735   1.038   5.578
10834SOL    HW233402   6.843   1.006   5.461
10835SOL     OW33403   6.902   2.396   2.258
10835SOL    HW133404   6.852   2.341   2.191
10835SOL    HW233405   6.983   2.436   2.215
10836SOL     OW33406   1.691   3.138   1.156
10836SOL    HW133407   1.621   3.199   1.120
10836SOL    HW233408   1.663   3.043   1.143
10837SOL     OW33409   1.315   5.480   1.768
10837SOL    HW133410   1.274   5.394   1.739
10837SOL    HW233411   1.266   5.556   1.726
10838SOL     OW33412   6.698   0.079   0.718
10838SOL    HW133413   6.661   0.069   0.810
10838SOL    HW233414   6.783   0.026   0.711
10839SOL     OW33415   1.757   1.664   0.173
10839SOL    HW133416   1.731   1.611   0.254
10839SOL    HW233417   1.784   1.601   0.100
10840SOL     OW33418   3.843   5.321   2.626
10840SOL    HW133419   3.875   5.343   2.718
10840SOL    HW233420   3.781   5.393   2.593
10841SOL     OW33421   4.537   3.095   6.028
10841SOL    HW133422   4.587   3.170   5.984
10841SOL    HW233423   4.587   3.064   6.108
10842SOL     OW33424   6.598   2.917   1.406
10842SOL    HW133425   6.527   2.895   1.339
10842SOL    HW233426   6.625   3.013   1.395
10843SOL     OW33427   0.576   1.022   1.986
10843SOL    HW133428   0.659   0.968   1.971
10843SOL    HW233429   0.509   0.966   2.034
10844SOL     OW33430   3.314   0.018   3.378
10844SOL    HW133431   3.229   7.005   3.422
10844SOL    HW233432   3.392   6.991   3.421
10845SOL     OW33433   1.674   3.155   0.655
10845SOL    HW133434   1.773   3.153   0.638
10845SOL    HW233435   1.648   3.073   0.705
10846SOL     OW33436   3.641   1.708   1.768
10846SOL    HW133437   3.723   1.720   1.713
10846SOL    HW233438   3.573   1.777   1.743
10847SOL     OW33439   3.668   2.847   6.125
10847SOL    HW133440   3.759   2.826   6.159
10847SOL    HW233441   3.659   2.816   6.031
10848SOL     OW33442   1.121   0.485   0.503
10848SOL    HW133443   1.137   0.440   0.415
10848SOL    HW233444   1.023   0.499   0.516
10849SOL     OW33445   2.337   5.131   4.247
10849SOL    HW133446   2.436   5.120   4.251
10849SOL    HW233447   2.298   5.114   4.337
10850SOL     OW33448   6.000   0.631   1.934
10850SOL    HW133449   6.023   0.705   1.997
10850SOL    HW233450   5.930   0.572   1.975
10851SOL     OW33451   4.089   1.638   6.057
10851SOL    HW133452   4.058   1.733   6.053
10851SOL    HW233453   4.084   1.606   6.152
10852SOL     OW33454   0.182   6.783   6.025
10852SOL    HW133455   0.211   6.879   6.030
10852SOL    HW233456   0.158   6.750   6.116
10853SOL     OW33457   2.368   0.789   4.961
10853SOL    HW133458   2.307   0.851   5.010
10853SOL    HW233459   2.434   0.842   4.907
10854SOL     OW33460   0.053   6.220   1.091
10854SOL    HW133461   0.054   6.238   1.189
10854SOL    HW233462   0.146   6.202   1.059
10855SOL     OW33463   1.501   5.444   1.972
10855SOL    HW133464   1.562   5.523   1.970
10855SOL    HW233465   1.433   5.453   1.898
10856SOL     OW33466   6.412   0.533   6.660
10856SOL    HW133467   6.355   0.615   6.658
10856SOL    HW233468   6.355   0.453   6.674
10857SOL     OW33469   6.283   0.214   5.066
10857SOL    HW133470   6.189   0.249   5.073
10857SOL    HW233471   6.324   0.247   4.981
10858SOL     OW33472   1.862   2.161   0.202
10858SOL    HW133473   1.847   2.159   0.103
10858SOL    HW233474   1.829   2.076   0.243
10859SOL     OW33475   1.101   6.175   2.565
10859SOL    HW133476   1.026   6.175   2.499
10859SOL    HW233477   1.088   6.251   2.630
10860SOL     OW33478   5.766   3.548   1.088
10860SOL    HW133479   5.685   3.604   1.072
10860SOL    HW233480   5.848   3.604   1.077
10861SOL     OW33481   2.975   3.186   1.482
10861SOL    HW133482   2.901   3.232   1.434
10861SOL    HW233483   3.050   3.250   1.497
10862SOL     OW33484   3.498   3.530   5.274
10862SOL    HW133485   3.519   3.476   5.192
10862SOL    HW233486   3.476   3.624   5.247
10863SOL     OW33487   1.795   0.621   3.211
10863SOL    HW133488   1.775   0.609   3.308
10863SOL    HW233489   1.841   0.540   3.176
10864SOL     OW33490   3.269   4.204   1.631
10864SOL    HW133491   3.320   4.222   1.548
10864SOL    HW233492   3.179   4.248   1.626
10865SOL     OW33493   4.077   1.670   3.015
10865SOL    HW133494   4.158   1.610   3.015
10865SOL    HW233495   4.028   1.660   2.929
10866SOL     OW33496   0.259   3.488   3.529
10866SOL    HW133497   0.166   3.495   3.493
10866SOL    HW233498   0.286   3.392   3.531
10867SOL     OW33499   4.543   2.666   0.392
10867SOL    HW133500   4.443   2.669   0.379
10867SOL    HW233501   4.584   2.748   0.353
10868SOL     OW33502   1.532   0.034   4.827
10868SOL    HW133503   1.518   0.123   4.782
10868SOL    HW233504   1.621   7.016   4.801
10869NA      NA33505   0.216   1.224   6.292
10870NA      NA33506   4.492   4.518   5.189
10871NA      NA33507   1.376   4.899   2.395
10872NA      NA33508   6.011   3.936   3.258
10873NA      NA33509   3.774   2.370   5.460
10874NA      NA33510   2.148   4.732   0.304
10875NA      NA33511   1.330   5.287   6.818
10876NA      NA33512   3.839   4.632   1.236
10877NA      NA33513   4.889   5.031   0.227
10878NA      NA33514   3.308   1.076   0.284
10879NA      NA33515   5.455   6.784   1.712
10880NA      NA33516   2.490   6.321   5.527
10881NA      NA33517   4.053   5.200   1.700
10882NA      NA33518   3.875   3.410   6.598
   7.01833   7.01833   7.01833
