Generated by trjconv : CNT in water t=  81.00000
33518
    1C        C    1   2.845   2.771   4.746
    1C        C    2   2.897   2.720   4.868
    1C        C    3   2.839   2.767   4.987
    1C        C    4   2.845   2.767   4.255
    1C        C    5   2.899   2.725   4.379
    1C        C    6   2.848   2.774   4.502
    1C        C    7   3.008   2.636   4.623
    1C        C    8   2.895   2.721   4.624
    1C        C    9   3.070   2.601   4.745
    1C        C   10   3.009   2.635   4.867
    1C        C   11   3.175   2.486   4.971
    1C        C   12   3.062   2.568   4.978
    1C        C   13   2.850   2.770   3.768
    1C        C   14   2.905   2.722   3.889
    1C        C   15   2.851   2.767   4.012
    1C        C   16   3.018   2.639   4.134
    1C        C   17   2.903   2.721   4.135
    1C        C   18   3.081   2.612   4.258
    1C        C   19   3.018   2.650   4.379
    1C        C   20   3.204   2.554   4.503
    1C        C   21   3.072   2.605   4.501
    1C        C   22   3.272   2.529   4.624
    1C        C   23   3.199   2.541   4.745
    1C        C   24   3.410   2.483   4.857
    1C        C   25   3.267   2.497   4.862
    1C        C   26   3.486   2.478   4.974
    1C        C   27   2.849   2.767   3.278
    1C        C   28   2.900   2.719   3.401
    1C        C   29   2.851   2.769   3.524
    1C        C   30   3.014   2.634   3.646
    1C        C   31   2.901   2.719   3.647
    1C        C   32   3.074   2.595   3.768
    1C        C   33   3.014   2.633   3.890
    1C        C   34   3.207   2.545   4.016
    1C        C   35   3.076   2.597   4.013
    1C        C   36   3.272   2.524   4.140
    1C        C   37   3.208   2.550   4.262
    1C        C   38   3.413   2.495   4.380
    1C        C   39   3.276   2.528   4.384
    1C        C   40   3.484   2.496   4.502
    1C        C   41   3.410   2.499   4.622
    1C        C   42   3.630   2.477   4.739
    1C        C   43   3.488   2.480   4.739
    1C        C   44   3.700   2.484   4.861
    1C        C   45   3.625   2.473   4.979
    1C        C   46   2.837   2.751   2.791
    1C        C   47   2.893   2.708   2.913
    1C        C   48   2.847   2.762   3.035
    1C        C   49   3.022   2.641   3.158
    1C        C   50   2.906   2.721   3.157
    1C        C   51   3.079   2.601   3.281
    1C        C   52   3.015   2.638   3.401
    1C        C   53   3.203   2.541   3.523
    1C        C   54   3.075   2.599   3.524
    1C        C   55   3.269   2.518   3.646
    1C        C   56   3.203   2.539   3.770
    1C        C   57   3.411   2.500   3.890
    1C        C   58   3.271   2.522   3.893
    1C        C   59   3.481   2.495   4.012
    1C        C   60   3.410   2.493   4.134
    1C        C   61   3.622   2.498   4.253
    1C        C   62   3.481   2.490   4.256
    1C        C   63   3.695   2.504   4.374
    1C        C   64   3.625   2.500   4.497
    1C        C   65   3.834   2.540   4.617
    1C        C   66   3.698   2.500   4.617
    1C        C   67   3.902   2.557   4.739
    1C        C   68   3.837   2.519   4.859
    1C        C   69   4.048   2.579   4.973
    1C        C   70   3.918   2.526   4.973
    1C        C   71   2.825   2.731   2.308
    1C        C   72   2.888   2.693   2.429
    1C        C   73   2.829   2.741   2.548
    1C        C   74   3.006   2.622   2.671
    1C        C   75   2.887   2.698   2.670
    1C        C   76   3.066   2.585   2.793
    1C        C   77   3.010   2.628   2.916
    1C        C   78   3.206   2.537   3.033
    1C        C   79   3.081   2.603   3.035
    1C        C   80   3.273   2.518   3.156
    1C        C   81   3.207   2.541   3.279
    1C        C   82   3.412   2.494   3.402
    1C        C   83   3.273   2.520   3.402
    1C        C   84   3.480   2.485   3.525
    1C        C   85   3.408   2.492   3.646
    1C        C   86   3.622   2.493   3.767
    1C        C   87   3.480   2.488   3.767
    1C        C   88   3.693   2.505   3.888
    1C        C   89   3.622   2.498   4.010
    1C        C   90   3.829   2.547   4.131
    1C        C   91   3.693   2.508   4.132
    1C        C   92   3.896   2.572   4.253
    1C        C   93   3.832   2.539   4.374
    1C        C   94   4.028   2.625   4.495
    1C        C   95   3.901   2.562   4.495
    1C        C   96   4.092   2.661   4.616
    1C        C   97   4.029   2.619   4.735
    1C        C   98   4.192   2.754   4.861
    1C        C   99   4.093   2.651   4.858
    1C        C  100   4.198   2.842   4.969
    1C        C  101   2.819   2.721   2.068
    1C        C  102   2.987   2.587   2.188
    1C        C  103   2.872   2.672   2.188
    1C        C  104   3.063   2.568   2.306
    1C        C  105   3.002   2.609   2.427
    1C        C  106   3.199   2.532   2.549
    1C        C  107   3.067   2.583   2.549
    1C        C  108   3.269   2.511   2.670
    1C        C  109   3.196   2.529   2.789
    1C        C  110   3.408   2.484   2.912
    1C        C  111   3.269   2.510   2.909
    1C        C  112   3.479   2.485   3.033
    1C        C  113   3.411   2.492   3.157
    1C        C  114   3.622   2.497   3.277
    1C        C  115   3.481   2.482   3.279
    1C        C  116   3.691   2.505   3.400
    1C        C  117   3.622   2.493   3.523
    1C        C  118   3.828   2.539   3.641
    1C        C  119   3.693   2.501   3.645
    1C        C  120   3.893   2.567   3.764
    1C        C  121   3.830   2.538   3.888
    1C        C  122   4.020   2.635   4.007
    1C        C  123   3.899   2.563   4.009
    1C        C  124   4.083   2.672   4.128
    1C        C  125   4.023   2.633   4.250
    1C        C  126   4.190   2.760   4.373
    1C        C  127   4.085   2.665   4.373
    1C        C  128   4.237   2.817   4.494
    1C        C  129   4.189   2.764   4.616
    1C        C  130   4.317   2.931   4.736
    1C        C  131   4.232   2.817   4.739
    1C        C  132   4.347   3.000   4.856
    1C        C  133   4.275   2.958   4.969
    1C        C  134   3.166   2.461   2.078
    1C        C  135   3.032   2.502   2.082
    1C        C  136   3.257   2.472   2.184
    1C        C  137   3.193   2.509   2.304
    1C        C  138   3.401   2.475   2.423
    1C        C  139   3.262   2.501   2.427
    1C        C  140   3.474   2.474   2.543
    1C        C  141   3.408   2.485   2.668
    1C        C  142   3.620   2.479   2.784
    1C        C  143   3.479   2.475   2.790
    1C        C  144   3.688   2.492   2.907
    1C        C  145   3.621   2.486   3.031
    1C        C  146   3.826   2.542   3.153
    1C        C  147   3.690   2.503   3.153
    1C        C  148   3.894   2.565   3.275
    1C        C  149   3.828   2.537   3.397
    1C        C  150   4.023   2.621   3.519
    1C        C  151   3.896   2.559   3.519
    1C        C  152   4.075   2.670   3.641
    1C        C  153   4.014   2.639   3.764
    1C        C  154   4.192   2.758   3.883
    1C        C  155   4.075   2.679   3.885
    1C        C  156   4.246   2.804   4.005
    1C        C  157   4.198   2.755   4.128
    1C        C  158   4.335   2.915   4.250
    1C        C  159   4.246   2.805   4.251
    1C        C  160   4.369   2.981   4.370
    1C        C  161   4.326   2.926   4.493
    1C        C  162   4.437   3.107   4.612
    1C        C  163   4.364   2.986   4.615
    1C        C  164   4.457   3.180   4.732
    1C        C  165   4.424   3.118   4.854
    1C        C  166   4.509   3.316   4.967
    1C        C  167   4.471   3.182   4.970
    1C        C  168   3.472   2.436   2.065
    1C        C  169   3.397   2.450   2.182
    1C        C  170   3.613   2.459   2.300
    1C        C  171   3.471   2.453   2.302
    1C        C  172   3.686   2.482   2.419
    1C        C  173   3.615   2.481   2.541
    1C        C  174   3.826   2.524   2.663
    1C        C  175   3.689   2.491   2.661
    1C        C  176   3.892   2.551   2.785
    1C        C  177   3.821   2.538   2.907
    1C        C  178   4.018   2.619   3.027
    1C        C  179   3.890   2.560   3.028
    1C        C  180   4.078   2.661   3.148
    1C        C  181   4.022   2.624   3.273
    1C        C  182   4.193   2.747   3.393
    1C        C  183   4.082   2.659   3.396
    1C        C  184   4.241   2.801   3.515
    1C        C  185   4.187   2.758   3.638
    1C        C  186   4.332   2.913   3.760
    1C        C  187   4.241   2.805   3.759
    1C        C  188   4.370   2.973   3.882
    1C        C  189   4.331   2.918   4.006
    1C        C  190   4.435   3.101   4.125
    1C        C  191   4.376   2.973   4.128
    1C        C  192   4.459   3.170   4.247
    1C        C  193   4.437   3.105   4.370
    1C        C  194   4.495   3.310   4.489
    1C        C  195   4.468   3.172   4.491
    1C        C  196   4.517   3.384   4.607
    1C        C  197   4.501   3.315   4.729
    1C        C  198   4.549   3.529   4.845
    1C        C  199   4.525   3.388   4.848
    1C        C  200   4.582   3.615   4.955
    1C        C  201   3.612   2.427   2.067
    1C        C  202   3.826   2.510   2.177
    1C        C  203   3.691   2.463   2.181
    1C        C  204   3.896   2.536   2.298
    1C        C  205   3.823   2.517   2.418
    1C        C  206   4.012   2.617   2.538
    1C        C  207   3.891   2.545   2.538
    1C        C  208   4.075   2.655   2.659
    1C        C  209   4.017   2.617   2.782
    1C        C  210   4.191   2.739   2.902
    1C        C  211   4.077   2.656   2.904
    1C        C  212   4.240   2.793   3.023
    1C        C  213   4.188   2.750   3.147
    1C        C  214   4.328   2.908   3.268
    1C        C  215   4.238   2.799   3.270
    1C        C  216   4.367   2.969   3.390
    1C        C  217   4.327   2.913   3.513
    1C        C  218   4.430   3.098   3.636
    1C        C  219   4.367   2.971   3.636
    1C        C  220   4.453   3.166   3.757
    1C        C  221   4.428   3.102   3.881
    1C        C  222   4.495   3.303   4.001
    1C        C  223   4.460   3.166   4.002
    1C        C  224   4.505   3.374   4.122
    1C        C  225   4.497   3.306   4.246
    1C        C  226   4.512   3.520   4.361
    1C        C  227   4.508   3.379   4.366
    1C        C  228   4.515   3.594   4.481
    1C        C  229   4.527   3.525   4.604
    1C        C  230   4.497   3.739   4.726
    1C        C  231   4.532   3.601   4.724
    1C        C  232   4.492   3.817   4.843
    1C        C  233   4.539   3.748   4.956
    1C        C  234   4.016   2.606   2.059
    1C        C  235   3.898   2.532   2.059
    1C        C  236   4.080   2.648   2.177
    1C        C  237   4.019   2.606   2.297
    1C        C  238   4.195   2.730   2.417
    1C        C  239   4.081   2.645   2.418
    1C        C  240   4.248   2.779   2.539
    1C        C  241   4.192   2.733   2.660
    1C        C  242   4.329   2.901   2.777
    1C        C  243   4.242   2.790   2.780
    1C        C  244   4.370   2.957   2.900
    1C        C  245   4.329   2.903   3.024
    1C        C  246   4.442   3.084   3.143
    1C        C  247   4.373   2.961   3.145
    1C        C  248   4.458   3.155   3.264
    1C        C  249   4.428   3.096   3.389
    1C        C  250   4.488   3.298   3.510
    1C        C  251   4.453   3.161   3.512
    1C        C  252   4.498   3.371   3.631
    1C        C  253   4.490   3.302   3.754
    1C        C  254   4.518   3.510   3.874
    1C        C  255   4.510   3.369   3.877
    1C        C  256   4.514   3.584   3.995
    1C        C  257   4.517   3.515   4.118
    1C        C  258   4.487   3.729   4.238
    1C        C  259   4.510   3.590   4.238
    1C        C  260   4.471   3.800   4.360
    1C        C  261   4.493   3.733   4.482
    1C        C  262   4.423   3.936   4.600
    1C        C  263   4.471   3.803   4.603
    1C        C  264   4.393   4.006   4.718
    1C        C  265   4.430   3.944   4.839
    1C        C  266   4.316   4.128   4.953
    1C        C  267   4.394   4.013   4.956
    1C        C  268   4.258   2.775   2.058
    1C        C  269   4.197   2.726   2.174
    1C        C  270   4.343   2.884   2.294
    1C        C  271   4.249   2.777   2.295
    1C        C  272   4.380   2.948   2.414
    1C        C  273   4.336   2.889   2.535
    1C        C  274   4.441   3.079   2.655
    1C        C  275   4.373   2.955   2.654
    1C        C  276   4.472   3.142   2.777
    1C        C  277   4.440   3.080   2.899
    1C        C  278   4.503   3.285   3.021
    1C        C  279   4.471   3.147   3.020
    1C        C  280   4.509   3.359   3.141
    1C        C  281   4.491   3.293   3.264
    1C        C  282   4.518   3.504   3.384
    1C        C  283   4.506   3.363   3.386
    1C        C  284   4.520   3.575   3.506
    1C        C  285   4.512   3.511   3.631
    1C        C  286   4.489   3.722   3.748
    1C        C  287   4.514   3.583   3.753
    1C        C  288   4.475   3.790   3.871
    1C        C  289   4.490   3.723   3.995
    1C        C  290   4.426   3.929   4.109
    1C        C  291   4.477   3.797   4.115
    1C        C  292   4.396   3.995   4.231
    1C        C  293   4.426   3.934   4.355
    1C        C  294   4.324   4.121   4.472
    1C        C  295   4.394   3.998   4.476
    1C        C  296   4.281   4.182   4.592
    1C        C  297   4.325   4.131   4.716
    1C        C  298   4.197   4.309   4.834
    1C        C  299   4.287   4.198   4.835
    1C        C  300   4.169   4.399   4.941
    1C        C  301   4.351   2.878   2.056
    1C        C  302   4.466   3.064   2.171
    1C        C  303   4.394   2.941   2.174
    1C        C  304   4.472   3.140   2.291
    1C        C  305   4.443   3.075   2.413
    1C        C  306   4.506   3.281   2.533
    1C        C  307   4.468   3.145   2.533
    1C        C  308   4.515   3.352   2.654
    1C        C  309   4.501   3.281   2.775
    1C        C  310   4.519   3.492   2.896
    1C        C  311   4.511   3.351   2.897
    1C        C  312   4.516   3.567   3.015
    1C        C  313   4.521   3.500   3.139
    1C        C  314   4.487   3.711   3.261
    1C        C  315   4.513   3.572   3.261
    1C        C  316   4.467   3.779   3.383
    1C        C  317   4.494   3.714   3.506
    1C        C  318   4.423   3.920   3.623
    1C        C  319   4.472   3.788   3.624
    1C        C  320   4.393   3.985   3.745
    1C        C  321   4.421   3.920   3.867
    1C        C  322   4.313   4.107   3.987
    1C        C  323   4.387   3.988   3.987
    1C        C  324   4.271   4.168   4.108
    1C        C  325   4.319   4.113   4.230
    1C        C  326   4.181   4.278   4.349
    1C        C  327   4.277   4.174   4.350
    1C        C  328   4.133   4.333   4.470
    1C        C  329   4.194   4.294   4.591
    1C        C  330   4.020   4.425   4.710
    1C        C  331   4.140   4.348   4.710
    1C        C  332   3.966   4.485   4.826
    1C        C  333   4.051   4.476   4.936
    1C        C  334   4.554   3.260   2.060
    1C        C  335   4.532   3.122   2.058
    1C        C  336   4.537   3.346   2.169
    1C        C  337   4.511   3.277   2.290
    1C        C  338   4.519   3.491   2.408
    1C        C  339   4.516   3.350   2.410
    1C        C  340   4.521   3.563   2.530
    1C        C  341   4.525   3.493   2.653
    1C        C  342   4.492   3.704   2.773
    1C        C  343   4.514   3.565   2.774
    1C        C  344   4.474   3.777   2.893
    1C        C  345   4.490   3.706   3.014
    1C        C  346   4.418   3.907   3.135
    1C        C  347   4.469   3.775   3.136
    1C        C  348   4.386   3.972   3.256
    1C        C  349   4.416   3.911   3.380
    1C        C  350   4.310   4.098   3.499
    1C        C  351   4.386   3.979   3.500
    1C        C  352   4.272   4.159   3.621
    1C        C  353   4.316   4.103   3.743
    1C        C  354   4.170   4.262   3.861
    1C        C  355   4.268   4.160   3.864
    1C        C  356   4.119   4.312   3.982
    1C        C  357   4.174   4.270   4.106
    1C        C  358   4.007   4.402   4.225
    1C        C  359   4.123   4.321   4.227
    1C        C  360   3.951   4.445   4.347
    1C        C  361   4.016   4.412   4.468
    1C        C  362   3.824   4.508   4.589
    1C        C  363   3.954   4.452   4.588
    1C        C  364   3.760   4.543   4.710
    1C        C  365   3.834   4.536   4.830
    1C        C  366   3.623   4.585   4.943
    1C        C  367   3.761   4.565   4.945
    1C        C  368   4.510   3.560   2.048
    1C        C  369   4.522   3.487   2.167
    1C        C  370   4.496   3.702   2.285
    1C        C  371   4.510   3.561   2.286
    1C        C  372   4.484   3.772   2.407
    1C        C  373   4.503   3.703   2.529
    1C        C  374   4.420   3.901   2.646
    1C        C  375   4.477   3.772   2.650
    1C        C  376   4.387   3.966   2.767
    1C        C  377   4.424   3.909   2.891
    1C        C  378   4.303   4.084   3.010
    1C        C  379   4.388   3.971   3.012
    1C        C  380   4.266   4.146   3.132
    1C        C  381   4.311   4.092   3.255
    1C        C  382   4.166   4.250   3.375
    1C        C  383   4.264   4.149   3.375
    1C        C  384   4.113   4.302   3.495
    1C        C  385   4.169   4.255   3.617
    1C        C  386   4.003   4.390   3.737
    1C        C  387   4.116   4.306   3.738
    1C        C  388   3.943   4.427   3.860
    1C        C  389   4.001   4.390   3.983
    1C        C  390   3.812   4.490   4.101
    1C        C  391   3.940   4.429   4.104
    1C        C  392   3.750   4.514   4.226
    1C        C  393   3.820   4.498   4.347
    1C        C  394   3.613   4.548   4.468
    1C        C  395   3.753   4.525   4.468
    1C        C  396   3.544   4.558   4.591
    1C        C  397   3.620   4.560   4.710
    1C        C  398   3.406   4.541   4.834
    1C        C  399   3.544   4.571   4.828
    1C        C  400   3.336   4.505   4.949
    1C        C  401   4.502   3.698   2.051
    1C        C  402   4.445   3.911   2.161
    1C        C  403   4.488   3.777   2.166
    1C        C  404   4.398   3.968   2.282
    1C        C  405   4.425   3.900   2.404
    1C        C  406   4.317   4.086   2.522
    1C        C  407   4.384   3.962   2.524
    1C        C  408   4.276   4.147   2.642
    1C        C  409   4.316   4.087   2.764
    1C        C  410   4.169   4.242   2.884
    1C        C  411   4.266   4.140   2.886
    1C        C  412   4.113   4.286   3.006
    1C        C  413   4.166   4.245   3.130
    1C        C  414   3.996   4.372   3.248
    1C        C  415   4.112   4.293   3.252
    1C        C  416   3.934   4.408   3.370
    1C        C  417   3.995   4.379   3.494
    1C        C  418   3.807   4.476   3.614
    1C        C  419   3.934   4.415   3.616
    1C        C  420   3.743   4.498   3.738
    1C        C  421   3.811   4.479   3.860
    1C        C  422   3.602   4.530   3.984
    1C        C  423   3.741   4.505   3.980
    1C        C  424   3.536   4.540   4.108
    1C        C  425   3.611   4.542   4.227
    1C        C  426   3.398   4.553   4.351
    1C        C  427   3.539   4.552   4.348
    1C        C  428   3.326   4.547   4.473
    1C        C  429   3.403   4.551   4.592
    1C        C  430   3.192   4.515   4.719
    1C        C  431   3.332   4.538   4.713
    1C        C  432   3.121   4.488   4.839
    1C        C  433   3.198   4.491   4.956
    1C        C  434   4.386   4.123   2.049
    1C        C  435   4.446   3.996   2.050
    1C        C  436   4.298   4.158   2.156
    1C        C  437   4.322   4.087   2.278
    1C        C  438   4.173   4.241   2.400
    1C        C  439   4.274   4.142   2.399
    1C        C  440   4.118   4.291   2.519
    1C        C  441   4.172   4.243   2.640
    1C        C  442   4.001   4.370   2.759
    1C        C  443   4.118   4.291   2.761
    1C        C  444   3.938   4.405   2.880
    1C        C  445   3.997   4.367   3.003
    1C        C  446   3.808   4.465   3.126
    1C        C  447   3.935   4.403   3.124
    1C        C  448   3.740   4.492   3.247
    1C        C  449   3.807   4.470   3.369
    1C        C  450   3.601   4.521   3.494
    1C        C  451   3.740   4.497   3.491
    1C        C  452   3.535   4.538   3.618
    1C        C  453   3.605   4.528   3.740
    1C        C  454   3.392   4.539   3.861
    1C        C  455   3.533   4.539   3.861
    1C        C  456   3.324   4.533   3.985
    1C        C  457   3.394   4.536   4.107
    1C        C  458   3.189   4.502   4.230
    1C        C  459   3.326   4.537   4.231
    1C        C  460   3.124   4.477   4.353
    1C        C  461   3.192   4.504   4.474
    1C        C  462   2.997   4.430   4.600
    1C        C  463   3.124   4.491   4.598
    1C        C  464   2.927   4.395   4.717
    1C        C  465   2.985   4.441   4.839
    1C        C  466   2.799   4.335   4.955
    1C        C  467   2.902   4.429   4.955
    1C        C  468   4.119   4.277   2.037
    1C        C  469   4.188   4.249   2.156
    1C        C  470   4.004   4.364   2.274
    1C        C  471   4.126   4.291   2.276
    1C        C  472   3.937   4.396   2.393
    1C        C  473   4.001   4.371   2.516
    1C        C  474   3.808   4.461   2.639
    1C        C  475   3.938   4.406   2.638
    1C        C  476   3.741   4.490   2.761
    1C        C  477   3.810   4.464   2.881
    1C        C  478   3.604   4.520   3.005
    1C        C  479   3.742   4.487   3.003
    1C        C  480   3.533   4.530   3.126
    1C        C  481   3.600   4.516   3.249
    1C        C  482   3.389   4.536   3.373
    1C        C  483   3.530   4.524   3.372
    1C        C  484   3.319   4.534   3.496
    1C        C  485   3.393   4.542   3.616
    1C        C  486   3.184   4.507   3.739
    1C        C  487   3.322   4.537   3.738
    1C        C  488   3.123   4.473   3.862
    1C        C  489   3.186   4.502   3.985
    1C        C  490   2.997   4.411   4.110
    1C        C  491   3.121   4.480   4.108
    1C        C  492   2.940   4.378   4.235
    1C        C  493   2.996   4.418   4.358
    1C        C  494   2.824   4.300   4.475
    1C        C  495   2.931   4.392   4.481
    1C        C  496   2.770   4.254   4.597
    1C        C  497   2.813   4.310   4.719
    1C        C  498   2.664   4.161   4.842
    1C        C  499   2.750   4.272   4.840
    1C        C  500   2.594   4.111   4.952
    1C        C  501   3.994   4.337   2.039
    1C        C  502   3.811   4.456   2.151
    1C        C  503   3.938   4.395   2.153
    1C        C  504   3.740   4.474   2.272
    1C        C  505   3.806   4.451   2.395
    1C        C  506   3.602   4.508   2.520
    1C        C  507   3.738   4.473   2.517
    1C        C  508   3.530   4.520   2.641
    1C        C  509   3.604   4.521   2.761
    1C        C  510   3.392   4.532   2.882
    1C        C  511   3.533   4.528   2.883
    1C        C  512   3.321   4.525   3.005
    1C        C  513   3.392   4.532   3.127
    1C        C  514   3.185   4.491   3.249
    1C        C  515   3.321   4.527   3.250
    1C        C  516   3.119   4.468   3.372
    1C        C  517   3.182   4.500   3.495
    1C        C  518   2.997   4.405   3.621
    1C        C  519   3.116   4.481   3.618
    1C        C  520   2.939   4.365   3.744
    1C        C  521   3.000   4.404   3.865
    1C        C  522   2.831   4.279   3.990
    1C        C  523   2.940   4.368   3.988
    1C        C  524   2.780   4.235   4.114
    1C        C  525   2.833   4.286   4.234
    1C        C  526   2.691   4.129   4.360
    1C        C  527   2.774   4.243   4.355
    1C        C  528   2.654   4.071   4.484
    1C        C  529   2.687   4.140   4.603
    1C        C  530   2.578   3.958   4.726
    1C        C  531   2.636   4.087   4.724
    1C        C  532   2.532   3.900   4.847
    1C        C  533   2.522   3.991   4.957
    1C        C  534   3.617   4.556   2.039
    1C        C  535   3.750   4.511   2.037
    1C        C  536   3.532   4.535   2.153
    1C        C  537   3.602   4.507   2.273
    1C        C  538   3.392   4.513   2.396
    1C        C  539   3.534   4.517   2.396
    1C        C  540   3.321   4.507   2.517
    1C        C  541   3.388   4.517   2.641
    1C        C  542   3.179   4.489   2.759
    1C        C  543   3.318   4.517   2.763
    1C        C  544   3.118   4.461   2.883
    1C        C  545   3.186   4.487   3.005
    1C        C  546   2.993   4.400   3.132
    1C        C  547   3.118   4.467   3.127
    1C        C  548   2.934   4.365   3.255
    1C        C  549   2.992   4.407   3.377
    1C        C  550   2.825   4.278   3.500
    1C        C  551   2.934   4.369   3.500
    1C        C  552   2.776   4.227   3.622
    1C        C  553   2.827   4.278   3.744
    1C        C  554   2.699   4.113   3.872
    1C        C  555   2.784   4.226   3.868
    1C        C  556   2.662   4.056   3.996
    1C        C  557   2.697   4.120   4.117
    1C        C  558   2.593   3.937   4.243
    1C        C  559   2.655   4.064   4.240
    1C        C  560   2.562   3.875   4.366
    1C        C  561   2.586   3.948   4.485
    1C        C  562   2.530   3.745   4.610
    1C        C  563   2.559   3.883   4.607
    1C        C  564   2.510   3.677   4.732
    1C        C  565   2.510   3.758   4.849
    1C        C  566   2.527   3.546   4.972
    1C        C  567   2.524   3.685   4.968
    1C        C  568   3.325   4.469   2.040
    1C        C  569   3.392   4.514   2.154
    1C        C  570   3.180   4.472   2.274
    1C        C  571   3.318   4.506   2.276
    1C        C  572   3.110   4.456   2.396
    1C        C  573   3.182   4.480   2.515
    1C        C  574   2.988   4.395   2.644
    1C        C  575   3.113   4.461   2.637
    1C        C  576   2.929   4.357   2.767
    1C        C  577   2.993   4.395   2.886
    1C        C  578   2.823   4.273   3.016
    1C        C  579   2.935   4.359   3.010
    1C        C  580   2.773   4.221   3.138
    1C        C  581   2.829   4.270   3.258
    1C        C  582   2.693   4.109   3.380
    1C        C  583   2.777   4.223   3.380
    1C        C  584   2.661   4.049   3.504
    1C        C  585   2.695   4.111   3.626
    1C        C  586   2.591   3.930   3.750
    1C        C  587   2.659   4.054   3.750
    1C        C  588   2.569   3.868   3.875
    1C        C  589   2.600   3.929   3.998
    1C        C  590   2.528   3.734   4.124
    1C        C  591   2.565   3.870   4.122
    1C        C  592   2.515   3.665   4.247
    1C        C  593   2.525   3.739   4.367
    1C        C  594   2.504   3.530   4.494
    1C        C  595   2.513   3.671   4.491
    1C        C  596   2.505   3.459   4.617
    1C        C  597   2.507   3.535   4.736
    1C        C  598   2.534   3.325   4.857
    1C        C  599   2.523   3.466   4.858
    1C        C  600   2.527   3.246   4.972
    1C        C  601   3.193   4.431   2.042
    1C        C  602   2.977   4.386   2.156
    1C        C  603   3.111   4.437   2.155
    1C        C  604   2.923   4.352   2.283
    1C        C  605   2.985   4.390   2.404
    1C        C  606   2.815   4.262   2.526
    1C        C  607   2.928   4.348   2.526
    1C        C  608   2.766   4.216   2.650
    1C        C  609   2.817   4.271   2.770
    1C        C  610   2.688   4.108   2.893
    1C        C  611   2.771   4.222   2.895
    1C        C  612   2.650   4.047   3.014
    1C        C  613   2.690   4.107   3.136
    1C        C  614   2.584   3.924   3.261
    1C        C  615   2.651   4.049   3.259
    1C        C  616   2.558   3.863   3.386
    1C        C  617   2.592   3.926   3.507
    1C        C  618   2.529   3.724   3.633
    1C        C  619   2.564   3.861   3.630
    1C        C  620   2.517   3.660   3.759
    1C        C  621   2.532   3.732   3.880
    1C        C  622   2.508   3.522   4.004
    1C        C  623   2.519   3.663   4.003
    1C        C  624   2.511   3.452   4.127
    1C        C  625   2.510   3.524   4.249
    1C        C  626   2.525   3.317   4.375
    1C        C  627   2.508   3.457   4.374
    1C        C  628   2.549   3.247   4.495
    1C        C  629   2.530   3.320   4.615
    1C        C  630   2.591   3.116   4.739
    1C        C  631   2.547   3.252   4.737
    1C        C  632   2.619   3.048   4.861
    1C        C  633   2.564   3.111   4.977
    1C        C  634   2.775   4.304   2.053
    1C        C  635   2.884   4.392   2.048
    1C        C  636   2.743   4.228   2.166
    1C        C  637   2.805   4.272   2.285
    1C        C  638   2.672   4.104   2.409
    1C        C  639   2.756   4.218   2.406
    1C        C  640   2.633   4.045   2.531
    1C        C  641   2.685   4.100   2.651
    1C        C  642   2.580   3.919   2.775
    1C        C  643   2.646   4.043   2.774
    1C        C  644   2.552   3.854   2.898
    1C        C  645   2.591   3.919   3.017
    1C        C  646   2.523   3.719   3.143
    1C        C  647   2.564   3.854   3.140
    1C        C  648   2.509   3.653   3.267
    1C        C  649   2.525   3.725   3.387
    1C        C  650   2.509   3.515   3.514
    1C        C  651   2.518   3.656   3.510
    1C        C  652   2.511   3.448   3.639
    1C        C  653   2.508   3.519   3.761
    1C        C  654   2.531   3.310   3.884
    1C        C  655   2.504   3.448   3.883
    1C        C  656   2.551   3.244   4.008
    1C        C  657   2.535   3.313   4.130
    1C        C  658   2.607   3.119   4.256
    1C        C  659   2.548   3.247   4.254
    1C        C  660   2.639   3.054   4.377
    1C        C  661   2.601   3.116   4.498
    1C        C  662   2.711   2.936   4.622
    1C        C  663   2.627   3.049   4.620
    1C        C  664   2.747   2.875   4.744
    1C        C  665   2.695   2.927   4.865
    1C        C  666   2.741   2.866   4.982
    1C        C  667   2.680   4.021   2.056
    1C        C  668   2.674   4.105   2.169
    1C        C  669   2.584   3.908   2.285
    1C        C  670   2.635   4.041   2.288
    1C        C  671   2.559   3.844   2.408
    1C        C  672   2.580   3.914   2.529
    1C        C  673   2.515   3.716   2.656
    1C        C  674   2.555   3.851   2.653
    1C        C  675   2.502   3.646   2.778
    1C        C  676   2.517   3.717   2.898
    1C        C  677   2.497   3.508   3.023
    1C        C  678   2.506   3.649   3.022
    1C        C  679   2.502   3.440   3.147
    1C        C  680   2.497   3.512   3.269
    1C        C  681   2.524   3.304   3.398
    1C        C  682   2.502   3.443   3.392
    1C        C  683   2.550   3.237   3.520
    1C        C  684   2.533   3.309   3.641
    1C        C  685   2.606   3.111   3.767
    1C        C  686   2.547   3.239   3.763
    1C        C  687   2.636   3.050   3.891
    1C        C  688   2.602   3.112   4.013
    1C        C  689   2.713   2.932   4.131
    1C        C  690   2.633   3.049   4.136
    1C        C  691   2.754   2.875   4.254
    1C        C  692   2.711   2.932   4.375
    1C        C  693   2.755   2.881   4.500
    1C        C  694   2.626   3.892   2.055
    1C        C  695   2.519   3.699   2.173
    1C        C  696   2.575   3.829   2.169
    1C        C  697   2.504   3.633   2.297
    1C        C  698   2.518   3.709   2.415
    1C        C  699   2.488   3.500   2.538
    1C        C  700   2.499   3.641   2.537
    1C        C  701   2.500   3.431   2.661
    1C        C  702   2.498   3.505   2.782
    1C        C  703   2.523   3.294   2.905
    1C        C  704   2.500   3.433   2.904
    1C        C  705   2.547   3.231   3.029
    1C        C  706   2.527   3.301   3.150
    1C        C  707   2.595   3.106   3.273
    1C        C  708   2.543   3.237   3.275
    1C        C  709   2.632   3.046   3.396
    1C        C  710   2.605   3.107   3.520
    1C        C  711   2.712   2.928   3.644
    1C        C  712   2.634   3.046   3.644
    1C        C  713   2.757   2.876   3.767
    1C        C  714   2.712   2.930   3.890
    1C        C  715   2.756   2.872   4.011
    1C        C  716   2.444   3.497   2.060
    1C        C  717   2.486   3.631   2.055
    1C        C  718   2.458   3.417   2.177
    1C        C  719   2.479   3.493   2.295
    1C        C  720   2.510   3.287   2.421
    1C        C  721   2.479   3.425   2.419
    1C        C  722   2.538   3.219   2.542
    1C        C  723   2.527   3.293   2.662
    1C        C  724   2.590   3.091   2.786
    1C        C  725   2.540   3.223   2.784
    1C        C  726   2.620   3.029   2.910
    1C        C  727   2.593   3.097   3.031
    1C        C  728   2.704   2.919   3.156
    1C        C  729   2.623   3.035   3.154
    1C        C  730   2.750   2.868   3.279
    1C        C  731   2.708   2.927   3.400
    1C        C  732   2.756   2.873   3.521
    1C        C  733   2.489   3.193   2.068
    1C        C  734   2.490   3.277   2.180
    1C        C  735   2.583   3.082   2.303
    1C        C  736   2.524   3.212   2.302
    1C        C  737   2.608   3.014   2.424
    1C        C  738   2.584   3.086   2.543
    1C        C  739   2.693   2.903   2.666
    1C        C  740   2.618   3.023   2.665
    1C        C  741   2.737   2.851   2.789
    1C        C  742   2.700   2.913   2.911
    1C        C  743   2.747   2.862   3.034
    1C        C  744   2.541   3.064   2.070
    1C        C  745   2.680   2.892   2.182
    1C        C  746   2.607   3.013   2.182
    1C        C  747   2.725   2.832   2.302
    1C        C  748   2.686   2.896   2.422
    1C        C  749   2.732   2.843   2.544
    1C        C  750   2.734   2.832   2.068
    1C        C  751   3.654   2.319   1.975
    1C        O  752   3.694   2.206   2.016
    1C        O  753   3.633   2.317   1.836
    1C        C  754   4.630   3.044   1.979
    1C        O  755   4.612   3.027   1.856
    1C        O  756   4.743   2.975   2.024
    1C        C  757   4.464   4.223   1.972
    1C        O  758   4.573   4.273   2.010
    1C        O  759   4.445   4.237   1.834
    1C        C  760   3.583   4.659   1.939
    1C        O  761   3.573   4.781   1.971
    1C        O  762   3.533   4.622   1.814
    1C        C  763   2.866   4.517   1.971
    1C        O  764   2.871   4.518   1.846
    1C        O  765   2.755   4.601   1.992
    1C        C  766   2.354   3.470   1.945
    1C        O  767   2.380   3.492   1.823
    1C        O  768   2.216   3.460   1.966
    1C        C  769   4.707   3.592   5.030
    1C        O  770   4.696   3.567   5.153
    1C        O  771   4.816   3.522   4.977
    1C        C  772   4.279   4.453   5.024
    1C        O  773   4.290   4.409   5.141
    1C        O  774   4.340   4.579   5.011
    1C        C  775   4.129   2.472   5.037
    1C        O  776   4.209   2.396   4.976
    1C        O  777   4.183   2.505   5.162
    1C        C  778   2.892   4.537   5.056
    1C        O  779   2.818   4.633   5.021
    1C        O  780   2.931   4.536   5.190
    1C        C  781   2.459   3.046   5.059
    1C        O  782   2.338   3.040   5.024
    1C        O  783   2.461   3.049   5.198
    1C        C  784   2.395   4.006   5.032
    1C        O  785   2.287   4.039   4.975
    1C        O  786   2.366   3.947   5.156
    1C        C  787   2.939   2.422   1.999
    1C        O  788   2.925   2.429   1.874
    1C        O  789   2.867   2.326   2.068
    1C        C  790   3.169   2.358   5.045
    1C        O  791   3.076   2.274   5.036
    1C        O  792   3.246   2.340   5.161
    1C        H  793   4.276   3.008   5.064
    1C        H  794   4.118   2.837   5.040
    1C        H  795   4.529   3.117   5.033
    1C        H  796   4.551   3.352   5.059
    1C        H  797   4.551   3.803   5.047
    1C        H  798   4.368   3.956   5.043
    1C        H  799   4.247   4.139   5.034
    1C        H  800   4.033   4.527   5.028
    1C        H  801   3.807   4.582   5.040
    1C        H  802   3.571   4.627   5.027
    1C        H  803   3.394   4.449   5.019
    1C        H  804   3.160   4.448   5.046
    1C        H  805   3.871   2.547   5.067
    1C        H  806   3.673   2.412   5.053
    1C        H  807   3.022   2.577   5.077
    1C        H  808   3.440   2.501   5.068
    1C        H  809   2.889   2.762   5.081
    1C        H  810   2.696   2.880   5.078
    1C        H  811   2.470   3.283   5.055
    1C        H  812   2.471   3.510   5.057
    1C        H  813   2.564   3.736   5.053
    1C        H  814   2.575   4.181   5.032
    1C        H  815   2.752   4.322   5.051
    1C        H  816   2.685   2.843   1.973
    1C        H  817   2.862   2.686   1.977
    1C        H  818   3.198   2.437   1.979
    1C        H  819   3.434   2.480   1.976
    1C        H  820   3.870   2.478   1.971
    1C        H  821   4.042   2.650   1.965
    1C        H  822   4.251   2.714   1.970
    1C        H  823   4.390   2.906   1.960
    1C        H  824   4.586   3.300   1.966
    1C        H  825   4.444   3.516   1.975
    1C        H  826   4.532   3.744   1.959
    1C        H  827   3.796   4.499   1.942
    1C        H  828   3.929   4.289   1.968
    1C        H  829   4.181   4.306   1.954
    1C        H  830   4.529   3.977   1.985
    1C        H  831   2.608   3.854   1.956
    1C        H  832   2.732   4.051   1.968
    1C        H  833   2.696   4.326   1.984
    1C        H  834   3.375   4.462   1.945
    1C        H  835   3.149   4.411   1.946
    1C        H  836   2.524   2.995   1.990
    1C        H  837   2.439   3.226   1.980
    1C        H  838   2.444   3.695   1.981
    2V3OU   H29  839   2.804   3.551   1.334
    2V3OU   C27  840   2.780   3.495   1.429
    2V3OU   H27  841   2.716   3.568   1.485
    2V3OU   H28  842   2.728   3.399   1.406
    2V3OU   O11  843   2.905   3.468   1.493
    2V3OU   C15  844   2.918   3.388   1.604
    2V3OU   C13  845   3.047   3.366   1.656
    2V3OU   C14  846   3.069   3.262   1.747
    2V3OU   C16  847   2.962   3.185   1.792
    2V3OU    H6  848   2.984   3.101   1.859
    2V3OU   C12  849   3.209   3.228   1.784
    2V3OU    O2  850   3.237   3.130   1.857
    2V3OU   C10  851   3.319   3.301   1.722
    2V3OU    C8  852   3.454   3.269   1.738
    2V3OU   O10  853   3.481   3.146   1.788
    2V3OU   H26  854   3.398   3.116   1.829
    2V3OU    C6  855   3.563   3.344   1.685
    2V3OU    C5  856   3.533   3.460   1.613
    2V3OU    C4  857   3.703   3.294   1.694
    2V3OU    H4  858   3.722   3.224   1.780
    2V3OU    H5  859   3.708   3.227   1.603
    2V3OU    C2  860   3.814   3.399   1.686
    2V3OU    O6  861   3.805   3.474   1.807
    2V3OU   H21  862   3.758   3.555   1.778
    2V3OU    C3  863   3.777   3.492   1.571
    2V3OU    H2  864   3.854   3.573   1.570
    2V3OU    H3  865   3.779   3.437   1.473
    2V3OU   C25  866   3.946   3.324   1.669
    2V3OU    O7  867   3.993   3.297   1.559
    2V3OU   C26  868   4.031   3.289   1.791
    2V3OU   H22  869   4.069   3.377   1.850
    2V3OU   H23  870   4.116   3.223   1.762
    2V3OU    O8  871   3.962   3.205   1.881
    2V3OU   H24  872   3.918   3.267   1.941
    2V3OU    C1  873   3.642   3.560   1.589
    2V3OU    H1  874   3.616   3.613   1.492
    2V3OU    O3  875   3.653   3.656   1.694
    2V3OU   C19  876   3.611   3.790   1.667
    2V3OU    H9  877   3.510   3.789   1.616
    2V3OU    O4  878   3.710   3.846   1.585
    2V3OU   C20  879   3.841   3.870   1.638
    2V3OU   H10  880   3.892   3.771   1.650
    2V3OU   C24  881   3.604   3.851   1.808
    2V3OU   H16  882   3.545   3.795   1.884
    2V3OU   H17  883   3.562   3.954   1.814
    2V3OU   C23  884   3.745   3.869   1.866
    2V3OU   H15  885   3.789   3.765   1.880
    2V3OU    N1  886   3.738   3.947   1.988
    2V3OU   H19  887   3.812   3.919   2.048
    2V3OU   H20  888   3.646   3.937   2.028
    2V3OU   C21  889   3.843   3.944   1.772
    2V3OU   H11  890   3.951   3.920   1.796
    2V3OU    O5  891   3.822   4.085   1.770
    2V3OU   H18  892   3.776   4.108   1.852
    2V3OU   C22  893   3.911   3.945   1.526
    2V3OU   H12  894   3.857   4.042   1.508
    2V3OU   H13  895   3.902   3.888   1.429
    2V3OU   H14  896   4.020   3.949   1.550
    2V3OU   C11  897   3.152   3.465   1.630
    2V3OU    O1  898   3.133   3.580   1.584
    2V3OU    C9  899   3.292   3.420   1.649
    2V3OU    C7  900   3.396   3.497   1.599
    2V3OU    O9  901   3.377   3.615   1.530
    2V3OU   H25  902   3.281   3.626   1.519
    2V3OU   C17  903   2.813   3.305   1.651
    2V3OU    H7  904   2.711   3.337   1.630
    2V3OU   C18  905   2.833   3.206   1.746
    2V3OU    H8  906   2.754   3.143   1.789
    3SOL     OW  907   1.510   3.139   0.737
    3SOL    HW1  908   1.504   3.218   0.798
    3SOL    HW2  909   1.480   3.165   0.645
    4SOL     OW  910   6.039   0.366   2.102
    4SOL    HW1  911   5.988   0.450   2.119
    4SOL    HW2  912   6.136   0.381   2.122
    5SOL     OW  913   3.329   1.849   1.057
    5SOL    HW1  914   3.234   1.834   1.029
    5SOL    HW2  915   3.335   1.935   1.108
    6SOL     OW  916   2.558   1.718   1.496
    6SOL    HW1  917   2.492   1.784   1.531
    6SOL    HW2  918   2.528   1.625   1.518
    7SOL     OW  919   6.256   1.401   1.597
    7SOL    HW1  920   6.354   1.392   1.582
    7SOL    HW2  921   6.225   1.328   1.658
    8SOL     OW  922   2.942   1.104   4.941
    8SOL    HW1  923   2.909   1.103   5.036
    8SOL    HW2  924   2.923   1.193   4.900
    9SOL     OW  925   1.570   3.752   5.605
    9SOL    HW1  926   1.596   3.685   5.535
    9SOL    HW2  927   1.627   3.834   5.595
   10SOL     OW  928   0.764   3.583   0.056
   10SOL    HW1  929   0.792   3.492   0.086
   10SOL    HW2  930   0.665   3.586   0.045
   11SOL     OW  931   3.738   6.836   6.993
   11SOL    HW1  932   3.794   6.842   0.061
   11SOL    HW2  933   3.679   6.756   6.998
   12SOL     OW  934   5.626   6.287   2.483
   12SOL    HW1  935   5.704   6.225   2.473
   12SOL    HW2  936   5.580   6.269   2.570
   13SOL     OW  937   2.700   6.380   3.366
   13SOL    HW1  938   2.797   6.381   3.342
   13SOL    HW2  939   2.688   6.411   3.460
   14SOL     OW  940   3.614   5.905   0.839
   14SOL    HW1  941   3.612   5.995   0.882
   14SOL    HW2  942   3.695   5.897   0.781
   15SOL     OW  943   1.752   6.310   6.958
   15SOL    HW1  944   1.716   6.347   6.873
   15SOL    HW2  945   1.742   6.378   0.016
   16SOL     OW  946   5.937   2.145   5.679
   16SOL    HW1  947   6.023   2.097   5.665
   16SOL    HW2  948   5.955   2.239   5.708
   17SOL     OW  949   5.333   6.505   4.601
   17SOL    HW1  950   5.285   6.504   4.688
   17SOL    HW2  951   5.382   6.592   4.591
   18SOL     OW  952   1.617   1.772   6.060
   18SOL    HW1  953   1.661   1.861   6.057
   18SOL    HW2  954   1.668   1.711   6.121
   19SOL     OW  955   0.994   0.029   2.369
   19SOL    HW1  956   0.917   6.992   2.406
   19SOL    HW2  957   1.054   6.984   2.317
   20SOL     OW  958   3.332   1.905   3.741
   20SOL    HW1  959   3.316   1.927   3.645
   20SOL    HW2  960   3.332   1.990   3.794
   21SOL     OW  961   3.154   2.384   1.443
   21SOL    HW1  962   3.171   2.292   1.476
   21SOL    HW2  963   3.138   2.445   1.520
   22SOL     OW  964   1.425   6.415   5.859
   22SOL    HW1  965   1.494   6.475   5.818
   22SOL    HW2  966   1.392   6.350   5.791
   23SOL     OW  967   3.907   6.731   4.454
   23SOL    HW1  968   3.949   6.814   4.419
   23SOL    HW2  969   3.965   6.691   4.525
   24SOL     OW  970   4.592   1.164   5.258
   24SOL    HW1  971   4.500   1.157   5.297
   24SOL    HW2  972   4.606   1.256   5.221
   25SOL     OW  973   3.500   5.600   0.494
   25SOL    HW1  974   3.585   5.585   0.544
   25SOL    HW2  975   3.429   5.630   0.557
   26SOL     OW  976   6.679   1.519   2.359
   26SOL    HW1  977   6.742   1.543   2.285
   26SOL    HW2  978   6.730   1.511   2.445
   27SOL     OW  979   6.054   6.518   2.663
   27SOL    HW1  980   6.060   6.617   2.676
   27SOL    HW2  981   6.083   6.494   2.571
   28SOL     OW  982   3.859   0.593   0.395
   28SOL    HW1  983   3.796   0.668   0.380
   28SOL    HW2  984   3.816   0.507   0.366
   29SOL     OW  985   4.721   2.264   1.198
   29SOL    HW1  986   4.673   2.321   1.132
   29SOL    HW2  987   4.663   2.185   1.222
   30SOL     OW  988   3.512   0.771   4.669
   30SOL    HW1  989   3.583   0.701   4.657
   30SOL    HW2  990   3.516   0.806   4.763
   31SOL     OW  991   0.190   0.653   5.387
   31SOL    HW1  992   0.213   0.556   5.381
   31SOL    HW2  993   0.244   0.705   5.321
   32SOL     OW  994   0.355   2.032   1.160
   32SOL    HW1  995   0.291   1.980   1.103
   32SOL    HW2  996   0.303   2.086   1.227
   33SOL     OW  997   2.003   2.225   6.278
   33SOL    HW1  998   2.050   2.266   6.199
   33SOL    HW2  999   2.060   2.236   6.360
   34SOL     OW 1000   1.397   0.603   4.849
   34SOL    HW1 1001   1.316   0.558   4.887
   34SOL    HW2 1002   1.386   0.614   4.751
   35SOL     OW 1003   4.964   1.758   6.774
   35SOL    HW1 1004   4.944   1.661   6.762
   35SOL    HW2 1005   4.944   1.785   6.868
   36SOL     OW 1006   1.598   1.973   5.515
   36SOL    HW1 1007   1.594   1.906   5.442
   36SOL    HW2 1008   1.677   2.033   5.500
   37SOL     OW 1009   3.157   6.747   1.443
   37SOL    HW1 1010   3.189   6.661   1.482
   37SOL    HW2 1011   3.103   6.797   1.510
   38SOL     OW 1012   6.885   6.296   3.557
   38SOL    HW1 1013   6.785   6.292   3.556
   38SOL    HW2 1014   6.916   6.385   3.525
   39SOL     OW 1015   0.020   3.021   5.027
   39SOL    HW1 1016   6.965   2.954   5.050
   39SOL    HW2 1017   0.111   2.979   5.040
   40SOL     OW 1018   6.585   1.072   1.997
   40SOL    HW1 1019   6.503   1.072   2.054
   40SOL    HW2 1020   6.656   1.015   2.039
   41SOL     OW 1021   1.436   6.881   5.805
   41SOL    HW1 1022   1.521   6.892   5.857
   41SOL    HW2 1023   1.382   6.807   5.844
   42SOL     OW 1024   3.845   1.010   0.419
   42SOL    HW1 1025   3.824   1.100   0.382
   42SOL    HW2 1026   3.793   0.996   0.503
   43SOL     OW 1027   5.606   5.978   5.338
   43SOL    HW1 1028   5.582   5.882   5.320
   43SOL    HW2 1029   5.638   5.988   5.432
   44SOL     OW 1030   0.466   3.018   5.784
   44SOL    HW1 1031   0.419   3.024   5.872
   44SOL    HW2 1032   0.522   2.936   5.781
   45SOL     OW 1033   2.297   0.414   1.896
   45SOL    HW1 1034   2.292   0.337   1.833
   45SOL    HW2 1035   2.290   0.500   1.844
   46SOL     OW 1036   1.541   3.931   4.491
   46SOL    HW1 1037   1.596   4.005   4.453
   46SOL    HW2 1038   1.506   3.958   4.581
   47SOL     OW 1039   6.568   4.646   3.617
   47SOL    HW1 1040   6.603   4.686   3.533
   47SOL    HW2 1041   6.481   4.600   3.599
   48SOL     OW 1042   0.052   2.265   5.104
   48SOL    HW1 1043   0.108   2.192   5.143
   48SOL    HW2 1044   0.111   2.333   5.060
   49SOL     OW 1045   4.984   2.384   0.966
   49SOL    HW1 1046   4.912   2.317   0.949
   49SOL    HW2 1047   5.011   2.380   1.062
   50SOL     OW 1048   6.894   3.977   4.689
   50SOL    HW1 1049   6.824   3.908   4.704
   50SOL    HW2 1050   6.874   4.058   4.744
   51SOL     OW 1051   3.611   4.948   2.756
   51SOL    HW1 1052   3.619   4.948   2.656
   51SOL    HW2 1053   3.618   5.042   2.789
   52SOL     OW 1054   2.360   1.892   2.127
   52SOL    HW1 1055   2.418   1.969   2.153
   52SOL    HW2 1056   2.381   1.863   2.034
   53SOL     OW 1057   5.370   6.961   4.195
   53SOL    HW1 1058   5.288   6.993   4.147
   53SOL    HW2 1059   5.352   6.961   4.294
   54SOL     OW 1060   3.915   5.204   5.854
   54SOL    HW1 1061   3.970   5.121   5.866
   54SOL    HW2 1062   3.841   5.185   5.789
   55SOL     OW 1063   4.110   2.455   6.803
   55SOL    HW1 1064   4.199   2.444   6.758
   55SOL    HW2 1065   4.121   2.448   6.902
   56SOL     OW 1066   1.218   0.463   2.322
   56SOL    HW1 1067   1.192   0.383   2.376
   56SOL    HW2 1068   1.139   0.522   2.310
   57SOL     OW 1069   5.803   0.755   0.225
   57SOL    HW1 1070   5.891   0.799   0.210
   57SOL    HW2 1071   5.816   0.656   0.233
   58SOL     OW 1072   0.258   5.950   6.857
   58SOL    HW1 1073   0.255   6.004   6.942
   58SOL    HW2 1074   0.208   5.865   6.870
   59SOL     OW 1075   1.727   0.483   5.779
   59SOL    HW1 1076   1.751   0.390   5.805
   59SOL    HW2 1077   1.696   0.533   5.861
   60SOL     OW 1078   4.453   6.785   5.015
   60SOL    HW1 1079   4.401   6.701   5.003
   60SOL    HW2 1080   4.494   6.787   5.106
   61SOL     OW 1081   4.564   0.249   4.123
   61SOL    HW1 1082   4.620   0.331   4.111
   61SOL    HW2 1083   4.490   0.267   4.187
   62SOL     OW 1084   1.777   0.767   4.747
   62SOL    HW1 1085   1.870   0.744   4.718
   62SOL    HW2 1086   1.777   0.794   4.843
   63SOL     OW 1087   0.054   3.090   2.936
   63SOL    HW1 1088   0.121   3.162   2.955
   63SOL    HW2 1089   6.979   3.120   2.965
   64SOL     OW 1090   0.097   3.966   5.719
   64SOL    HW1 1091   0.115   4.064   5.709
   64SOL    HW2 1092   0.161   3.914   5.661
   65SOL     OW 1093   6.525   4.945   5.631
   65SOL    HW1 1094   6.607   4.951   5.689
   65SOL    HW2 1095   6.508   4.850   5.607
   66SOL     OW 1096   3.037   0.603   0.474
   66SOL    HW1 1097   3.034   0.568   0.568
   66SOL    HW2 1098   2.948   0.643   0.450
   67SOL     OW 1099   5.404   5.748   4.698
   67SOL    HW1 1100   5.350   5.761   4.616
   67SOL    HW2 1101   5.347   5.767   4.779
   68SOL     OW 1102   5.685   2.058   5.594
   68SOL    HW1 1103   5.612   2.126   5.584
   68SOL    HW2 1104   5.769   2.104   5.624
   69SOL     OW 1105   3.022   3.757   6.326
   69SOL    HW1 1106   3.060   3.673   6.364
   69SOL    HW2 1107   3.097   3.817   6.297
   70SOL     OW 1108   6.889   5.251   2.789
   70SOL    HW1 1109   6.939   5.201   2.860
   70SOL    HW2 1110   6.844   5.186   2.728
   71SOL     OW 1111   1.475   2.619   2.981
   71SOL    HW1 1112   1.486   2.600   2.883
   71SOL    HW2 1113   1.561   2.600   3.028
   72SOL     OW 1114   2.453   5.515   3.767
   72SOL    HW1 1115   2.495   5.432   3.805
   72SOL    HW2 1116   2.518   5.590   3.769
   73SOL     OW 1117   4.533   2.506   0.299
   73SOL    HW1 1118   4.480   2.557   0.367
   73SOL    HW2 1119   4.630   2.529   0.308
   74SOL     OW 1120   5.172   6.019   6.502
   74SOL    HW1 1121   5.176   6.008   6.602
   74SOL    HW2 1122   5.229   5.949   6.459
   75SOL     OW 1123   3.731   5.915   5.699
   75SOL    HW1 1124   3.647   5.968   5.687
   75SOL    HW2 1125   3.811   5.974   5.683
   76SOL     OW 1126   2.483   2.868   1.682
   76SOL    HW1 1127   2.484   2.967   1.679
   76SOL    HW2 1128   2.564   2.832   1.637
   77SOL     OW 1129   5.667   5.637   5.863
   77SOL    HW1 1130   5.727   5.708   5.825
   77SOL    HW2 1131   5.627   5.584   5.788
   78SOL     OW 1132   6.748   6.788   5.901
   78SOL    HW1 1133   6.760   6.714   5.967
   78SOL    HW2 1134   6.736   6.751   5.809
   79SOL     OW 1135   3.119   6.885   0.544
   79SOL    HW1 1136   3.119   6.853   0.449
   79SOL    HW2 1137   3.077   6.975   0.548
   80SOL     OW 1138   7.004   1.355   4.157
   80SOL    HW1 1139   0.006   1.449   4.128
   80SOL    HW2 1140   0.075   1.305   4.163
   81SOL     OW 1141   1.816   0.849   2.818
   81SOL    HW1 1142   1.884   0.862   2.890
   81SOL    HW2 1143   1.774   0.937   2.796
   82SOL     OW 1144   6.955   4.748   6.132
   82SOL    HW1 1145   0.037   4.772   6.134
   82SOL    HW2 1146   6.923   4.750   6.038
   83SOL     OW 1147   0.594   6.923   0.613
   83SOL    HW1 1148   0.515   6.935   0.553
   83SOL    HW2 1149   0.636   7.013   0.630
   84SOL     OW 1150   5.243   3.742   1.560
   84SOL    HW1 1151   5.225   3.649   1.528
   84SOL    HW2 1152   5.196   3.757   1.646
   85SOL     OW 1153   0.887   2.541   5.225
   85SOL    HW1 1154   0.849   2.552   5.133
   85SOL    HW2 1155   0.817   2.563   5.293
   86SOL     OW 1156   0.849   0.852   5.715
   86SOL    HW1 1157   0.817   0.758   5.706
   86SOL    HW2 1158   0.947   0.852   5.737
   87SOL     OW 1159   4.978   1.464   0.600
   87SOL    HW1 1160   4.988   1.439   0.504
   87SOL    HW2 1161   4.907   1.534   0.610
   88SOL     OW 1162   5.521   1.304   1.013
   88SOL    HW1 1163   5.514   1.221   0.958
   88SOL    HW2 1164   5.610   1.307   1.058
   89SOL     OW 1165   1.543   2.621   5.994
   89SOL    HW1 1166   1.493   2.705   6.015
   89SOL    HW2 1167   1.640   2.633   6.016
   90SOL     OW 1168   5.473   6.229   3.951
   90SOL    HW1 1169   5.374   6.233   3.963
   90SOL    HW2 1170   5.517   6.289   4.018
   91SOL     OW 1171   4.787   4.497   5.139
   91SOL    HW1 1172   4.868   4.441   5.121
   91SOL    HW2 1173   4.765   4.550   5.057
   92SOL     OW 1174   3.416   4.838   1.374
   92SOL    HW1 1175   3.318   4.819   1.383
   92SOL    HW2 1176   3.461   4.825   1.462
   93SOL     OW 1177   3.361   5.694   6.002
   93SOL    HW1 1178   3.328   5.646   5.920
   93SOL    HW2 1179   3.421   5.633   6.054
   94SOL     OW 1180   2.822   5.569   0.282
   94SOL    HW1 1181   2.781   5.642   0.228
   94SOL    HW2 1182   2.881   5.514   0.224
   95SOL     OW 1183   0.391   0.262   4.311
   95SOL    HW1 1184   0.491   0.266   4.314
   95SOL    HW2 1185   0.358   0.209   4.389
   96SOL     OW 1186   2.235   0.034   5.279
   96SOL    HW1 1187   2.297   0.104   5.315
   96SOL    HW2 1188   2.247   6.965   5.331
   97SOL     OW 1189   5.844   3.233   4.630
   97SOL    HW1 1190   5.893   3.284   4.700
   97SOL    HW2 1191   5.787   3.296   4.577
   98SOL     OW 1192   5.235   2.341   5.774
   98SOL    HW1 1193   5.219   2.324   5.871
   98SOL    HW2 1194   5.196   2.430   5.749
   99SOL     OW 1195   4.191   1.839   0.782
   99SOL    HW1 1196   4.230   1.756   0.822
   99SOL    HW2 1197   4.204   1.916   0.845
  100SOL     OW 1198   0.700   5.729   6.838
  100SOL    HW1 1199   0.661   5.688   6.921
  100SOL    HW2 1200   0.631   5.787   6.795
  101SOL     OW 1201   1.969   6.389   3.575
  101SOL    HW1 1202   1.941   6.426   3.486
  101SOL    HW2 1203   1.899   6.325   3.607
  102SOL     OW 1204   4.209   0.276   3.725
  102SOL    HW1 1205   4.302   0.266   3.689
  102SOL    HW2 1206   4.205   0.355   3.787
  103SOL     OW 1207   3.990   2.101   1.317
  103SOL    HW1 1208   4.067   2.087   1.380
  103SOL    HW2 1209   3.942   2.186   1.342
  104SOL     OW 1210   0.400   5.960   2.195
  104SOL    HW1 1211   0.474   5.924   2.251
  104SOL    HW2 1212   0.355   5.884   2.148
  105SOL     OW 1213   5.139   1.033   6.205
  105SOL    HW1 1214   5.205   1.100   6.172
  105SOL    HW2 1215   5.186   0.963   6.258
  106SOL     OW 1216   2.938   6.593   6.693
  106SOL    HW1 1217   2.879   6.664   6.730
  106SOL    HW2 1218   3.022   6.635   6.657
  107SOL     OW 1219   2.642   2.795   0.670
  107SOL    HW1 1220   2.682   2.797   0.761
  107SOL    HW2 1221   2.564   2.857   0.666
  108SOL     OW 1222   4.952   4.254   5.838
  108SOL    HW1 1223   5.020   4.326   5.828
  108SOL    HW2 1224   4.861   4.296   5.845
  109SOL     OW 1225   6.677   0.603   0.746
  109SOL    HW1 1226   6.629   0.516   0.743
  109SOL    HW2 1227   6.702   0.630   0.653
  110SOL     OW 1228   3.817   5.739   4.939
  110SOL    HW1 1229   3.767   5.737   5.026
  110SOL    HW2 1230   3.911   5.768   4.955
  111SOL     OW 1231   3.646   0.926   3.399
  111SOL    HW1 1232   3.654   0.888   3.491
  111SOL    HW2 1233   3.627   0.852   3.334
  112SOL     OW 1234   6.766   6.603   6.097
  112SOL    HW1 1235   6.728   6.510   6.103
  112SOL    HW2 1236   6.865   6.599   6.098
  113SOL     OW 1237   0.135   5.003   3.477
  113SOL    HW1 1238   0.111   5.092   3.439
  113SOL    HW2 1239   0.185   5.016   3.563
  114SOL     OW 1240   0.588   0.054   0.129
  114SOL    HW1 1241   0.668   0.066   0.188
  114SOL    HW2 1242   0.618   0.036   0.036
  115SOL     OW 1243   5.320   1.632   4.721
  115SOL    HW1 1244   5.230   1.598   4.749
  115SOL    HW2 1245   5.312   1.728   4.692
  116SOL     OW 1246   6.208   4.343   2.097
  116SOL    HW1 1247   6.182   4.316   2.004
  116SOL    HW2 1248   6.186   4.440   2.111
  117SOL     OW 1249   1.786   0.203   6.286
  117SOL    HW1 1250   1.832   0.187   6.198
  117SOL    HW2 1251   1.715   0.133   6.300
  118SOL     OW 1252   0.502   0.503   2.162
  118SOL    HW1 1253   0.473   0.576   2.100
  118SOL    HW2 1254   0.542   0.428   2.109
  119SOL     OW 1255   6.834   2.467   5.663
  119SOL    HW1 1256   6.888   2.550   5.658
  119SOL    HW2 1257   6.824   2.428   5.571
  120SOL     OW 1258   5.982   6.663   0.836
  120SOL    HW1 1259   6.005   6.749   0.791
  120SOL    HW2 1260   5.885   6.643   0.823
  121SOL     OW 1261   2.659   3.593   6.154
  121SOL    HW1 1262   2.600   3.577   6.075
  121SOL    HW2 1263   2.726   3.664   6.132
  122SOL     OW 1264   0.807   3.354   4.449
  122SOL    HW1 1265   0.793   3.451   4.470
  122SOL    HW2 1266   0.842   3.308   4.530
  123SOL     OW 1267   0.615   2.064   1.148
  123SOL    HW1 1268   0.660   2.115   1.220
  123SOL    HW2 1269   0.519   2.051   1.171
  124SOL     OW 1270   4.401   3.141   1.112
  124SOL    HW1 1271   4.349   3.208   1.165
  124SOL    HW2 1272   4.497   3.169   1.109
  125SOL     OW 1273   1.750   2.417   1.878
  125SOL    HW1 1274   1.716   2.496   1.828
  125SOL    HW2 1275   1.810   2.448   1.953
  126SOL     OW 1276   3.129   4.731   1.325
  126SOL    HW1 1277   3.105   4.656   1.263
  126SOL    HW2 1278   3.102   4.818   1.284
  127SOL     OW 1279   6.989   5.927   6.041
  127SOL    HW1 1280   6.998   5.970   5.951
  127SOL    HW2 1281   6.898   5.947   6.078
  128SOL     OW 1282   4.847   2.360   1.413
  128SOL    HW1 1283   4.797   2.332   1.331
  128SOL    HW2 1284   4.924   2.298   1.427
  129SOL     OW 1285   3.011   3.800   6.606
  129SOL    HW1 1286   2.998   3.701   6.607
  129SOL    HW2 1287   3.018   3.831   6.511
  130SOL     OW 1288   1.540   1.462   4.411
  130SOL    HW1 1289   1.499   1.520   4.341
  130SOL    HW2 1290   1.469   1.425   4.470
  131SOL     OW 1291   4.638   1.615   3.047
  131SOL    HW1 1292   4.670   1.556   2.973
  131SOL    HW2 1293   4.675   1.582   3.134
  132SOL     OW 1294   1.275   2.561   1.507
  132SOL    HW1 1295   1.359   2.608   1.534
  132SOL    HW2 1296   1.196   2.616   1.533
  133SOL     OW 1297   6.613   5.856   2.581
  133SOL    HW1 1298   6.565   5.826   2.498
  133SOL    HW2 1299   6.553   5.842   2.660
  134SOL     OW 1300   0.030   3.831   2.931
  134SOL    HW1 1301   6.961   3.785   2.959
  134SOL    HW2 1302   0.024   3.855   2.834
  135SOL     OW 1303   4.918   1.532   4.066
  135SOL    HW1 1304   4.888   1.537   4.161
  135SOL    HW2 1305   4.839   1.533   4.005
  136SOL     OW 1306   5.356   4.313   5.677
  136SOL    HW1 1307   5.392   4.271   5.594
  136SOL    HW2 1308   5.424   4.374   5.716
  137SOL     OW 1309   4.231   6.932   5.566
  137SOL    HW1 1310   4.283   6.938   5.480
  137SOL    HW2 1311   4.247   7.014   5.620
  138SOL     OW 1312   6.945   5.265   4.976
  138SOL    HW1 1313   0.008   5.267   4.914
  138SOL    HW2 1314   6.906   5.173   4.977
  139SOL     OW 1315   3.284   4.906   5.190
  139SOL    HW1 1316   3.203   4.852   5.169
  139SOL    HW2 1317   3.355   4.845   5.228
  140SOL     OW 1318   5.904   4.702   4.810
  140SOL    HW1 1319   5.958   4.779   4.843
  140SOL    HW2 1320   5.965   4.632   4.772
  141SOL     OW 1321   1.324   2.035   4.335
  141SOL    HW1 1322   1.244   2.073   4.382
  141SOL    HW2 1323   1.399   2.025   4.401
  142SOL     OW 1324   1.814   5.829   1.132
  142SOL    HW1 1325   1.741   5.784   1.081
  142SOL    HW2 1326   1.786   5.922   1.155
  143SOL     OW 1327   5.558   4.558   2.212
  143SOL    HW1 1328   5.538   4.544   2.115
  143SOL    HW2 1329   5.479   4.601   2.256
  144SOL     OW 1330   2.331   6.880   6.731
  144SOL    HW1 1331   2.286   6.855   6.816
  144SOL    HW2 1332   2.384   6.801   6.697
  145SOL     OW 1333   0.133   5.883   0.869
  145SOL    HW1 1334   0.211   5.941   0.849
  145SOL    HW2 1335   0.161   5.807   0.927
  146SOL     OW 1336   4.967   5.508   0.763
  146SOL    HW1 1337   4.959   5.547   0.672
  146SOL    HW2 1338   5.045   5.549   0.811
  147SOL     OW 1339   6.376   1.963   1.188
  147SOL    HW1 1340   6.461   1.930   1.147
  147SOL    HW2 1341   6.352   1.906   1.267
  148SOL     OW 1342   1.366   5.063   5.664
  148SOL    HW1 1343   1.451   5.040   5.711
  148SOL    HW2 1344   1.290   5.012   5.704
  149SOL     OW 1345   3.311   1.234   4.580
  149SOL    HW1 1346   3.392   1.220   4.636
  149SOL    HW2 1347   3.276   1.146   4.549
  150SOL     OW 1348   0.140   4.786   6.938
  150SOL    HW1 1349   0.233   4.822   6.928
  150SOL    HW2 1350   0.102   4.767   6.847
  151SOL     OW 1351   4.135   1.535   1.648
  151SOL    HW1 1352   4.046   1.521   1.692
  151SOL    HW2 1353   4.190   1.598   1.704
  152SOL     OW 1354   3.114   0.757   4.253
  152SOL    HW1 1355   3.158   0.744   4.341
  152SOL    HW2 1356   3.135   0.848   4.218
  153SOL     OW 1357   1.758   1.190   3.154
  153SOL    HW1 1358   1.789   1.098   3.129
  153SOL    HW2 1359   1.762   1.250   3.074
  154SOL     OW 1360   6.476   2.511   2.237
  154SOL    HW1 1361   6.440   2.454   2.163
  154SOL    HW2 1362   6.481   2.457   2.321
  155SOL     OW 1363   7.003   0.758   2.882
  155SOL    HW1 1364   0.080   0.731   2.852
  155SOL    HW2 1365   6.965   0.823   2.817
  156SOL     OW 1366   6.359   2.200   0.577
  156SOL    HW1 1367   6.438   2.163   0.529
  156SOL    HW2 1368   6.275   2.177   0.527
  157SOL     OW 1369   6.051   3.616   2.611
  157SOL    HW1 1370   6.108   3.682   2.660
  157SOL    HW2 1371   6.069   3.524   2.645
  158SOL     OW 1372   2.553   1.243   2.892
  158SOL    HW1 1373   2.534   1.339   2.873
  158SOL    HW2 1374   2.517   1.187   2.818
  159SOL     OW 1375   4.800   4.137   1.970
  159SOL    HW1 1376   4.729   4.204   1.989
  159SOL    HW2 1377   4.819   4.083   2.052
  160SOL     OW 1378   6.370   4.292   5.890
  160SOL    HW1 1379   6.409   4.261   5.977
  160SOL    HW2 1380   6.270   4.296   5.897
  161SOL     OW 1381   2.008   5.059   4.792
  161SOL    HW1 1382   1.938   5.088   4.856
  161SOL    HW2 1383   2.018   5.127   4.719
  162SOL     OW 1384   4.300   5.545   0.892
  162SOL    HW1 1385   4.341   5.625   0.934
  162SOL    HW2 1386   4.355   5.464   0.913
  163SOL     OW 1387   4.642   0.533   2.329
  163SOL    HW1 1388   4.655   0.625   2.291
  163SOL    HW2 1389   4.596   0.475   2.261
  164SOL     OW 1390   5.985   3.599   0.948
  164SOL    HW1 1391   5.915   3.609   1.018
  164SOL    HW2 1392   5.958   3.650   0.866
  165SOL     OW 1393   4.798   3.217   6.787
  165SOL    HW1 1394   4.779   3.284   6.716
  165SOL    HW2 1395   4.867   3.254   6.850
  166SOL     OW 1396   0.775   6.921   2.497
  166SOL    HW1 1397   0.792   6.909   2.595
  166SOL    HW2 1398   0.684   6.961   2.484
  167SOL     OW 1399   6.291   3.068   6.873
  167SOL    HW1 1400   6.391   3.062   6.862
  167SOL    HW2 1401   6.247   3.039   6.788
  168SOL     OW 1402   2.168   5.300   1.043
  168SOL    HW1 1403   2.225   5.221   1.020
  168SOL    HW2 1404   2.154   5.304   1.142
  169SOL     OW 1405   2.055   0.045   1.970
  169SOL    HW1 1406   2.045   0.129   1.917
  169SOL    HW2 1407   1.990   6.992   1.936
  170SOL     OW 1408   0.206   1.503   3.273
  170SOL    HW1 1409   0.252   1.475   3.357
  170SOL    HW2 1410   0.183   1.600   3.277
  171SOL     OW 1411   3.883   3.910   0.125
  171SOL    HW1 1412   3.834   3.976   0.068
  171SOL    HW2 1413   3.967   3.953   0.161
  172SOL     OW 1414   6.824   2.312   4.883
  172SOL    HW1 1415   6.740   2.299   4.935
  172SOL    HW2 1416   6.898   2.262   4.927
  173SOL     OW 1417   0.276   0.063   4.944
  173SOL    HW1 1418   0.289   0.104   5.035
  173SOL    HW2 1419   0.339   0.105   4.879
  174SOL     OW 1420   2.440   5.126   3.683
  174SOL    HW1 1421   2.501   5.047   3.690
  174SOL    HW2 1422   2.410   5.137   3.589
  175SOL     OW 1423   1.513   5.556   2.709
  175SOL    HW1 1424   1.518   5.509   2.621
  175SOL    HW2 1425   1.582   5.517   2.771
  176SOL     OW 1426   2.189   4.094   0.784
  176SOL    HW1 1427   2.170   4.190   0.764
  176SOL    HW2 1428   2.131   4.063   0.859
  177SOL     OW 1429   4.706   1.808   2.442
  177SOL    HW1 1430   4.791   1.790   2.492
  177SOL    HW2 1431   4.710   1.765   2.352
  178SOL     OW 1432   5.288   4.708   6.806
  178SOL    HW1 1433   5.280   4.783   6.740
  178SOL    HW2 1434   5.199   4.663   6.815
  179SOL     OW 1435   3.005   0.141   0.638
  179SOL    HW1 1436   2.953   0.194   0.570
  179SOL    HW2 1437   2.955   0.142   0.725
  180SOL     OW 1438   0.319   1.975   6.922
  180SOL    HW1 1439   0.363   1.953   6.835
  180SOL    HW2 1440   0.356   1.916   6.994
  181SOL     OW 1441   3.741   3.198   5.564
  181SOL    HW1 1442   3.835   3.232   5.563
  181SOL    HW2 1443   3.696   3.220   5.478
  182SOL     OW 1444   4.053   2.019   4.797
  182SOL    HW1 1445   4.054   2.034   4.895
  182SOL    HW2 1446   3.959   2.000   4.767
  183SOL     OW 1447   5.166   1.136   1.913
  183SOL    HW1 1448   5.148   1.234   1.900
  183SOL    HW2 1449   5.263   1.123   1.934
  184SOL     OW 1450   6.973   4.738   3.074
  184SOL    HW1 1451   7.010   4.757   3.165
  184SOL    HW2 1452   0.027   4.690   3.019
  185SOL     OW 1453   1.888   3.762   5.821
  185SOL    HW1 1454   1.964   3.765   5.757
  185SOL    HW2 1455   1.867   3.667   5.844
  186SOL     OW 1456   5.772   0.158   3.213
  186SOL    HW1 1457   5.730   0.203   3.134
  186SOL    HW2 1458   5.701   0.114   3.268
  187SOL     OW 1459   5.735   0.982   3.908
  187SOL    HW1 1460   5.707   0.916   3.978
  187SOL    HW2 1461   5.677   1.063   3.914
  188SOL     OW 1462   6.093   2.337   3.384
  188SOL    HW1 1463   6.065   2.422   3.338
  188SOL    HW2 1464   6.118   2.357   3.479
  189SOL     OW 1465   1.981   4.561   2.547
  189SOL    HW1 1466   2.018   4.574   2.455
  189SOL    HW2 1467   2.024   4.481   2.589
  190SOL     OW 1468   3.676   1.115   5.579
  190SOL    HW1 1469   3.581   1.128   5.550
  190SOL    HW2 1470   3.713   1.033   5.535
  191SOL     OW 1471   5.675   5.660   6.745
  191SOL    HW1 1472   5.675   5.635   6.842
  191SOL    HW2 1473   5.725   5.745   6.733
  192SOL     OW 1474   6.915   0.874   1.983
  192SOL    HW1 1475   6.848   0.878   2.058
  192SOL    HW2 1476   6.929   0.778   1.957
  193SOL     OW 1477   5.673   3.705   6.966
  193SOL    HW1 1478   5.600   3.636   6.972
  193SOL    HW2 1479   5.633   3.796   6.969
  194SOL     OW 1480   3.692   0.498   3.867
  194SOL    HW1 1481   3.595   0.523   3.869
  194SOL    HW2 1482   3.701   0.399   3.858
  195SOL     OW 1483   0.898   6.099   3.452
  195SOL    HW1 1484   0.843   6.054   3.381
  195SOL    HW2 1485   0.880   6.197   3.450
  196SOL     OW 1486   1.221   2.173   0.165
  196SOL    HW1 1487   1.145   2.219   0.119
  196SOL    HW2 1488   1.293   2.239   0.184
  197SOL     OW 1489   1.565   0.899   0.642
  197SOL    HW1 1490   1.616   0.928   0.562
  197SOL    HW2 1491   1.489   0.841   0.614
  198SOL     OW 1492   3.334   2.162   3.834
  198SOL    HW1 1493   3.307   2.155   3.738
  198SOL    HW2 1494   3.257   2.195   3.889
  199SOL     OW 1495   1.138   2.771   4.018
  199SOL    HW1 1496   1.169   2.779   4.112
  199SOL    HW2 1497   1.215   2.746   3.959
  200SOL     OW 1498   6.748   2.778   0.405
  200SOL    HW1 1499   6.694   2.859   0.383
  200SOL    HW2 1500   6.737   2.710   0.333
  201SOL     OW 1501   0.449   0.743   6.337
  201SOL    HW1 1502   0.469   0.736   6.239
  201SOL    HW2 1503   0.535   0.740   6.389
  202SOL     OW 1504   4.516   6.793   0.026
  202SOL    HW1 1505   4.496   6.859   6.969
  202SOL    HW2 1506   4.477   6.825   0.113
  203SOL     OW 1507   5.770   2.768   5.678
  203SOL    HW1 1508   5.690   2.820   5.707
  203SOL    HW2 1509   5.795   2.795   5.585
  204SOL     OW 1510   6.327   0.942   5.655
  204SOL    HW1 1511   6.270   0.990   5.722
  204SOL    HW2 1512   6.401   0.894   5.703
  205SOL     OW 1513   0.930   2.807   2.173
  205SOL    HW1 1514   0.881   2.762   2.098
  205SOL    HW2 1515   1.019   2.761   2.186
  206SOL     OW 1516   0.657   3.105   0.735
  206SOL    HW1 1517   0.570   3.087   0.780
  206SOL    HW2 1518   0.724   3.036   0.763
  207SOL     OW 1519   5.261   2.288   4.124
  207SOL    HW1 1520   5.333   2.222   4.149
  207SOL    HW2 1521   5.221   2.326   4.208
  208SOL     OW 1522   0.899   4.168   4.331
  208SOL    HW1 1523   0.985   4.219   4.341
  208SOL    HW2 1524   0.910   4.097   4.262
  209SOL     OW 1525   6.510   3.974   2.637
  209SOL    HW1 1526   6.570   4.047   2.669
  209SOL    HW2 1527   6.532   3.889   2.686
  210SOL     OW 1528   4.569   2.503   0.017
  210SOL    HW1 1529   4.636   2.576   0.006
  210SOL    HW2 1530   4.537   2.501   0.112
  211SOL     OW 1531   0.228   1.293   3.043
  211SOL    HW1 1532   0.275   1.266   3.127
  211SOL    HW2 1533   0.290   1.280   2.965
  212SOL     OW 1534   1.835   3.608   2.995
  212SOL    HW1 1535   1.747   3.636   2.957
  212SOL    HW2 1536   1.867   3.678   3.059
  213SOL     OW 1537   1.855   4.811   1.039
  213SOL    HW1 1538   1.839   4.772   0.949
  213SOL    HW2 1539   1.929   4.878   1.034
  214SOL     OW 1540   4.306   5.874   2.583
  214SOL    HW1 1541   4.258   5.858   2.496
  214SOL    HW2 1542   4.241   5.870   2.658
  215SOL     OW 1543   2.307   4.854   2.329
  215SOL    HW1 1544   2.402   4.847   2.296
  215SOL    HW2 1545   2.288   4.777   2.390
  216SOL     OW 1546   1.055   6.777   2.514
  216SOL    HW1 1547   0.961   6.812   2.517
  216SOL    HW2 1548   1.117   6.845   2.553
  217SOL     OW 1549   1.792   4.313   6.598
  217SOL    HW1 1550   1.797   4.266   6.686
  217SOL    HW2 1551   1.865   4.381   6.593
  218SOL     OW 1552   0.730   2.140   5.061
  218SOL    HW1 1553   0.781   2.113   5.143
  218SOL    HW2 1554   0.775   2.103   4.980
  219SOL     OW 1555   3.882   1.747   0.684
  219SOL    HW1 1556   3.971   1.755   0.640
  219SOL    HW2 1557   3.894   1.741   0.783
  220SOL     OW 1558   3.073   6.510   0.868
  220SOL    HW1 1559   3.097   6.490   0.963
  220SOL    HW2 1560   3.042   6.605   0.861
  221SOL     OW 1561   4.858   6.138   1.641
  221SOL    HW1 1562   4.778   6.198   1.647
  221SOL    HW2 1563   4.867   6.087   1.727
  222SOL     OW 1564   2.301   4.667   6.061
  222SOL    HW1 1565   2.230   4.596   6.062
  222SOL    HW2 1566   2.281   4.732   5.988
  223SOL     OW 1567   6.316   2.792   5.312
  223SOL    HW1 1568   6.232   2.737   5.307
  223SOL    HW2 1569   6.360   2.778   5.400
  224SOL     OW 1570   2.530   1.695   6.277
  224SOL    HW1 1571   2.545   1.612   6.223
  224SOL    HW2 1572   2.581   1.771   6.236
  225SOL     OW 1573   4.873   5.150   6.240
  225SOL    HW1 1574   4.827   5.223   6.188
  225SOL    HW2 1575   4.809   5.075   6.256
  226SOL     OW 1576   1.185   2.361   6.587
  226SOL    HW1 1577   1.158   2.283   6.643
  226SOL    HW2 1578   1.226   2.431   6.645
  227SOL     OW 1579   1.181   4.072   2.045
  227SOL    HW1 1580   1.158   4.066   2.142
  227SOL    HW2 1581   1.152   4.160   2.009
  228SOL     OW 1582   1.692   6.736   2.486
  228SOL    HW1 1583   1.792   6.727   2.479
  228SOL    HW2 1584   1.649   6.682   2.414
  229SOL     OW 1585   5.011   5.796   6.284
  229SOL    HW1 1586   5.037   5.848   6.203
  229SOL    HW2 1587   4.979   5.705   6.257
  230SOL     OW 1588   4.686   5.547   5.160
  230SOL    HW1 1589   4.677   5.578   5.066
  230SOL    HW2 1590   4.742   5.611   5.212
  231SOL     OW 1591   5.392   1.285   6.998
  231SOL    HW1 1592   5.413   1.205   6.943
  231SOL    HW2 1593   5.337   1.349   6.944
  232SOL     OW 1594   1.682   3.024   5.747
  232SOL    HW1 1595   1.614   3.091   5.718
  232SOL    HW2 1596   1.731   3.059   5.828
  233SOL     OW 1597   2.827   1.395   3.365
  233SOL    HW1 1598   2.751   1.459   3.382
  233SOL    HW2 1599   2.796   1.302   3.383
  234SOL     OW 1600   4.661   1.398   6.850
  234SOL    HW1 1601   4.626   1.416   6.942
  234SOL    HW2 1602   4.639   1.476   6.791
  235SOL     OW 1603   4.617   2.526   2.623
  235SOL    HW1 1604   4.716   2.528   2.611
  235SOL    HW2 1605   4.573   2.512   2.534
  236SOL     OW 1606   4.410   4.427   6.256
  236SOL    HW1 1607   4.429   4.512   6.208
  236SOL    HW2 1608   4.467   4.354   6.220
  237SOL     OW 1609   6.348   3.724   2.952
  237SOL    HW1 1610   6.313   3.771   3.033
  237SOL    HW2 1611   6.316   3.630   2.952
  238SOL     OW 1612   6.616   1.420   0.273
  238SOL    HW1 1613   6.561   1.488   0.223
  238SOL    HW2 1614   6.573   1.402   0.362
  239SOL     OW 1615   0.706   3.756   0.245
  239SOL    HW1 1616   0.753   3.720   0.326
  239SOL    HW2 1617   0.736   3.705   0.164
  240SOL     OW 1618   6.049   2.828   3.163
  240SOL    HW1 1619   6.033   2.852   3.067
  240SOL    HW2 1620   5.984   2.876   3.221
  241SOL     OW 1621   2.878   1.571   3.666
  241SOL    HW1 1622   2.808   1.582   3.596
  241SOL    HW2 1623   2.968   1.582   3.626
  242SOL     OW 1624   3.739   3.486   3.205
  242SOL    HW1 1625   3.756   3.461   3.110
  242SOL    HW2 1626   3.712   3.582   3.210
  243SOL     OW 1627   4.730   2.447   5.978
  243SOL    HW1 1628   4.768   2.430   5.887
  243SOL    HW2 1629   4.803   2.439   6.046
  244SOL     OW 1630   5.357   3.473   5.435
  244SOL    HW1 1631   5.382   3.491   5.339
  244SOL    HW2 1632   5.330   3.378   5.445
  245SOL     OW 1633   3.584   2.139   2.427
  245SOL    HW1 1634   3.594   2.066   2.496
  245SOL    HW2 1635   3.586   2.228   2.473
  246SOL     OW 1636   6.263   1.381   2.546
  246SOL    HW1 1637   6.259   1.354   2.450
  246SOL    HW2 1638   6.356   1.412   2.568
  247SOL     OW 1639   1.959   1.607   1.222
  247SOL    HW1 1640   1.910   1.639   1.141
  247SOL    HW2 1641   1.929   1.660   1.302
  248SOL     OW 1642   1.674   2.100   2.138
  248SOL    HW1 1643   1.705   2.168   2.205
  248SOL    HW2 1644   1.586   2.128   2.100
  249SOL     OW 1645   5.616   6.298   5.034
  249SOL    HW1 1646   5.630   6.223   4.969
  249SOL    HW2 1647   5.532   6.282   5.086
  250SOL     OW 1648   3.560   2.498   1.358
  250SOL    HW1 1649   3.561   2.472   1.455
  250SOL    HW2 1650   3.654   2.505   1.325
  251SOL     OW 1651   4.257   4.116   5.776
  251SOL    HW1 1652   4.333   4.063   5.814
  251SOL    HW2 1653   4.184   4.054   5.748
  252SOL     OW 1654   6.030   6.262   5.797
  252SOL    HW1 1655   6.078   6.219   5.721
  252SOL    HW2 1656   6.096   6.284   5.869
  253SOL     OW 1657   4.290   6.045   6.252
  253SOL    HW1 1658   4.337   6.032   6.164
  253SOL    HW2 1659   4.357   6.043   6.326
  254SOL     OW 1660   5.839   2.511   4.657
  254SOL    HW1 1661   5.775   2.521   4.581
  254SOL    HW2 1662   5.793   2.470   4.735
  255SOL     OW 1663   1.741   4.522   5.796
  255SOL    HW1 1664   1.757   4.448   5.862
  255SOL    HW2 1665   1.809   4.593   5.809
  256SOL     OW 1666   4.814   2.660   4.927
  256SOL    HW1 1667   4.852   2.719   4.997
  256SOL    HW2 1668   4.887   2.605   4.886
  257SOL     OW 1669   4.932   6.171   2.931
  257SOL    HW1 1670   4.967   6.171   3.024
  257SOL    HW2 1671   4.907   6.078   2.904
  258SOL     OW 1672   2.122   3.758   6.060
  258SOL    HW1 1673   2.109   3.821   6.137
  258SOL    HW2 1674   2.038   3.707   6.045
  259SOL     OW 1675   3.914   0.020   3.727
  259SOL    HW1 1676   3.920   0.079   3.646
  259SOL    HW2 1677   3.898   6.941   3.698
  260SOL     OW 1678   3.790   5.382   3.415
  260SOL    HW1 1679   3.764   5.287   3.432
  260SOL    HW2 1680   3.804   5.396   3.317
  261SOL     OW 1681   4.383   4.592   0.110
  261SOL    HW1 1682   4.412   4.658   0.041
  261SOL    HW2 1683   4.452   4.519   0.116
  262SOL     OW 1684   2.136   3.947   0.183
  262SOL    HW1 1685   2.192   3.991   0.253
  262SOL    HW2 1686   2.195   3.901   0.117
  263SOL     OW 1687   1.360   6.247   4.034
  263SOL    HW1 1688   1.399   6.233   4.124
  263SOL    HW2 1689   1.314   6.164   4.004
  264SOL     OW 1690   0.078   3.297   6.653
  264SOL    HW1 1691   0.016   3.322   6.579
  264SOL    HW2 1692   0.026   3.289   6.738
  265SOL     OW 1693   6.618   6.928   4.235
  265SOL    HW1 1694   6.695   6.888   4.284
  265SOL    HW2 1695   6.579   6.861   4.172
  266SOL     OW 1696   3.911   1.312   5.389
  266SOL    HW1 1697   3.857   1.375   5.333
  266SOL    HW2 1698   3.876   1.312   5.483
  267SOL     OW 1699   1.581   1.085   5.223
  267SOL    HW1 1700   1.596   1.070   5.320
  267SOL    HW2 1701   1.645   1.155   5.190
  268SOL     OW 1702   2.978   1.344   1.099
  268SOL    HW1 1703   2.955   1.368   1.004
  268SOL    HW2 1704   3.007   1.249   1.103
  269SOL     OW 1705   3.943   2.078   6.947
  269SOL    HW1 1706   3.873   2.137   6.906
  269SOL    HW2 1707   4.030   2.128   6.950
  270SOL     OW 1708   6.703   6.880   0.218
  270SOL    HW1 1709   6.652   6.882   0.132
  270SOL    HW2 1710   6.722   6.974   0.248
  271SOL     OW 1711   0.186   2.297   5.526
  271SOL    HW1 1712   0.166   2.204   5.496
  271SOL    HW2 1713   0.124   2.361   5.482
  272SOL     OW 1714   2.966   6.044   3.718
  272SOL    HW1 1715   2.997   5.949   3.722
  272SOL    HW2 1716   3.043   6.104   3.698
  273SOL     OW 1717   1.801   5.417   6.212
  273SOL    HW1 1718   1.834   5.503   6.173
  273SOL    HW2 1719   1.819   5.342   6.149
  274SOL     OW 1720   4.487   0.976   3.591
  274SOL    HW1 1721   4.465   0.911   3.518
  274SOL    HW2 1722   4.425   0.962   3.669
  275SOL     OW 1723   0.151   6.543   2.624
  275SOL    HW1 1724   0.187   6.458   2.663
  275SOL    HW2 1725   0.055   6.554   2.650
  276SOL     OW 1726   0.524   0.435   4.670
  276SOL    HW1 1727   0.425   0.428   4.654
  276SOL    HW2 1728   0.554   0.529   4.653
  277SOL     OW 1729   2.687   3.202   0.533
  277SOL    HW1 1730   2.736   3.127   0.578
  277SOL    HW2 1731   2.706   3.199   0.434
  278SOL     OW 1732   0.126   2.382   2.516
  278SOL    HW1 1733   0.096   2.343   2.603
  278SOL    HW2 1734   0.187   2.459   2.534
  279SOL     OW 1735   5.859   2.511   4.238
  279SOL    HW1 1736   5.822   2.425   4.273
  279SOL    HW2 1737   5.911   2.494   4.155
  280SOL     OW 1738   1.581   4.605   1.905
  280SOL    HW1 1739   1.630   4.644   1.827
  280SOL    HW2 1740   1.634   4.530   1.944
  281SOL     OW 1741   2.388   3.981   0.597
  281SOL    HW1 1742   2.481   3.967   0.631
  281SOL    HW2 1743   2.329   4.011   0.673
  282SOL     OW 1744   3.460   1.840   5.713
  282SOL    HW1 1745   3.362   1.837   5.696
  282SOL    HW2 1746   3.505   1.896   5.643
  283SOL     OW 1747   5.246   3.053   5.941
  283SOL    HW1 1748   5.298   3.127   5.898
  283SOL    HW2 1749   5.309   2.989   5.985
  284SOL     OW 1750   0.624   3.830   4.057
  284SOL    HW1 1751   0.661   3.908   4.108
  284SOL    HW2 1752   0.627   3.748   4.115
  285SOL     OW 1753   5.744   4.266   4.411
  285SOL    HW1 1754   5.783   4.266   4.502
  285SOL    HW2 1755   5.689   4.183   4.398
  286SOL     OW 1756   3.332   3.692   6.730
  286SOL    HW1 1757   3.239   3.686   6.765
  286SOL    HW2 1758   3.396   3.663   6.801
  287SOL     OW 1759   1.988   3.327   6.977
  287SOL    HW1 1760   2.041   3.243   6.978
  287SOL    HW2 1761   2.049   3.406   6.985
  288SOL     OW 1762   5.021   2.074   6.919
  288SOL    HW1 1763   5.043   2.076   6.821
  288SOL    HW2 1764   5.083   2.012   6.966
  289SOL     OW 1765   2.685   5.083   6.003
  289SOL    HW1 1766   2.632   5.000   5.983
  289SOL    HW2 1767   2.746   5.102   5.926
  290SOL     OW 1768   0.010   2.332   5.808
  290SOL    HW1 1769   7.012   2.241   5.769
  290SOL    HW2 1770   6.982   2.400   5.749
  291SOL     OW 1771   6.796   1.937   2.748
  291SOL    HW1 1772   6.759   1.994   2.821
  291SOL    HW2 1773   6.722   1.882   2.708
  292SOL     OW 1774   2.079   6.931   3.464
  292SOL    HW1 1775   2.051   7.009   3.408
  292SOL    HW2 1776   2.034   6.935   3.553
  293SOL     OW 1777   4.070   5.129   3.586
  293SOL    HW1 1778   4.113   5.102   3.500
  293SOL    HW2 1779   4.034   5.221   3.578
  294SOL     OW 1780   4.325   6.464   6.524
  294SOL    HW1 1781   4.342   6.516   6.608
  294SOL    HW2 1782   4.410   6.422   6.493
  295SOL     OW 1783   4.991   0.530   4.291
  295SOL    HW1 1784   5.070   0.554   4.236
  295SOL    HW2 1785   5.021   0.483   4.374
  296SOL     OW 1786   1.988   2.084   3.568
  296SOL    HW1 1787   1.954   2.068   3.475
  296SOL    HW2 1788   1.942   2.164   3.607
  297SOL     OW 1789   1.731   4.315   3.096
  297SOL    HW1 1790   1.751   4.332   3.192
  297SOL    HW2 1791   1.721   4.403   3.048
  298SOL     OW 1792   6.110   5.419   1.020
  298SOL    HW1 1793   6.048   5.491   0.987
  298SOL    HW2 1794   6.069   5.373   1.099
  299SOL     OW 1795   6.255   2.271   4.730
  299SOL    HW1 1796   6.312   2.290   4.650
  299SOL    HW2 1797   6.221   2.177   4.724
  300SOL     OW 1798   6.189   6.959   2.668
  300SOL    HW1 1799   6.284   6.984   2.684
  300SOL    HW2 1800   6.142   0.018   2.621
  301SOL     OW 1801   5.397   3.855   6.151
  301SOL    HW1 1802   5.421   3.884   6.243
  301SOL    HW2 1803   5.352   3.766   6.155
  302SOL     OW 1804   1.110   6.779   3.316
  302SOL    HW1 1805   1.100   6.741   3.224
  302SOL    HW2 1806   1.201   6.818   3.326
  303SOL     OW 1807   5.606   0.413   3.775
  303SOL    HW1 1808   5.702   0.388   3.761
  303SOL    HW2 1809   5.556   0.334   3.811
  304SOL     OW 1810   3.145   0.264   3.392
  304SOL    HW1 1811   3.234   0.255   3.436
  304SOL    HW2 1812   3.153   0.244   3.295
  305SOL     OW 1813   1.400   3.497   1.155
  305SOL    HW1 1814   1.447   3.556   1.220
  305SOL    HW2 1815   1.308   3.532   1.138
  306SOL     OW 1816   2.446   0.639   3.786
  306SOL    HW1 1817   2.528   0.665   3.837
  306SOL    HW2 1818   2.384   0.588   3.846
  307SOL     OW 1819   3.709   0.235   1.599
  307SOL    HW1 1820   3.639   0.167   1.621
  307SOL    HW2 1821   3.786   0.225   1.662
  308SOL     OW 1822   0.597   5.247   4.279
  308SOL    HW1 1823   0.697   5.252   4.284
  308SOL    HW2 1824   0.565   5.168   4.332
  309SOL     OW 1825   4.309   5.172   5.406
  309SOL    HW1 1826   4.326   5.233   5.484
  309SOL    HW2 1827   4.378   5.188   5.335
  310SOL     OW 1828   0.769   6.639   6.293
  310SOL    HW1 1829   0.712   6.565   6.330
  310SOL    HW2 1830   0.711   6.703   6.242
  311SOL     OW 1831   0.330   0.250   1.446
  311SOL    HW1 1832   0.384   0.334   1.440
  311SOL    HW2 1833   0.385   0.178   1.489
  312SOL     OW 1834   4.157   1.709   4.790
  312SOL    HW1 1835   4.082   1.749   4.842
  312SOL    HW2 1836   4.137   1.717   4.692
  313SOL     OW 1837   1.012   4.401   1.084
  313SOL    HW1 1838   0.969   4.491   1.082
  313SOL    HW2 1839   1.092   4.401   1.024
  314SOL     OW 1840   3.600   6.163   0.966
  314SOL    HW1 1841   3.544   6.226   0.912
  314SOL    HW2 1842   3.631   6.209   1.049
  315SOL     OW 1843   0.931   2.884   2.966
  315SOL    HW1 1844   0.948   2.794   3.008
  315SOL    HW2 1845   0.901   2.872   2.872
  316SOL     OW 1846   2.485   2.608   4.160
  316SOL    HW1 1847   2.407   2.551   4.137
  316SOL    HW2 1848   2.570   2.555   4.149
  317SOL     OW 1849   6.889   1.981   6.716
  317SOL    HW1 1850   6.875   1.882   6.719
  317SOL    HW2 1851   6.970   2.005   6.769
  318SOL     OW 1852   2.781   5.089   0.833
  318SOL    HW1 1853   2.870   5.112   0.875
  318SOL    HW2 1854   2.734   5.173   0.808
  319SOL     OW 1855   1.275   6.496   0.452
  319SOL    HW1 1856   1.301   6.533   0.542
  319SOL    HW2 1857   1.175   6.486   0.448
  320SOL     OW 1858   5.369   3.937   0.502
  320SOL    HW1 1859   5.321   3.984   0.429
  320SOL    HW2 1860   5.468   3.945   0.488
  321SOL     OW 1861   2.049   1.353   1.129
  321SOL    HW1 1862   2.091   1.372   1.040
  321SOL    HW2 1863   2.007   1.437   1.164
  322SOL     OW 1864   3.650   2.919   4.611
  322SOL    HW1 1865   3.714   2.915   4.534
  322SOL    HW2 1866   3.696   2.888   4.695
  323SOL     OW 1867   0.411   4.800   1.765
  323SOL    HW1 1868   0.358   4.837   1.842
  323SOL    HW2 1869   0.348   4.773   1.692
  324SOL     OW 1870   0.325   2.870   4.492
  324SOL    HW1 1871   0.314   2.939   4.564
  324SOL    HW2 1872   0.422   2.845   4.486
  325SOL     OW 1873   2.328   2.788   2.607
  325SOL    HW1 1874   2.291   2.752   2.693
  325SOL    HW2 1875   2.261   2.850   2.566
  326SOL     OW 1876   2.112   4.421   6.377
  326SOL    HW1 1877   2.046   4.427   6.302
  326SOL    HW2 1878   2.069   4.453   6.461
  327SOL     OW 1879   5.995   5.607   5.277
  327SOL    HW1 1880   5.984   5.701   5.246
  327SOL    HW2 1881   6.081   5.597   5.326
  328SOL     OW 1882   3.246   5.968   2.140
  328SOL    HW1 1883   3.161   5.920   2.161
  328SOL    HW2 1884   3.299   5.980   2.224
  329SOL     OW 1885   3.068   3.045   2.473
  329SOL    HW1 1886   3.086   3.081   2.382
  329SOL    HW2 1887   3.125   2.965   2.489
  330SOL     OW 1888   3.513   0.675   1.253
  330SOL    HW1 1889   3.596   0.625   1.227
  330SOL    HW2 1890   3.512   0.688   1.353
  331SOL     OW 1891   5.240   4.831   6.139
  331SOL    HW1 1892   5.151   4.808   6.099
  331SOL    HW2 1893   5.281   4.750   6.180
  332SOL     OW 1894   3.771   1.831   2.898
  332SOL    HW1 1895   3.802   1.767   2.828
  332SOL    HW2 1896   3.750   1.782   2.982
  333SOL     OW 1897   3.542   6.218   6.391
  333SOL    HW1 1898   3.467   6.208   6.324
  333SOL    HW2 1899   3.622   6.258   6.346
  334SOL     OW 1900   4.349   6.549   2.758
  334SOL    HW1 1901   4.411   6.627   2.753
  334SOL    HW2 1902   4.344   6.504   2.669
  335SOL     OW 1903   3.273   6.730   3.625
  335SOL    HW1 1904   3.196   6.720   3.563
  335SOL    HW2 1905   3.351   6.768   3.575
  336SOL     OW 1906   3.270   0.974   4.467
  336SOL    HW1 1907   3.251   0.891   4.520
  336SOL    HW2 1908   3.354   0.960   4.414
  337SOL     OW 1909   6.772   4.129   1.330
  337SOL    HW1 1910   6.839   4.069   1.374
  337SOL    HW2 1911   6.724   4.078   1.259
  338SOL     OW 1912   3.818   2.960   1.175
  338SOL    HW1 1913   3.761   2.877   1.171
  338SOL    HW2 1914   3.870   2.969   1.090
  339SOL     OW 1915   4.373   6.215   3.166
  339SOL    HW1 1916   4.332   6.220   3.075
  339SOL    HW2 1917   4.373   6.306   3.207
  340SOL     OW 1918   4.704   4.304   4.293
  340SOL    HW1 1919   4.704   4.220   4.348
  340SOL    HW2 1920   4.723   4.280   4.198
  341SOL     OW 1921   5.920   5.099   4.795
  341SOL    HW1 1922   5.965   5.021   4.840
  341SOL    HW2 1923   5.989   5.155   4.749
  342SOL     OW 1924   6.351   3.745   0.529
  342SOL    HW1 1925   6.295   3.771   0.450
  342SOL    HW2 1926   6.293   3.698   0.596
  343SOL     OW 1927   2.990   0.632   3.027
  343SOL    HW1 1928   2.971   0.551   3.082
  343SOL    HW2 1929   2.931   0.633   2.947
  344SOL     OW 1930   3.420   5.023   0.086
  344SOL    HW1 1931   3.332   5.051   0.122
  344SOL    HW2 1932   3.454   5.093   0.022
  345SOL     OW 1933   0.579   6.797   5.407
  345SOL    HW1 1934   0.671   6.819   5.441
  345SOL    HW2 1935   0.582   6.708   5.360
  346SOL     OW 1936   1.888   6.903   3.684
  346SOL    HW1 1937   1.804   6.851   3.667
  346SOL    HW2 1938   1.940   6.860   3.757
  347SOL     OW 1939   5.477   6.451   6.650
  347SOL    HW1 1940   5.484   6.544   6.614
  347SOL    HW2 1941   5.408   6.400   6.598
  348SOL     OW 1942   3.936   5.884   2.961
  348SOL    HW1 1943   3.868   5.957   2.961
  348SOL    HW2 1944   3.943   5.843   3.052
  349SOL     OW 1945   1.464   4.986   1.915
  349SOL    HW1 1946   1.515   4.934   1.985
  349SOL    HW2 1947   1.526   5.009   1.840
  350SOL     OW 1948   4.791   3.099   1.256
  350SOL    HW1 1949   4.851   3.134   1.185
  350SOL    HW2 1950   4.846   3.057   1.329
  351SOL     OW 1951   3.278   2.297   0.092
  351SOL    HW1 1952   3.251   2.389   0.064
  351SOL    HW2 1953   3.206   2.257   0.149
  352SOL     OW 1954   3.373   1.019   6.745
  352SOL    HW1 1955   3.411   1.036   6.654
  352SOL    HW2 1956   3.329   0.929   6.746
  353SOL     OW 1957   2.072   6.463   0.572
  353SOL    HW1 1958   1.995   6.470   0.635
  353SOL    HW2 1959   2.096   6.555   0.539
  354SOL     OW 1960   4.604   1.435   1.599
  354SOL    HW1 1961   4.656   1.470   1.677
  354SOL    HW2 1962   4.640   1.345   1.573
  355SOL     OW 1963   0.793   1.973   2.227
  355SOL    HW1 1964   0.756   2.022   2.148
  355SOL    HW2 1965   0.719   1.932   2.279
  356SOL     OW 1966   4.070   5.356   3.177
  356SOL    HW1 1967   3.983   5.329   3.218
  356SOL    HW2 1968   4.120   5.415   3.240
  357SOL     OW 1969   0.921   4.700   5.263
  357SOL    HW1 1970   0.915   4.746   5.174
  357SOL    HW2 1971   0.837   4.717   5.315
  358SOL     OW 1972   5.613   0.704   1.451
  358SOL    HW1 1973   5.622   0.619   1.503
  358SOL    HW2 1974   5.516   0.721   1.432
  359SOL     OW 1975   1.229   1.179   2.059
  359SOL    HW1 1976   1.224   1.136   2.149
  359SOL    HW2 1977   1.300   1.249   2.060
  360SOL     OW 1978   3.866   6.179   0.798
  360SOL    HW1 1979   3.860   6.262   0.742
  360SOL    HW2 1980   3.805   6.109   0.760
  361SOL     OW 1981   4.362   0.418   3.057
  361SOL    HW1 1982   4.284   0.416   3.121
  361SOL    HW2 1983   4.445   0.389   3.105
  362SOL     OW 1984   2.469   3.272   0.872
  362SOL    HW1 1985   2.469   3.269   0.972
  362SOL    HW2 1986   2.555   3.234   0.837
  363SOL     OW 1987   4.765   4.945   4.317
  363SOL    HW1 1988   4.710   4.951   4.234
  363SOL    HW2 1989   4.717   4.890   4.385
  364SOL     OW 1990   1.760   5.359   5.764
  364SOL    HW1 1991   1.688   5.379   5.698
  364SOL    HW2 1992   1.722   5.310   5.842
  365SOL     OW 1993   4.592   6.152   2.759
  365SOL    HW1 1994   4.684   6.186   2.739
  365SOL    HW2 1995   4.563   6.090   2.686
  366SOL     OW 1996   5.611   6.838   6.941
  366SOL    HW1 1997   5.623   6.921   6.996
  366SOL    HW2 1998   5.516   6.831   6.910
  367SOL     OW 1999   5.104   2.317   1.469
  367SOL    HW1 2000   5.169   2.257   1.517
  367SOL    HW2 2001   5.149   2.402   1.444
  368SOL     OW 2002   1.376   4.829   5.459
  368SOL    HW1 2003   1.379   4.886   5.541
  368SOL    HW2 2004   1.453   4.765   5.460
  369SOL     OW 2005   0.325   3.620   1.662
  369SOL    HW1 2006   0.237   3.669   1.661
  369SOL    HW2 2007   0.392   3.673   1.713
  370SOL     OW 2008   3.985   1.301   6.506
  370SOL    HW1 2009   3.912   1.255   6.557
  370SOL    HW2 2010   3.957   1.312   6.411
  371SOL     OW 2011   4.128   3.083   6.489
  371SOL    HW1 2012   4.128   2.984   6.475
  371SOL    HW2 2013   4.079   3.127   6.413
  372SOL     OW 2014   1.151   5.304   5.808
  372SOL    HW1 2015   1.068   5.338   5.851
  372SOL    HW2 2016   1.156   5.205   5.817
  373SOL     OW 2017   6.845   6.935   0.474
  373SOL    HW1 2018   6.798   6.912   0.559
  373SOL    HW2 2019   6.921   6.996   0.493
  374SOL     OW 2020   3.894   1.221   1.014
  374SOL    HW1 2021   3.962   1.248   1.083
  374SOL    HW2 2022   3.840   1.144   1.049
  375SOL     OW 2023   6.921   4.483   2.743
  375SOL    HW1 2024   6.826   4.455   2.754
  375SOL    HW2 2025   6.980   4.402   2.744
  376SOL     OW 2026   2.186   2.560   4.237
  376SOL    HW1 2027   2.098   2.607   4.230
  376SOL    HW2 2028   2.181   2.492   4.310
  377SOL     OW 2029   5.058   1.767   4.037
  377SOL    HW1 2030   4.995   1.838   4.007
  377SOL    HW2 2031   5.010   1.679   4.042
  378SOL     OW 2032   4.957   2.519   4.760
  378SOL    HW1 2033   4.869   2.503   4.715
  378SOL    HW2 2034   5.028   2.531   4.690
  379SOL     OW 2035   6.613   3.717   1.223
  379SOL    HW1 2036   6.601   3.618   1.225
  379SOL    HW2 2037   6.607   3.753   1.316
  380SOL     OW 2038   0.839   2.149   0.367
  380SOL    HW1 2039   0.830   2.233   0.313
  380SOL    HW2 2040   0.774   2.150   0.443
  381SOL     OW 2041   3.264   3.939   0.476
  381SOL    HW1 2042   3.321   3.884   0.537
  381SOL    HW2 2043   3.305   3.941   0.385
  382SOL     OW 2044   2.524   5.585   1.097
  382SOL    HW1 2045   2.592   5.514   1.113
  382SOL    HW2 2046   2.466   5.558   1.020
  383SOL     OW 2047   6.366   2.376   6.693
  383SOL    HW1 2048   6.424   2.458   6.700
  383SOL    HW2 2049   6.273   2.403   6.667
  384SOL     OW 2050   1.529   5.790   4.962
  384SOL    HW1 2051   1.551   5.778   4.865
  384SOL    HW2 2052   1.455   5.729   4.988
  385SOL     OW 2053   4.866   5.429   1.049
  385SOL    HW1 2054   4.814   5.482   1.115
  385SOL    HW2 2055   4.874   5.480   0.964
  386SOL     OW 2056   2.880   6.390   5.200
  386SOL    HW1 2057   2.836   6.311   5.243
  386SOL    HW2 2058   2.946   6.359   5.132
  387SOL     OW 2059   6.951   0.148   5.501
  387SOL    HW1 2060   0.015   0.105   5.544
  387SOL    HW2 2061   6.952   0.128   5.403
  388SOL     OW 2062   6.944   1.918   5.029
  388SOL    HW1 2063   0.006   1.978   5.009
  388SOL    HW2 2064   6.926   1.859   4.951
  389SOL     OW 2065   4.493   4.413   1.498
  389SOL    HW1 2066   4.410   4.445   1.542
  389SOL    HW2 2067   4.513   4.319   1.528
  390SOL     OW 2068   4.292   2.346   0.369
  390SOL    HW1 2069   4.386   2.374   0.350
  390SOL    HW2 2070   4.277   2.253   0.336
  391SOL     OW 2071   3.555   4.027   3.991
  391SOL    HW1 2072   3.582   3.952   3.931
  391SOL    HW2 2073   3.469   4.003   4.037
  392SOL     OW 2074   1.259   3.592   1.552
  392SOL    HW1 2075   1.201   3.669   1.579
  392SOL    HW2 2076   1.317   3.619   1.475
  393SOL     OW 2077   1.190   5.030   1.145
  393SOL    HW1 2078   1.163   5.127   1.146
  393SOL    HW2 2079   1.109   4.973   1.141
  394SOL     OW 2080   6.132   1.111   6.325
  394SOL    HW1 2081   6.137   1.157   6.414
  394SOL    HW2 2082   6.204   1.042   6.320
  395SOL     OW 2083   6.030   5.075   1.111
  395SOL    HW1 2084   5.985   5.071   1.022
  395SOL    HW2 2085   6.128   5.065   1.099
  396SOL     OW 2086   1.457   6.926   1.573
  396SOL    HW1 2087   1.385   6.930   1.504
  396SOL    HW2 2088   1.431   6.982   1.652
  397SOL     OW 2089   3.809   1.847   5.281
  397SOL    HW1 2090   3.833   1.910   5.207
  397SOL    HW2 2091   3.861   1.763   5.272
  398SOL     OW 2092   1.196   0.651   3.730
  398SOL    HW1 2093   1.158   0.689   3.646
  398SOL    HW2 2094   1.295   0.636   3.718
  399SOL     OW 2095   5.525   5.968   4.092
  399SOL    HW1 2096   5.516   6.067   4.104
  399SOL    HW2 2097   5.620   5.941   4.113
  400SOL     OW 2098   5.805   6.875   4.382
  400SOL    HW1 2099   5.740   6.852   4.454
  400SOL    HW2 2100   5.824   6.973   4.384
  401SOL     OW 2101   0.739   5.739   5.586
  401SOL    HW1 2102   0.648   5.697   5.576
  401SOL    HW2 2103   0.776   5.718   5.676
  402SOL     OW 2104   5.555   1.843   3.207
  402SOL    HW1 2105   5.504   1.817   3.126
  402SOL    HW2 2106   5.642   1.885   3.180
  403SOL     OW 2107   3.192   1.246   5.215
  403SOL    HW1 2108   3.202   1.252   5.314
  403SOL    HW2 2109   3.132   1.320   5.183
  404SOL     OW 2110   3.797   5.314   3.147
  404SOL    HW1 2111   3.767   5.396   3.098
  404SOL    HW2 2112   3.785   5.234   3.089
  405SOL     OW 2113   2.148   4.681   4.535
  405SOL    HW1 2114   2.150   4.777   4.562
  405SOL    HW2 2115   2.241   4.648   4.520
  406SOL     OW 2116   0.216   6.721   6.392
  406SOL    HW1 2117   0.236   6.712   6.489
  406SOL    HW2 2118   0.137   6.663   6.369
  407SOL     OW 2119   2.178   3.101   4.021
  407SOL    HW1 2120   2.171   3.161   4.101
  407SOL    HW2 2121   2.216   3.013   4.049
  408SOL     OW 2122   1.903   1.353   3.336
  408SOL    HW1 2123   1.820   1.361   3.279
  408SOL    HW2 2124   1.881   1.303   3.419
  409SOL     OW 2125   0.545   3.217   2.316
  409SOL    HW1 2126   0.610   3.288   2.290
  409SOL    HW2 2127   0.456   3.238   2.277
  410SOL     OW 2128   1.394   1.798   1.726
  410SOL    HW1 2129   1.417   1.831   1.635
  410SOL    HW2 2130   1.448   1.848   1.794
  411SOL     OW 2131   0.167   2.605   1.590
  411SOL    HW1 2132   0.232   2.626   1.663
  411SOL    HW2 2133   0.199   2.525   1.539
  412SOL     OW 2134   1.431   4.987   2.513
  412SOL    HW1 2135   1.366   4.951   2.447
  412SOL    HW2 2136   1.515   4.933   2.511
  413SOL     OW 2137   5.957   6.293   2.323
  413SOL    HW1 2138   5.886   6.340   2.270
  413SOL    HW2 2139   6.008   6.360   2.376
  414SOL     OW 2140   1.700   6.541   3.052
  414SOL    HW1 2141   1.727   6.588   3.136
  414SOL    HW2 2142   1.769   6.473   3.028
  415SOL     OW 2143   5.903   1.232   6.676
  415SOL    HW1 2144   5.869   1.145   6.713
  415SOL    HW2 2145   5.885   1.305   6.742
  416SOL     OW 2146   5.825   3.575   5.746
  416SOL    HW1 2147   5.757   3.520   5.795
  416SOL    HW2 2148   5.796   3.587   5.651
  417SOL     OW 2149   1.920   2.091   6.609
  417SOL    HW1 2150   1.909   2.190   6.614
  417SOL    HW2 2151   1.868   2.048   6.683
  418SOL     OW 2152   3.781   0.460   4.761
  418SOL    HW1 2153   3.725   0.383   4.792
  418SOL    HW2 2154   3.836   0.494   4.837
  419SOL     OW 2155   6.766   0.451   0.325
  419SOL    HW1 2156   6.779   0.395   0.243
  419SOL    HW2 2157   6.795   0.399   0.405
  420SOL     OW 2158   3.977   0.319   0.499
  420SOL    HW1 2159   3.932   0.335   0.587
  420SOL    HW2 2160   4.010   0.406   0.462
  421SOL     OW 2161   4.672   4.482   2.241
  421SOL    HW1 2162   4.633   4.477   2.333
  421SOL    HW2 2163   4.604   4.451   2.175
  422SOL     OW 2164   5.330   2.840   2.152
  422SOL    HW1 2165   5.429   2.826   2.143
  422SOL    HW2 2166   5.309   2.937   2.153
  423SOL     OW 2167   2.768   1.270   6.240
  423SOL    HW1 2168   2.848   1.233   6.193
  423SOL    HW2 2169   2.789   1.283   6.337
  424SOL     OW 2170   1.301   3.780   3.957
  424SOL    HW1 2171   1.367   3.721   3.911
  424SOL    HW2 2172   1.209   3.761   3.923
  425SOL     OW 2173   3.600   0.994   6.888
  425SOL    HW1 2174   3.511   1.003   6.845
  425SOL    HW2 2175   3.632   1.083   6.919
  426SOL     OW 2176   2.730   1.774   4.214
  426SOL    HW1 2177   2.715   1.719   4.132
  426SOL    HW2 2178   2.827   1.796   4.222
  427SOL     OW 2179   4.417   1.960   2.891
  427SOL    HW1 2180   4.433   1.936   2.987
  427SOL    HW2 2181   4.446   1.884   2.833
  428SOL     OW 2182   2.527   2.134   5.795
  428SOL    HW1 2183   2.569   2.204   5.853
  428SOL    HW2 2184   2.467   2.076   5.850
  429SOL     OW 2185   6.764   5.818   4.449
  429SOL    HW1 2186   6.768   5.721   4.470
  429SOL    HW2 2187   6.775   5.832   4.350
  430SOL     OW 2188   1.650   7.011   4.359
  430SOL    HW1 2189   1.724   6.948   4.334
  430SOL    HW2 2190   1.676   0.089   4.337
  431SOL     OW 2191   2.424   1.743   1.917
  431SOL    HW1 2192   2.507   1.788   1.883
  431SOL    HW2 2193   2.408   1.659   1.866
  432SOL     OW 2194   4.274   1.861   1.148
  432SOL    HW1 2195   4.283   1.852   1.247
  432SOL    HW2 2196   4.225   1.782   1.112
  433SOL     OW 2197   1.795   4.667   0.810
  433SOL    HW1 2198   1.828   4.748   0.762
  433SOL    HW2 2199   1.779   4.593   0.745
  434SOL     OW 2200   5.058   4.833   3.509
  434SOL    HW1 2201   5.096   4.899   3.575
  434SOL    HW2 2202   5.128   4.764   3.488
  435SOL     OW 2203   3.906   2.867   5.757
  435SOL    HW1 2204   3.937   2.924   5.681
  435SOL    HW2 2205   3.853   2.923   5.821
  436SOL     OW 2206   4.978   6.484   2.541
  436SOL    HW1 2207   5.052   6.432   2.497
  436SOL    HW2 2208   5.014   6.571   2.575
  437SOL     OW 2209   6.365   0.968   5.043
  437SOL    HW1 2210   6.387   1.053   5.090
  437SOL    HW2 2211   6.313   0.988   4.961
  438SOL     OW 2212   0.575   4.820   2.332
  438SOL    HW1 2213   0.576   4.919   2.316
  438SOL    HW2 2214   0.512   4.799   2.406
  439SOL     OW 2215   0.126   0.896   4.780
  439SOL    HW1 2216   0.213   0.852   4.759
  439SOL    HW2 2217   0.143   0.986   4.822
  440SOL     OW 2218   3.958   1.464   0.319
  440SOL    HW1 2219   3.981   1.559   0.299
  440SOL    HW2 2220   4.043   1.410   0.324
  441SOL     OW 2221   0.645   4.903   1.613
  441SOL    HW1 2222   0.568   4.877   1.672
  441SOL    HW2 2223   0.704   4.824   1.600
  442SOL     OW 2224   4.877   3.111   5.320
  442SOL    HW1 2225   4.901   3.145   5.229
  442SOL    HW2 2226   4.915   3.020   5.333
  443SOL     OW 2227   5.028   2.981   2.396
  443SOL    HW1 2228   5.023   3.065   2.450
  443SOL    HW2 2229   4.977   2.992   2.311
  444SOL     OW 2230   4.805   1.486   1.835
  444SOL    HW1 2231   4.771   1.462   1.925
  444SOL    HW2 2232   4.850   1.575   1.839
  445SOL     OW 2233   1.703   4.968   2.837
  445SOL    HW1 2234   1.644   4.944   2.915
  445SOL    HW2 2235   1.657   5.036   2.780
  446SOL     OW 2236   6.151   0.013   1.525
  446SOL    HW1 2237   6.181   6.933   1.538
  446SOL    HW2 2238   6.107   0.045   1.609
  447SOL     OW 2239   5.950   4.228   1.172
  447SOL    HW1 2240   5.907   4.267   1.253
  447SOL    HW2 2241   6.050   4.238   1.178
  448SOL     OW 2242   3.854   6.430   3.767
  448SOL    HW1 2243   3.837   6.366   3.692
  448SOL    HW2 2244   3.767   6.459   3.805
  449SOL     OW 2245   1.671   4.188   4.409
  449SOL    HW1 2246   1.682   4.265   4.473
  449SOL    HW2 2247   1.745   4.122   4.424
  450SOL     OW 2248   6.395   4.477   3.481
  450SOL    HW1 2249   6.362   4.383   3.477
  450SOL    HW2 2250   6.404   4.513   3.388
  451SOL     OW 2251   0.933   2.093   0.724
  451SOL    HW1 2252   0.849   2.054   0.687
  451SOL    HW2 2253   1.010   2.032   0.704
  452SOL     OW 2254   4.979   5.409   2.789
  452SOL    HW1 2255   4.952   5.316   2.762
  452SOL    HW2 2256   4.898   5.462   2.812
  453SOL     OW 2257   3.604   1.272   6.992
  453SOL    HW1 2258   3.664   1.311   0.047
  453SOL    HW2 2259   3.531   1.338   6.970
  454SOL     OW 2260   0.005   2.934   5.504
  454SOL    HW1 2261   0.081   2.955   5.443
  454SOL    HW2 2262   6.951   3.006   5.497
  455SOL     OW 2263   5.400   5.337   6.195
  455SOL    HW1 2264   5.374   5.384   6.279
  455SOL    HW2 2265   5.396   5.238   6.209
  456SOL     OW 2266   2.749   1.198   2.577
  456SOL    HW1 2267   2.751   1.256   2.658
  456SOL    HW2 2268   2.839   1.195   2.535
  457SOL     OW 2269   2.459   6.399   6.981
  457SOL    HW1 2270   2.372   6.410   6.932
  457SOL    HW2 2271   2.533   6.390   6.915
  458SOL     OW 2272   3.613   1.258   2.774
  458SOL    HW1 2273   3.563   1.244   2.859
  458SOL    HW2 2274   3.701   1.300   2.793
  459SOL     OW 2275   3.479   0.485   3.464
  459SOL    HW1 2276   3.535   0.512   3.386
  459SOL    HW2 2277   3.414   0.557   3.486
  460SOL     OW 2278   0.589   1.551   6.571
  460SOL    HW1 2279   0.683   1.543   6.604
  460SOL    HW2 2280   0.581   1.631   6.511
  461SOL     OW 2281   1.366   5.671   5.340
  461SOL    HW1 2282   1.364   5.667   5.240
  461SOL    HW2 2283   1.307   5.600   5.378
  462SOL     OW 2284   3.437   4.177   4.749
  462SOL    HW1 2285   3.340   4.176   4.773
  462SOL    HW2 2286   3.492   4.194   4.831
  463SOL     OW 2287   5.059   6.008   3.839
  463SOL    HW1 2288   4.983   6.051   3.886
  463SOL    HW2 2289   5.032   5.984   3.746
  464SOL     OW 2290   4.001   5.236   6.130
  464SOL    HW1 2291   3.907   5.244   6.163
  464SOL    HW2 2292   4.002   5.214   6.033
  465SOL     OW 2293   0.845   4.098   0.062
  465SOL    HW1 2294   0.784   4.099   6.998
  465SOL    HW2 2295   0.918   4.031   0.048
  466SOL     OW 2296   3.776   5.134   4.358
  466SOL    HW1 2297   3.804   5.083   4.439
  466SOL    HW2 2298   3.818   5.093   4.277
  467SOL     OW 2299   6.116   0.221   2.530
  467SOL    HW1 2300   6.126   0.305   2.477
  467SOL    HW2 2301   6.066   0.241   2.615
  468SOL     OW 2302   2.638   5.697   6.306
  468SOL    HW1 2303   2.563   5.693   6.240
  468SOL    HW2 2304   2.694   5.614   6.299
  469SOL     OW 2305   2.810   4.807   4.806
  469SOL    HW1 2306   2.832   4.723   4.857
  469SOL    HW2 2307   2.846   4.886   4.856
  470SOL     OW 2308   2.051   5.016   2.351
  470SOL    HW1 2309   2.003   4.974   2.427
  470SOL    HW2 2310   2.147   4.989   2.352
  471SOL     OW 2311   1.621   2.275   4.352
  471SOL    HW1 2312   1.554   2.322   4.295
  471SOL    HW2 2313   1.573   2.220   4.420
  472SOL     OW 2314   5.397   3.911   6.882
  472SOL    HW1 2315   5.314   3.856   6.874
  472SOL    HW2 2316   5.417   3.927   6.979
  473SOL     OW 2317   6.017   3.323   2.421
  473SOL    HW1 2318   6.027   3.330   2.520
  473SOL    HW2 2319   5.940   3.381   2.392
  474SOL     OW 2320   4.684   5.729   4.235
  474SOL    HW1 2321   4.622   5.709   4.311
  474SOL    HW2 2322   4.632   5.730   4.150
  475SOL     OW 2323   5.961   1.674   0.445
  475SOL    HW1 2324   5.956   1.763   0.491
  475SOL    HW2 2325   6.003   1.685   0.355
  476SOL     OW 2326   1.339   3.878   6.583
  476SOL    HW1 2327   1.279   3.808   6.544
  476SOL    HW2 2328   1.413   3.899   6.518
  477SOL     OW 2329   1.361   5.004   3.180
  477SOL    HW1 2330   1.317   5.093   3.178
  477SOL    HW2 2331   1.455   5.012   3.146
  478SOL     OW 2332   5.573   6.056   2.987
  478SOL    HW1 2333   5.541   6.130   3.047
  478SOL    HW2 2334   5.494   6.008   2.949
  479SOL     OW 2335   3.498   4.108   2.987
  479SOL    HW1 2336   3.399   4.100   2.998
  479SOL    HW2 2337   3.521   4.109   2.890
  480SOL     OW 2338   1.293   0.680   2.528
  480SOL    HW1 2339   1.293   0.603   2.465
  480SOL    HW2 2340   1.349   0.659   2.608
  481SOL     OW 2341   6.555   0.097   0.985
  481SOL    HW1 2342   6.474   0.041   1.005
  481SOL    HW2 2343   6.633   0.037   0.966
  482SOL     OW 2344   4.270   4.794   2.509
  482SOL    HW1 2345   4.265   4.843   2.422
  482SOL    HW2 2346   4.178   4.785   2.548
  483SOL     OW 2347   5.992   1.952   4.067
  483SOL    HW1 2348   5.911   1.972   4.011
  483SOL    HW2 2349   6.073   1.995   4.025
  484SOL     OW 2350   2.085   4.858   3.534
  484SOL    HW1 2351   2.104   4.849   3.632
  484SOL    HW2 2352   2.049   4.949   3.515
  485SOL     OW 2353   5.446   2.628   1.521
  485SOL    HW1 2354   5.483   2.671   1.603
  485SOL    HW2 2355   5.516   2.571   1.479
  486SOL     OW 2356   5.982   6.586   5.878
  486SOL    HW1 2357   6.001   6.680   5.850
  486SOL    HW2 2358   5.979   6.527   5.797
  487SOL     OW 2359   0.346   0.148   6.492
  487SOL    HW1 2360   0.285   0.095   6.552
  487SOL    HW2 2361   0.291   0.193   6.421
  488SOL     OW 2362   2.151   5.496   3.169
  488SOL    HW1 2363   2.132   5.481   3.072
  488SOL    HW2 2364   2.084   5.561   3.206
  489SOL     OW 2365   1.911   5.628   5.538
  489SOL    HW1 2366   1.813   5.628   5.521
  489SOL    HW2 2367   1.937   5.712   5.586
  490SOL     OW 2368   1.118   3.961   4.622
  490SOL    HW1 2369   1.137   4.058   4.611
  490SOL    HW2 2370   1.198   3.915   4.662
  491SOL     OW 2371   6.710   2.696   0.794
  491SOL    HW1 2372   6.610   2.698   0.787
  491SOL    HW2 2373   6.749   2.668   0.707
  492SOL     OW 2374   1.529   2.958   5.154
  492SOL    HW1 2375   1.568   2.907   5.078
  492SOL    HW2 2376   1.600   2.973   5.224
  493SOL     OW 2377   1.474   5.171   4.280
  493SOL    HW1 2378   1.513   5.172   4.372
  493SOL    HW2 2379   1.396   5.234   4.277
  494SOL     OW 2380   2.631   6.942   4.161
  494SOL    HW1 2381   2.610   6.845   4.149
  494SOL    HW2 2382   2.663   6.959   4.254
  495SOL     OW 2383   3.609   4.176   6.518
  495SOL    HW1 2384   3.553   4.147   6.440
  495SOL    HW2 2385   3.638   4.095   6.570
  496SOL     OW 2386   5.221   1.139   3.252
  496SOL    HW1 2387   5.290   1.074   3.283
  496SOL    HW2 2388   5.249   1.232   3.276
  497SOL     OW 2389   4.747   1.908   0.269
  497SOL    HW1 2390   4.686   1.988   0.272
  497SOL    HW2 2391   4.694   1.825   0.283
  498SOL     OW 2392   0.122   0.552   1.507
  498SOL    HW1 2393   0.216   0.577   1.529
  498SOL    HW2 2394   0.080   0.508   1.586
  499SOL     OW 2395   2.712   5.982   0.309
  499SOL    HW1 2396   2.723   5.921   0.231
  499SOL    HW2 2397   2.667   5.934   0.384
  500SOL     OW 2398   5.229   1.700   6.710
  500SOL    HW1 2399   5.134   1.717   6.736
  500SOL    HW2 2400   5.277   1.786   6.697
  501SOL     OW 2401   1.396   1.067   4.939
  501SOL    HW1 2402   1.407   1.155   4.984
  501SOL    HW2 2403   1.485   1.035   4.906
  502SOL     OW 2404   2.465   4.636   6.892
  502SOL    HW1 2405   2.557   4.602   6.906
  502SOL    HW2 2406   2.413   4.571   6.837
  503SOL     OW 2407   3.697   5.620   0.830
  503SOL    HW1 2408   3.733   5.614   0.737
  503SOL    HW2 2409   3.616   5.679   0.830
  504SOL     OW 2410   6.499   6.003   1.700
  504SOL    HW1 2411   6.543   6.035   1.783
  504SOL    HW2 2412   6.400   6.007   1.711
  505SOL     OW 2413   5.590   5.301   5.242
  505SOL    HW1 2414   5.684   5.330   5.256
  505SOL    HW2 2415   5.532   5.341   5.313
  506SOL     OW 2416   3.251   4.885   3.439
  506SOL    HW1 2417   3.275   4.936   3.357
  506SOL    HW2 2418   3.161   4.843   3.428
  507SOL     OW 2419   3.099   1.213   1.585
  507SOL    HW1 2420   3.062   1.277   1.651
  507SOL    HW2 2421   3.042   1.214   1.502
  508SOL     OW 2422   0.469   4.806   3.206
  508SOL    HW1 2423   0.523   4.722   3.209
  508SOL    HW2 2424   0.484   4.858   3.291
  509SOL     OW 2425   4.133   6.772   6.144
  509SOL    HW1 2426   4.139   6.716   6.227
  509SOL    HW2 2427   4.103   6.715   6.068
  510SOL     OW 2428   6.444   3.996   0.285
  510SOL    HW1 2429   6.518   3.930   0.302
  510SOL    HW2 2430   6.455   4.036   0.194
  511SOL     OW 2431   0.763   1.376   0.371
  511SOL    HW1 2432   0.831   1.409   0.305
  511SOL    HW2 2433   0.702   1.310   0.327
  512SOL     OW 2434   0.344   2.448   3.786
  512SOL    HW1 2435   0.341   2.537   3.833
  512SOL    HW2 2436   0.395   2.458   3.701
  513SOL     OW 2437   5.055   0.284   3.241
  513SOL    HW1 2438   4.965   0.294   3.198
  513SOL    HW2 2439   5.093   0.375   3.259
  514SOL     OW 2440   5.131   1.033   5.388
  514SOL    HW1 2441   5.139   1.088   5.304
  514SOL    HW2 2442   5.052   1.064   5.440
  515SOL     OW 2443   3.765   0.301   6.867
  515SOL    HW1 2444   3.816   0.268   6.788
  515SOL    HW2 2445   3.749   0.226   6.930
  516SOL     OW 2446   2.192   6.382   2.393
  516SOL    HW1 2447   2.256   6.333   2.452
  516SOL    HW2 2448   2.215   6.365   2.297
  517SOL     OW 2449   3.056   5.224   1.730
  517SOL    HW1 2450   3.138   5.173   1.706
  517SOL    HW2 2451   3.030   5.285   1.655
  518SOL     OW 2452   1.898   5.003   4.142
  518SOL    HW1 2453   1.859   5.024   4.232
  518SOL    HW2 2454   1.962   4.927   4.150
  519SOL     OW 2455   6.915   6.864   2.522
  519SOL    HW1 2456   6.836   6.923   2.503
  519SOL    HW2 2457   6.992   6.920   2.551
  520SOL     OW 2458   2.354   4.381   0.603
  520SOL    HW1 2459   2.299   4.375   0.686
  520SOL    HW2 2460   2.450   4.362   0.626
  521SOL     OW 2461   6.439   5.822   5.059
  521SOL    HW1 2462   6.430   5.833   4.960
  521SOL    HW2 2463   6.519   5.766   5.079
  522SOL     OW 2464   4.018   4.364   0.447
  522SOL    HW1 2465   4.015   4.455   0.490
  522SOL    HW2 2466   4.028   4.374   0.348
  523SOL     OW 2467   0.912   0.052   0.283
  523SOL    HW1 2468   0.977   0.092   0.218
  523SOL    HW2 2469   0.961   7.009   0.348
  524SOL     OW 2470   6.753   1.673   0.813
  524SOL    HW1 2471   6.803   1.732   0.877
  524SOL    HW2 2472   6.803   1.666   0.727
  525SOL     OW 2473   1.035   3.066   3.908
  525SOL    HW1 2474   1.062   3.031   3.818
  525SOL    HW2 2475   1.018   3.164   3.901
  526SOL     OW 2476   4.164   0.014   3.818
  526SOL    HW1 2477   4.064   0.013   3.816
  526SOL    HW2 2478   4.198   0.104   3.789
  527SOL     OW 2479   0.378   1.685   0.858
  527SOL    HW1 2480   0.381   1.593   0.821
  527SOL    HW2 2481   0.458   1.736   0.827
  528SOL     OW 2482   6.723   2.804   4.541
  528SOL    HW1 2483   6.636   2.848   4.522
  528SOL    HW2 2484   6.789   2.873   4.573
  529SOL     OW 2485   1.726   0.109   6.991
  529SOL    HW1 2486   1.672   0.025   6.987
  529SOL    HW2 2487   1.820   0.086   0.002
  530SOL     OW 2488   3.430   4.724   1.110
  530SOL    HW1 2489   3.387   4.634   1.120
  530SOL    HW2 2490   3.432   4.770   1.199
  531SOL     OW 2491   1.312   6.934   0.653
  531SOL    HW1 2492   1.398   6.917   0.701
  531SOL    HW2 2493   1.331   6.983   0.567
  532SOL     OW 2494   1.923   1.867   5.849
  532SOL    HW1 2495   1.884   1.904   5.933
  532SOL    HW2 2496   1.857   1.875   5.774
  533SOL     OW 2497   4.134   0.540   3.863
  533SOL    HW1 2498   4.084   0.530   3.777
  533SOL    HW2 2499   4.130   0.636   3.893
  534SOL     OW 2500   1.886   4.183   1.752
  534SOL    HW1 2501   1.948   4.106   1.765
  534SOL    HW2 2502   1.880   4.235   1.837
  535SOL     OW 2503   4.931   3.516   4.225
  535SOL    HW1 2504   4.950   3.418   4.227
  535SOL    HW2 2505   4.874   3.541   4.303
  536SOL     OW 2506   6.038   6.651   2.096
  536SOL    HW1 2507   6.105   6.579   2.112
  536SOL    HW2 2508   5.963   6.642   2.162
  537SOL     OW 2509   2.945   1.953   2.830
  537SOL    HW1 2510   2.856   1.917   2.857
  537SOL    HW2 2511   3.004   1.877   2.800
  538SOL     OW 2512   3.493   4.988   4.729
  538SOL    HW1 2513   3.483   4.979   4.829
  538SOL    HW2 2514   3.438   5.065   4.697
  539SOL     OW 2515   1.274   0.215   6.351
  539SOL    HW1 2516   1.295   0.309   6.326
  539SOL    HW2 2517   1.250   0.210   6.448
  540SOL     OW 2518   1.633   0.575   4.976
  540SOL    HW1 2519   1.560   0.566   4.908
  540SOL    HW2 2520   1.599   0.546   5.066
  541SOL     OW 2521   5.154   5.867   4.063
  541SOL    HW1 2522   5.144   5.903   3.970
  541SOL    HW2 2523   5.066   5.833   4.095
  542SOL     OW 2524   3.698   6.799   5.605
  542SOL    HW1 2525   3.794   6.810   5.580
  542SOL    HW2 2526   3.692   6.760   5.697
  543SOL     OW 2527   6.395   2.319   3.549
  543SOL    HW1 2528   6.317   2.373   3.581
  543SOL    HW2 2529   6.476   2.378   3.543
  544SOL     OW 2530   1.359   3.201   1.494
  544SOL    HW1 2531   1.443   3.227   1.542
  544SOL    HW2 2532   1.379   3.183   1.397
  545SOL     OW 2533   6.652   6.503   1.261
  545SOL    HW1 2534   6.555   6.492   1.283
  545SOL    HW2 2535   6.679   6.434   1.194
  546SOL     OW 2536   0.053   3.892   1.997
  546SOL    HW1 2537   0.068   3.868   2.092
  546SOL    HW2 2538   0.141   3.909   1.952
  547SOL     OW 2539   5.060   7.005   6.345
  547SOL    HW1 2540   5.025   0.083   6.335
  547SOL    HW2 2541   5.045   6.973   6.438
  548SOL     OW 2542   3.569   2.475   6.812
  548SOL    HW1 2543   3.627   2.475   6.894
  548SOL    HW2 2544   3.545   2.570   6.789
  549SOL     OW 2545   5.506   1.581   2.052
  549SOL    HW1 2546   5.560   1.650   2.101
  549SOL    HW2 2547   5.552   1.557   1.967
  550SOL     OW 2548   6.981   5.899   3.244
  550SOL    HW1 2549   0.033   5.906   3.317
  550SOL    HW2 2550   6.965   5.989   3.204
  551SOL     OW 2551   6.085   0.326   0.626
  551SOL    HW1 2552   6.107   0.367   0.537
  551SOL    HW2 2553   6.081   0.226   0.616
  552SOL     OW 2554   0.793   6.263   5.402
  552SOL    HW1 2555   0.737   6.341   5.428
  552SOL    HW2 2556   0.734   6.193   5.361
  553SOL     OW 2557   3.422   1.910   6.754
  553SOL    HW1 2558   3.467   1.950   6.675
  553SOL    HW2 2559   3.441   1.966   6.835
  554SOL     OW 2560   6.383   6.250   0.933
  554SOL    HW1 2561   6.300   6.197   0.914
  554SOL    HW2 2562   6.358   6.341   0.966
  555SOL     OW 2563   2.142   3.751   5.080
  555SOL    HW1 2564   2.177   3.670   5.032
  555SOL    HW2 2565   2.210   3.824   5.076
  556SOL     OW 2566   5.919   6.974   3.505
  556SOL    HW1 2567   5.897   6.923   3.422
  556SOL    HW2 2568   5.862   6.941   3.580
  557SOL     OW 2569   5.765   4.321   6.744
  557SOL    HW1 2570   5.775   4.222   6.737
  557SOL    HW2 2571   5.808   4.365   6.665
  558SOL     OW 2572   3.505   3.296   2.574
  558SOL    HW1 2573   3.478   3.222   2.512
  558SOL    HW2 2574   3.425   3.351   2.597
  559SOL     OW 2575   6.409   0.067   5.750
  559SOL    HW1 2576   6.412   0.036   5.655
  559SOL    HW2 2577   6.449   7.012   5.809
  560SOL     OW 2578   6.629   2.950   4.218
  560SOL    HW1 2579   6.541   2.937   4.171
  560SOL    HW2 2580   6.627   3.036   4.269
  561SOL     OW 2581   0.785   2.982   0.407
  561SOL    HW1 2582   0.786   3.022   0.499
  561SOL    HW2 2583   0.762   3.053   0.341
  562SOL     OW 2584   4.126   6.460   4.559
  562SOL    HW1 2585   4.103   6.508   4.643
  562SOL    HW2 2586   4.207   6.403   4.574
  563SOL     OW 2587   1.621   0.576   4.087
  563SOL    HW1 2588   1.525   0.591   4.106
  563SOL    HW2 2589   1.631   0.528   4.000
  564SOL     OW 2590   5.976   1.977   6.170
  564SOL    HW1 2591   6.045   2.030   6.218
  564SOL    HW2 2592   5.918   2.037   6.116
  565SOL     OW 2593   3.614   3.694   3.586
  565SOL    HW1 2594   3.599   3.612   3.531
  565SOL    HW2 2595   3.526   3.738   3.604
  566SOL     OW 2596   3.122   0.832   3.720
  566SOL    HW1 2597   3.052   0.891   3.759
  566SOL    HW2 2598   3.177   0.884   3.655
  567SOL     OW 2599   2.853   2.901   5.652
  567SOL    HW1 2600   2.788   2.960   5.700
  567SOL    HW2 2601   2.863   2.933   5.558
  568SOL     OW 2602   0.351   6.117   0.508
  568SOL    HW1 2603   0.370   6.104   0.410
  568SOL    HW2 2604   0.437   6.111   0.560
  569SOL     OW 2605   6.285   3.759   0.239
  569SOL    HW1 2606   6.213   3.771   0.171
  569SOL    HW2 2607   6.328   3.847   0.258
  570SOL     OW 2608   2.854   0.573   6.250
  570SOL    HW1 2609   2.850   0.672   6.262
  570SOL    HW2 2610   2.879   0.551   6.156
  571SOL     OW 2611   2.084   4.451   1.318
  571SOL    HW1 2612   2.109   4.431   1.413
  571SOL    HW2 2613   2.074   4.365   1.268
  572SOL     OW 2614   3.043   0.533   4.792
  572SOL    HW1 2615   2.988   0.607   4.753
  572SOL    HW2 2616   3.016   0.516   4.887
  573SOL     OW 2617   0.351   0.903   5.099
  573SOL    HW1 2618   0.290   0.826   5.082
  573SOL    HW2 2619   0.338   0.936   5.192
  574SOL     OW 2620   2.056   1.562   6.112
  574SOL    HW1 2621   2.147   1.596   6.134
  574SOL    HW2 2622   2.035   1.580   6.016
  575SOL     OW 2623   3.808   3.725   6.955
  575SOL    HW1 2624   3.728   3.692   7.004
  575SOL    HW2 2625   3.865   3.780   0.002
  576SOL     OW 2626   2.055   2.089   2.736
  576SOL    HW1 2627   2.154   2.097   2.724
  576SOL    HW2 2628   2.012   2.064   2.649
  577SOL     OW 2629   0.637   1.254   1.293
  577SOL    HW1 2630   0.539   1.239   1.277
  577SOL    HW2 2631   0.684   1.166   1.296
  578SOL     OW 2632   3.474   0.138   6.768
  578SOL    HW1 2633   3.482   0.155   6.670
  578SOL    HW2 2634   3.559   0.099   6.803
  579SOL     OW 2635   2.027   3.947   1.769
  579SOL    HW1 2636   2.060   3.954   1.675
  579SOL    HW2 2637   2.104   3.931   1.831
  580SOL     OW 2638   4.891   5.536   4.653
  580SOL    HW1 2639   4.835   5.470   4.602
  580SOL    HW2 2640   4.831   5.602   4.698
  581SOL     OW 2641   2.072   2.510   5.189
  581SOL    HW1 2642   2.129   2.591   5.205
  581SOL    HW2 2643   2.106   2.434   5.243
  582SOL     OW 2644   5.103   4.849   4.230
  582SOL    HW1 2645   5.067   4.912   4.300
  582SOL    HW2 2646   5.190   4.811   4.262
  583SOL     OW 2647   3.869   6.170   5.715
  583SOL    HW1 2648   3.853   6.193   5.619
  583SOL    HW2 2649   3.867   6.253   5.770
  584SOL     OW 2650   4.118   0.825   5.578
  584SOL    HW1 2651   4.158   0.899   5.524
  584SOL    HW2 2652   4.156   0.737   5.546
  585SOL     OW 2653   3.777   0.232   1.323
  585SOL    HW1 2654   3.877   0.231   1.321
  585SOL    HW2 2655   3.745   0.247   1.416
  586SOL     OW 2656   3.998   0.790   0.536
  586SOL    HW1 2657   3.985   0.714   0.472
  586SOL    HW2 2658   3.959   0.874   0.497
  587SOL     OW 2659   5.078   1.969   1.954
  587SOL    HW1 2660   5.127   2.030   1.891
  587SOL    HW2 2661   4.997   2.014   1.989
  588SOL     OW 2662   1.769   4.578   3.004
  588SOL    HW1 2663   1.754   4.590   2.905
  588SOL    HW2 2664   1.865   4.555   3.020
  589SOL     OW 2665   3.017   5.364   0.415
  589SOL    HW1 2666   2.996   5.445   0.470
  589SOL    HW2 2667   3.096   5.383   0.357
  590SOL     OW 2668   3.541   2.324   0.146
  590SOL    HW1 2669   3.447   2.319   0.112
  590SOL    HW2 2670   3.563   2.240   0.196
  591SOL     OW 2671   3.156   5.856   3.703
  591SOL    HW1 2672   3.196   5.933   3.653
  591SOL    HW2 2673   3.199   5.771   3.672
  592SOL     OW 2674   3.506   1.799   4.459
  592SOL    HW1 2675   3.518   1.754   4.547
  592SOL    HW2 2676   3.533   1.895   4.466
  593SOL     OW 2677   2.165   1.965   6.848
  593SOL    HW1 2678   2.068   1.987   6.833
  593SOL    HW2 2679   2.177   1.866   6.842
  594SOL     OW 2680   4.660   0.921   2.596
  594SOL    HW1 2681   4.656   0.829   2.635
  594SOL    HW2 2682   4.685   0.915   2.499
  595SOL     OW 2683   6.142   5.810   2.654
  595SOL    HW1 2684   6.136   5.715   2.684
  595SOL    HW2 2685   6.072   5.864   2.701
  596SOL     OW 2686   6.519   4.747   4.288
  596SOL    HW1 2687   6.484   4.826   4.237
  596SOL    HW2 2688   6.520   4.667   4.229
  597SOL     OW 2689   3.070   1.124   6.776
  597SOL    HW1 2690   3.138   1.148   6.846
  597SOL    HW2 2691   3.014   1.048   6.810
  598SOL     OW 2692   3.245   4.146   4.068
  598SOL    HW1 2693   3.182   4.112   4.138
  598SOL    HW2 2694   3.334   4.165   4.111
  599SOL     OW 2695   1.409   5.373   1.418
  599SOL    HW1 2696   1.390   5.433   1.340
  599SOL    HW2 2697   1.333   5.310   1.430
  600SOL     OW 2698   6.639   3.150   5.221
  600SOL    HW1 2699   6.683   3.201   5.147
  600SOL    HW2 2700   6.583   3.077   5.183
  601SOL     OW 2701   0.904   6.648   5.819
  601SOL    HW1 2702   1.003   6.657   5.817
  601SOL    HW2 2703   0.876   6.569   5.764
  602SOL     OW 2704   2.161   0.260   3.485
  602SOL    HW1 2705   2.119   0.210   3.410
  602SOL    HW2 2706   2.220   0.199   3.537
  603SOL     OW 2707   1.681   1.724   4.502
  603SOL    HW1 2708   1.732   1.781   4.436
  603SOL    HW2 2709   1.630   1.654   4.452
  604SOL     OW 2710   5.901   3.087   1.124
  604SOL    HW1 2711   5.855   3.144   1.057
  604SOL    HW2 2712   5.848   3.085   1.209
  605SOL     OW 2713   6.424   6.406   1.548
  605SOL    HW1 2714   6.481   6.329   1.517
  605SOL    HW2 2715   6.420   6.475   1.476
  606SOL     OW 2716   3.585   0.078   4.620
  606SOL    HW1 2717   3.509   0.080   4.556
  606SOL    HW2 2718   3.622   7.000   4.626
  607SOL     OW 2719   1.671   3.010   5.402
  607SOL    HW1 2720   1.647   2.956   5.483
  607SOL    HW2 2721   1.769   3.001   5.384
  608SOL     OW 2722   3.217   1.252   5.492
  608SOL    HW1 2723   3.140   1.202   5.531
  608SOL    HW2 2724   3.206   1.350   5.509
  609SOL     OW 2725   3.581   2.871   1.928
  609SOL    HW1 2726   3.567   2.803   1.856
  609SOL    HW2 2727   3.657   2.931   1.903
  610SOL     OW 2728   4.462   3.673   1.718
  610SOL    HW1 2729   4.451   3.594   1.656
  610SOL    HW2 2730   4.373   3.697   1.757
  611SOL     OW 2731   3.574   0.758   3.195
  611SOL    HW1 2732   3.649   0.788   3.136
  611SOL    HW2 2733   3.579   0.659   3.207
  612SOL     OW 2734   4.427   5.084   4.285
  612SOL    HW1 2735   4.414   5.054   4.379
  612SOL    HW2 2736   4.421   5.005   4.224
  613SOL     OW 2737   4.196   4.616   5.306
  613SOL    HW1 2738   4.097   4.628   5.294
  613SOL    HW2 2739   4.233   4.564   5.229
  614SOL     OW 2740   2.918   6.279   5.995
  614SOL    HW1 2741   2.846   6.211   6.008
  614SOL    HW2 2742   2.992   6.263   6.060
  615SOL     OW 2743   0.782   5.058   2.560
  615SOL    HW1 2744   0.782   5.010   2.471
  615SOL    HW2 2745   0.702   5.117   2.566
  616SOL     OW 2746   6.027   2.735   3.550
  616SOL    HW1 2747   6.091   2.807   3.576
  616SOL    HW2 2748   5.959   2.772   3.487
  617SOL     OW 2749   2.991   6.569   6.153
  617SOL    HW1 2750   2.924   6.578   6.226
  617SOL    HW2 2751   2.945   6.555   6.065
  618SOL     OW 2752   1.763   1.114   2.716
  618SOL    HW1 2753   1.666   1.095   2.702
  618SOL    HW2 2754   1.809   1.125   2.628
  619SOL     OW 2755   0.702   1.880   6.748
  619SOL    HW1 2756   0.605   1.880   6.724
  619SOL    HW2 2757   0.735   1.786   6.755
  620SOL     OW 2758   4.310   3.574   1.314
  620SOL    HW1 2759   4.289   3.660   1.360
  620SOL    HW2 2760   4.364   3.593   1.232
  621SOL     OW 2761   0.404   5.499   1.376
  621SOL    HW1 2762   0.460   5.548   1.309
  621SOL    HW2 2763   0.346   5.565   1.425
  622SOL     OW 2764   0.823   0.625   6.718
  622SOL    HW1 2765   0.861   0.538   6.747
  622SOL    HW2 2766   0.895   0.683   6.681
  623SOL     OW 2767   0.477   4.875   6.016
  623SOL    HW1 2768   0.462   4.923   6.103
  623SOL    HW2 2769   0.553   4.810   6.027
  624SOL     OW 2770   0.879   1.888   1.227
  624SOL    HW1 2771   0.876   1.983   1.197
  624SOL    HW2 2772   0.920   1.883   1.319
  625SOL     OW 2773   1.643   1.362   2.383
  625SOL    HW1 2774   1.560   1.413   2.406
  625SOL    HW2 2775   1.723   1.412   2.414
  626SOL     OW 2776   3.193   6.889   4.396
  626SOL    HW1 2777   3.152   6.915   4.309
  626SOL    HW2 2778   3.245   6.804   4.384
  627SOL     OW 2779   5.275   0.963   0.165
  627SOL    HW1 2780   5.329   1.047   0.153
  627SOL    HW2 2781   5.336   0.889   0.192
  628SOL     OW 2782   5.442   4.150   3.191
  628SOL    HW1 2783   5.368   4.082   3.185
  628SOL    HW2 2784   5.402   4.242   3.192
  629SOL     OW 2785   1.523   6.332   0.432
  629SOL    HW1 2786   1.450   6.391   0.399
  629SOL    HW2 2787   1.593   6.387   0.478
  630SOL     OW 2788   2.992   1.826   1.738
  630SOL    HW1 2789   2.943   1.787   1.816
  630SOL    HW2 2790   2.927   1.850   1.666
  631SOL     OW 2791   2.090   6.533   4.689
  631SOL    HW1 2792   2.037   6.615   4.668
  631SOL    HW2 2793   2.030   6.465   4.733
  632SOL     OW 2794   1.911   0.712   1.201
  632SOL    HW1 2795   1.945   0.803   1.178
  632SOL    HW2 2796   1.822   0.698   1.158
  633SOL     OW 2797   2.039   6.405   5.509
  633SOL    HW1 2798   1.952   6.380   5.466
  633SOL    HW2 2799   2.053   6.504   5.500
  634SOL     OW 2800   3.092   5.798   1.274
  634SOL    HW1 2801   2.995   5.806   1.298
  634SOL    HW2 2802   3.122   5.704   1.287
  635SOL     OW 2803   2.752   0.510   2.295
  635SOL    HW1 2804   2.684   0.523   2.366
  635SOL    HW2 2805   2.770   0.412   2.284
  636SOL     OW 2806   5.529   5.547   0.152
  636SOL    HW1 2807   5.514   5.549   0.251
  636SOL    HW2 2808   5.457   5.600   0.106
  637SOL     OW 2809   5.512   4.604   0.572
  637SOL    HW1 2810   5.420   4.566   0.566
  637SOL    HW2 2811   5.567   4.549   0.635
  638SOL     OW 2812   5.378   1.181   2.287
  638SOL    HW1 2813   5.461   1.157   2.239
  638SOL    HW2 2814   5.359   1.279   2.276
  639SOL     OW 2815   4.663   4.328   2.553
  639SOL    HW1 2816   4.710   4.270   2.487
  639SOL    HW2 2817   4.631   4.273   2.630
  640SOL     OW 2818   2.333   4.213   5.727
  640SOL    HW1 2819   2.288   4.270   5.659
  640SOL    HW2 2820   2.431   4.208   5.708
  641SOL     OW 2821   0.485   5.926   5.812
  641SOL    HW1 2822   0.433   5.840   5.811
  641SOL    HW2 2823   0.548   5.926   5.891
  642SOL     OW 2824   1.504   4.286   5.955
  642SOL    HW1 2825   1.503   4.262   5.858
  642SOL    HW2 2826   1.479   4.383   5.965
  643SOL     OW 2827   6.109   6.158   5.048
  643SOL    HW1 2828   6.012   6.136   5.061
  643SOL    HW2 2829   6.139   6.125   4.958
  644SOL     OW 2830   2.666   6.096   2.084
  644SOL    HW1 2831   2.660   5.996   2.086
  644SOL    HW2 2832   2.651   6.132   2.176
  645SOL     OW 2833   6.170   3.020   3.797
  645SOL    HW1 2834   6.202   2.935   3.753
  645SOL    HW2 2835   6.070   3.022   3.797
  646SOL     OW 2836   1.289   2.153   4.728
  646SOL    HW1 2837   1.300   2.250   4.709
  646SOL    HW2 2838   1.329   2.131   4.817
  647SOL     OW 2839   5.265   3.291   0.574
  647SOL    HW1 2840   5.267   3.381   0.531
  647SOL    HW2 2841   5.343   3.281   0.635
  648SOL     OW 2842   4.628   1.872   3.837
  648SOL    HW1 2843   4.561   1.798   3.847
  648SOL    HW2 2844   4.589   1.958   3.868
  649SOL     OW 2845   4.400   4.765   1.892
  649SOL    HW1 2846   4.458   4.685   1.873
  649SOL    HW2 2847   4.430   4.810   1.976
  650SOL     OW 2848   4.729   3.541   1.136
  650SOL    HW1 2849   4.804   3.570   1.076
  650SOL    HW2 2850   4.718   3.607   1.210
  651SOL     OW 2851   0.944   5.824   6.285
  651SOL    HW1 2852   0.995   5.854   6.365
  651SOL    HW2 2853   0.932   5.724   6.288
  652SOL     OW 2854   4.769   1.448   2.872
  652SOL    HW1 2855   4.810   1.367   2.914
  652SOL    HW2 2856   4.818   1.470   2.788
  653SOL     OW 2857   4.030   4.963   3.261
  653SOL    HW1 2858   3.960   4.928   3.324
  653SOL    HW2 2859   4.118   4.968   3.308
  654SOL     OW 2860   6.396   5.257   0.052
  654SOL    HW1 2861   6.418   5.353   0.033
  654SOL    HW2 2862   6.409   5.202   6.985
  655SOL     OW 2863   6.847   1.306   6.685
  655SOL    HW1 2864   6.895   1.239   6.629
  655SOL    HW2 2865   6.753   1.275   6.700
  656SOL     OW 2866   2.473   5.929   1.590
  656SOL    HW1 2867   2.539   5.854   1.591
  656SOL    HW2 2868   2.520   6.015   1.610
  657SOL     OW 2869   4.205   1.255   6.677
  657SOL    HW1 2870   4.233   1.341   6.720
  657SOL    HW2 2871   4.123   1.270   6.622
  658SOL     OW 2872   3.496   5.132   5.596
  658SOL    HW1 2873   3.583   5.086   5.609
  658SOL    HW2 2874   3.421   5.066   5.606
  659SOL     OW 2875   2.930   0.842   6.660
  659SOL    HW1 2876   2.944   0.743   6.669
  659SOL    HW2 2877   2.994   0.879   6.593
  660SOL     OW 2878   3.671   5.612   3.340
  660SOL    HW1 2879   3.733   5.553   3.392
  660SOL    HW2 2880   3.592   5.636   3.396
  661SOL     OW 2881   5.550   5.713   2.878
  661SOL    HW1 2882   5.624   5.755   2.825
  661SOL    HW2 2883   5.572   5.617   2.895
  662SOL     OW 2884   3.534   1.306   0.619
  662SOL    HW1 2885   3.538   1.207   0.631
  662SOL    HW2 2886   3.591   1.333   0.541
  663SOL     OW 2887   2.104   4.790   4.867
  663SOL    HW1 2888   2.065   4.869   4.822
  663SOL    HW2 2889   2.079   4.707   4.817
  664SOL     OW 2890   5.885   0.996   6.344
  664SOL    HW1 2891   5.837   1.052   6.411
  664SOL    HW2 2892   5.983   1.016   6.347
  665SOL     OW 2893   1.902   4.641   2.201
  665SOL    HW1 2894   1.885   4.728   2.245
  665SOL    HW2 2895   1.817   4.606   2.160
  666SOL     OW 2896   3.944   1.242   0.721
  666SOL    HW1 2897   4.041   1.268   0.720
  666SOL    HW2 2898   3.898   1.285   0.799
  667SOL     OW 2899   1.251   6.592   2.412
  667SOL    HW1 2900   1.318   6.603   2.486
  667SOL    HW2 2901   1.188   6.670   2.413
  668SOL     OW 2902   5.206   3.907   0.728
  668SOL    HW1 2903   5.253   3.921   0.641
  668SOL    HW2 2904   5.263   3.850   0.788
  669SOL     OW 2905   4.959   1.726   2.537
  669SOL    HW1 2906   4.997   1.666   2.467
  669SOL    HW2 2907   5.033   1.780   2.578
  670SOL     OW 2908   3.071   2.162   3.001
  670SOL    HW1 2909   3.009   2.220   3.054
  670SOL    HW2 2910   3.019   2.116   2.929
  671SOL     OW 2911   2.992   6.930   1.602
  671SOL    HW1 2912   2.996   0.003   1.555
  671SOL    HW2 2913   2.915   6.877   1.566
  672SOL     OW 2914   1.436   6.903   2.508
  672SOL    HW1 2915   1.469   6.808   2.516
  672SOL    HW2 2916   1.513   6.965   2.522
  673SOL     OW 2917   5.672   6.619   0.818
  673SOL    HW1 2918   5.646   6.599   0.723
  673SOL    HW2 2919   5.649   6.541   0.876
  674SOL     OW 2920   6.222   0.762   3.884
  674SOL    HW1 2921   6.275   0.694   3.935
  674SOL    HW2 2922   6.284   0.817   3.827
  675SOL     OW 2923   0.312   3.575   3.194
  675SOL    HW1 2924   0.241   3.536   3.252
  675SOL    HW2 2925   0.271   3.612   3.111
  676SOL     OW 2926   2.446   6.626   6.029
  676SOL    HW1 2927   2.471   6.537   5.991
  676SOL    HW2 2928   2.433   6.692   5.955
  677SOL     OW 2929   5.213   1.723   1.314
  677SOL    HW1 2930   5.268   1.795   1.271
  677SOL    HW2 2931   5.271   1.644   1.333
  678SOL     OW 2932   0.715   5.302   3.511
  678SOL    HW1 2933   0.711   5.252   3.425
  678SOL    HW2 2934   0.636   5.277   3.567
  679SOL     OW 2935   4.598   2.229   5.279
  679SOL    HW1 2936   4.510   2.187   5.259
  679SOL    HW2 2937   4.651   2.169   5.339
  680SOL     OW 2938   6.113   6.407   4.489
  680SOL    HW1 2939   6.080   6.312   4.490
  680SOL    HW2 2940   6.132   6.437   4.583
  681SOL     OW 2941   4.780   4.998   2.484
  681SOL    HW1 2942   4.807   4.914   2.437
  681SOL    HW2 2943   4.713   4.977   2.555
  682SOL     OW 2944   0.492   1.294   3.217
  682SOL    HW1 2945   0.522   1.290   3.313
  682SOL    HW2 2946   0.500   1.203   3.176
  683SOL     OW 2947   3.577   3.997   1.371
  683SOL    HW1 2948   3.646   3.960   1.433
  683SOL    HW2 2949   3.619   4.065   1.311
  684SOL     OW 2950   6.489   1.463   6.017
  684SOL    HW1 2951   6.532   1.546   6.051
  684SOL    HW2 2952   6.438   1.484   5.934
  685SOL     OW 2953   3.316   0.430   3.150
  685SOL    HW1 2954   3.242   0.480   3.194
  685SOL    HW2 2955   3.283   0.387   3.066
  686SOL     OW 2956   4.259   0.281   4.917
  686SOL    HW1 2957   4.182   0.219   4.901
  686SOL    HW2 2958   4.339   0.250   4.865
  687SOL     OW 2959   0.693   2.037   3.518
  687SOL    HW1 2960   0.629   2.063   3.446
  687SOL    HW2 2961   0.757   2.112   3.534
  688SOL     OW 2962   6.078   1.617   6.819
  688SOL    HW1 2963   6.123   1.529   6.830
  688SOL    HW2 2964   6.142   1.682   6.777
  689SOL     OW 2965   1.586   5.582   5.967
  689SOL    HW1 2966   1.619   5.573   5.873
  689SOL    HW2 2967   1.576   5.679   5.989
  690SOL     OW 2968   5.350   3.638   2.573
  690SOL    HW1 2969   5.276   3.570   2.573
  690SOL    HW2 2970   5.394   3.639   2.483
  691SOL     OW 2971   6.153   1.713   0.700
  691SOL    HW1 2972   6.223   1.713   0.771
  691SOL    HW2 2973   6.104   1.626   0.702
  692SOL     OW 2974   1.685   0.172   4.797
  692SOL    HW1 2975   1.721   0.252   4.749
  692SOL    HW2 2976   1.760   0.110   4.821
  693SOL     OW 2977   5.393   5.817   3.361
  693SOL    HW1 2978   5.486   5.850   3.346
  693SOL    HW2 2979   5.359   5.777   3.276
  694SOL     OW 2980   4.819   6.185   5.290
  694SOL    HW1 2981   4.857   6.169   5.381
  694SOL    HW2 2982   4.868   6.261   5.247
  695SOL     OW 2983   4.361   7.013   4.100
  695SOL    HW1 2984   4.420   0.038   4.030
  695SOL    HW2 2985   4.298   6.947   4.058
  696SOL     OW 2986   5.352   3.883   2.947
  696SOL    HW1 2987   5.357   3.942   2.867
  696SOL    HW2 2988   5.334   3.938   3.028
  697SOL     OW 2989   0.885   6.489   2.191
  697SOL    HW1 2990   0.856   6.561   2.254
  697SOL    HW2 2991   0.945   6.425   2.238
  698SOL     OW 2992   5.797   6.648   0.008
  698SOL    HW1 2993   5.715   6.685   6.981
  698SOL    HW2 2994   5.848   6.721   0.052
  699SOL     OW 2995   3.239   3.105   1.387
  699SOL    HW1 2996   3.233   3.072   1.481
  699SOL    HW2 2997   3.186   3.045   1.327
  700SOL     OW 2998   4.174   0.150   4.212
  700SOL    HW1 2999   4.249   0.109   4.161
  700SOL    HW2 3000   4.156   0.242   4.175
  701SOL     OW 3001   4.690   5.067   1.651
  701SOL    HW1 3002   4.622   5.117   1.704
  701SOL    HW2 3003   4.749   5.132   1.603
  702SOL     OW 3004   3.859   0.624   4.041
  702SOL    HW1 3005   3.931   0.662   3.982
  702SOL    HW2 3006   3.809   0.554   3.991
  703SOL     OW 3007   3.261   2.258   6.812
  703SOL    HW1 3008   3.290   2.348   6.847
  703SOL    HW2 3009   3.200   2.215   6.878
  704SOL     OW 3010   2.213   2.264   5.706
  704SOL    HW1 3011   2.222   2.168   5.732
  704SOL    HW2 3012   2.274   2.320   5.761
  705SOL     OW 3013   0.231   6.564   5.027
  705SOL    HW1 3014   0.330   6.564   5.042
  705SOL    HW2 3015   0.197   6.470   5.031
  706SOL     OW 3016   4.170   1.193   5.447
  706SOL    HW1 3017   4.173   1.100   5.411
  706SOL    HW2 3018   4.091   1.241   5.408
  707SOL     OW 3019   3.191   5.182   4.237
  707SOL    HW1 3020   3.245   5.251   4.190
  707SOL    HW2 3021   3.117   5.150   4.178
  708SOL     OW 3022   4.502   5.915   3.860
  708SOL    HW1 3023   4.521   5.995   3.917
  708SOL    HW2 3024   4.482   5.945   3.767
  709SOL     OW 3025   2.260   0.189   1.225
  709SOL    HW1 3026   2.218   0.139   1.301
  709SOL    HW2 3027   2.306   0.271   1.261
  710SOL     OW 3028   4.667   3.194   1.644
  710SOL    HW1 3029   4.631   3.161   1.731
  710SOL    HW2 3030   4.765   3.176   1.639
  711SOL     OW 3031   6.877   2.330   6.957
  711SOL    HW1 3032   6.832   2.268   6.892
  711SOL    HW2 3033   6.839   2.422   6.947
  712SOL     OW 3034   5.041   3.979   0.396
  712SOL    HW1 3035   5.050   3.904   0.461
  712SOL    HW2 3036   5.091   3.957   0.312
  713SOL     OW 3037   4.091   3.281   5.010
  713SOL    HW1 3038   4.082   3.206   4.945
  713SOL    HW2 3039   4.043   3.258   5.094
  714SOL     OW 3040   5.096   5.849   3.061
  714SOL    HW1 3041   5.010   5.893   3.034
  714SOL    HW2 3042   5.162   5.855   2.987
  715SOL     OW 3043   6.077   5.154   5.787
  715SOL    HW1 3044   6.015   5.079   5.809
  715SOL    HW2 3045   6.142   5.123   5.717
  716SOL     OW 3046   1.851   1.738   3.045
  716SOL    HW1 3047   1.847   1.819   2.987
  716SOL    HW2 3048   1.852   1.656   2.988
  717SOL     OW 3049   5.328   4.692   4.307
  717SOL    HW1 3050   5.290   4.601   4.292
  717SOL    HW2 3051   5.328   4.712   4.405
  718SOL     OW 3052   5.441   2.316   5.139
  718SOL    HW1 3053   5.369   2.287   5.076
  718SOL    HW2 3054   5.425   2.276   5.229
  719SOL     OW 3055   5.458   6.676   4.048
  719SOL    HW1 3056   5.509   6.668   4.133
  719SOL    HW2 3057   5.506   6.738   3.986
  720SOL     OW 3058   2.075   1.144   0.457
  720SOL    HW1 3059   2.073   1.243   0.446
  720SOL    HW2 3060   2.136   1.104   0.388
  721SOL     OW 3061   0.124   1.965   2.736
  721SOL    HW1 3062   0.171   1.911   2.805
  721SOL    HW2 3063   0.035   1.923   2.716
  722SOL     OW 3064   5.385   6.401   0.624
  722SOL    HW1 3065   5.384   6.499   0.602
  722SOL    HW2 3066   5.447   6.353   0.561
  723SOL     OW 3067   2.512   6.497   4.067
  723SOL    HW1 3068   2.507   6.558   4.147
  723SOL    HW2 3069   2.604   6.504   4.027
  724SOL     OW 3070   1.451   1.848   3.999
  724SOL    HW1 3071   1.425   1.933   4.044
  724SOL    HW2 3072   1.531   1.809   4.045
  725SOL     OW 3073   1.661   4.338   2.753
  725SOL    HW1 3074   1.583   4.310   2.809
  725SOL    HW2 3075   1.745   4.299   2.792
  726SOL     OW 3076   1.527   3.741   0.854
  726SOL    HW1 3077   1.443   3.795   0.862
  726SOL    HW2 3078   1.593   3.771   0.923
  727SOL     OW 3079   3.761   5.416   4.923
  727SOL    HW1 3080   3.787   5.494   4.867
  727SOL    HW2 3081   3.742   5.337   4.863
  728SOL     OW 3082   6.542   3.063   3.533
  728SOL    HW1 3083   6.632   3.022   3.550
  728SOL    HW2 3084   6.512   3.040   3.441
  729SOL     OW 3085   0.597   4.260   0.958
  729SOL    HW1 3086   0.506   4.220   0.968
  729SOL    HW2 3087   0.597   4.354   0.993
  730SOL     OW 3088   3.825   0.569   3.373
  730SOL    HW1 3089   3.788   0.483   3.338
  730SOL    HW2 3090   3.830   0.564   3.473
  731SOL     OW 3091   4.843   5.250   5.561
  731SOL    HW1 3092   4.817   5.298   5.477
  731SOL    HW2 3093   4.888   5.164   5.538
  732SOL     OW 3094   3.754   1.389   5.165
  732SOL    HW1 3095   3.734   1.384   5.067
  732SOL    HW2 3096   3.676   1.355   5.217
  733SOL     OW 3097   6.182   5.660   3.040
  733SOL    HW1 3098   6.196   5.732   3.109
  733SOL    HW2 3099   6.268   5.645   2.991
  734SOL     OW 3100   6.488   6.541   2.647
  734SOL    HW1 3101   6.442   6.458   2.618
  734SOL    HW2 3102   6.470   6.558   2.744
  735SOL     OW 3103   4.491   6.541   2.481
  735SOL    HW1 3104   4.495   6.521   2.383
  735SOL    HW2 3105   4.578   6.583   2.510
  736SOL     OW 3106   2.157   1.130   3.864
  736SOL    HW1 3107   2.198   1.100   3.950
  736SOL    HW2 3108   2.066   1.090   3.854
  737SOL     OW 3109   3.516   0.876   5.735
  737SOL    HW1 3110   3.562   0.965   5.733
  737SOL    HW2 3111   3.468   0.861   5.649
  738SOL     OW 3112   2.105   4.336   0.353
  738SOL    HW1 3113   2.169   4.397   0.308
  738SOL    HW2 3114   2.143   4.243   0.357
  739SOL     OW 3115   3.053   6.869   4.146
  739SOL    HW1 3116   3.153   6.859   4.138
  739SOL    HW2 3117   3.010   6.780   4.136
  740SOL     OW 3118   5.166   3.454   2.623
  740SOL    HW1 3119   5.164   3.380   2.556
  740SOL    HW2 3120   5.151   3.417   2.714
  741SOL     OW 3121   2.904   1.072   3.107
  741SOL    HW1 3122   2.868   1.141   3.045
  741SOL    HW2 3123   3.000   1.055   3.087
  742SOL     OW 3124   2.461   6.554   1.920
  742SOL    HW1 3125   2.396   6.583   1.850
  742SOL    HW2 3126   2.488   6.458   1.904
  743SOL     OW 3127   0.709   6.926   3.287
  743SOL    HW1 3128   0.737   0.003   3.259
  743SOL    HW2 3129   0.752   6.858   3.227
  744SOL     OW 3130   5.278   1.892   0.264
  744SOL    HW1 3131   5.207   1.891   0.335
  744SOL    HW2 3132   5.365   1.921   0.303
  745SOL     OW 3133   1.981   0.120   4.675
  745SOL    HW1 3134   2.081   0.115   4.676
  745SOL    HW2 3135   1.943   0.033   4.708
  746SOL     OW 3136   6.929   4.698   5.834
  746SOL    HW1 3137   6.957   4.637   5.760
  746SOL    HW2 3138   6.834   4.679   5.858
  747SOL     OW 3139   4.886   5.740   2.676
  747SOL    HW1 3140   4.844   5.684   2.748
  747SOL    HW2 3141   4.840   5.722   2.589
  748SOL     OW 3142   5.188   5.132   1.924
  748SOL    HW1 3143   5.279   5.172   1.935
  748SOL    HW2 3144   5.124   5.203   1.894
  749SOL     OW 3145   4.775   4.043   4.403
  749SOL    HW1 3146   4.776   3.943   4.404
  749SOL    HW2 3147   4.863   4.077   4.434
  750SOL     OW 3148   2.594   1.948   2.459
  750SOL    HW1 3149   2.564   2.001   2.379
  750SOL    HW2 3150   2.605   2.009   2.537
  751SOL     OW 3151   3.749   0.629   0.752
  751SOL    HW1 3152   3.786   0.674   0.670
  751SOL    HW2 3153   3.687   0.556   0.724
  752SOL     OW 3154   3.616   2.550   5.446
  752SOL    HW1 3155   3.632   2.507   5.357
  752SOL    HW2 3156   3.521   2.537   5.473
  753SOL     OW 3157   3.948   4.006   4.375
  753SOL    HW1 3158   4.014   4.007   4.299
  753SOL    HW2 3159   3.858   4.034   4.342
  754SOL     OW 3160   5.842   0.513   0.351
  754SOL    HW1 3161   5.836   0.492   0.254
  754SOL    HW2 3162   5.922   0.467   0.391
  755SOL     OW 3163   4.172   4.304   5.365
  755SOL    HW1 3164   4.195   4.352   5.281
  755SOL    HW2 3165   4.256   4.279   5.413
  756SOL     OW 3166   2.443   5.302   6.412
  756SOL    HW1 3167   2.368   5.368   6.404
  756SOL    HW2 3168   2.477   5.280   6.320
  757SOL     OW 3169   2.811   6.171   2.516
  757SOL    HW1 3170   2.845   6.079   2.535
  757SOL    HW2 3171   2.840   6.234   2.588
  758SOL     OW 3172   4.689   0.715   4.066
  758SOL    HW1 3173   4.780   0.756   4.066
  758SOL    HW2 3174   4.620   0.788   4.066
  759SOL     OW 3175   0.791   2.923   3.682
  759SOL    HW1 3176   0.848   2.977   3.621
  759SOL    HW2 3177   0.749   2.983   3.750
  760SOL     OW 3178   6.247   5.382   3.117
  760SOL    HW1 3179   6.299   5.395   3.202
  760SOL    HW2 3180   6.221   5.472   3.081
  761SOL     OW 3181   4.011   4.198   6.315
  761SOL    HW1 3182   3.948   4.243   6.251
  761SOL    HW2 3183   4.068   4.267   6.359
  762SOL     OW 3184   3.220   5.608   3.615
  762SOL    HW1 3185   3.260   5.551   3.686
  762SOL    HW2 3186   3.145   5.559   3.571
  763SOL     OW 3187   5.704   0.763   0.644
  763SOL    HW1 3188   5.652   0.812   0.714
  763SOL    HW2 3189   5.688   0.806   0.555
  764SOL     OW 3190   5.405   0.076   6.143
  764SOL    HW1 3191   5.452   0.135   6.208
  764SOL    HW2 3192   5.387   0.127   6.058
  765SOL     OW 3193   6.730   0.118   0.689
  765SOL    HW1 3194   6.804   0.149   0.749
  765SOL    HW2 3195   6.719   0.020   0.697
  766SOL     OW 3196   2.552   2.094   4.787
  766SOL    HW1 3197   2.536   2.113   4.884
  766SOL    HW2 3198   2.630   2.032   4.778
  767SOL     OW 3199   6.602   5.044   4.801
  767SOL    HW1 3200   6.594   5.054   4.702
  767SOL    HW2 3201   6.649   4.958   4.822
  768SOL     OW 3202   1.932   5.459   2.912
  768SOL    HW1 3203   1.947   5.550   2.950
  768SOL    HW2 3204   1.988   5.449   2.829
  769SOL     OW 3205   2.514   2.111   5.082
  769SOL    HW1 3206   2.502   2.199   5.128
  769SOL    HW2 3207   2.595   2.065   5.116
  770SOL     OW 3208   1.352   4.505   6.004
  770SOL    HW1 3209   1.353   4.515   5.904
  770SOL    HW2 3210   1.397   4.584   6.045
  771SOL     OW 3211   1.566   5.169   2.674
  771SOL    HW1 3212   1.513   5.126   2.601
  771SOL    HW2 3213   1.503   5.210   2.740
  772SOL     OW 3214   5.774   4.411   0.988
  772SOL    HW1 3215   5.749   4.359   0.906
  772SOL    HW2 3216   5.863   4.379   1.022
  773SOL     OW 3217   1.486   4.096   3.519
  773SOL    HW1 3218   1.396   4.053   3.526
  773SOL    HW2 3219   1.526   4.105   3.610
  774SOL     OW 3220   2.530   0.544   3.543
  774SOL    HW1 3221   2.484   0.561   3.631
  774SOL    HW2 3222   2.560   0.630   3.504
  775SOL     OW 3223   1.199   4.359   2.677
  775SOL    HW1 3224   1.159   4.303   2.749
  775SOL    HW2 3225   1.128   4.392   2.616
  776SOL     OW 3226   2.570   5.254   6.190
  776SOL    HW1 3227   2.542   5.331   6.133
  776SOL    HW2 3228   2.574   5.171   6.136
  777SOL     OW 3229   2.779   4.093   6.320
  777SOL    HW1 3230   2.707   4.039   6.364
  777SOL    HW2 3231   2.866   4.077   6.367
  778SOL     OW 3232   2.961   6.041   6.860
  778SOL    HW1 3233   2.910   6.079   6.937
  778SOL    HW2 3234   2.898   6.002   6.793
  779SOL     OW 3235   6.903   2.705   3.157
  779SOL    HW1 3236   6.928   2.648   3.235
  779SOL    HW2 3237   6.943   2.666   3.073
  780SOL     OW 3238   0.295   2.116   4.419
  780SOL    HW1 3239   0.323   2.061   4.497
  780SOL    HW2 3240   0.224   2.068   4.368
  781SOL     OW 3241   0.167   4.388   0.115
  781SOL    HW1 3242   0.175   4.293   0.144
  781SOL    HW2 3243   0.127   4.442   0.190
  782SOL     OW 3244   1.980   3.371   4.588
  782SOL    HW1 3245   2.022   3.281   4.582
  782SOL    HW2 3246   2.003   3.425   4.507
  783SOL     OW 3247   6.240   4.822   6.767
  783SOL    HW1 3248   6.213   4.726   6.767
  783SOL    HW2 3249   6.314   4.836   6.832
  784SOL     OW 3250   2.386   5.952   0.940
  784SOL    HW1 3251   2.465   5.918   0.991
  784SOL    HW2 3252   2.313   5.975   1.004
  785SOL     OW 3253   0.804   0.771   3.878
  785SOL    HW1 3254   0.827   0.821   3.795
  785SOL    HW2 3255   0.824   0.674   3.866
  786SOL     OW 3256   6.114   0.987   4.023
  786SOL    HW1 3257   6.194   1.007   4.080
  786SOL    HW2 3258   6.138   0.918   3.955
  787SOL     OW 3259   1.974   6.604   0.804
  787SOL    HW1 3260   2.055   6.612   0.861
  787SOL    HW2 3261   1.904   6.551   0.852
  788SOL     OW 3262   2.050   2.467   1.628
  788SOL    HW1 3263   2.053   2.494   1.532
  788SOL    HW2 3264   1.966   2.415   1.645
  789SOL     OW 3265   4.508   4.547   2.503
  789SOL    HW1 3266   4.584   4.612   2.506
  789SOL    HW2 3267   4.540   4.457   2.533
  790SOL     OW 3268   1.121   2.536   2.495
  790SOL    HW1 3269   1.118   2.573   2.403
  790SOL    HW2 3270   1.213   2.503   2.515
  791SOL     OW 3271   2.853   6.024   3.970
  791SOL    HW1 3272   2.877   6.028   3.873
  791SOL    HW2 3273   2.933   5.996   4.023
  792SOL     OW 3274   1.488   0.507   6.885
  792SOL    HW1 3275   1.529   0.538   6.970
  792SOL    HW2 3276   1.477   0.585   6.823
  793SOL     OW 3277   2.705   6.187   4.135
  793SOL    HW1 3278   2.693   6.272   4.084
  793SOL    HW2 3279   2.728   6.114   4.072
  794SOL     OW 3280   3.631   3.405   2.313
  794SOL    HW1 3281   3.545   3.427   2.358
  794SOL    HW2 3282   3.656   3.478   2.249
  795SOL     OW 3283   3.935   0.702   6.058
  795SOL    HW1 3284   3.982   0.784   6.089
  795SOL    HW2 3285   3.929   0.636   6.133
  796SOL     OW 3286   0.428   2.685   0.719
  796SOL    HW1 3287   0.401   2.594   0.689
  796SOL    HW2 3288   0.357   2.723   0.778
  797SOL     OW 3289   4.641   0.215   0.701
  797SOL    HW1 3290   4.696   0.284   0.654
  797SOL    HW2 3291   4.549   0.214   0.662
  798SOL     OW 3292   5.163   6.350   1.029
  798SOL    HW1 3293   5.162   6.331   1.127
  798SOL    HW2 3294   5.199   6.270   0.981
  799SOL     OW 3295   2.503   1.958   5.582
  799SOL    HW1 3296   2.519   2.038   5.641
  799SOL    HW2 3297   2.428   1.977   5.520
  800SOL     OW 3298   5.750   2.846   3.075
  800SOL    HW1 3299   5.716   2.764   3.121
  800SOL    HW2 3300   5.682   2.919   3.083
  801SOL     OW 3301   2.199   5.678   6.017
  801SOL    HW1 3302   2.156   5.608   5.960
  801SOL    HW2 3303   2.145   5.762   6.014
  802SOL     OW 3304   5.351   2.219   6.792
  802SOL    HW1 3305   5.295   2.297   6.818
  802SOL    HW2 3306   5.340   2.146   6.860
  803SOL     OW 3307   2.431   1.205   4.678
  803SOL    HW1 3308   2.444   1.109   4.704
  803SOL    HW2 3309   2.386   1.254   4.753
  804SOL     OW 3310   5.168   0.588   3.086
  804SOL    HW1 3311   5.161   0.573   3.185
  804SOL    HW2 3312   5.258   0.628   3.064
  805SOL     OW 3313   3.567   0.895   4.065
  805SOL    HW1 3314   3.524   0.909   3.976
  805SOL    HW2 3315   3.499   0.859   4.129
  806SOL     OW 3316   2.549   5.958   5.160
  806SOL    HW1 3317   2.571   5.869   5.120
  806SOL    HW2 3318   2.573   6.031   5.095
  807SOL     OW 3319   1.558   6.312   6.099
  807SOL    HW1 3320   1.532   6.306   6.003
  807SOL    HW2 3321   1.481   6.345   6.153
  808SOL     OW 3322   5.049   2.737   6.116
  808SOL    HW1 3323   5.026   2.792   6.036
  808SOL    HW2 3324   4.967   2.722   6.171
  809SOL     OW 3325   2.313   5.012   0.123
  809SOL    HW1 3326   2.256   5.091   0.102
  809SOL    HW2 3327   2.329   5.008   0.222
  810SOL     OW 3328   3.835   3.175   6.944
  810SOL    HW1 3329   3.814   3.198   6.849
  810SOL    HW2 3330   3.814   3.253   7.003
  811SOL     OW 3331   6.312   5.037   4.889
  811SOL    HW1 3332   6.321   5.126   4.844
  811SOL    HW2 3333   6.401   4.992   4.893
  812SOL     OW 3334   0.552   3.466   1.898
  812SOL    HW1 3335   0.506   3.378   1.912
  812SOL    HW2 3336   0.574   3.476   1.801
  813SOL     OW 3337   1.825   2.099   5.006
  813SOL    HW1 3338   1.763   2.169   5.044
  813SOL    HW2 3339   1.913   2.105   5.052
  814SOL     OW 3340   0.575   5.215   2.619
  814SOL    HW1 3341   0.580   5.207   2.718
  814SOL    HW2 3342   0.546   5.308   2.595
  815SOL     OW 3343   4.341   1.533   4.642
  815SOL    HW1 3344   4.334   1.631   4.661
  815SOL    HW2 3345   4.435   1.503   4.652
  816SOL     OW 3346   5.946   4.621   6.956
  816SOL    HW1 3347   5.863   4.611   7.011
  816SOL    HW2 3348   6.019   4.659   7.012
  817SOL     OW 3349   0.439   4.950   6.991
  817SOL    HW1 3350   0.474   5.004   0.052
  817SOL    HW2 3351   0.476   4.857   6.996
  818SOL     OW 3352   6.584   2.119   4.719
  818SOL    HW1 3353   6.624   2.210   4.720
  818SOL    HW2 3354   6.586   2.080   4.811
  819SOL     OW 3355   4.909   2.923   1.842
  819SOL    HW1 3356   4.921   2.828   1.813
  819SOL    HW2 3357   4.832   2.930   1.905
  820SOL     OW 3358   2.503   1.541   5.329
  820SOL    HW1 3359   2.547   1.507   5.412
  820SOL    HW2 3360   2.567   1.602   5.281
  821SOL     OW 3361   4.859   3.529   6.754
  821SOL    HW1 3362   4.929   3.521   6.684
  821SOL    HW2 3363   4.889   3.480   6.836
  822SOL     OW 3364   0.522   4.979   3.440
  822SOL    HW1 3365   0.517   4.994   3.539
  822SOL    HW2 3366   0.602   5.026   3.403
  823SOL     OW 3367   1.127   3.610   4.887
  823SOL    HW1 3368   1.192   3.536   4.872
  823SOL    HW2 3369   1.035   3.572   4.898
  824SOL     OW 3370   4.815   0.772   6.605
  824SOL    HW1 3371   4.731   0.820   6.631
  824SOL    HW2 3372   4.871   0.756   6.686
  825SOL     OW 3373   5.971   5.867   0.955
  825SOL    HW1 3374   5.999   5.842   1.048
  825SOL    HW2 3375   6.003   5.959   0.935
  826SOL     OW 3376   3.599   2.136   6.852
  826SOL    HW1 3377   3.626   2.224   6.892
  826SOL    HW2 3378   3.604   2.141   6.753
  827SOL     OW 3379   3.753   3.862   5.426
  827SOL    HW1 3380   3.710   3.851   5.336
  827SOL    HW2 3381   3.852   3.851   5.418
  828SOL     OW 3382   0.171   6.313   6.164
  828SOL    HW1 3383   0.079   6.280   6.184
  828SOL    HW2 3384   0.232   6.291   6.241
  829SOL     OW 3385   3.442   3.078   2.391
  829SOL    HW1 3386   3.388   2.994   2.391
  829SOL    HW2 3387   3.531   3.060   2.348
  830SOL     OW 3388   6.930   4.407   0.376
  830SOL    HW1 3389   6.887   4.465   0.445
  830SOL    HW2 3390   6.881   4.320   0.370
  831SOL     OW 3391   4.872   0.673   2.083
  831SOL    HW1 3392   4.818   0.750   2.049
  831SOL    HW2 3393   4.837   0.588   2.044
  832SOL     OW 3394   3.125   1.698   4.761
  832SOL    HW1 3395   3.050   1.665   4.818
  832SOL    HW2 3396   3.171   1.621   4.717
  833SOL     OW 3397   3.764   2.295   7.003
  833SOL    HW1 3398   3.833   2.269   0.055
  833SOL    HW2 3399   3.678   2.318   0.035
  834SOL     OW 3400   5.863   2.861   0.246
  834SOL    HW1 3401   5.923   2.940   0.262
  834SOL    HW2 3402   5.817   2.836   0.332
  835SOL     OW 3403   0.204   0.357   4.770
  835SOL    HW1 3404   0.109   0.379   4.790
  835SOL    HW2 3405   0.253   0.340   4.856
  836SOL     OW 3406   5.195   0.743   4.772
  836SOL    HW1 3407   5.216   0.840   4.783
  836SOL    HW2 3408   5.103   0.725   4.807
  837SOL     OW 3409   1.587   0.745   0.012
  837SOL    HW1 3410   1.670   0.746   6.971
  837SOL    HW2 3411   1.609   0.712   0.103
  838SOL     OW 3412   1.089   5.847   3.392
  838SOL    HW1 3413   1.037   5.929   3.414
  838SOL    HW2 3414   1.042   5.796   3.320
  839SOL     OW 3415   1.502   2.008   0.388
  839SOL    HW1 3416   1.494   1.981   0.292
  839SOL    HW2 3417   1.579   2.071   0.398
  840SOL     OW 3418   4.879   5.220   0.163
  840SOL    HW1 3419   4.874   5.316   0.191
  840SOL    HW2 3420   4.974   5.194   0.151
  841SOL     OW 3421   2.797   4.604   0.187
  841SOL    HW1 3422   2.738   4.634   0.262
  841SOL    HW2 3423   2.800   4.504   0.185
  842SOL     OW 3424   4.043   5.487   0.445
  842SOL    HW1 3425   4.082   5.467   0.535
  842SOL    HW2 3426   4.021   5.402   0.398
  843SOL     OW 3427   1.058   0.643   2.205
  843SOL    HW1 3428   1.017   0.638   2.113
  843SOL    HW2 3429   1.103   0.732   2.216
  844SOL     OW 3430   6.870   0.583   1.424
  844SOL    HW1 3431   6.968   0.579   1.443
  844SOL    HW2 3432   6.857   0.614   1.329
  845SOL     OW 3433   3.293   1.208   2.735
  845SOL    HW1 3434   3.333   1.139   2.675
  845SOL    HW2 3435   3.340   1.296   2.720
  846SOL     OW 3436   3.068   2.128   0.714
  846SOL    HW1 3437   3.031   2.137   0.807
  846SOL    HW2 3438   3.155   2.175   0.708
  847SOL     OW 3439   2.620   3.846   1.649
  847SOL    HW1 3440   2.538   3.822   1.702
  847SOL    HW2 3441   2.629   3.946   1.645
  848SOL     OW 3442   0.019   6.177   0.473
  848SOL    HW1 3443   6.959   6.239   0.451
  848SOL    HW2 3444   0.106   6.226   0.467
  849SOL     OW 3445   6.103   3.406   6.532
  849SOL    HW1 3446   6.073   3.376   6.623
  849SOL    HW2 3447   6.022   3.427   6.476
  850SOL     OW 3448   0.920   0.711   5.379
  850SOL    HW1 3449   0.930   0.776   5.303
  850SOL    HW2 3450   0.870   0.755   5.454
  851SOL     OW 3451   5.602   3.499   5.902
  851SOL    HW1 3452   5.633   3.539   5.988
  851SOL    HW2 3453   5.502   3.498   5.900
  852SOL     OW 3454   0.526   3.919   2.101
  852SOL    HW1 3455   0.505   3.831   2.059
  852SOL    HW2 3456   0.625   3.929   2.109
  853SOL     OW 3457   2.477   2.328   0.284
  853SOL    HW1 3458   2.550   2.315   0.217
  853SOL    HW2 3459   2.494   2.270   0.363
  854SOL     OW 3460   5.759   6.031   5.982
  854SOL    HW1 3461   5.845   6.081   5.991
  854SOL    HW2 3462   5.771   5.955   5.918
  855SOL     OW 3463   5.623   1.686   0.399
  855SOL    HW1 3464   5.719   1.657   0.400
  855SOL    HW2 3465   5.580   1.657   0.314
  856SOL     OW 3466   1.495   5.303   1.682
  856SOL    HW1 3467   1.525   5.208   1.676
  856SOL    HW2 3468   1.462   5.333   1.592
  857SOL     OW 3469   0.192   6.021   5.056
  857SOL    HW1 3470   0.109   6.030   5.112
  857SOL    HW2 3471   0.166   6.011   4.960
  858SOL     OW 3472   4.344   3.194   0.267
  858SOL    HW1 3473   4.363   3.250   0.348
  858SOL    HW2 3474   4.250   3.163   0.269
  859SOL     OW 3475   5.004   6.350   5.202
  859SOL    HW1 3476   5.092   6.328   5.159
  859SOL    HW2 3477   5.020   6.410   5.281
  860SOL     OW 3478   4.709   3.058   6.059
  860SOL    HW1 3479   4.659   3.039   6.144
  860SOL    HW2 3480   4.712   3.157   6.044
  861SOL     OW 3481   2.078   5.971   1.833
  861SOL    HW1 3482   2.025   6.001   1.754
  861SOL    HW2 3483   2.131   5.889   1.809
  862SOL     OW 3484   0.301   4.083   4.085
  862SOL    HW1 3485   0.208   4.068   4.120
  862SOL    HW2 3486   0.297   4.106   3.988
  863SOL     OW 3487   6.085   0.648   1.321
  863SOL    HW1 3488   5.992   0.686   1.323
  863SOL    HW2 3489   6.147   0.713   1.278
  864SOL     OW 3490   5.688   6.121   4.385
  864SOL    HW1 3491   5.697   6.211   4.427
  864SOL    HW2 3492   5.609   6.074   4.425
  865SOL     OW 3493   1.514   5.873   5.613
  865SOL    HW1 3494   1.416   5.869   5.594
  865SOL    HW2 3495   1.559   5.931   5.545
  866SOL     OW 3496   3.491   0.147   1.908
  866SOL    HW1 3497   3.400   0.182   1.931
  866SOL    HW2 3498   3.494   0.126   1.811
  867SOL     OW 3499   5.646   1.947   6.059
  867SOL    HW1 3500   5.581   2.006   6.010
  867SOL    HW2 3501   5.737   1.989   6.056
  868SOL     OW 3502   0.218   2.178   2.158
  868SOL    HW1 3503   0.251   2.268   2.129
  868SOL    HW2 3504   0.217   2.173   2.258
  869SOL     OW 3505   0.117   3.862   3.610
  869SOL    HW1 3506   0.184   3.788   3.615
  869SOL    HW2 3507   0.066   3.867   3.696
  870SOL     OW 3508   3.300   5.283   2.079
  870SOL    HW1 3509   3.222   5.237   2.037
  870SOL    HW2 3510   3.377   5.219   2.085
  871SOL     OW 3511   4.732   1.426   3.273
  871SOL    HW1 3512   4.639   1.449   3.302
  871SOL    HW2 3513   4.766   1.350   3.328
  872SOL     OW 3514   0.581   2.066   4.752
  872SOL    HW1 3515   0.679   2.067   4.772
  872SOL    HW2 3516   0.533   2.124   4.817
  873SOL     OW 3517   3.982   7.002   6.105
  873SOL    HW1 3518   4.036   0.027   6.031
  873SOL    HW2 3519   4.024   6.915   6.133
  874SOL     OW 3520   4.843   4.097   1.418
  874SOL    HW1 3521   4.861   4.014   1.365
  874SOL    HW2 3522   4.763   4.082   1.477
  875SOL     OW 3523   5.014   5.384   1.333
  875SOL    HW1 3524   5.082   5.380   1.259
  875SOL    HW2 3525   4.932   5.433   1.300
  876SOL     OW 3526   6.993   0.191   0.763
  876SOL    HW1 3527   0.019   0.261   0.705
  876SOL    HW2 3528   0.035   0.177   0.844
  877SOL     OW 3529   1.888   3.411   6.262
  877SOL    HW1 3530   1.916   3.440   6.353
  877SOL    HW2 3531   1.798   3.367   6.267
  878SOL     OW 3532   4.339   6.309   4.592
  878SOL    HW1 3533   4.418   6.274   4.542
  878SOL    HW2 3534   4.309   6.240   4.658
  879SOL     OW 3535   5.962   6.934   0.748
  879SOL    HW1 3536   5.934   6.994   0.824
  879SOL    HW2 3537   6.013   6.988   0.681
  880SOL     OW 3538   2.856   3.537   2.254
  880SOL    HW1 3539   2.854   3.635   2.233
  880SOL    HW2 3540   2.878   3.486   2.171
  881SOL     OW 3541   4.398   1.725   0.543
  881SOL    HW1 3542   4.314   1.680   0.572
  881SOL    HW2 3543   4.379   1.786   0.467
  882SOL     OW 3544   1.469   3.191   4.370
  882SOL    HW1 3545   1.429   3.215   4.458
  882SOL    HW2 3546   1.549   3.249   4.354
  883SOL     OW 3547   2.656   0.069   2.550
  883SOL    HW1 3548   2.596   7.014   2.589
  883SOL    HW2 3549   2.654   0.150   2.608
  884SOL     OW 3550   4.554   3.569   5.663
  884SOL    HW1 3551   4.480   3.567   5.596
  884SOL    HW2 3552   4.588   3.476   5.679
  885SOL     OW 3553   3.693   2.644   6.166
  885SOL    HW1 3554   3.773   2.589   6.188
  885SOL    HW2 3555   3.659   2.620   6.076
  886SOL     OW 3556   3.431   0.493   6.827
  886SOL    HW1 3557   3.507   0.450   6.777
  886SOL    HW2 3558   3.465   0.533   6.912
  887SOL     OW 3559   4.947   1.424   4.341
  887SOL    HW1 3560   5.009   1.347   4.360
  887SOL    HW2 3561   4.991   1.509   4.371
  888SOL     OW 3562   6.737   6.618   3.055
  888SOL    HW1 3563   6.768   6.525   3.037
  888SOL    HW2 3564   6.771   6.649   3.144
  889SOL     OW 3565   0.758   3.414   6.823
  889SOL    HW1 3566   0.764   3.511   6.850
  889SOL    HW2 3567   0.662   3.388   6.814
  890SOL     OW 3568   2.149   5.038   3.979
  890SOL    HW1 3569   2.103   5.120   3.946
  890SOL    HW2 3570   2.244   5.060   4.002
  891SOL     OW 3571   4.660   5.783   1.465
  891SOL    HW1 3572   4.685   5.870   1.424
  891SOL    HW2 3573   4.587   5.741   1.412
  892SOL     OW 3574   3.057   4.383   0.452
  892SOL    HW1 3575   3.043   4.310   0.386
  892SOL    HW2 3576   2.978   4.388   0.514
  893SOL     OW 3577   2.367   6.649   2.401
  893SOL    HW1 3578   2.406   6.580   2.339
  893SOL    HW2 3579   2.335   6.604   2.485
  894SOL     OW 3580   0.823   4.278   0.796
  894SOL    HW1 3581   0.885   4.212   0.836
  894SOL    HW2 3582   0.732   4.269   0.837
  895SOL     OW 3583   0.387   5.615   3.925
  895SOL    HW1 3584   0.484   5.613   3.899
  895SOL    HW2 3585   0.334   5.558   3.862
  896SOL     OW 3586   6.916   6.961   6.000
  896SOL    HW1 3587   6.854   6.898   5.955
  896SOL    HW2 3588   6.951   6.919   6.084
  897SOL     OW 3589   5.154   0.983   6.918
  897SOL    HW1 3590   5.246   0.988   6.880
  897SOL    HW2 3591   5.159   0.968   0.002
  898SOL     OW 3592   4.017   5.832   3.233
  898SOL    HW1 3593   4.084   5.773   3.277
  898SOL    HW2 3594   4.055   5.924   3.222
  899SOL     OW 3595   0.125   5.024   0.385
  899SOL    HW1 3596   0.138   4.963   0.307
  899SOL    HW2 3597   0.031   5.016   0.418
  900SOL     OW 3598   5.078   5.234   0.582
  900SOL    HW1 3599   5.122   5.298   0.645
  900SOL    HW2 3600   5.116   5.245   0.491
  901SOL     OW 3601   1.541   1.149   2.527
  901SOL    HW1 3602   1.507   1.149   2.621
  901SOL    HW2 3603   1.565   1.243   2.501
  902SOL     OW 3604   6.095   3.631   1.980
  902SOL    HW1 3605   6.043   3.716   1.971
  902SOL    HW2 3606   6.039   3.555   1.947
  903SOL     OW 3607   0.111   2.502   0.704
  903SOL    HW1 3608   0.183   2.502   0.635
  903SOL    HW2 3609   0.111   2.591   0.751
  904SOL     OW 3610   3.068   1.536   2.198
  904SOL    HW1 3611   3.132   1.584   2.258
  904SOL    HW2 3612   2.991   1.596   2.177
  905SOL     OW 3613   6.189   2.922   6.388
  905SOL    HW1 3614   6.251   2.930   6.310
  905SOL    HW2 3615   6.182   3.011   6.434
  906SOL     OW 3616   5.974   3.886   6.845
  906SOL    HW1 3617   5.962   3.810   6.782
  906SOL    HW2 3618   5.958   3.854   6.939
  907SOL     OW 3619   5.316   4.289   0.127
  907SOL    HW1 3620   5.356   4.374   0.162
  907SOL    HW2 3621   5.296   4.299   0.030
  908SOL     OW 3622   1.358   4.355   2.438
  908SOL    HW1 3623   1.312   4.390   2.357
  908SOL    HW2 3624   1.308   4.383   2.520
  909SOL     OW 3625   5.138   5.307   6.423
  909SOL    HW1 3626   5.133   5.247   6.343
  909SOL    HW2 3627   5.213   5.372   6.411
  910SOL     OW 3628   2.383   3.884   0.957
  910SOL    HW1 3629   2.295   3.875   0.910
  910SOL    HW2 3630   2.369   3.878   1.056
  911SOL     OW 3631   1.154   5.164   6.391
  911SOL    HW1 3632   1.055   5.154   6.404
  911SOL    HW2 3633   1.193   5.211   6.471
  912SOL     OW 3634   5.016   2.172   2.999
  912SOL    HW1 3635   4.967   2.117   2.931
  912SOL    HW2 3636   4.994   2.137   3.090
  913SOL     OW 3637   4.983   6.725   2.963
  913SOL    HW1 3638   4.976   6.824   2.976
  913SOL    HW2 3639   4.891   6.686   2.950
  914SOL     OW 3640   2.913   0.116   6.960
  914SOL    HW1 3641   2.834   0.144   7.014
  914SOL    HW2 3642   2.996   0.123   0.000
  915SOL     OW 3643   5.583   5.377   0.669
  915SOL    HW1 3644   5.670   5.379   0.718
  915SOL    HW2 3645   5.584   5.305   0.600
  916SOL     OW 3646   1.365   2.135   2.563
  916SOL    HW1 3647   1.328   2.054   2.609
  916SOL    HW2 3648   1.440   2.108   2.503
  917SOL     OW 3649   6.716   6.831   0.718
  917SOL    HW1 3650   6.753   6.860   0.806
  917SOL    HW2 3651   6.756   6.743   0.692
  918SOL     OW 3652   2.202   5.261   0.365
  918SOL    HW1 3653   2.105   5.241   0.352
  918SOL    HW2 3654   2.233   5.324   0.294
  919SOL     OW 3655   5.748   2.265   4.803
  919SOL    HW1 3656   5.841   2.276   4.838
  919SOL    HW2 3657   5.708   2.181   4.841
  920SOL     OW 3658   2.728   5.353   2.385
  920SOL    HW1 3659   2.745   5.324   2.479
  920SOL    HW2 3660   2.658   5.425   2.384
  921SOL     OW 3661   4.922   4.968   4.953
  921SOL    HW1 3662   4.980   4.890   4.977
  921SOL    HW2 3663   4.970   5.053   4.973
  922SOL     OW 3664   3.625   2.913   3.666
  922SOL    HW1 3665   3.695   2.975   3.631
  922SOL    HW2 3666   3.542   2.924   3.612
  923SOL     OW 3667   2.169   3.477   5.240
  923SOL    HW1 3668   2.154   3.571   5.212
  923SOL    HW2 3669   2.262   3.466   5.274
  924SOL     OW 3670   0.374   3.620   2.567
  924SOL    HW1 3671   0.440   3.571   2.626
  924SOL    HW2 3672   0.424   3.685   2.509
  925SOL     OW 3673   6.807   1.750   0.054
  925SOL    HW1 3674   6.904   1.775   0.057
  925SOL    HW2 3675   6.759   1.797   0.128
  926SOL     OW 3676   1.400   1.405   1.997
  926SOL    HW1 3677   1.445   1.493   2.015
  926SOL    HW2 3678   1.458   1.349   1.938
  927SOL     OW 3679   5.940   3.605   3.690
  927SOL    HW1 3680   6.025   3.624   3.740
  927SOL    HW2 3681   5.874   3.677   3.707
  928SOL     OW 3682   3.179   4.520   6.147
  928SOL    HW1 3683   3.276   4.531   6.169
  928SOL    HW2 3684   3.170   4.483   6.054
  929SOL     OW 3685   6.854   1.019   5.132
  929SOL    HW1 3686   6.902   1.062   5.208
  929SOL    HW2 3687   6.780   1.078   5.101
  930SOL     OW 3688   5.803   4.645   6.174
  930SOL    HW1 3689   5.806   4.729   6.229
  930SOL    HW2 3690   5.707   4.617   6.163
  931SOL     OW 3691   6.330   1.778   3.365
  931SOL    HW1 3692   6.406   1.824   3.410
  931SOL    HW2 3693   6.362   1.733   3.281
  932SOL     OW 3694   3.840   0.552   3.643
  932SOL    HW1 3695   3.778   0.519   3.714
  932SOL    HW2 3696   3.840   0.652   3.644
  933SOL     OW 3697   1.228   5.601   1.772
  933SOL    HW1 3698   1.168   5.611   1.851
  933SOL    HW2 3699   1.322   5.590   1.803
  934SOL     OW 3700   1.227   3.696   0.176
  934SOL    HW1 3701   1.155   3.674   0.111
  934SOL    HW2 3702   1.260   3.612   0.219
  935SOL     OW 3703   6.106   3.292   3.992
  935SOL    HW1 3704   6.156   3.259   4.072
  935SOL    HW2 3705   6.110   3.222   3.920
  936SOL     OW 3706   1.552   0.072   6.018
  936SOL    HW1 3707   1.595   6.999   5.998
  936SOL    HW2 3708   1.583   0.139   5.950
  937SOL     OW 3709   4.022   1.644   5.839
  937SOL    HW1 3710   4.037   1.564   5.781
  937SOL    HW2 3711   3.938   1.690   5.811
  938SOL     OW 3712   5.941   5.514   4.226
  938SOL    HW1 3713   5.887   5.581   4.278
  938SOL    HW2 3714   5.968   5.554   4.139
  939SOL     OW 3715   0.067   6.574   6.103
  939SOL    HW1 3716   0.114   6.492   6.135
  939SOL    HW2 3717   0.082   6.586   6.005
  940SOL     OW 3718   2.104   4.810   6.989
  940SOL    HW1 3719   2.050   4.893   6.995
  940SOL    HW2 3720   2.199   4.829   0.000
  941SOL     OW 3721   3.503   0.520   0.152
  941SOL    HW1 3722   3.423   0.559   0.198
  941SOL    HW2 3723   3.538   0.585   0.084
  942SOL     OW 3724   0.052   5.457   0.447
  942SOL    HW1 3725   0.118   5.382   0.454
  942SOL    HW2 3726   0.006   5.452   0.359
  943SOL     OW 3727   3.441   5.630   1.827
  943SOL    HW1 3728   3.417   5.666   1.736
  943SOL    HW2 3729   3.418   5.699   1.896
  944SOL     OW 3730   6.323   6.687   4.208
  944SOL    HW1 3731   6.312   6.589   4.228
  944SOL    HW2 3732   6.410   6.701   4.160
  945SOL     OW 3733   0.913   5.594   0.040
  945SOL    HW1 3734   0.860   5.619   6.974
  945SOL    HW2 3735   0.882   5.649   0.118
  946SOL     OW 3736   5.175   2.753   4.071
  946SOL    HW1 3737   5.256   2.737   4.015
  946SOL    HW2 3738   5.202   2.765   4.167
  947SOL     OW 3739   3.960   3.956   3.958
  947SOL    HW1 3740   4.015   3.926   3.881
  947SOL    HW2 3741   3.922   3.877   4.006
  948SOL     OW 3742   4.085   0.806   2.531
  948SOL    HW1 3743   4.008   0.853   2.489
  948SOL    HW2 3744   4.139   0.871   2.583
  949SOL     OW 3745   2.970   6.975   6.083
  949SOL    HW1 3746   2.897   6.907   6.088
  949SOL    HW2 3747   2.967   0.005   5.994
  950SOL     OW 3748   6.954   0.180   2.261
  950SOL    HW1 3749   7.006   0.163   2.178
  950SOL    HW2 3750   6.861   0.143   2.250
  951SOL     OW 3751   2.399   6.718   3.140
  951SOL    HW1 3752   2.417   6.791   3.073
  951SOL    HW2 3753   2.480   6.659   3.146
  952SOL     OW 3754   3.034   1.121   2.644
  952SOL    HW1 3755   3.007   1.189   2.713
  952SOL    HW2 3756   3.131   1.133   2.622
  953SOL     OW 3757   6.686   4.599   5.943
  953SOL    HW1 3758   6.623   4.548   5.884
  953SOL    HW2 3759   6.637   4.676   5.984
  954SOL     OW 3760   4.374   5.718   2.983
  954SOL    HW1 3761   4.418   5.657   2.918
  954SOL    HW2 3762   4.297   5.672   3.025
  955SOL     OW 3763   1.875   4.754   0.475
  955SOL    HW1 3764   1.782   4.781   0.498
  955SOL    HW2 3765   1.879   4.723   0.380
  956SOL     OW 3766   4.842   0.598   1.270
  956SOL    HW1 3767   4.863   0.675   1.210
  956SOL    HW2 3768   4.743   0.584   1.272
  957SOL     OW 3769   5.944   0.904   3.428
  957SOL    HW1 3770   5.909   0.902   3.522
  957SOL    HW2 3771   5.888   0.845   3.370
  958SOL     OW 3772   5.320   7.007   1.770
  958SOL    HW1 3773   5.231   6.966   1.750
  958SOL    HW2 3774   5.334   0.072   1.712
  959SOL     OW 3775   4.414   6.725   4.195
  959SOL    HW1 3776   4.365   6.699   4.278
  959SOL    HW2 3777   4.348   6.759   4.127
  960SOL     OW 3778   1.637   6.893   6.444
  960SOL    HW1 3779   1.582   6.955   6.388
  960SOL    HW2 3780   1.735   6.910   6.427
  961SOL     OW 3781   3.507   0.066   3.111
  961SOL    HW1 3782   3.423   0.012   3.103
  961SOL    HW2 3783   3.502   0.145   3.050
  962SOL     OW 3784   6.354   0.736   4.645
  962SOL    HW1 3785   6.431   0.673   4.638
  962SOL    HW2 3786   6.366   0.810   4.579
  963SOL     OW 3787   5.401   3.109   1.103
  963SOL    HW1 3788   5.347   3.034   1.065
  963SOL    HW2 3789   5.341   3.185   1.128
  964SOL     OW 3790   4.697   5.066   5.693
  964SOL    HW1 3791   4.743   4.987   5.652
  964SOL    HW2 3792   4.744   5.150   5.665
  965SOL     OW 3793   5.773   2.272   3.390
  965SOL    HW1 3794   5.679   2.252   3.415
  965SOL    HW2 3795   5.822   2.309   3.470
  966SOL     OW 3796   4.441   1.154   4.540
  966SOL    HW1 3797   4.527   1.166   4.489
  966SOL    HW2 3798   4.365   1.145   4.475
  967SOL     OW 3799   4.675   3.752   6.238
  967SOL    HW1 3800   4.626   3.680   6.286
  967SOL    HW2 3801   4.673   3.734   6.140
  968SOL     OW 3802   3.894   0.559   1.621
  968SOL    HW1 3803   3.860   0.468   1.645
  968SOL    HW2 3804   3.847   0.628   1.674
  969SOL     OW 3805   2.959   4.248   6.598
  969SOL    HW1 3806   3.055   4.261   6.572
  969SOL    HW2 3807   2.950   4.160   6.646
  970SOL     OW 3808   5.200   6.660   5.893
  970SOL    HW1 3809   5.236   6.737   5.946
  970SOL    HW2 3810   5.101   6.658   5.901
  971SOL     OW 3811   5.189   3.722   3.156
  971SOL    HW1 3812   5.241   3.682   3.232
  971SOL    HW2 3813   5.176   3.653   3.085
  972SOL     OW 3814   6.954   2.870   0.612
  972SOL    HW1 3815   6.891   2.947   0.627
  972SOL    HW2 3816   6.922   2.816   0.535
  973SOL     OW 3817   0.108   3.120   6.135
  973SOL    HW1 3818   0.173   3.147   6.206
  973SOL    HW2 3819   0.073   3.201   6.088
  974SOL     OW 3820   6.930   4.989   2.927
  974SOL    HW1 3821   0.008   4.999   2.891
  974SOL    HW2 3822   6.920   4.898   2.967
  975SOL     OW 3823   3.138   0.790   1.947
  975SOL    HW1 3824   3.180   0.799   2.037
  975SOL    HW2 3825   3.210   0.793   1.877
  976SOL     OW 3826   0.136   3.428   3.351
  976SOL    HW1 3827   0.172   3.335   3.354
  976SOL    HW2 3828   0.045   3.427   3.309
  977SOL     OW 3829   6.641   0.676   2.166
  977SOL    HW1 3830   6.656   0.606   2.236
  977SOL    HW2 3831   6.613   0.761   2.210
  978SOL     OW 3832   5.247   3.118   2.190
  978SOL    HW1 3833   5.271   3.213   2.210
  978SOL    HW2 3834   5.231   3.107   2.092
  979SOL     OW 3835   0.428   4.158   6.918
  979SOL    HW1 3836   0.375   4.109   6.987
  979SOL    HW2 3837   0.408   4.256   6.923
  980SOL     OW 3838   3.652   1.122   4.452
  980SOL    HW1 3839   3.635   1.024   4.457
  980SOL    HW2 3840   3.634   1.165   4.541
  981SOL     OW 3841   0.173   0.022   5.566
  981SOL    HW1 3842   0.265   0.036   5.528
  981SOL    HW2 3843   0.177   6.968   5.638
  982SOL     OW 3844   5.876   1.226   5.742
  982SOL    HW1 3845   5.796   1.271   5.781
  982SOL    HW2 3846   5.847   1.148   5.687
  983SOL     OW 3847   0.532   4.936   4.044
  983SOL    HW1 3848   0.631   4.924   4.045
  983SOL    HW2 3849   0.511   5.029   4.013
  984SOL     OW 3850   0.594   3.459   3.819
  984SOL    HW1 3851   0.558   3.397   3.750
  984SOL    HW2 3852   0.533   3.462   3.898
  985SOL     OW 3853   6.279   5.027   5.310
  985SOL    HW1 3854   6.333   5.107   5.284
  985SOL    HW2 3855   6.265   5.028   5.409
  986SOL     OW 3856   4.856   5.246   1.528
  986SOL    HW1 3857   4.839   5.323   1.589
  986SOL    HW2 3858   4.927   5.271   1.462
  987SOL     OW 3859   4.500   4.488   4.333
  987SOL    HW1 3860   4.467   4.530   4.249
  987SOL    HW2 3861   4.585   4.437   4.314
  988SOL     OW 3862   2.286   4.550   2.040
  988SOL    HW1 3863   2.299   4.452   2.025
  988SOL    HW2 3864   2.368   4.599   2.010
  989SOL     OW 3865   1.372   1.800   0.937
  989SOL    HW1 3866   1.304   1.727   0.929
  989SOL    HW2 3867   1.463   1.760   0.943
  990SOL     OW 3868   3.742   0.171   4.130
  990SOL    HW1 3869   3.664   0.153   4.190
  990SOL    HW2 3870   3.802   0.091   4.128
  991SOL     OW 3871   6.821   5.619   3.757
  991SOL    HW1 3872   6.761   5.541   3.739
  991SOL    HW2 3873   6.766   5.697   3.787
  992SOL     OW 3874   6.746   2.367   0.330
  992SOL    HW1 3875   6.701   2.400   0.412
  992SOL    HW2 3876   6.702   2.283   0.299
  993SOL     OW 3877   1.475   5.139   6.877
  993SOL    HW1 3878   1.454   5.078   6.953
  993SOL    HW2 3879   1.495   5.231   6.911
  994SOL     OW 3880   3.326   5.888   0.333
  994SOL    HW1 3881   3.395   5.826   0.297
  994SOL    HW2 3882   3.366   5.943   0.406
  995SOL     OW 3883   6.478   4.416   6.225
  995SOL    HW1 3884   6.463   4.497   6.169
  995SOL    HW2 3885   6.574   4.412   6.253
  996SOL     OW 3886   3.893   5.512   4.446
  996SOL    HW1 3887   3.874   5.503   4.348
  996SOL    HW2 3888   3.933   5.602   4.463
  997SOL     OW 3889   1.534   6.464   3.425
  997SOL    HW1 3890   1.546   6.388   3.361
  997SOL    HW2 3891   1.477   6.434   3.502
  998SOL     OW 3892   5.139   0.617   6.060
  998SOL    HW1 3893   5.070   0.559   6.016
  998SOL    HW2 3894   5.117   0.713   6.043
  999SOL     OW 3895   4.867   3.725   2.692
  999SOL    HW1 3896   4.822   3.693   2.609
  999SOL    HW2 3897   4.962   3.745   2.673
 1000SOL     OW 3898   5.145   2.619   1.676
 1000SOL    HW1 3899   5.238   2.646   1.701
 1000SOL    HW2 3900   5.122   2.656   1.585
 1001SOL     OW 3901   2.968   0.160   2.428
 1001SOL    HW1 3902   2.984   0.252   2.393
 1001SOL    HW2 3903   2.906   0.112   2.366
 1002SOL     OW 3904   5.487   2.274   1.274
 1002SOL    HW1 3905   5.406   2.231   1.313
 1002SOL    HW2 3906   5.460   2.339   1.203
 1003SOL     OW 3907   0.667   0.604   3.113
 1003SOL    HW1 3908   0.619   0.636   3.195
 1003SOL    HW2 3909   0.606   0.608   3.035
 1004SOL     OW 3910   5.127   1.436   3.963
 1004SOL    HW1 3911   5.171   1.510   3.911
 1004SOL    HW2 3912   5.040   1.468   3.999
 1005SOL     OW 3913   1.632   4.892   2.145
 1005SOL    HW1 3914   1.630   4.814   2.207
 1005SOL    HW2 3915   1.701   4.957   2.175
 1006SOL     OW 3916   2.367   3.913   1.227
 1006SOL    HW1 3917   2.268   3.903   1.237
 1006SOL    HW2 3918   2.413   3.852   1.292
 1007SOL     OW 3919   4.557   0.885   6.654
 1007SOL    HW1 3920   4.599   0.974   6.673
 1007SOL    HW2 3921   4.514   0.887   6.564
 1008SOL     OW 3922   0.268   4.933   5.570
 1008SOL    HW1 3923   0.338   4.884   5.519
 1008SOL    HW2 3924   0.201   4.973   5.507
 1009SOL     OW 3925   0.120   5.642   5.677
 1009SOL    HW1 3926   0.096   5.686   5.764
 1009SOL    HW2 3927   0.219   5.641   5.666
 1010SOL     OW 3928   2.693   3.074   0.858
 1010SOL    HW1 3929   2.683   2.990   0.912
 1010SOL    HW2 3930   2.749   3.056   0.778
 1011SOL     OW 3931   0.155   5.220   2.571
 1011SOL    HW1 3932   0.068   5.185   2.606
 1011SOL    HW2 3933   0.138   5.278   2.492
 1012SOL     OW 3934   4.868   6.699   3.703
 1012SOL    HW1 3935   4.948   6.697   3.763
 1012SOL    HW2 3936   4.877   6.775   3.638
 1013SOL     OW 3937   6.846   0.026   6.591
 1013SOL    HW1 3938   6.934   0.071   6.605
 1013SOL    HW2 3939   6.853   6.979   6.513
 1014SOL     OW 3940   1.257   4.371   5.277
 1014SOL    HW1 3941   1.340   4.354   5.223
 1014SOL    HW2 3942   1.251   4.469   5.298
 1015SOL     OW 3943   3.051   6.454   6.894
 1015SOL    HW1 3944   2.993   6.483   6.818
 1015SOL    HW2 3945   3.026   6.505   6.977
 1016SOL     OW 3946   6.322   4.076   1.740
 1016SOL    HW1 3947   6.389   4.125   1.685
 1016SOL    HW2 3948   6.309   3.983   1.703
 1017SOL     OW 3949   2.380   1.492   1.765
 1017SOL    HW1 3950   2.316   1.427   1.806
 1017SOL    HW2 3951   2.366   1.496   1.666
 1018SOL     OW 3952   6.598   6.609   4.693
 1018SOL    HW1 3953   6.532   6.608   4.618
 1018SOL    HW2 3954   6.656   6.528   4.686
 1019SOL     OW 3955   6.528   4.364   0.967
 1019SOL    HW1 3956   6.438   4.390   0.931
 1019SOL    HW2 3957   6.592   4.439   0.952
 1020SOL     OW 3958   5.808   0.979   0.861
 1020SOL    HW1 3959   5.844   1.072   0.864
 1020SOL    HW2 3960   5.844   0.932   0.781
 1021SOL     OW 3961   0.412   6.731   1.340
 1021SOL    HW1 3962   0.418   6.777   1.429
 1021SOL    HW2 3963   0.392   6.798   1.269
 1022SOL     OW 3964   2.621   5.666   6.798
 1022SOL    HW1 3965   2.566   5.658   6.714
 1022SOL    HW2 3966   2.589   5.598   6.865
 1023SOL     OW 3967   0.577   0.905   3.512
 1023SOL    HW1 3968   0.614   0.987   3.470
 1023SOL    HW2 3969   0.483   0.923   3.543
 1024SOL     OW 3970   1.805   1.834   4.284
 1024SOL    HW1 3971   1.807   1.934   4.275
 1024SOL    HW2 3972   1.897   1.798   4.266
 1025SOL     OW 3973   4.287   3.878   0.305
 1025SOL    HW1 3974   4.284   3.800   0.243
 1025SOL    HW2 3975   4.260   3.849   0.397
 1026SOL     OW 3976   3.003   2.715   1.753
 1026SOL    HW1 3977   3.021   2.619   1.728
 1026SOL    HW2 3978   3.086   2.754   1.793
 1027SOL     OW 3979   0.606   6.605   0.747
 1027SOL    HW1 3980   0.525   6.659   0.770
 1027SOL    HW2 3981   0.591   6.510   0.773
 1028SOL     OW 3982   1.369   6.059   2.563
 1028SOL    HW1 3983   1.419   5.982   2.603
 1028SOL    HW2 3984   1.301   6.093   2.629
 1029SOL     OW 3985   0.859   1.219   6.004
 1029SOL    HW1 3986   0.797   1.195   5.930
 1029SOL    HW2 3987   0.953   1.198   5.977
 1030SOL     OW 3988   3.740   3.201   1.371
 1030SOL    HW1 3989   3.741   3.102   1.356
 1030SOL    HW2 3990   3.805   3.244   1.308
 1031SOL     OW 3991   3.894   2.670   0.764
 1031SOL    HW1 3992   3.816   2.723   0.729
 1031SOL    HW2 3993   3.949   2.728   0.824
 1032SOL     OW 3994   1.995   1.820   6.338
 1032SOL    HW1 3995   1.899   1.846   6.346
 1032SOL    HW2 3996   2.006   1.724   6.360
 1033SOL     OW 3997   0.427   6.515   2.354
 1033SOL    HW1 3998   0.517   6.549   2.380
 1033SOL    HW2 3999   0.433   6.467   2.266
 1034SOL     OW 4000   2.830   0.439   4.461
 1034SOL    HW1 4001   2.893   0.419   4.537
 1034SOL    HW2 4002   2.851   0.529   4.424
 1035SOL     OW 4003   1.601   1.476   6.648
 1035SOL    HW1 4004   1.513   1.517   6.671
 1035SOL    HW2 4005   1.604   1.454   6.551
 1036SOL     OW 4006   5.227   1.254   1.597
 1036SOL    HW1 4007   5.182   1.320   1.658
 1036SOL    HW2 4008   5.157   1.202   1.548
 1037SOL     OW 4009   1.610   3.227   1.644
 1037SOL    HW1 4010   1.599   3.138   1.687
 1037SOL    HW2 4011   1.663   3.287   1.704
 1038SOL     OW 4012   2.575   5.496   0.011
 1038SOL    HW1 4013   2.572   5.397   0.029
 1038SOL    HW2 4014   2.486   5.536   0.032
 1039SOL     OW 4015   3.599   2.884   2.822
 1039SOL    HW1 4016   3.669   2.887   2.751
 1039SOL    HW2 4017   3.520   2.832   2.789
 1040SOL     OW 4018   3.732   2.119   3.260
 1040SOL    HW1 4019   3.766   2.099   3.168
 1040SOL    HW2 4020   3.781   2.198   3.298
 1041SOL     OW 4021   6.764   5.873   6.455
 1041SOL    HW1 4022   6.785   5.824   6.370
 1041SOL    HW2 4023   6.673   5.846   6.487
 1042SOL     OW 4024   5.534   4.249   2.923
 1042SOL    HW1 4025   5.605   4.315   2.897
 1042SOL    HW2 4026   5.538   4.233   3.021
 1043SOL     OW 4027   2.793   2.169   3.405
 1043SOL    HW1 4028   2.765   2.158   3.309
 1043SOL    HW2 4029   2.886   2.134   3.416
 1044SOL     OW 4030   5.702   4.831   1.495
 1044SOL    HW1 4031   5.692   4.913   1.439
 1044SOL    HW2 4032   5.700   4.857   1.592
 1045SOL     OW 4033   2.165   0.325   2.283
 1045SOL    HW1 4034   2.114   0.244   2.257
 1045SOL    HW2 4035   2.103   0.403   2.293
 1046SOL     OW 4036   3.038   1.827   1.019
 1046SOL    HW1 4037   3.009   1.812   0.924
 1046SOL    HW2 4038   2.983   1.770   1.080
 1047SOL     OW 4039   3.558   6.201   3.572
 1047SOL    HW1 4040   3.527   6.216   3.666
 1047SOL    HW2 4041   3.651   6.236   3.562
 1048SOL     OW 4042   1.221   6.158   2.778
 1048SOL    HW1 4043   1.224   6.124   2.872
 1048SOL    HW2 4044   1.222   6.258   2.779
 1049SOL     OW 4045   4.180   6.102   4.706
 1049SOL    HW1 4046   4.146   6.020   4.660
 1049SOL    HW2 4047   4.252   6.077   4.771
 1050SOL     OW 4048   3.124   5.792   3.029
 1050SOL    HW1 4049   3.178   5.732   2.971
 1050SOL    HW2 4050   3.042   5.744   3.061
 1051SOL     OW 4051   0.760   0.907   6.402
 1051SOL    HW1 4052   0.688   0.871   6.462
 1051SOL    HW2 4053   0.723   0.981   6.346
 1052SOL     OW 4054   3.294   1.112   0.247
 1052SOL    HW1 4055   3.388   1.129   0.277
 1052SOL    HW2 4056   3.230   1.143   0.317
 1053SOL     OW 4057   4.909   2.129   3.819
 1053SOL    HW1 4058   4.888   2.043   3.866
 1053SOL    HW2 4059   4.980   2.177   3.870
 1054SOL     OW 4060   3.713   5.014   6.017
 1054SOL    HW1 4061   3.630   5.008   5.962
 1054SOL    HW2 4062   3.791   4.978   5.965
 1055SOL     OW 4063   4.909   5.807   6.540
 1055SOL    HW1 4064   4.810   5.805   6.527
 1055SOL    HW2 4065   4.953   5.838   6.456
 1056SOL     OW 4066   3.016   3.779   0.218
 1056SOL    HW1 4067   3.054   3.776   0.310
 1056SOL    HW2 4068   2.917   3.792   0.223
 1057SOL     OW 4069   3.099   2.561   0.945
 1057SOL    HW1 4070   3.095   2.569   0.845
 1057SOL    HW2 4071   3.011   2.530   0.979
 1058SOL     OW 4072   3.018   2.112   2.460
 1058SOL    HW1 4073   2.944   2.174   2.434
 1058SOL    HW2 4074   3.097   2.129   2.401
 1059SOL     OW 4075   2.397   6.286   1.560
 1059SOL    HW1 4076   2.480   6.235   1.582
 1059SOL    HW2 4077   2.324   6.259   1.624
 1060SOL     OW 4078   6.170   6.878   5.529
 1060SOL    HW1 4079   6.257   6.928   5.526
 1060SOL    HW2 4080   6.134   6.870   5.436
 1061SOL     OW 4081   0.039   3.898   6.223
 1061SOL    HW1 4082   0.038   3.811   6.272
 1061SOL    HW2 4083   0.010   3.884   6.128
 1062SOL     OW 4084   3.544   6.527   4.659
 1062SOL    HW1 4085   3.563   6.496   4.566
 1062SOL    HW2 4086   3.462   6.481   4.693
 1063SOL     OW 4087   3.233   6.716   5.188
 1063SOL    HW1 4088   3.251   6.771   5.269
 1063SOL    HW2 4089   3.212   6.622   5.215
 1064SOL     OW 4090   1.312   3.468   0.300
 1064SOL    HW1 4091   1.278   3.374   0.291
 1064SOL    HW2 4092   1.412   3.466   0.310
 1065SOL     OW 4093   4.883   0.688   4.477
 1065SOL    HW1 4094   4.822   0.626   4.526
 1065SOL    HW2 4095   4.913   0.645   4.392
 1066SOL     OW 4096   5.599   6.694   1.854
 1066SOL    HW1 4097   5.652   6.684   1.938
 1066SOL    HW2 4098   5.542   6.613   1.841
 1067SOL     OW 4099   2.650   1.571   0.142
 1067SOL    HW1 4100   2.704   1.572   0.226
 1067SOL    HW2 4101   2.673   1.489   0.089
 1068SOL     OW 4102   6.845   3.081   1.717
 1068SOL    HW1 4103   6.754   3.123   1.722
 1068SOL    HW2 4104   6.913   3.143   1.757
 1069SOL     OW 4105   6.511   3.708   1.805
 1069SOL    HW1 4106   6.431   3.768   1.811
 1069SOL    HW2 4107   6.488   3.618   1.842
 1070SOL     OW 4108   1.359   6.901   2.236
 1070SOL    HW1 4109   1.379   6.933   2.328
 1070SOL    HW2 4110   1.435   6.845   2.203
 1071SOL     OW 4111   0.201   2.988   5.345
 1071SOL    HW1 4112   0.276   3.013   5.407
 1071SOL    HW2 4113   0.228   3.007   5.251
 1072SOL     OW 4114   1.526   1.650   2.041
 1072SOL    HW1 4115   1.450   1.706   2.073
 1072SOL    HW2 4116   1.608   1.706   2.034
 1073SOL     OW 4117   4.275   2.296   3.558
 1073SOL    HW1 4118   4.273   2.395   3.569
 1073SOL    HW2 4119   4.195   2.267   3.505
 1074SOL     OW 4120   2.831   4.820   1.839
 1074SOL    HW1 4121   2.797   4.735   1.879
 1074SOL    HW2 4122   2.776   4.897   1.871
 1075SOL     OW 4123   6.120   4.299   5.938
 1075SOL    HW1 4124   6.047   4.239   5.906
 1075SOL    HW2 4125   6.087   4.353   6.016
 1076SOL     OW 4126   1.914   4.565   4.681
 1076SOL    HW1 4127   1.935   4.467   4.688
 1076SOL    HW2 4128   1.984   4.610   4.625
 1077SOL     OW 4129   0.119   6.912   0.080
 1077SOL    HW1 4130   0.021   6.913   0.063
 1077SOL    HW2 4131   0.143   6.830   0.132
 1078SOL     OW 4132   6.064   6.818   4.505
 1078SOL    HW1 4133   5.984   6.792   4.451
 1078SOL    HW2 4134   6.130   6.867   4.446
 1079SOL     OW 4135   0.902   0.168   1.970
 1079SOL    HW1 4136   0.949   0.081   1.985
 1079SOL    HW2 4137   0.931   0.207   1.883
 1080SOL     OW 4138   3.620   6.415   6.601
 1080SOL    HW1 4139   3.538   6.433   6.655
 1080SOL    HW2 4140   3.597   6.360   6.521
 1081SOL     OW 4141   6.881   6.004   4.629
 1081SOL    HW1 4142   6.840   5.955   4.552
 1081SOL    HW2 4143   6.808   6.044   4.685
 1082SOL     OW 4144   4.188   6.903   0.057
 1082SOL    HW1 4145   4.249   6.873   0.130
 1082SOL    HW2 4146   4.223   6.987   0.017
 1083SOL     OW 4147   5.243   4.136   1.642
 1083SOL    HW1 4148   5.318   4.082   1.602
 1083SOL    HW2 4149   5.180   4.164   1.570
 1084SOL     OW 4150   6.523   0.716   5.030
 1084SOL    HW1 4151   6.469   0.636   5.005
 1084SOL    HW2 4152   6.463   0.795   5.042
 1085SOL     OW 4153   1.695   3.716   4.569
 1085SOL    HW1 4154   1.761   3.766   4.625
 1085SOL    HW2 4155   1.636   3.781   4.521
 1086SOL     OW 4156   5.852   5.612   0.992
 1086SOL    HW1 4157   5.764   5.624   1.039
 1086SOL    HW2 4158   5.893   5.702   0.975
 1087SOL     OW 4159   3.015   0.357   5.282
 1087SOL    HW1 4160   3.086   0.307   5.231
 1087SOL    HW2 4161   3.055   0.439   5.323
 1088SOL     OW 4162   6.356   5.016   3.558
 1088SOL    HW1 4163   6.448   5.014   3.517
 1088SOL    HW2 4164   6.361   5.061   3.647
 1089SOL     OW 4165   6.611   4.435   4.488
 1089SOL    HW1 4166   6.554   4.516   4.486
 1089SOL    HW2 4167   6.707   4.461   4.477
 1090SOL     OW 4168   5.347   1.942   5.210
 1090SOL    HW1 4169   5.298   1.887   5.278
 1090SOL    HW2 4170   5.291   1.951   5.128
 1091SOL     OW 4171   2.005   2.505   2.559
 1091SOL    HW1 4172   1.949   2.463   2.630
 1091SOL    HW2 4173   1.955   2.580   2.516
 1092SOL     OW 4174   0.581   5.672   1.218
 1092SOL    HW1 4175   0.528   5.671   1.133
 1092SOL    HW2 4176   0.669   5.716   1.201
 1093SOL     OW 4177   2.078   0.515   2.792
 1093SOL    HW1 4178   2.031   0.523   2.704
 1093SOL    HW2 4179   2.011   0.498   2.864
 1094SOL     OW 4180   0.604   0.397   3.351
 1094SOL    HW1 4181   0.573   0.423   3.442
 1094SOL    HW2 4182   0.592   0.474   3.288
 1095SOL     OW 4183   5.002   3.495   0.650
 1095SOL    HW1 4184   5.024   3.537   0.562
 1095SOL    HW2 4185   4.939   3.419   0.636
 1096SOL     OW 4186   2.971   6.102   1.459
 1096SOL    HW1 4187   2.956   6.070   1.366
 1096SOL    HW2 4188   2.959   6.201   1.462
 1097SOL     OW 4189   3.029   5.240   4.537
 1097SOL    HW1 4190   2.996   5.228   4.443
 1097SOL    HW2 4191   3.054   5.151   4.574
 1098SOL     OW 4192   6.117   4.403   0.685
 1098SOL    HW1 4193   6.048   4.475   0.679
 1098SOL    HW2 4194   6.190   4.431   0.747
 1099SOL     OW 4195   4.299   6.661   5.630
 1099SOL    HW1 4196   4.293   6.756   5.598
 1099SOL    HW2 4197   4.321   6.601   5.554
 1100SOL     OW 4198   3.681   1.778   4.270
 1100SOL    HW1 4199   3.713   1.684   4.259
 1100SOL    HW2 4200   3.606   1.780   4.336
 1101SOL     OW 4201   5.669   3.038   6.538
 1101SOL    HW1 4202   5.578   3.020   6.500
 1101SOL    HW2 4203   5.737   3.027   6.466
 1102SOL     OW 4204   2.781   1.122   3.364
 1102SOL    HW1 4205   2.704   1.060   3.382
 1102SOL    HW2 4206   2.818   1.104   3.273
 1103SOL     OW 4207   2.891   6.799   0.260
 1103SOL    HW1 4208   2.934   6.839   0.178
 1103SOL    HW2 4209   2.953   6.732   0.301
 1104SOL     OW 4210   0.944   3.023   4.165
 1104SOL    HW1 4211   0.998   3.001   4.083
 1104SOL    HW2 4212   0.903   3.113   4.154
 1105SOL     OW 4213   5.112   1.190   5.889
 1105SOL    HW1 4214   5.107   1.279   5.844
 1105SOL    HW2 4215   5.027   1.172   5.938
 1106SOL     OW 4216   7.012   1.659   0.348
 1106SOL    HW1 4217   0.070   1.708   0.301
 1106SOL    HW2 4218   6.930   1.716   0.351
 1107SOL     OW 4219   0.849   1.613   6.672
 1107SOL    HW1 4220   0.914   1.604   6.748
 1107SOL    HW2 4221   0.889   1.573   6.590
 1108SOL     OW 4222   2.558   0.079   3.589
 1108SOL    HW1 4223   2.582   0.171   3.621
 1108SOL    HW2 4224   2.525   0.084   3.495
 1109SOL     OW 4225   4.569   2.223   4.562
 1109SOL    HW1 4226   4.530   2.149   4.618
 1109SOL    HW2 4227   4.544   2.210   4.467
 1110SOL     OW 4228   2.539   0.900   2.287
 1110SOL    HW1 4229   2.607   0.836   2.249
 1110SOL    HW2 4230   2.531   0.979   2.226
 1111SOL     OW 4231   5.789   4.011   6.632
 1111SOL    HW1 4232   5.793   3.955   6.550
 1111SOL    HW2 4233   5.855   3.977   6.699
 1112SOL     OW 4234   5.385   0.459   2.171
 1112SOL    HW1 4235   5.292   0.424   2.177
 1112SOL    HW2 4236   5.387   0.538   2.109
 1113SOL     OW 4237   5.620   4.443   2.477
 1113SOL    HW1 4238   5.607   4.510   2.551
 1113SOL    HW2 4239   5.715   4.412   2.476
 1114SOL     OW 4240   3.644   4.144   5.418
 1114SOL    HW1 4241   3.690   4.159   5.331
 1114SOL    HW2 4242   3.658   4.050   5.447
 1115SOL     OW 4243   2.856   4.239   5.465
 1115SOL    HW1 4244   2.899   4.217   5.552
 1115SOL    HW2 4245   2.925   4.236   5.392
 1116SOL     OW 4246   4.145   6.890   6.546
 1116SOL    HW1 4247   4.057   6.853   6.518
 1116SOL    HW2 4248   4.211   6.882   6.472
 1117SOL     OW 4249   2.094   2.537   1.357
 1117SOL    HW1 4250   2.132   2.460   1.305
 1117SOL    HW2 4251   2.038   2.593   1.296
 1118SOL     OW 4252   3.952   4.903   0.311
 1118SOL    HW1 4253   3.880   4.834   0.325
 1118SOL    HW2 4254   3.919   4.973   0.247
 1119SOL     OW 4255   2.821   5.222   4.281
 1119SOL    HW1 4256   2.833   5.315   4.246
 1119SOL    HW2 4257   2.876   5.158   4.228
 1120SOL     OW 4258   0.000   4.077   0.840
 1120SOL    HW1 4259   0.018   4.046   0.933
 1120SOL    HW2 4260   0.012   4.176   0.834
 1121SOL     OW 4261   6.729   4.794   4.057
 1121SOL    HW1 4262   6.713   4.866   4.124
 1121SOL    HW2 4263   6.801   4.821   3.994
 1122SOL     OW 4264   5.540   2.428   1.916
 1122SOL    HW1 4265   5.536   2.406   2.014
 1122SOL    HW2 4266   5.452   2.466   1.887
 1123SOL     OW 4267   3.827   1.107   3.231
 1123SOL    HW1 4268   3.730   1.111   3.210
 1123SOL    HW2 4269   3.854   1.012   3.248
 1124SOL     OW 4270   2.294   2.846   4.162
 1124SOL    HW1 4271   2.393   2.840   4.149
 1124SOL    HW2 4272   2.254   2.755   4.154
 1125SOL     OW 4273   2.231   4.059   3.419
 1125SOL    HW1 4274   2.167   4.133   3.440
 1125SOL    HW2 4275   2.258   4.013   3.503
 1126SOL     OW 4276   3.968   4.896   4.780
 1126SOL    HW1 4277   4.007   4.808   4.809
 1126SOL    HW2 4278   3.896   4.923   4.843
 1127SOL     OW 4279   6.028   6.782   2.558
 1127SOL    HW1 4280   6.093   6.825   2.620
 1127SOL    HW2 4281   5.990   6.851   2.496
 1128SOL     OW 4282   5.142   1.181   3.923
 1128SOL    HW1 4283   5.157   1.130   4.008
 1128SOL    HW2 4284   5.121   1.276   3.945
 1129SOL     OW 4285   1.165   0.869   0.804
 1129SOL    HW1 4286   1.067   0.869   0.826
 1129SOL    HW2 4287   1.204   0.958   0.825
 1130SOL     OW 4288   1.864   4.796   1.900
 1130SOL    HW1 4289   1.797   4.802   1.974
 1130SOL    HW2 4290   1.818   4.770   1.815
 1131SOL     OW 4291   0.964   5.086   4.114
 1131SOL    HW1 4292   0.945   5.171   4.162
 1131SOL    HW2 4293   1.062   5.076   4.100
 1132SOL     OW 4294   2.383   1.433   2.577
 1132SOL    HW1 4295   2.400   1.391   2.666
 1132SOL    HW2 4296   2.467   1.472   2.541
 1133SOL     OW 4297   1.040   0.047   5.497
 1133SOL    HW1 4298   1.118   0.045   5.560
 1133SOL    HW2 4299   1.071   0.079   5.408
 1134SOL     OW 4300   3.768   6.809   1.250
 1134SOL    HW1 4301   3.854   6.859   1.258
 1134SOL    HW2 4302   3.775   6.743   1.175
 1135SOL     OW 4303   1.973   5.573   3.374
 1135SOL    HW1 4304   2.001   5.576   3.470
 1135SOL    HW2 4305   1.876   5.596   3.367
 1136SOL     OW 4306   1.492   5.508   1.864
 1136SOL    HW1 4307   1.501   5.428   1.805
 1136SOL    HW2 4308   1.447   5.480   1.950
 1137SOL     OW 4309   0.842   5.509   5.216
 1137SOL    HW1 4310   0.840   5.411   5.195
 1137SOL    HW2 4311   0.754   5.550   5.192
 1138SOL     OW 4312   2.108   3.599   4.660
 1138SOL    HW1 4313   2.157   3.598   4.747
 1138SOL    HW2 4314   2.060   3.512   4.648
 1139SOL     OW 4315   2.671   5.498   4.631
 1139SOL    HW1 4316   2.698   5.458   4.719
 1139SOL    HW2 4317   2.660   5.425   4.564
 1140SOL     OW 4318   1.602   1.998   0.855
 1140SOL    HW1 4319   1.587   2.085   0.901
 1140SOL    HW2 4320   1.537   1.930   0.890
 1141SOL     OW 4321   0.217   4.823   6.123
 1141SOL    HW1 4322   0.266   4.880   6.190
 1141SOL    HW2 4323   0.256   4.837   6.032
 1142SOL     OW 4324   2.482   6.281   1.924
 1142SOL    HW1 4325   2.558   6.239   1.972
 1142SOL    HW2 4326   2.398   6.228   1.941
 1143SOL     OW 4327   1.123   4.208   1.537
 1143SOL    HW1 4328   1.194   4.237   1.602
 1143SOL    HW2 4329   1.069   4.135   1.578
 1144SOL     OW 4330   5.518   4.520   0.967
 1144SOL    HW1 4331   5.610   4.481   0.960
 1144SOL    HW2 4332   5.520   4.616   0.940
 1145SOL     OW 4333   5.902   0.301   1.313
 1145SOL    HW1 4334   5.851   0.371   1.263
 1145SOL    HW2 4335   6.000   0.319   1.307
 1146SOL     OW 4336   0.717   0.986   1.209
 1146SOL    HW1 4337   0.769   0.962   1.291
 1146SOL    HW2 4338   0.775   1.040   1.147
 1147SOL     OW 4339   2.376   6.367   1.302
 1147SOL    HW1 4340   2.381   6.341   1.398
 1147SOL    HW2 4341   2.304   6.314   1.257
 1148SOL     OW 4342   4.796   5.342   3.393
 1148SOL    HW1 4343   4.788   5.244   3.373
 1148SOL    HW2 4344   4.769   5.360   3.487
 1149SOL     OW 4345   4.319   3.329   1.630
 1149SOL    HW1 4346   4.252   3.383   1.580
 1149SOL    HW2 4347   4.410   3.345   1.593
 1150SOL     OW 4348   1.662   3.657   0.091
 1150SOL    HW1 4349   1.582   3.713   0.070
 1150SOL    HW2 4350   1.740   3.715   0.110
 1151SOL     OW 4351   6.239   5.546   4.050
 1151SOL    HW1 4352   6.238   5.595   3.962
 1151SOL    HW2 4353   6.228   5.611   4.125
 1152SOL     OW 4354   3.908   6.380   6.567
 1152SOL    HW1 4355   3.899   6.379   6.666
 1152SOL    HW2 4356   4.003   6.400   6.542
 1153SOL     OW 4357   6.070   0.106   1.763
 1153SOL    HW1 4358   6.008   0.129   1.838
 1153SOL    HW2 4359   6.160   0.148   1.779
 1154SOL     OW 4360   1.959   2.373   1.052
 1154SOL    HW1 4361   2.028   2.339   1.116
 1154SOL    HW2 4362   1.974   2.470   1.036
 1155SOL     OW 4363   2.709   6.622   4.467
 1155SOL    HW1 4364   2.682   6.554   4.535
 1155SOL    HW2 4365   2.794   6.593   4.424
 1156SOL     OW 4366   2.441   1.528   3.712
 1156SOL    HW1 4367   2.373   1.576   3.656
 1156SOL    HW2 4368   2.403   1.511   3.803
 1157SOL     OW 4369   3.593   0.742   7.006
 1157SOL    HW1 4370   3.618   0.684   6.928
 1157SOL    HW2 4371   3.574   0.835   6.974
 1158SOL     OW 4372   5.723   4.767   3.308
 1158SOL    HW1 4373   5.767   4.748   3.220
 1158SOL    HW2 4374   5.757   4.854   3.343
 1159SOL     OW 4375   6.007   5.567   1.374
 1159SOL    HW1 4376   6.026   5.535   1.467
 1159SOL    HW2 4377   6.093   5.585   1.327
 1160SOL     OW 4378   5.599   1.939   0.573
 1160SOL    HW1 4379   5.591   1.864   0.508
 1160SOL    HW2 4380   5.530   2.009   0.553
 1161SOL     OW 4381   0.431   5.570   0.712
 1161SOL    HW1 4382   0.477   5.522   0.638
 1161SOL    HW2 4383   0.345   5.523   0.734
 1162SOL     OW 4384   2.936   2.146   4.861
 1162SOL    HW1 4385   2.986   2.182   4.939
 1162SOL    HW2 4386   2.879   2.219   4.821
 1163SOL     OW 4387   5.596   3.120   1.975
 1163SOL    HW1 4388   5.528   3.182   1.935
 1163SOL    HW2 4389   5.637   3.064   1.902
 1164SOL     OW 4390   4.298   1.969   5.496
 1164SOL    HW1 4391   4.311   1.960   5.595
 1164SOL    HW2 4392   4.386   1.988   5.452
 1165SOL     OW 4393   3.853   6.199   3.584
 1165SOL    HW1 4394   3.924   6.234   3.523
 1165SOL    HW2 4395   3.890   6.124   3.639
 1166SOL     OW 4396   3.437   4.512   6.223
 1166SOL    HW1 4397   3.505   4.562   6.276
 1166SOL    HW2 4398   3.405   4.433   6.275
 1167SOL     OW 4399   5.404   4.940   2.537
 1167SOL    HW1 4400   5.425   4.888   2.620
 1167SOL    HW2 4401   5.382   4.876   2.463
 1168SOL     OW 4402   6.318   0.891   3.103
 1168SOL    HW1 4403   6.283   0.883   3.196
 1168SOL    HW2 4404   6.343   0.800   3.069
 1169SOL     OW 4405   5.243   0.961   5.623
 1169SOL    HW1 4406   5.221   1.036   5.686
 1169SOL    HW2 4407   5.199   0.978   5.535
 1170SOL     OW 4408   5.189   6.225   3.946
 1170SOL    HW1 4409   5.158   6.138   3.907
 1170SOL    HW2 4410   5.148   6.300   3.895
 1171SOL     OW 4411   0.728   6.481   1.328
 1171SOL    HW1 4412   0.687   6.543   1.261
 1171SOL    HW2 4413   0.770   6.534   1.402
 1172SOL     OW 4414   6.804   3.559   6.034
 1172SOL    HW1 4415   6.761   3.643   6.068
 1172SOL    HW2 4416   6.896   3.552   6.071
 1173SOL     OW 4417   3.539   1.627   0.747
 1173SOL    HW1 4418   3.571   1.658   0.837
 1173SOL    HW2 4419   3.597   1.664   0.675
 1174SOL     OW 4420   2.806   3.568   0.805
 1174SOL    HW1 4421   2.833   3.612   0.720
 1174SOL    HW2 4422   2.843   3.475   0.807
 1175SOL     OW 4423   3.490   2.829   4.174
 1175SOL    HW1 4424   3.427   2.904   4.154
 1175SOL    HW2 4425   3.519   2.787   4.088
 1176SOL     OW 4426   5.435   3.514   6.140
 1176SOL    HW1 4427   5.424   3.441   6.207
 1176SOL    HW2 4428   5.346   3.555   6.120
 1177SOL     OW 4429   6.779   1.967   4.588
 1177SOL    HW1 4430   6.767   1.868   4.595
 1177SOL    HW2 4431   6.702   2.013   4.631
 1178SOL     OW 4432   3.622   5.308   0.267
 1178SOL    HW1 4433   3.609   5.402   0.235
 1178SOL    HW2 4434   3.552   5.285   0.334
 1179SOL     OW 4435   1.861   5.396   0.072
 1179SOL    HW1 4436   1.765   5.418   0.092
 1179SOL    HW2 4437   1.917   5.478   0.085
 1180SOL     OW 4438   3.415   5.747   0.974
 1180SOL    HW1 4439   3.326   5.778   1.008
 1180SOL    HW2 4440   3.475   5.827   0.960
 1181SOL     OW 4441   0.254   6.437   0.768
 1181SOL    HW1 4442   0.183   6.371   0.791
 1181SOL    HW2 4443   0.342   6.390   0.759
 1182SOL     OW 4444   4.822   4.605   2.631
 1182SOL    HW1 4445   4.853   4.511   2.644
 1182SOL    HW2 4446   4.887   4.667   2.673
 1183SOL     OW 4447   2.412   3.070   5.718
 1183SOL    HW1 4448   2.360   3.000   5.670
 1183SOL    HW2 4449   2.360   3.155   5.720
 1184SOL     OW 4450   0.954   0.041   6.168
 1184SOL    HW1 4451   1.012   0.083   6.098
 1184SOL    HW2 4452   0.865   0.019   6.129
 1185SOL     OW 4453   6.679   1.540   6.574
 1185SOL    HW1 4454   6.649   1.446   6.587
 1185SOL    HW2 4455   6.770   1.541   6.534
 1186SOL     OW 4456   5.421   6.036   4.938
 1186SOL    HW1 4457   5.493   5.997   4.880
 1186SOL    HW2 4458   5.403   5.973   5.014
 1187SOL     OW 4459   5.992   0.698   6.385
 1187SOL    HW1 4460   5.937   0.643   6.322
 1187SOL    HW2 4461   5.934   0.770   6.424
 1188SOL     OW 4462   2.695   6.805   6.119
 1188SOL    HW1 4463   2.738   6.728   6.166
 1188SOL    HW2 4464   2.606   6.824   6.162
 1189SOL     OW 4465   5.673   3.235   3.200
 1189SOL    HW1 4466   5.648   3.164   3.134
 1189SOL    HW2 4467   5.686   3.194   3.290
 1190SOL     OW 4468   1.824   5.882   2.774
 1190SOL    HW1 4469   1.901   5.821   2.754
 1190SOL    HW2 4470   1.764   5.887   2.695
 1191SOL     OW 4471   3.901   5.671   2.584
 1191SOL    HW1 4472   3.878   5.757   2.630
 1191SOL    HW2 4473   3.997   5.649   2.600
 1192SOL     OW 4474   5.616   6.461   3.840
 1192SOL    HW1 4475   5.559   6.387   3.876
 1192SOL    HW2 4476   5.637   6.526   3.913
 1193SOL     OW 4477   6.429   5.405   4.229
 1193SOL    HW1 4478   6.503   5.357   4.182
 1193SOL    HW2 4479   6.356   5.426   4.163
 1194SOL     OW 4480   3.677   0.960   1.259
 1194SOL    HW1 4481   3.742   0.949   1.334
 1194SOL    HW2 4482   3.609   0.886   1.262
 1195SOL     OW 4483   5.156   2.698   3.418
 1195SOL    HW1 4484   5.141   2.627   3.487
 1195SOL    HW2 4485   5.222   2.666   3.351
 1196SOL     OW 4486   6.010   6.679   5.221
 1196SOL    HW1 4487   5.941   6.618   5.182
 1196SOL    HW2 4488   6.020   6.659   5.319
 1197SOL     OW 4489   2.111   6.252   6.928
 1197SOL    HW1 4490   2.161   6.325   6.882
 1197SOL    HW2 4491   2.013   6.263   6.912
 1198SOL     OW 4492   1.613   2.654   0.475
 1198SOL    HW1 4493   1.709   2.653   0.446
 1198SOL    HW2 4494   1.566   2.575   0.436
 1199SOL     OW 4495   5.604   3.996   1.899
 1199SOL    HW1 4496   5.556   4.078   1.870
 1199SOL    HW2 4497   5.597   3.986   1.998
 1200SOL     OW 4498   3.251   3.702   1.888
 1200SOL    HW1 4499   3.183   3.631   1.904
 1200SOL    HW2 4500   3.340   3.671   1.921
 1201SOL     OW 4501   1.674   1.946   4.687
 1201SOL    HW1 4502   1.651   1.865   4.634
 1201SOL    HW2 4503   1.771   1.946   4.709
 1202SOL     OW 4504   0.464   5.277   6.070
 1202SOL    HW1 4505   0.545   5.259   6.127
 1202SOL    HW2 4506   0.469   5.223   5.987
 1203SOL     OW 4507   4.382   5.946   6.016
 1203SOL    HW1 4508   4.470   5.915   5.981
 1203SOL    HW2 4509   4.320   5.868   6.026
 1204SOL     OW 4510   2.163   0.081   2.609
 1204SOL    HW1 4511   2.081   0.048   2.561
 1204SOL    HW2 4512   2.154   0.062   2.707
 1205SOL     OW 4513   5.263   4.534   2.100
 1205SOL    HW1 4514   5.284   4.590   2.020
 1205SOL    HW2 4515   5.332   4.461   2.108
 1206SOL     OW 4516   3.487   3.435   4.995
 1206SOL    HW1 4517   3.511   3.358   5.054
 1206SOL    HW2 4518   3.569   3.489   4.977
 1207SOL     OW 4519   1.805   6.647   1.827
 1207SOL    HW1 4520   1.770   6.571   1.881
 1207SOL    HW2 4521   1.753   6.653   1.741
 1208SOL     OW 4522   3.521   4.017   6.279
 1208SOL    HW1 4523   3.471   3.978   6.357
 1208SOL    HW2 4524   3.596   3.956   6.253
 1209SOL     OW 4525   3.923   6.437   5.226
 1209SOL    HW1 4526   4.002   6.494   5.204
 1209SOL    HW2 4527   3.916   6.426   5.325
 1210SOL     OW 4528   3.364   1.028   3.364
 1210SOL    HW1 4529   3.453   0.989   3.386
 1210SOL    HW2 4530   3.311   1.041   3.448
 1211SOL     OW 4531   1.238   3.196   0.265
 1211SOL    HW1 4532   1.203   3.245   0.185
 1211SOL    HW2 4533   1.203   3.103   0.265
 1212SOL     OW 4534   1.416   6.385   7.000
 1212SOL    HW1 4535   1.477   6.439   0.043
 1212SOL    HW2 4536   1.389   6.439   6.920
 1213SOL     OW 4537   5.411   2.768   1.261
 1213SOL    HW1 4538   5.475   2.731   1.194
 1213SOL    HW2 4539   5.451   2.760   1.353
 1214SOL     OW 4540   0.263   2.296   1.798
 1214SOL    HW1 4541   0.275   2.204   1.836
 1214SOL    HW2 4542   0.239   2.359   1.872
 1215SOL     OW 4543   1.423   5.725   4.358
 1215SOL    HW1 4544   1.393   5.765   4.445
 1215SOL    HW2 4545   1.362   5.754   4.285
 1216SOL     OW 4546   4.282   6.402   0.404
 1216SOL    HW1 4547   4.196   6.425   0.450
 1216SOL    HW2 4548   4.358   6.409   0.468
 1217SOL     OW 4549   2.843   4.070   0.104
 1217SOL    HW1 4550   2.851   4.153   0.048
 1217SOL    HW2 4551   2.866   4.090   0.199
 1218SOL     OW 4552   1.592   4.912   3.435
 1218SOL    HW1 4553   1.554   4.890   3.345
 1218SOL    HW2 4554   1.659   4.843   3.460
 1219SOL     OW 4555   4.544   5.971   2.565
 1219SOL    HW1 4556   4.453   5.931   2.566
 1219SOL    HW2 4557   4.568   6.000   2.473
 1220SOL     OW 4558   1.072   4.694   2.805
 1220SOL    HW1 4559   1.163   4.651   2.807
 1220SOL    HW2 4560   1.003   4.623   2.789
 1221SOL     OW 4561   5.677   3.842   6.101
 1221SOL    HW1 4562   5.581   3.866   6.114
 1221SOL    HW2 4563   5.703   3.773   6.169
 1222SOL     OW 4564   6.864   6.502   6.676
 1222SOL    HW1 4565   6.774   6.484   6.636
 1222SOL    HW2 4566   6.899   6.589   6.640
 1223SOL     OW 4567   3.217   6.155   0.303
 1223SOL    HW1 4568   3.236   6.057   0.303
 1223SOL    HW2 4569   3.188   6.184   0.394
 1224SOL     OW 4570   2.958   0.424   1.988
 1224SOL    HW1 4571   3.008   0.460   2.066
 1224SOL    HW2 4572   2.947   0.496   1.920
 1225SOL     OW 4573   2.621   4.300   6.784
 1225SOL    HW1 4574   2.647   4.323   6.690
 1225SOL    HW2 4575   2.643   4.377   6.844
 1226SOL     OW 4576   2.025   4.249   1.122
 1226SOL    HW1 4577   2.031   4.308   1.042
 1226SOL    HW2 4578   2.106   4.190   1.127
 1227SOL     OW 4579   0.363   3.331   6.589
 1227SOL    HW1 4580   0.274   3.293   6.615
 1227SOL    HW2 4581   0.413   3.356   6.672
 1228SOL     OW 4582   3.751   1.376   5.633
 1228SOL    HW1 4583   3.728   1.283   5.603
 1228SOL    HW2 4584   3.801   1.371   5.719
 1229SOL     OW 4585   3.764   4.399   6.432
 1229SOL    HW1 4586   3.713   4.314   6.449
 1229SOL    HW2 4587   3.787   4.442   6.520
 1230SOL     OW 4588   4.472   6.256   3.560
 1230SOL    HW1 4589   4.387   6.298   3.592
 1230SOL    HW2 4590   4.485   6.279   3.463
 1231SOL     OW 4591   1.798   4.554   4.344
 1231SOL    HW1 4592   1.888   4.511   4.344
 1231SOL    HW2 4593   1.765   4.563   4.249
 1232SOL     OW 4594   1.862   2.399   4.421
 1232SOL    HW1 4595   1.915   2.314   4.430
 1232SOL    HW2 4596   1.765   2.377   4.415
 1233SOL     OW 4597   0.955   3.291   4.654
 1233SOL    HW1 4598   1.009   3.322   4.575
 1233SOL    HW2 4599   1.010   3.227   4.708
 1234SOL     OW 4600   6.230   4.310   4.465
 1234SOL    HW1 4601   6.293   4.277   4.395
 1234SOL    HW2 4602   6.282   4.339   4.546
 1235SOL     OW 4603   6.160   6.009   4.433
 1235SOL    HW1 4604   6.128   5.955   4.355
 1235SOL    HW2 4605   6.240   6.063   4.406
 1236SOL     OW 4606   5.108   0.665   0.150
 1236SOL    HW1 4607   5.206   0.668   0.169
 1236SOL    HW2 4608   5.062   0.741   0.196
 1237SOL     OW 4609   2.935   4.485   6.769
 1237SOL    HW1 4610   2.930   4.412   6.700
 1237SOL    HW2 4611   3.004   4.552   6.742
 1238SOL     OW 4612   1.800   1.549   1.533
 1238SOL    HW1 4613   1.781   1.632   1.480
 1238SOL    HW2 4614   1.720   1.525   1.587
 1239SOL     OW 4615   6.928   6.748   6.542
 1239SOL    HW1 4616   7.015   6.755   6.493
 1239SOL    HW2 4617   6.853   6.756   6.477
 1240SOL     OW 4618   4.530   6.204   2.088
 1240SOL    HW1 4619   4.441   6.239   2.058
 1240SOL    HW2 4620   4.595   6.280   2.092
 1241SOL     OW 4621   6.231   3.155   3.321
 1241SOL    HW1 4622   6.180   3.150   3.407
 1241SOL    HW2 4623   6.242   3.250   3.294
 1242SOL     OW 4624   2.188   3.870   6.763
 1242SOL    HW1 4625   2.229   3.795   6.712
 1242SOL    HW2 4626   2.100   3.894   6.721
 1243SOL     OW 4627   2.871   5.344   5.373
 1243SOL    HW1 4628   2.796   5.406   5.350
 1243SOL    HW2 4629   2.836   5.268   5.428
 1244SOL     OW 4630   0.533   0.670   3.344
 1244SOL    HW1 4631   0.437   0.683   3.367
 1244SOL    HW2 4632   0.589   0.734   3.397
 1245SOL     OW 4633   2.874   3.255   6.137
 1245SOL    HW1 4634   2.902   3.203   6.056
 1245SOL    HW2 4635   2.932   3.337   6.145
 1246SOL     OW 4636   1.060   6.611   2.770
 1246SOL    HW1 4637   1.005   6.543   2.722
 1246SOL    HW2 4638   1.054   6.699   2.723
 1247SOL     OW 4639   1.663   6.644   6.951
 1247SOL    HW1 4640   1.641   6.585   6.872
 1247SOL    HW2 4641   1.685   6.587   0.014
 1248SOL     OW 4642   1.855   5.746   3.634
 1248SOL    HW1 4643   1.939   5.800   3.628
 1248SOL    HW2 4644   1.878   5.649   3.634
 1249SOL     OW 4645   6.067   3.109   2.869
 1249SOL    HW1 4646   6.166   3.108   2.879
 1249SOL    HW2 4647   6.024   3.110   2.960
 1250SOL     OW 4648   0.853   4.624   4.471
 1250SOL    HW1 4649   0.951   4.639   4.459
 1250SOL    HW2 4650   0.802   4.694   4.420
 1251SOL     OW 4651   3.783   0.175   5.228
 1251SOL    HW1 4652   3.820   0.174   5.135
 1251SOL    HW2 4653   3.684   0.159   5.225
 1252SOL     OW 4654   3.408   3.500   6.552
 1252SOL    HW1 4655   3.366   3.572   6.607
 1252SOL    HW2 4656   3.380   3.510   6.457
 1253SOL     OW 4657   4.176   5.954   2.832
 1253SOL    HW1 4658   4.088   5.921   2.866
 1253SOL    HW2 4659   4.250   5.909   2.882
 1254SOL     OW 4660   6.877   1.489   2.559
 1254SOL    HW1 4661   6.910   1.543   2.636
 1254SOL    HW2 4662   6.948   1.486   2.488
 1255SOL     OW 4663   5.996   6.863   0.101
 1255SOL    HW1 4664   6.042   6.835   0.185
 1255SOL    HW2 4665   6.065   6.888   0.033
 1256SOL     OW 4666   4.444   1.335   3.743
 1256SOL    HW1 4667   4.542   1.320   3.745
 1256SOL    HW2 4668   4.421   1.395   3.666
 1257SOL     OW 4669   6.369   1.498   3.964
 1257SOL    HW1 4670   6.399   1.410   4.002
 1257SOL    HW2 4671   6.387   1.498   3.865
 1258SOL     OW 4672   0.254   6.825   3.646
 1258SOL    HW1 4673   0.339   6.849   3.598
 1258SOL    HW2 4674   0.177   6.873   3.604
 1259SOL     OW 4675   4.281   2.245   5.186
 1259SOL    HW1 4676   4.222   2.259   5.266
 1259SOL    HW2 4677   4.272   2.323   5.124
 1260SOL     OW 4678   0.998   1.367   6.496
 1260SOL    HW1 4679   0.995   1.422   6.413
 1260SOL    HW2 4680   1.056   1.287   6.480
 1261SOL     OW 4681   6.361   3.811   0.845
 1261SOL    HW1 4682   6.357   3.887   0.780
 1261SOL    HW2 4683   6.430   3.746   0.815
 1262SOL     OW 4684   5.382   5.900   2.515
 1262SOL    HW1 4685   5.291   5.927   2.547
 1262SOL    HW2 4686   5.388   5.801   2.508
 1263SOL     OW 4687   0.788   2.340   3.510
 1263SOL    HW1 4688   0.759   2.394   3.430
 1263SOL    HW2 4689   0.732   2.365   3.589
 1264SOL     OW 4690   0.617   2.717   5.283
 1264SOL    HW1 4691   0.561   2.681   5.208
 1264SOL    HW2 4692   0.558   2.743   5.359
 1265SOL     OW 4693   5.552   6.403   5.397
 1265SOL    HW1 4694   5.618   6.372   5.328
 1265SOL    HW2 4695   5.553   6.503   5.400
 1266SOL     OW 4696   1.631   1.537   5.045
 1266SOL    HW1 4697   1.585   1.583   5.121
 1266SOL    HW2 4698   1.635   1.599   4.967
 1267SOL     OW 4699   3.704   0.317   3.358
 1267SOL    HW1 4700   3.643   0.319   3.437
 1267SOL    HW2 4701   3.712   0.223   3.324
 1268SOL     OW 4702   4.196   2.688   5.606
 1268SOL    HW1 4703   4.208   2.744   5.688
 1268SOL    HW2 4704   4.212   2.592   5.629
 1269SOL     OW 4705   6.194   1.857   4.282
 1269SOL    HW1 4706   6.157   1.825   4.195
 1269SOL    HW2 4707   6.177   1.789   4.353
 1270SOL     OW 4708   6.411   5.826   2.753
 1270SOL    HW1 4709   6.317   5.823   2.720
 1270SOL    HW2 4710   6.421   5.763   2.831
 1271SOL     OW 4711   1.737   1.523   1.013
 1271SOL    HW1 4712   1.717   1.432   0.976
 1271SOL    HW2 4713   1.806   1.568   0.956
 1272SOL     OW 4714   6.216   3.444   6.117
 1272SOL    HW1 4715   6.299   3.418   6.166
 1272SOL    HW2 4716   6.208   3.390   6.033
 1273SOL     OW 4717   1.171   4.456   5.016
 1273SOL    HW1 4718   1.176   4.402   5.100
 1273SOL    HW2 4719   1.222   4.542   5.029
 1274SOL     OW 4720   0.132   5.180   3.037
 1274SOL    HW1 4721   0.136   5.099   2.978
 1274SOL    HW2 4722   0.172   5.258   2.989
 1275SOL     OW 4723   2.140   1.171   3.259
 1275SOL    HW1 4724   2.078   1.215   3.195
 1275SOL    HW2 4725   2.150   1.228   3.341
 1276SOL     OW 4726   5.762   4.747   4.284
 1276SOL    HW1 4727   5.720   4.769   4.372
 1276SOL    HW2 4728   5.702   4.777   4.210
 1277SOL     OW 4729   0.944   6.108   0.572
 1277SOL    HW1 4730   0.940   6.204   0.600
 1277SOL    HW2 4731   1.025   6.065   0.613
 1278SOL     OW 4732   0.993   6.018   3.079
 1278SOL    HW1 4733   1.002   5.944   3.013
 1278SOL    HW2 4734   0.932   5.990   3.153
 1279SOL     OW 4735   2.772   2.824   1.637
 1279SOL    HW1 4736   2.855   2.808   1.690
 1279SOL    HW2 4737   2.798   2.853   1.544
 1280SOL     OW 4738   1.951   2.320   3.706
 1280SOL    HW1 4739   2.011   2.303   3.784
 1280SOL    HW2 4740   1.957   2.417   3.681
 1281SOL     OW 4741   4.870   5.999   4.822
 1281SOL    HW1 4742   4.849   6.020   4.727
 1281SOL    HW2 4743   4.967   6.016   4.839
 1282SOL     OW 4744   0.031   2.850   1.113
 1282SOL    HW1 4745   0.058   2.758   1.082
 1282SOL    HW2 4746   6.988   2.892   1.044
 1283SOL     OW 4747   6.722   3.102   4.873
 1283SOL    HW1 4748   6.776   3.164   4.929
 1283SOL    HW2 4749   6.710   3.141   4.782
 1284SOL     OW 4750   4.129   2.158   1.749
 1284SOL    HW1 4751   4.175   2.139   1.662
 1284SOL    HW2 4752   4.157   2.090   1.817
 1285SOL     OW 4753   4.216   0.965   5.312
 1285SOL    HW1 4754   4.162   0.932   5.234
 1285SOL    HW2 4755   4.305   0.920   5.311
 1286SOL     OW 4756   5.501   2.001   1.540
 1286SOL    HW1 4757   5.561   2.068   1.497
 1286SOL    HW2 4758   5.530   1.986   1.634
 1287SOL     OW 4759   6.864   4.855   4.426
 1287SOL    HW1 4760   6.936   4.890   4.486
 1287SOL    HW2 4761   6.826   4.931   4.373
 1288SOL     OW 4762   4.581   4.392   0.111
 1288SOL    HW1 4763   4.659   4.453   0.097
 1288SOL    HW2 4764   4.603   4.301   0.075
 1289SOL     OW 4765   6.928   6.912   1.714
 1289SOL    HW1 4766   6.958   6.908   1.618
 1289SOL    HW2 4767   6.967   6.833   1.763
 1290SOL     OW 4768   1.467   6.731   5.460
 1290SOL    HW1 4769   1.407   6.746   5.382
 1290SOL    HW2 4770   1.414   6.695   5.536
 1291SOL     OW 4771   6.394   4.630   3.212
 1291SOL    HW1 4772   6.347   4.719   3.205
 1291SOL    HW2 4773   6.478   4.632   3.158
 1292SOL     OW 4774   0.924   6.729   1.799
 1292SOL    HW1 4775   0.909   6.792   1.875
 1292SOL    HW2 4776   0.911   6.778   1.712
 1293SOL     OW 4777   4.572   1.331   0.105
 1293SOL    HW1 4778   4.635   1.268   0.150
 1293SOL    HW2 4779   4.515   1.280   0.040
 1294SOL     OW 4780   1.985   4.286   4.732
 1294SOL    HW1 4781   2.051   4.213   4.714
 1294SOL    HW2 4782   1.900   4.247   4.766
 1295SOL     OW 4783   6.481   4.402   0.646
 1295SOL    HW1 4784   6.481   4.498   0.675
 1295SOL    HW2 4785   6.446   4.345   0.721
 1296SOL     OW 4786   5.452   0.253   5.895
 1296SOL    HW1 4787   5.421   0.343   5.924
 1296SOL    HW2 4788   5.407   0.228   5.809
 1297SOL     OW 4789   0.738   0.746   1.842
 1297SOL    HW1 4790   0.638   0.742   1.834
 1297SOL    HW2 4791   0.762   0.796   1.926
 1298SOL     OW 4792   4.933   0.224   2.285
 1298SOL    HW1 4793   4.930   0.236   2.385
 1298SOL    HW2 4794   4.983   0.141   2.263
 1299SOL     OW 4795   0.795   3.625   4.487
 1299SOL    HW1 4796   0.760   3.679   4.564
 1299SOL    HW2 4797   0.860   3.679   4.435
 1300SOL     OW 4798   0.882   5.072   1.606
 1300SOL    HW1 4799   0.799   5.089   1.553
 1300SOL    HW2 4800   0.923   4.985   1.578
 1301SOL     OW 4801   0.418   0.193   0.511
 1301SOL    HW1 4802   0.411   0.105   0.465
 1301SOL    HW2 4803   0.424   0.266   0.443
 1302SOL     OW 4804   5.820   0.058   5.082
 1302SOL    HW1 4805   5.856   0.013   5.000
 1302SOL    HW2 4806   5.721   0.070   5.073
 1303SOL     OW 4807   3.523   6.521   1.602
 1303SOL    HW1 4808   3.474   6.442   1.565
 1303SOL    HW2 4809   3.609   6.533   1.552
 1304SOL     OW 4810   0.831   0.739   0.731
 1304SOL    HW1 4811   0.823   0.771   0.636
 1304SOL    HW2 4812   0.901   0.668   0.736
 1305SOL     OW 4813   4.591   3.170   6.312
 1305SOL    HW1 4814   4.549   3.126   6.391
 1305SOL    HW2 4815   4.541   3.254   6.291
 1306SOL     OW 4816   2.938   5.631   3.879
 1306SOL    HW1 4817   2.974   5.685   3.956
 1306SOL    HW2 4818   3.006   5.564   3.850
 1307SOL     OW 4819   2.527   2.344   3.421
 1307SOL    HW1 4820   2.618   2.325   3.456
 1307SOL    HW2 4821   2.459   2.295   3.475
 1308SOL     OW 4822   0.728   4.273   6.284
 1308SOL    HW1 4823   0.697   4.301   6.375
 1308SOL    HW2 4824   0.803   4.332   6.254
 1309SOL     OW 4825   5.616   4.739   6.501
 1309SOL    HW1 4826   5.651   4.704   6.588
 1309SOL    HW2 4827   5.575   4.665   6.449
 1310SOL     OW 4828   1.481   3.900   3.138
 1310SOL    HW1 4829   1.430   3.972   3.185
 1310SOL    HW2 4830   1.574   3.931   3.121
 1311SOL     OW 4831   6.081   5.355   0.706
 1311SOL    HW1 4832   6.113   5.328   0.614
 1311SOL    HW2 4833   6.143   5.316   0.775
 1312SOL     OW 4834   2.612   1.082   6.113
 1312SOL    HW1 4835   2.646   1.158   6.168
 1312SOL    HW2 4836   2.661   1.078   6.026
 1313SOL     OW 4837   6.845   6.221   2.311
 1313SOL    HW1 4838   6.756   6.176   2.315
 1313SOL    HW2 4839   6.913   6.165   2.358
 1314SOL     OW 4840   2.259   1.530   4.854
 1314SOL    HW1 4841   2.319   1.462   4.895
 1314SOL    HW2 4842   2.170   1.530   4.902
 1315SOL     OW 4843   5.772   1.382   3.297
 1315SOL    HW1 4844   5.860   1.336   3.291
 1315SOL    HW2 4845   5.760   1.420   3.389
 1316SOL     OW 4846   4.818   0.250   6.582
 1316SOL    HW1 4847   4.742   0.274   6.643
 1316SOL    HW2 4848   4.904   0.278   6.624
 1317SOL     OW 4849   3.412   3.545   5.899
 1317SOL    HW1 4850   3.334   3.603   5.921
 1317SOL    HW2 4851   3.380   3.454   5.873
 1318SOL     OW 4852   1.776   1.987   6.075
 1318SOL    HW1 4853   1.765   2.078   6.036
 1318SOL    HW2 4854   1.784   1.994   6.174
 1319SOL     OW 4855   6.790   6.909   0.958
 1319SOL    HW1 4856   6.806   6.817   0.994
 1319SOL    HW2 4857   6.810   6.976   1.029
 1320SOL     OW 4858   3.337   3.280   5.968
 1320SOL    HW1 4859   3.321   3.206   5.902
 1320SOL    HW2 4860   3.424   3.265   6.014
 1321SOL     OW 4861   6.248   2.707   0.484
 1321SOL    HW1 4862   6.165   2.675   0.531
 1321SOL    HW2 4863   6.247   2.806   0.479
 1322SOL     OW 4864   3.484   1.998   0.242
 1322SOL    HW1 4865   3.419   1.998   0.166
 1322SOL    HW2 4866   3.506   1.904   0.266
 1323SOL     OW 4867   3.372   6.947   0.661
 1323SOL    HW1 4868   3.283   6.918   0.627
 1323SOL    HW2 4869   3.388   0.028   0.636
 1324SOL     OW 4870   1.878   3.879   0.097
 1324SOL    HW1 4871   1.966   3.916   0.128
 1324SOL    HW2 4872   1.886   3.850   0.001
 1325SOL     OW 4873   2.890   5.926   5.333
 1325SOL    HW1 4874   2.932   5.931   5.243
 1325SOL    HW2 4875   2.811   5.865   5.330
 1326SOL     OW 4876   4.623   2.289   4.162
 1326SOL    HW1 4877   4.720   2.264   4.173
 1326SOL    HW2 4878   4.566   2.226   4.215
 1327SOL     OW 4879   5.038   5.580   1.915
 1327SOL    HW1 4880   4.951   5.621   1.942
 1327SOL    HW2 4881   5.080   5.536   1.994
 1328SOL     OW 4882   1.885   2.690   5.043
 1328SOL    HW1 4883   1.955   2.620   5.056
 1328SOL    HW2 4884   1.928   2.779   5.032
 1329SOL     OW 4885   1.153   2.975   3.680
 1329SOL    HW1 4886   1.221   2.994   3.610
 1329SOL    HW2 4887   1.154   2.877   3.702
 1330SOL     OW 4888   6.221   2.897   1.955
 1330SOL    HW1 4889   6.230   2.832   2.030
 1330SOL    HW2 4890   6.151   2.865   1.891
 1331SOL     OW 4891   4.491   1.647   3.770
 1331SOL    HW1 4892   4.481   1.732   3.718
 1331SOL    HW2 4893   4.401   1.605   3.783
 1332SOL     OW 4894   1.677   6.015   0.092
 1332SOL    HW1 4895   1.603   6.083   0.096
 1332SOL    HW2 4896   1.732   6.030   0.010
 1333SOL     OW 4897   3.557   4.040   3.286
 1333SOL    HW1 4898   3.622   4.062   3.359
 1333SOL    HW2 4899   3.596   4.070   3.198
 1334SOL     OW 4900   6.621   3.248   1.730
 1334SOL    HW1 4901   6.574   3.293   1.654
 1334SOL    HW2 4902   6.623   3.309   1.809
 1335SOL     OW 4903   1.379   3.857   2.855
 1335SOL    HW1 4904   1.407   3.886   2.946
 1335SOL    HW2 4905   1.368   3.937   2.796
 1336SOL     OW 4906   2.756   0.131   5.573
 1336SOL    HW1 4907   2.814   0.170   5.502
 1336SOL    HW2 4908   2.715   0.204   5.628
 1337SOL     OW 4909   6.560   1.057   3.240
 1337SOL    HW1 4910   6.588   1.068   3.144
 1337SOL    HW2 4911   6.473   1.103   3.255
 1338SOL     OW 4912   6.524   4.226   4.971
 1338SOL    HW1 4913   6.539   4.304   4.911
 1338SOL    HW2 4914   6.471   4.156   4.922
 1339SOL     OW 4915   0.111   0.198   6.910
 1339SOL    HW1 4916   0.051   0.269   6.873
 1339SOL    HW2 4917   0.178   0.240   6.972
 1340SOL     OW 4918   4.190   2.746   1.343
 1340SOL    HW1 4919   4.216   2.662   1.294
 1340SOL    HW2 4920   4.259   2.767   1.412
 1341SOL     OW 4921   5.009   5.915   0.065
 1341SOL    HW1 4922   4.950   5.860   0.005
 1341SOL    HW2 4923   5.068   5.855   0.119
 1342SOL     OW 4924   2.194   6.830   1.942
 1342SOL    HW1 4925   2.284   6.837   1.901
 1342SOL    HW2 4926   2.147   6.918   1.936
 1343SOL     OW 4927   5.864   5.905   3.525
 1343SOL    HW1 4928   5.907   5.949   3.605
 1343SOL    HW2 4929   5.905   5.815   3.511
 1344SOL     OW 4930   0.502   0.868   4.523
 1344SOL    HW1 4931   0.589   0.825   4.548
 1344SOL    HW2 4932   0.459   0.906   4.605
 1345SOL     OW 4933   0.095   6.486   0.259
 1345SOL    HW1 4934   0.017   6.541   0.289
 1345SOL    HW2 4935   0.145   6.453   0.340
 1346SOL     OW 4936   3.145   5.519   5.043
 1346SOL    HW1 4937   3.138   5.460   5.124
 1346SOL    HW2 4938   3.185   5.606   5.068
 1347SOL     OW 4939   1.261   6.947   6.585
 1347SOL    HW1 4940   1.212   0.016   6.611
 1347SOL    HW2 4941   1.245   6.930   6.488
 1348SOL     OW 4942   0.964   6.396   5.674
 1348SOL    HW1 4943   0.884   6.357   5.629
 1348SOL    HW2 4944   1.028   6.322   5.696
 1349SOL     OW 4945   4.703   2.697   3.639
 1349SOL    HW1 4946   4.650   2.634   3.582
 1349SOL    HW2 4947   4.660   2.707   3.728
 1350SOL     OW 4948   4.220   4.177   6.719
 1350SOL    HW1 4949   4.274   4.155   6.800
 1350SOL    HW2 4950   4.211   4.276   6.711
 1351SOL     OW 4951   0.271   2.385   5.032
 1351SOL    HW1 4952   0.277   2.383   4.932
 1351SOL    HW2 4953   0.347   2.438   5.068
 1352SOL     OW 4954   6.905   0.457   2.415
 1352SOL    HW1 4955   6.889   0.358   2.417
 1352SOL    HW2 4956   6.818   0.504   2.399
 1353SOL     OW 4957   0.821   0.935   0.492
 1353SOL    HW1 4958   0.811   0.991   0.574
 1353SOL    HW2 4959   0.899   0.967   0.439
 1354SOL     OW 4960   5.010   4.704   2.841
 1354SOL    HW1 4961   4.971   4.729   2.930
 1354SOL    HW2 4962   5.079   4.632   2.854
 1355SOL     OW 4963   5.591   3.155   6.266
 1355SOL    HW1 4964   5.619   3.126   6.175
 1355SOL    HW2 4965   5.532   3.085   6.307
 1356SOL     OW 4966   3.040   3.041   0.331
 1356SOL    HW1 4967   3.096   3.034   0.414
 1356SOL    HW2 4968   3.026   3.137   0.308
 1357SOL     OW 4969   0.735   3.712   4.758
 1357SOL    HW1 4970   0.792   3.631   4.771
 1357SOL    HW2 4971   0.662   3.712   4.827
 1358SOL     OW 4972   1.998   6.982   0.005
 1358SOL    HW1 4973   2.066   6.926   6.973
 1358SOL    HW2 4974   1.983   6.945   0.096
 1359SOL     OW 4975   6.910   4.739   2.103
 1359SOL    HW1 4976   6.873   4.666   2.159
 1359SOL    HW2 4977   6.850   4.819   2.107
 1360SOL     OW 4978   2.193   2.629   6.990
 1360SOL    HW1 4979   2.259   2.642   0.049
 1360SOL    HW2 4980   2.171   2.718   6.949
 1361SOL     OW 4981   0.325   4.740   5.361
 1361SOL    HW1 4982   0.420   4.726   5.334
 1361SOL    HW2 4983   0.265   4.729   5.282
 1362SOL     OW 4984   3.318   3.060   2.844
 1362SOL    HW1 4985   3.388   3.111   2.894
 1362SOL    HW2 4986   3.359   3.017   2.764
 1363SOL     OW 4987   0.950   6.239   4.111
 1363SOL    HW1 4988   0.945   6.149   4.154
 1363SOL    HW2 4989   0.862   6.262   4.071
 1364SOL     OW 4990   4.534   4.229   0.932
 1364SOL    HW1 4991   4.514   4.229   1.030
 1364SOL    HW2 4992   4.576   4.141   0.908
 1365SOL     OW 4993   0.278   3.189   6.894
 1365SOL    HW1 4994   0.206   3.174   6.826
 1365SOL    HW2 4995   0.238   3.193   6.985
 1366SOL     OW 4996   3.359   0.011   5.033
 1366SOL    HW1 4997   3.383   0.067   4.954
 1366SOL    HW2 4998   3.374   6.929   5.011
 1367SOL     OW 4999   2.270   1.320   2.360
 1367SOL    HW1 5000   2.194   1.257   2.379
 1367SOL    HW2 5001   2.301   1.362   2.446
 1368SOL     OW 5002   5.409   6.497   3.459
 1368SOL    HW1 5003   5.496   6.539   3.485
 1368SOL    HW2 5004   5.334   6.560   3.479
 1369SOL     OW 5005   0.982   0.844   2.996
 1369SOL    HW1 5006   1.063   0.891   2.960
 1369SOL    HW2 5007   1.007   0.750   3.020
 1370SOL     OW 5008   2.047   0.663   1.429
 1370SOL    HW1 5009   2.146   0.669   1.416
 1370SOL    HW2 5010   2.001   0.672   1.341
 1371SOL     OW 5011   4.006   0.416   6.945
 1371SOL    HW1 5012   3.929   0.361   6.912
 1371SOL    HW2 5013   4.012   0.409   0.029
 1372SOL     OW 5014   2.993   2.097   2.074
 1372SOL    HW1 5015   3.079   2.102   2.125
 1372SOL    HW2 5016   2.951   2.188   2.071
 1373SOL     OW 5017   1.464   5.917   0.815
 1373SOL    HW1 5018   1.523   5.899   0.736
 1373SOL    HW2 5019   1.441   6.014   0.818
 1374SOL     OW 5020   5.036   3.327   0.320
 1374SOL    HW1 5021   4.939   3.349   0.329
 1374SOL    HW2 5022   5.091   3.404   0.353
 1375SOL     OW 5023   0.685   3.973   5.425
 1375SOL    HW1 5024   0.732   4.011   5.505
 1375SOL    HW2 5025   0.708   4.027   5.344
 1376SOL     OW 5026   4.559   1.364   2.327
 1376SOL    HW1 5027   4.495   1.307   2.275
 1376SOL    HW2 5028   4.507   1.428   2.384
 1377SOL     OW 5029   1.012   5.720   4.741
 1377SOL    HW1 5030   0.915   5.723   4.717
 1377SOL    HW2 5031   1.027   5.653   4.813
 1378SOL     OW 5032   1.894   2.388   6.651
 1378SOL    HW1 5033   1.906   2.374   6.749
 1378SOL    HW2 5034   1.797   2.377   6.627
 1379SOL     OW 5035   4.110   6.078   0.969
 1379SOL    HW1 5036   4.033   6.141   0.963
 1379SOL    HW2 5037   4.091   5.997   0.913
 1380SOL     OW 5038   6.549   6.377   3.069
 1380SOL    HW1 5039   6.640   6.336   3.060
 1380SOL    HW2 5040   6.538   6.448   2.999
 1381SOL     OW 5041   6.318   0.240   1.454
 1381SOL    HW1 5042   6.277   0.157   1.492
 1381SOL    HW2 5043   6.380   0.281   1.521
 1382SOL     OW 5044   6.721   4.871   6.575
 1382SOL    HW1 5045   6.625   4.854   6.599
 1382SOL    HW2 5046   6.759   4.940   6.636
 1383SOL     OW 5047   2.481   0.059   0.568
 1383SOL    HW1 5048   2.545   0.052   0.491
 1383SOL    HW2 5049   2.419   6.996   0.568
 1384SOL     OW 5050   2.806   2.002   2.226
 1384SOL    HW1 5051   2.868   2.019   2.149
 1384SOL    HW2 5052   2.818   2.075   2.294
 1385SOL     OW 5053   5.530   2.619   3.636
 1385SOL    HW1 5054   5.463   2.683   3.675
 1385SOL    HW2 5055   5.497   2.525   3.647
 1386SOL     OW 5056   2.328   2.619   3.841
 1386SOL    HW1 5057   2.308   2.553   3.914
 1386SOL    HW2 5058   2.243   2.662   3.811
 1387SOL     OW 5059   2.346   0.493   4.880
 1387SOL    HW1 5060   2.395   0.524   4.799
 1387SOL    HW2 5061   2.364   0.396   4.895
 1388SOL     OW 5062   6.163   1.160   5.115
 1388SOL    HW1 5063   6.175   1.148   5.016
 1388SOL    HW2 5064   6.211   1.243   5.144
 1389SOL     OW 5065   6.345   0.980   4.146
 1389SOL    HW1 5066   6.348   1.072   4.185
 1389SOL    HW2 5067   6.391   0.979   4.057
 1390SOL     OW 5068   4.345   2.207   1.991
 1390SOL    HW1 5069   4.353   2.301   1.958
 1390SOL    HW2 5070   4.273   2.201   2.059
 1391SOL     OW 5071   5.849   1.463   4.833
 1391SOL    HW1 5072   5.816   1.552   4.863
 1391SOL    HW2 5073   5.820   1.392   4.897
 1392SOL     OW 5074   4.771   6.135   5.812
 1392SOL    HW1 5075   4.686   6.168   5.854
 1392SOL    HW2 5076   4.751   6.096   5.723
 1393SOL     OW 5077   4.930   0.503   7.011
 1393SOL    HW1 5078   4.951   0.491   6.914
 1393SOL    HW2 5079   4.999   0.561   0.039
 1394SOL     OW 5080   4.672   0.392   3.477
 1394SOL    HW1 5081   4.574   0.410   3.491
 1394SOL    HW2 5082   4.686   0.294   3.461
 1395SOL     OW 5083   1.297   5.258   2.438
 1395SOL    HW1 5084   1.354   5.228   2.361
 1395SOL    HW2 5085   1.300   5.358   2.444
 1396SOL     OW 5086   1.483   0.742   3.671
 1396SOL    HW1 5087   1.564   0.713   3.722
 1396SOL    HW2 5088   1.494   0.716   3.575
 1397SOL     OW 5089   0.522   5.263   4.944
 1397SOL    HW1 5090   0.495   5.182   4.891
 1397SOL    HW2 5091   0.561   5.234   5.032
 1398SOL     OW 5092   1.785   6.700   6.693
 1398SOL    HW1 5093   1.764   6.740   6.782
 1398SOL    HW2 5094   1.706   6.710   6.633
 1399SOL     OW 5095   3.696   6.861   0.486
 1399SOL    HW1 5096   3.769   6.793   0.480
 1399SOL    HW2 5097   3.644   6.861   0.401
 1400SOL     OW 5098   0.542   1.352   5.127
 1400SOL    HW1 5099   0.587   1.263   5.139
 1400SOL    HW2 5100   0.458   1.354   5.182
 1401SOL     OW 5101   5.402   0.242   2.850
 1401SOL    HW1 5102   5.369   0.337   2.845
 1401SOL    HW2 5103   5.355   0.187   2.781
 1402SOL     OW 5104   0.044   4.415   2.165
 1402SOL    HW1 5105   0.106   4.355   2.114
 1402SOL    HW2 5106   0.097   4.492   2.202
 1403SOL     OW 5107   3.224   3.162   6.468
 1403SOL    HW1 5108   3.303   3.176   6.527
 1403SOL    HW2 5109   3.181   3.074   6.489
 1404SOL     OW 5110   4.154   6.383   0.682
 1404SOL    HW1 5111   4.143   6.474   0.642
 1404SOL    HW2 5112   4.180   6.392   0.778
 1405SOL     OW 5113   0.712   3.795   0.673
 1405SOL    HW1 5114   0.767   3.835   0.746
 1405SOL    HW2 5115   0.681   3.868   0.611
 1406SOL     OW 5116   2.347   2.985   0.334
 1406SOL    HW1 5117   2.432   2.947   0.299
 1406SOL    HW2 5118   2.364   3.029   0.422
 1407SOL     OW 5119   0.913   2.938   1.581
 1407SOL    HW1 5120   0.879   2.984   1.499
 1407SOL    HW2 5121   0.993   2.987   1.616
 1408SOL     OW 5122   5.339   6.515   0.926
 1408SOL    HW1 5123   5.340   6.501   0.827
 1408SOL    HW2 5124   5.250   6.486   0.962
 1409SOL     OW 5125   6.354   1.527   5.786
 1409SOL    HW1 5126   6.306   1.490   5.706
 1409SOL    HW2 5127   6.290   1.579   5.841
 1410SOL     OW 5128   3.160   0.339   0.043
 1410SOL    HW1 5129   3.136   0.393   0.124
 1410SOL    HW2 5130   3.235   0.277   0.065
 1411SOL     OW 5131   3.726   5.142   6.592
 1411SOL    HW1 5132   3.665   5.083   6.539
 1411SOL    HW2 5133   3.805   5.167   6.536
 1412SOL     OW 5134   2.232   2.024   0.511
 1412SOL    HW1 5135   2.286   2.005   0.429
 1412SOL    HW2 5136   2.209   1.938   0.557
 1413SOL     OW 5137   2.332   2.005   5.386
 1413SOL    HW1 5138   2.335   1.905   5.377
 1413SOL    HW2 5139   2.379   2.047   5.308
 1414SOL     OW 5140   0.799   4.891   2.037
 1414SOL    HW1 5141   0.874   4.956   2.028
 1414SOL    HW2 5142   0.712   4.939   2.038
 1415SOL     OW 5143   2.782   1.917   4.787
 1415SOL    HW1 5144   2.851   1.988   4.802
 1415SOL    HW2 5145   2.780   1.893   4.690
 1416SOL     OW 5146   4.356   0.531   4.846
 1416SOL    HW1 5147   4.326   0.436   4.852
 1416SOL    HW2 5148   4.323   0.582   4.926
 1417SOL     OW 5149   3.551   3.444   4.458
 1417SOL    HW1 5150   3.549   3.344   4.456
 1417SOL    HW2 5151   3.465   3.478   4.496
 1418SOL     OW 5152   3.704   3.837   6.185
 1418SOL    HW1 5153   3.759   3.844   6.268
 1418SOL    HW2 5154   3.763   3.807   6.109
 1419SOL     OW 5155   1.563   6.213   2.202
 1419SOL    HW1 5156   1.659   6.232   2.221
 1419SOL    HW2 5157   1.506   6.287   2.238
 1420SOL     OW 5158   2.975   6.346   2.324
 1420SOL    HW1 5159   3.016   6.322   2.236
 1420SOL    HW2 5160   2.918   6.270   2.356
 1421SOL     OW 5161   2.108   5.278   6.429
 1421SOL    HW1 5162   2.017   5.241   6.411
 1421SOL    HW2 5163   2.162   5.210   6.478
 1422SOL     OW 5164   1.603   3.270   6.300
 1422SOL    HW1 5165   1.529   3.280   6.366
 1422SOL    HW2 5166   1.621   3.173   6.285
 1423SOL     OW 5167   3.800   0.654   5.176
 1423SOL    HW1 5168   3.896   0.641   5.200
 1423SOL    HW2 5169   3.746   0.663   5.260
 1424SOL     OW 5170   6.244   2.642   0.853
 1424SOL    HW1 5171   6.163   2.666   0.799
 1424SOL    HW2 5172   6.326   2.667   0.802
 1425SOL     OW 5173   5.630   6.828   3.907
 1425SOL    HW1 5174   5.572   6.874   3.840
 1425SOL    HW2 5175   5.670   6.896   3.968
 1426SOL     OW 5176   4.295   0.303   0.071
 1426SOL    HW1 5177   4.208   0.310   0.119
 1426SOL    HW2 5178   4.345   0.390   0.076
 1427SOL     OW 5179   1.741   0.342   4.191
 1427SOL    HW1 5180   1.718   0.345   4.288
 1427SOL    HW2 5181   1.721   0.432   4.150
 1428SOL     OW 5182   1.690   3.587   4.046
 1428SOL    HW1 5183   1.686   3.564   4.144
 1428SOL    HW2 5184   1.732   3.677   4.035
 1429SOL     OW 5185   6.287   0.503   2.221
 1429SOL    HW1 5186   6.276   0.440   2.298
 1429SOL    HW2 5187   6.317   0.592   2.255
 1430SOL     OW 5188   2.115   3.856   4.311
 1430SOL    HW1 5189   2.169   3.875   4.229
 1430SOL    HW2 5190   2.040   3.794   4.288
 1431SOL     OW 5191   3.290   1.765   6.975
 1431SOL    HW1 5192   3.326   1.854   6.948
 1431SOL    HW2 5193   3.211   1.778   0.020
 1432SOL     OW 5194   4.019   0.305   2.467
 1432SOL    HW1 5195   4.045   0.209   2.468
 1432SOL    HW2 5196   3.927   0.315   2.429
 1433SOL     OW 5197   3.123   1.373   4.125
 1433SOL    HW1 5198   3.133   1.398   4.029
 1433SOL    HW2 5199   3.172   1.439   4.182
 1434SOL     OW 5200   5.655   4.395   0.686
 1434SOL    HW1 5201   5.711   4.316   0.709
 1434SOL    HW2 5202   5.590   4.371   0.614
 1435SOL     OW 5203   1.499   7.009   4.039
 1435SOL    HW1 5204   1.588   6.969   4.058
 1435SOL    HW2 5205   1.428   6.958   4.087
 1436SOL     OW 5206   5.609   0.852   0.420
 1436SOL    HW1 5207   5.677   0.803   0.365
 1436SOL    HW2 5208   5.615   0.950   0.399
 1437SOL     OW 5209   3.844   0.966   0.770
 1437SOL    HW1 5210   3.875   1.060   0.753
 1437SOL    HW2 5211   3.891   0.929   0.851
 1438SOL     OW 5212   2.248   6.984   2.175
 1438SOL    HW1 5213   2.327   0.010   2.130
 1438SOL    HW2 5214   2.164   7.008   2.125
 1439SOL     OW 5215   0.186   5.123   6.996
 1439SOL    HW1 5216   0.112   5.064   0.012
 1439SOL    HW2 5217   0.261   5.067   6.962
 1440SOL     OW 5218   3.793   2.939   2.651
 1440SOL    HW1 5219   3.872   3.000   2.649
 1440SOL    HW2 5220   3.761   2.922   2.558
 1441SOL     OW 5221   6.232   2.159   5.123
 1441SOL    HW1 5222   6.252   2.063   5.106
 1441SOL    HW2 5223   6.291   2.216   5.066
 1442SOL     OW 5224   5.309   0.255   0.257
 1442SOL    HW1 5225   5.246   0.248   0.335
 1442SOL    HW2 5226   5.390   0.198   0.274
 1443SOL     OW 5227   1.596   2.578   3.558
 1443SOL    HW1 5228   1.601   2.479   3.572
 1443SOL    HW2 5229   1.594   2.624   3.646
 1444SOL     OW 5230   5.041   0.030   5.147
 1444SOL    HW1 5231   5.090   6.973   5.099
 1444SOL    HW2 5232   5.106   0.100   5.177
 1445SOL     OW 5233   6.792   1.808   0.388
 1445SOL    HW1 5234   6.758   1.766   0.472
 1445SOL    HW2 5235   6.815   1.904   0.406
 1446SOL     OW 5236   3.740   6.726   0.951
 1446SOL    HW1 5237   3.742   6.825   0.964
 1446SOL    HW2 5238   3.645   6.697   0.936
 1447SOL     OW 5239   6.365   1.441   4.868
 1447SOL    HW1 5240   6.442   1.504   4.855
 1447SOL    HW2 5241   6.284   1.492   4.896
 1448SOL     OW 5242   5.367   0.743   6.960
 1448SOL    HW1 5243   5.280   0.793   6.962
 1448SOL    HW2 5244   5.370   0.678   0.021
 1449SOL     OW 5245   4.516   6.048   0.866
 1449SOL    HW1 5246   4.613   6.072   0.867
 1449SOL    HW2 5247   4.488   6.022   0.774
 1450SOL     OW 5248   5.873   2.388   3.622
 1450SOL    HW1 5249   5.971   2.371   3.617
 1450SOL    HW2 5250   5.839   2.362   3.712
 1451SOL     OW 5251   1.823   6.782   2.077
 1451SOL    HW1 5252   1.904   6.739   2.118
 1451SOL    HW2 5253   1.820   6.762   1.979
 1452SOL     OW 5254   3.683   0.709   5.418
 1452SOL    HW1 5255   3.611   0.648   5.450
 1452SOL    HW2 5256   3.750   0.722   5.491
 1453SOL     OW 5257   4.277   4.789   4.280
 1453SOL    HW1 5258   4.197   4.808   4.223
 1453SOL    HW2 5259   4.249   4.742   4.364
 1454SOL     OW 5260   4.827   4.701   0.861
 1454SOL    HW1 5261   4.811   4.605   0.885
 1454SOL    HW2 5262   4.904   4.736   0.915
 1455SOL     OW 5263   2.840   2.093   1.447
 1455SOL    HW1 5264   2.930   2.054   1.428
 1455SOL    HW2 5265   2.851   2.179   1.497
 1456SOL     OW 5266   6.362   5.252   4.736
 1456SOL    HW1 5267   6.443   5.253   4.677
 1456SOL    HW2 5268   6.281   5.275   4.681
 1457SOL     OW 5269   2.296   0.096   3.707
 1457SOL    HW1 5270   2.381   0.079   3.658
 1457SOL    HW2 5271   2.230   0.025   3.685
 1458SOL     OW 5272   0.296   5.853   0.199
 1458SOL    HW1 5273   0.252   5.799   0.271
 1458SOL    HW2 5274   0.225   5.890   0.138
 1459SOL     OW 5275   2.338   6.926   0.928
 1459SOL    HW1 5276   2.363   6.921   0.831
 1459SOL    HW2 5277   2.420   6.910   0.983
 1460SOL     OW 5278   0.851   6.929   6.954
 1460SOL    HW1 5279   0.805   6.843   6.980
 1460SOL    HW2 5280   0.897   6.967   0.018
 1461SOL     OW 5281   4.668   5.416   2.433
 1461SOL    HW1 5282   4.588   5.462   2.394
 1461SOL    HW2 5283   4.701   5.346   2.369
 1462SOL     OW 5284   5.010   0.463   5.080
 1462SOL    HW1 5285   5.068   0.425   5.009
 1462SOL    HW2 5286   4.978   0.554   5.052
 1463SOL     OW 5287   0.457   1.633   5.730
 1463SOL    HW1 5288   0.429   1.727   5.712
 1463SOL    HW2 5289   0.469   1.620   5.828
 1464SOL     OW 5290   0.357   1.056   1.580
 1464SOL    HW1 5291   0.447   1.045   1.622
 1464SOL    HW2 5292   0.362   1.126   1.508
 1465SOL     OW 5293   0.653   0.526   4.302
 1465SOL    HW1 5294   0.654   0.443   4.357
 1465SOL    HW2 5295   0.566   0.573   4.315
 1466SOL     OW 5296   5.626   5.094   4.768
 1466SOL    HW1 5297   5.610   5.051   4.679
 1466SOL    HW2 5298   5.724   5.109   4.780
 1467SOL     OW 5299   5.542   3.646   3.437
 1467SOL    HW1 5300   5.578   3.687   3.521
 1467SOL    HW2 5301   5.614   3.594   3.391
 1468SOL     OW 5302   5.596   7.001   2.196
 1468SOL    HW1 5303   5.645   0.064   2.234
 1468SOL    HW2 5304   5.661   6.939   2.152
 1469SOL     OW 5305   0.837   1.039   2.414
 1469SOL    HW1 5306   0.792   0.999   2.333
 1469SOL    HW2 5307   0.774   1.036   2.491
 1470SOL     OW 5308   6.817   1.012   3.050
 1470SOL    HW1 5309   6.908   1.036   3.083
 1470SOL    HW2 5310   6.805   0.913   3.054
 1471SOL     OW 5311   6.168   0.391   1.255
 1471SOL    HW1 5312   6.124   0.478   1.277
 1471SOL    HW2 5313   6.204   0.349   1.338
 1472SOL     OW 5314   4.427   5.413   5.156
 1472SOL    HW1 5315   4.439   5.322   5.116
 1472SOL    HW2 5316   4.493   5.477   5.117
 1473SOL     OW 5317   6.054   3.917   2.986
 1473SOL    HW1 5318   6.096   3.894   2.898
 1473SOL    HW2 5319   6.125   3.926   3.056
 1474SOL     OW 5320   4.635   4.946   4.066
 1474SOL    HW1 5321   4.631   5.043   4.045
 1474SOL    HW2 5322   4.719   4.907   4.029
 1475SOL     OW 5323   6.307   0.262   3.770
 1475SOL    HW1 5324   6.350   0.332   3.713
 1475SOL    HW2 5325   6.267   0.305   3.851
 1476SOL     OW 5326   6.681   2.638   1.301
 1476SOL    HW1 5327   6.731   2.552   1.307
 1476SOL    HW2 5328   6.675   2.679   1.392
 1477SOL     OW 5329   2.500   5.902   3.302
 1477SOL    HW1 5330   2.410   5.874   3.269
 1477SOL    HW2 5331   2.548   5.823   3.340
 1478SOL     OW 5332   6.932   4.515   1.389
 1478SOL    HW1 5333   6.949   4.589   1.323
 1478SOL    HW2 5334   7.000   4.520   1.462
 1479SOL     OW 5335   1.019   4.793   0.331
 1479SOL    HW1 5336   0.991   4.703   0.362
 1479SOL    HW2 5337   1.119   4.799   0.331
 1480SOL     OW 5338   2.819   1.085   0.228
 1480SOL    HW1 5339   2.908   1.040   0.222
 1480SOL    HW2 5340   2.779   1.092   0.137
 1481SOL     OW 5341   0.159   2.750   5.916
 1481SOL    HW1 5342   0.225   2.676   5.925
 1481SOL    HW2 5343   0.069   2.719   5.948
 1482SOL     OW 5344   5.160   0.495   6.540
 1482SOL    HW1 5345   5.187   0.589   6.521
 1482SOL    HW2 5346   5.093   0.465   6.472
 1483SOL     OW 5347   6.450   2.138   6.517
 1483SOL    HW1 5348   6.417   2.119   6.424
 1483SOL    HW2 5349   6.395   2.212   6.556
 1484SOL     OW 5350   6.505   0.054   3.319
 1484SOL    HW1 5351   6.413   0.083   3.345
 1484SOL    HW2 5352   6.531   6.990   3.373
 1485SOL     OW 5353   5.973   2.465   3.978
 1485SOL    HW1 5354   5.898   2.408   3.943
 1485SOL    HW2 5355   5.981   2.548   3.923
 1486SOL     OW 5356   5.258   2.471   1.906
 1486SOL    HW1 5357   5.251   2.401   1.977
 1486SOL    HW2 5358   5.175   2.470   1.850
 1487SOL     OW 5359   6.396   1.261   6.155
 1487SOL    HW1 5360   6.306   1.253   6.111
 1487SOL    HW2 5361   6.450   1.330   6.108
 1488SOL     OW 5362   4.747   1.815   3.567
 1488SOL    HW1 5363   4.662   1.797   3.518
 1488SOL    HW2 5364   4.726   1.845   3.660
 1489SOL     OW 5365   4.139   5.378   4.512
 1489SOL    HW1 5366   4.150   5.336   4.602
 1489SOL    HW2 5367   4.056   5.434   4.512
 1490SOL     OW 5368   2.379   2.732   1.307
 1490SOL    HW1 5369   2.344   2.806   1.365
 1490SOL    HW2 5370   2.341   2.645   1.339
 1491SOL     OW 5371   6.738   2.132   5.418
 1491SOL    HW1 5372   6.803   2.204   5.394
 1491SOL    HW2 5373   6.648   2.156   5.381
 1492SOL     OW 5374   5.622   2.841   2.049
 1492SOL    HW1 5375   5.692   2.818   1.982
 1492SOL    HW2 5376   5.631   2.937   2.075
 1493SOL     OW 5377   6.009   1.764   5.015
 1493SOL    HW1 5378   5.971   1.790   5.104
 1493SOL    HW2 5379   5.971   1.823   4.944
 1494SOL     OW 5380   5.660   1.876   4.628
 1494SOL    HW1 5381   5.738   1.936   4.614
 1494SOL    HW2 5382   5.683   1.784   4.598
 1495SOL     OW 5383   0.886   3.238   2.637
 1495SOL    HW1 5384   0.958   3.287   2.587
 1495SOL    HW2 5385   0.899   3.139   2.625
 1496SOL     OW 5386   0.756   0.799   2.867
 1496SOL    HW1 5387   0.834   0.814   2.927
 1496SOL    HW2 5388   0.693   0.733   2.909
 1497SOL     OW 5389   5.230   4.498   5.985
 1497SOL    HW1 5390   5.267   4.496   6.077
 1497SOL    HW2 5391   5.254   4.585   5.941
 1498SOL     OW 5392   2.139   5.475   0.174
 1498SOL    HW1 5393   2.154   5.409   0.100
 1498SOL    HW2 5394   2.186   5.560   0.152
 1499SOL     OW 5395   0.917   4.370   4.591
 1499SOL    HW1 5396   0.860   4.289   4.575
 1499SOL    HW2 5397   0.875   4.450   4.548
 1500SOL     OW 5398   4.315   6.547   5.385
 1500SOL    HW1 5399   4.297   6.560   5.287
 1500SOL    HW2 5400   4.412   6.525   5.398
 1501SOL     OW 5401   4.056   0.306   0.191
 1501SOL    HW1 5402   4.007   0.224   0.217
 1501SOL    HW2 5403   4.089   0.353   0.273
 1502SOL     OW 5404   0.178   6.183   6.709
 1502SOL    HW1 5405   0.212   6.113   6.772
 1502SOL    HW2 5406   0.084   6.207   6.735
 1503SOL     OW 5407   3.272   4.454   5.381
 1503SOL    HW1 5408   3.338   4.478   5.309
 1503SOL    HW2 5409   3.192   4.411   5.340
 1504SOL     OW 5410   2.499   6.693   4.286
 1504SOL    HW1 5411   2.424   6.747   4.324
 1504SOL    HW2 5412   2.565   6.671   4.359
 1505SOL     OW 5413   4.892   6.136   2.200
 1505SOL    HW1 5414   4.825   6.062   2.197
 1505SOL    HW2 5415   4.857   6.211   2.256
 1506SOL     OW 5416   0.828   6.761   3.105
 1506SOL    HW1 5417   0.903   6.696   3.091
 1506SOL    HW2 5418   0.741   6.715   3.086
 1507SOL     OW 5419   2.747   2.286   6.330
 1507SOL    HW1 5420   2.708   2.246   6.413
 1507SOL    HW2 5421   2.833   2.241   6.307
 1508SOL     OW 5422   4.122   6.828   0.531
 1508SOL    HW1 5423   4.075   6.908   0.494
 1508SOL    HW2 5424   4.082   6.745   0.493
 1509SOL     OW 5425   5.523   1.697   0.137
 1509SOL    HW1 5426   5.451   1.693   0.068
 1509SOL    HW2 5427   5.585   1.619   0.127
 1510SOL     OW 5428   0.240   2.098   3.339
 1510SOL    HW1 5429   0.208   2.005   3.319
 1510SOL    HW2 5430   0.187   2.136   3.415
 1511SOL     OW 5431   1.438   2.899   0.528
 1511SOL    HW1 5432   1.459   2.992   0.499
 1511SOL    HW2 5433   1.520   2.856   0.566
 1512SOL     OW 5434   6.189   0.988   2.464
 1512SOL    HW1 5435   6.155   1.019   2.375
 1512SOL    HW2 5436   6.253   1.055   2.500
 1513SOL     OW 5437   3.717   1.067   2.153
 1513SOL    HW1 5438   3.714   1.110   2.063
 1513SOL    HW2 5439   3.674   1.128   2.220
 1514SOL     OW 5440   4.825   1.112   6.517
 1514SOL    HW1 5441   4.880   1.193   6.536
 1514SOL    HW2 5442   4.843   1.081   6.423
 1515SOL     OW 5443   5.959   5.505   5.020
 1515SOL    HW1 5444   6.044   5.554   5.043
 1515SOL    HW2 5445   5.951   5.424   5.078
 1516SOL     OW 5446   0.364   1.068   0.534
 1516SOL    HW1 5447   0.418   1.000   0.486
 1516SOL    HW2 5448   0.294   1.105   0.473
 1517SOL     OW 5449   3.412   5.181   3.663
 1517SOL    HW1 5450   3.407   5.082   3.668
 1517SOL    HW2 5451   3.499   5.212   3.703
 1518SOL     OW 5452   0.900   5.142   0.813
 1518SOL    HW1 5453   0.869   5.207   0.882
 1518SOL    HW2 5454   0.918   5.190   0.727
 1519SOL     OW 5455   0.222   4.310   1.218
 1519SOL    HW1 5456   0.130   4.291   1.182
 1519SOL    HW2 5457   0.258   4.227   1.262
 1520SOL     OW 5458   1.624   2.754   2.575
 1520SOL    HW1 5459   1.656   2.840   2.613
 1520SOL    HW2 5460   1.533   2.767   2.534
 1521SOL     OW 5461   2.637   4.126   5.342
 1521SOL    HW1 5462   2.599   4.044   5.386
 1521SOL    HW2 5463   2.723   4.151   5.386
 1522SOL     OW 5464   0.931   2.530   6.325
 1522SOL    HW1 5465   1.021   2.539   6.281
 1522SOL    HW2 5466   0.863   2.505   6.255
 1523SOL     OW 5467   6.558   1.008   0.787
 1523SOL    HW1 5468   6.482   1.059   0.747
 1523SOL    HW2 5469   6.611   1.068   0.847
 1524SOL     OW 5470   6.326   0.649   2.888
 1524SOL    HW1 5471   6.287   0.608   2.971
 1524SOL    HW2 5472   6.425   0.659   2.898
 1525SOL     OW 5473   4.635   1.313   5.990
 1525SOL    HW1 5474   4.605   1.359   6.074
 1525SOL    HW2 5475   4.564   1.323   5.920
 1526SOL     OW 5476   6.438   1.535   0.074
 1526SOL    HW1 5477   6.492   1.523   7.005
 1526SOL    HW2 5478   6.463   1.621   0.117
 1527SOL     OW 5479   3.268   1.517   5.523
 1527SOL    HW1 5480   3.246   1.608   5.486
 1527SOL    HW2 5481   3.344   1.524   5.587
 1528SOL     OW 5482   4.969   5.691   4.163
 1528SOL    HW1 5483   4.874   5.716   4.183
 1528SOL    HW2 5484   4.987   5.600   4.200
 1529SOL     OW 5485   2.812   0.784   5.189
 1529SOL    HW1 5486   2.733   0.788   5.251
 1529SOL    HW2 5487   2.794   0.840   5.108
 1530SOL     OW 5488   2.915   6.997   1.872
 1530SOL    HW1 5489   2.948   6.959   1.785
 1530SOL    HW2 5490   2.867   6.925   1.922
 1531SOL     OW 5491   5.505   0.338   6.325
 1531SOL    HW1 5492   5.407   0.343   6.307
 1531SOL    HW2 5493   5.555   0.349   6.239
 1532SOL     OW 5494   3.282   2.550   5.310
 1532SOL    HW1 5495   3.278   2.487   5.233
 1532SOL    HW2 5496   3.189   2.568   5.343
 1533SOL     OW 5497   5.016   2.876   6.687
 1533SOL    HW1 5498   4.968   2.803   6.639
 1533SOL    HW2 5499   5.030   2.850   6.782
 1534SOL     OW 5500   6.544   6.691   2.272
 1534SOL    HW1 5501   6.639   6.664   2.258
 1534SOL    HW2 5502   6.530   6.784   2.236
 1535SOL     OW 5503   4.962   4.394   4.326
 1535SOL    HW1 5504   4.975   4.482   4.279
 1535SOL    HW2 5505   4.864   4.376   4.337
 1536SOL     OW 5506   3.072   5.067   3.549
 1536SOL    HW1 5507   3.063   4.986   3.491
 1536SOL    HW2 5508   3.167   5.076   3.578
 1537SOL     OW 5509   2.381   5.447   4.166
 1537SOL    HW1 5510   2.329   5.504   4.103
 1537SOL    HW2 5511   2.471   5.429   4.128
 1538SOL     OW 5512   3.559   5.056   6.370
 1538SOL    HW1 5513   3.474   5.060   6.423
 1538SOL    HW2 5514   3.544   5.001   6.288
 1539SOL     OW 5515   3.773   5.573   1.901
 1539SOL    HW1 5516   3.704   5.520   1.852
 1539SOL    HW2 5517   3.728   5.645   1.954
 1540SOL     OW 5518   5.833   0.321   5.326
 1540SOL    HW1 5519   5.895   0.372   5.385
 1540SOL    HW2 5520   5.881   0.242   5.287
 1541SOL     OW 5521   4.713   1.640   1.264
 1541SOL    HW1 5522   4.693   1.568   1.197
 1541SOL    HW2 5523   4.799   1.685   1.240
 1542SOL     OW 5524   1.161   6.073   0.908
 1542SOL    HW1 5525   1.185   6.017   0.987
 1542SOL    HW2 5526   1.166   6.170   0.933
 1543SOL     OW 5527   3.411   3.790   3.341
 1543SOL    HW1 5528   3.447   3.883   3.337
 1543SOL    HW2 5529   3.331   3.787   3.401
 1544SOL     OW 5530   3.421   3.746   2.790
 1544SOL    HW1 5531   3.404   3.787   2.879
 1544SOL    HW2 5532   3.409   3.646   2.797
 1545SOL     OW 5533   6.973   0.722   3.989
 1545SOL    HW1 5534   0.045   0.746   4.032
 1545SOL    HW2 5535   6.926   0.653   4.045
 1546SOL     OW 5536   6.346   6.756   6.455
 1546SOL    HW1 5537   6.296   6.810   6.387
 1546SOL    HW2 5538   6.432   6.725   6.416
 1547SOL     OW 5539   3.196   5.879   6.753
 1547SOL    HW1 5540   3.292   5.858   6.771
 1547SOL    HW2 5541   3.168   5.959   6.807
 1548SOL     OW 5542   5.716   3.969   4.218
 1548SOL    HW1 5543   5.793   3.981   4.280
 1548SOL    HW2 5544   5.724   3.882   4.170
 1549SOL     OW 5545   6.521   2.398   0.696
 1549SOL    HW1 5546   6.527   2.400   0.796
 1549SOL    HW2 5547   6.451   2.331   0.668
 1550SOL     OW 5548   2.270   5.796   2.479
 1550SOL    HW1 5549   2.359   5.840   2.484
 1550SOL    HW2 5550   2.276   5.704   2.517
 1551SOL     OW 5551   0.582   3.827   1.035
 1551SOL    HW1 5552   0.615   3.734   1.053
 1551SOL    HW2 5553   0.660   3.890   1.037
 1552SOL     OW 5554   0.832   6.543   1.630
 1552SOL    HW1 5555   0.772   6.467   1.655
 1552SOL    HW2 5556   0.885   6.572   1.709
 1553SOL     OW 5557   5.481   1.010   6.229
 1553SOL    HW1 5558   5.555   0.949   6.202
 1553SOL    HW2 5559   5.425   1.033   6.149
 1554SOL     OW 5560   2.733   2.479   1.468
 1554SOL    HW1 5561   2.762   2.412   1.536
 1554SOL    HW2 5562   2.804   2.548   1.457
 1555SOL     OW 5563   3.921   0.725   6.861
 1555SOL    HW1 5564   3.885   0.758   6.949
 1555SOL    HW2 5565   3.902   0.627   6.853
 1556SOL     OW 5566   4.358   2.298   6.736
 1556SOL    HW1 5567   4.375   2.376   6.675
 1556SOL    HW2 5568   4.334   2.218   6.682
 1557SOL     OW 5569   1.695   3.445   0.572
 1557SOL    HW1 5570   1.791   3.465   0.553
 1557SOL    HW2 5571   1.684   3.427   0.669
 1558SOL     OW 5572   4.833   2.731   6.349
 1558SOL    HW1 5573   4.904   2.724   6.420
 1558SOL    HW2 5574   4.800   2.825   6.343
 1559SOL     OW 5575   3.004   6.023   2.985
 1559SOL    HW1 5576   3.067   5.948   3.005
 1559SOL    HW2 5577   3.053   6.097   2.938
 1560SOL     OW 5578   3.822   2.511   1.259
 1560SOL    HW1 5579   3.866   2.523   1.170
 1560SOL    HW2 5580   3.845   2.588   1.319
 1561SOL     OW 5581   5.539   6.443   1.079
 1561SOL    HW1 5582   5.449   6.460   1.037
 1561SOL    HW2 5583   5.592   6.383   1.019
 1562SOL     OW 5584   3.654   0.338   2.049
 1562SOL    HW1 5585   3.626   0.253   2.004
 1562SOL    HW2 5586   3.589   0.411   2.026
 1563SOL     OW 5587   2.073   2.299   3.946
 1563SOL    HW1 5588   2.163   2.322   3.983
 1563SOL    HW2 5589   2.040   2.216   3.990
 1564SOL     OW 5590   0.678   1.294   2.867
 1564SOL    HW1 5591   0.730   1.226   2.918
 1564SOL    HW2 5592   0.718   1.306   2.776
 1565SOL     OW 5593   4.114   1.403   4.586
 1565SOL    HW1 5594   4.206   1.443   4.590
 1565SOL    HW2 5595   4.053   1.466   4.538
 1566SOL     OW 5596   6.443   4.044   3.837
 1566SOL    HW1 5597   6.532   4.086   3.855
 1566SOL    HW2 5598   6.371   4.111   3.855
 1567SOL     OW 5599   5.462   0.567   5.087
 1567SOL    HW1 5600   5.419   0.654   5.061
 1567SOL    HW2 5601   5.391   0.505   5.122
 1568SOL     OW 5602   2.893   4.808   1.582
 1568SOL    HW1 5603   2.883   4.816   1.681
 1568SOL    HW2 5604   2.972   4.749   1.561
 1569SOL     OW 5605   3.013   0.580   2.260
 1569SOL    HW1 5606   2.914   0.568   2.267
 1569SOL    HW2 5607   3.043   0.643   2.332
 1570SOL     OW 5608   2.684   6.140   6.048
 1570SOL    HW1 5609   2.695   6.047   6.083
 1570SOL    HW2 5610   2.638   6.196   6.117
 1571SOL     OW 5611   6.849   3.629   4.198
 1571SOL    HW1 5612   6.750   3.615   4.185
 1571SOL    HW2 5613   6.864   3.684   4.280
 1572SOL     OW 5614   2.837   5.802   2.797
 1572SOL    HW1 5615   2.807   5.712   2.767
 1572SOL    HW2 5616   2.844   5.803   2.897
 1573SOL     OW 5617   4.952   6.174   0.039
 1573SOL    HW1 5618   4.919   6.220   0.122
 1573SOL    HW2 5619   4.990   6.085   0.063
 1574SOL     OW 5620   0.566   4.544   2.612
 1574SOL    HW1 5621   0.541   4.471   2.675
 1574SOL    HW2 5622   0.553   4.513   2.518
 1575SOL     OW 5623   6.743   2.584   0.162
 1575SOL    HW1 5624   6.728   2.511   0.228
 1575SOL    HW2 5625   6.700   2.559   0.075
 1576SOL     OW 5626   1.991   6.028   1.584
 1576SOL    HW1 5627   2.062   5.974   1.539
 1576SOL    HW2 5628   2.021   6.123   1.593
 1577SOL     OW 5629   3.570   5.754   4.485
 1577SOL    HW1 5630   3.538   5.773   4.578
 1577SOL    HW2 5631   3.596   5.658   4.477
 1578SOL     OW 5632   5.431   1.120   1.921
 1578SOL    HW1 5633   5.473   1.177   1.851
 1578SOL    HW2 5634   5.496   1.105   1.996
 1579SOL     OW 5635   1.314   2.677   1.836
 1579SOL    HW1 5636   1.346   2.700   1.745
 1579SOL    HW2 5637   1.217   2.701   1.844
 1580SOL     OW 5638   3.183   3.608   2.543
 1580SOL    HW1 5639   3.224   3.551   2.614
 1580SOL    HW2 5640   3.090   3.633   2.570
 1581SOL     OW 5641   6.210   4.349   5.281
 1581SOL    HW1 5642   6.172   4.396   5.202
 1581SOL    HW2 5643   6.154   4.369   5.362
 1582SOL     OW 5644   4.803   5.816   5.004
 1582SOL    HW1 5645   4.854   5.878   4.944
 1582SOL    HW2 5646   4.823   5.837   5.099
 1583SOL     OW 5647   1.337   5.393   4.844
 1583SOL    HW1 5648   1.396   5.313   4.858
 1583SOL    HW2 5649   1.378   5.454   4.777
 1584SOL     OW 5650   7.010   3.636   0.226
 1584SOL    HW1 5651   0.006   3.646   0.127
 1584SOL    HW2 5652   6.912   3.634   0.248
 1585SOL     OW 5653   4.500   6.360   3.871
 1585SOL    HW1 5654   4.518   6.368   3.969
 1585SOL    HW2 5655   4.572   6.305   3.828
 1586SOL     OW 5656   3.257   6.138   2.890
 1586SOL    HW1 5657   3.304   6.081   2.824
 1586SOL    HW2 5658   3.293   6.121   2.982
 1587SOL     OW 5659   3.121   6.223   6.446
 1587SOL    HW1 5660   3.098   6.201   6.541
 1587SOL    HW2 5661   3.205   6.175   6.421
 1588SOL     OW 5662   6.655   1.762   3.949
 1588SOL    HW1 5663   6.580   1.696   3.946
 1588SOL    HW2 5664   6.642   1.831   3.878
 1589SOL     OW 5665   6.563   3.878   4.452
 1589SOL    HW1 5666   6.559   3.942   4.375
 1589SOL    HW2 5667   6.498   3.906   4.522
 1590SOL     OW 5668   6.461   1.639   3.140
 1590SOL    HW1 5669   6.515   1.692   3.074
 1590SOL    HW2 5670   6.396   1.581   3.091
 1591SOL     OW 5671   1.616   5.757   0.966
 1591SOL    HW1 5672   1.547   5.719   1.028
 1591SOL    HW2 5673   1.571   5.814   0.898
 1592SOL     OW 5674   0.254   3.430   6.226
 1592SOL    HW1 5675   0.234   3.348   6.279
 1592SOL    HW2 5676   0.350   3.457   6.241
 1593SOL     OW 5677   3.436   6.614   0.141
 1593SOL    HW1 5678   3.376   6.537   0.163
 1593SOL    HW2 5679   3.526   6.580   0.113
 1594SOL     OW 5680   5.555   0.787   2.472
 1594SOL    HW1 5681   5.507   0.870   2.502
 1594SOL    HW2 5682   5.497   0.707   2.488
 1595SOL     OW 5683   0.620   3.211   7.001
 1595SOL    HW1 5684   0.705   3.261   6.985
 1595SOL    HW2 5685   0.569   3.254   0.060
 1596SOL     OW 5686   5.159   4.594   2.443
 1596SOL    HW1 5687   5.088   4.638   2.388
 1596SOL    HW2 5688   5.127   4.504   2.473
 1597SOL     OW 5689   3.228   5.731   0.109
 1597SOL    HW1 5690   3.151   5.779   0.067
 1597SOL    HW2 5691   3.260   5.781   0.189
 1598SOL     OW 5692   0.901   4.646   6.335
 1598SOL    HW1 5693   0.914   4.581   6.261
 1598SOL    HW2 5694   0.967   4.627   6.408
 1599SOL     OW 5695   4.540   5.130   3.054
 1599SOL    HW1 5696   4.630   5.174   3.055
 1599SOL    HW2 5697   4.494   5.151   2.968
 1600SOL     OW 5698   3.870   0.497   1.965
 1600SOL    HW1 5699   3.784   0.458   1.996
 1600SOL    HW2 5700   3.944   0.466   2.025
 1601SOL     OW 5701   6.525   1.149   4.764
 1601SOL    HW1 5702   6.503   1.244   4.785
 1601SOL    HW2 5703   6.569   1.144   4.674
 1602SOL     OW 5704   4.022   5.799   4.012
 1602SOL    HW1 5705   3.931   5.786   4.052
 1602SOL    HW2 5706   4.087   5.737   4.056
 1603SOL     OW 5707   2.828   4.739   2.745
 1603SOL    HW1 5708   2.746   4.724   2.690
 1603SOL    HW2 5709   2.817   4.693   2.833
 1604SOL     OW 5710   4.601   4.711   2.768
 1604SOL    HW1 5711   4.596   4.713   2.868
 1604SOL    HW2 5712   4.692   4.682   2.740
 1605SOL     OW 5713   4.835   4.887   0.536
 1605SOL    HW1 5714   4.834   4.972   0.483
 1605SOL    HW2 5715   4.880   4.903   0.624
 1606SOL     OW 5716   3.194   5.888   4.541
 1606SOL    HW1 5717   3.263   5.955   4.515
 1606SOL    HW2 5718   3.195   5.812   4.476
 1607SOL     OW 5719   4.352   4.913   3.643
 1607SOL    HW1 5720   4.289   4.930   3.718
 1607SOL    HW2 5721   4.445   4.940   3.671
 1608SOL     OW 5722   5.310   1.987   3.665
 1608SOL    HW1 5723   5.364   1.948   3.591
 1608SOL    HW2 5724   5.229   2.032   3.628
 1609SOL     OW 5725   2.118   6.731   1.580
 1609SOL    HW1 5726   2.199   6.773   1.621
 1609SOL    HW2 5727   2.103   6.641   1.622
 1610SOL     OW 5728   5.437   0.062   1.084
 1610SOL    HW1 5729   5.455   0.029   1.177
 1610SOL    HW2 5730   5.340   0.081   1.074
 1611SOL     OW 5731   1.262   4.253   0.168
 1611SOL    HW1 5732   1.305   4.184   0.227
 1611SOL    HW2 5733   1.319   4.268   0.087
 1612SOL     OW 5734   4.810   0.361   2.497
 1612SOL    HW1 5735   4.734   0.412   2.457
 1612SOL    HW2 5736   4.777   0.309   2.576
 1613SOL     OW 5737   6.746   5.273   2.370
 1613SOL    HW1 5738   6.768   5.331   2.291
 1613SOL    HW2 5739   6.667   5.312   2.418
 1614SOL     OW 5740   6.114   1.615   5.885
 1614SOL    HW1 5741   6.097   1.711   5.908
 1614SOL    HW2 5742   6.118   1.561   5.969
 1615SOL     OW 5743   0.007   3.832   5.957
 1615SOL    HW1 5744   6.928   3.800   5.949
 1615SOL    HW2 5745   0.016   3.921   5.911
 1616SOL     OW 5746   0.967   0.039   4.009
 1616SOL    HW1 5747   0.951   0.024   4.106
 1616SOL    HW2 5748   0.933   6.975   3.957
 1617SOL     OW 5749   6.367   5.708   3.528
 1617SOL    HW1 5750   6.284   5.759   3.503
 1617SOL    HW2 5751   6.447   5.764   3.506
 1618SOL     OW 5752   3.391   5.226   3.381
 1618SOL    HW1 5753   3.363   5.321   3.366
 1618SOL    HW2 5754   3.392   5.207   3.479
 1619SOL     OW 5755   0.833   4.411   6.683
 1619SOL    HW1 5756   0.863   4.506   6.672
 1619SOL    HW2 5757   0.913   4.353   6.697
 1620SOL     OW 5758   3.418   5.775   4.261
 1620SOL    HW1 5759   3.331   5.753   4.304
 1620SOL    HW2 5760   3.491   5.770   4.330
 1621SOL     OW 5761   4.673   5.393   0.501
 1621SOL    HW1 5762   4.737   5.372   0.574
 1621SOL    HW2 5763   4.618   5.312   0.480
 1622SOL     OW 5764   6.397   4.018   4.607
 1622SOL    HW1 5765   6.298   4.013   4.600
 1622SOL    HW2 5766   6.424   4.111   4.633
 1623SOL     OW 5767   0.373   1.809   2.799
 1623SOL    HW1 5768   0.457   1.766   2.768
 1623SOL    HW2 5769   0.324   1.747   2.860
 1624SOL     OW 5770   4.040   3.046   0.652
 1624SOL    HW1 5771   3.975   3.001   0.591
 1624SOL    HW2 5772   3.990   3.098   0.722
 1625SOL     OW 5773   0.663   6.639   1.023
 1625SOL    HW1 5774   0.684   6.710   0.956
 1625SOL    HW2 5775   0.737   6.572   1.026
 1626SOL     OW 5776   2.726   1.634   2.008
 1626SOL    HW1 5777   2.803   1.664   2.064
 1626SOL    HW2 5778   2.695   1.710   1.951
 1627SOL     OW 5779   3.930   1.991   5.959
 1627SOL    HW1 5780   3.899   2.086   5.958
 1627SOL    HW2 5781   3.877   1.938   6.025
 1628SOL     OW 5782   5.616   6.852   0.945
 1628SOL    HW1 5783   5.647   6.780   0.883
 1628SOL    HW2 5784   5.542   6.903   0.902
 1629SOL     OW 5785   1.795   0.132   3.598
 1629SOL    HW1 5786   1.830   0.045   3.633
 1629SOL    HW2 5787   1.844   0.208   3.641
 1630SOL     OW 5788   0.465   3.619   6.637
 1630SOL    HW1 5789   0.555   3.633   6.680
 1630SOL    HW2 5790   0.462   3.667   6.549
 1631SOL     OW 5791   6.705   3.586   0.307
 1631SOL    HW1 5792   6.640   3.618   0.238
 1631SOL    HW2 5793   6.664   3.595   0.398
 1632SOL     OW 5794   6.310   5.457   2.518
 1632SOL    HW1 5795   6.216   5.485   2.534
 1632SOL    HW2 5796   6.341   5.491   2.429
 1633SOL     OW 5797   5.507   3.719   5.312
 1633SOL    HW1 5798   5.444   3.647   5.282
 1633SOL    HW2 5799   5.584   3.725   5.249
 1634SOL     OW 5800   6.878   1.886   5.302
 1634SOL    HW1 5801   6.889   1.904   5.204
 1634SOL    HW2 5802   6.822   1.959   5.342
 1635SOL     OW 5803   3.068   6.486   3.562
 1635SOL    HW1 5804   3.084   6.584   3.551
 1635SOL    HW2 5805   3.007   6.453   3.490
 1636SOL     OW 5806   5.968   6.365   1.275
 1636SOL    HW1 5807   5.881   6.408   1.252
 1636SOL    HW2 5808   6.019   6.423   1.338
 1637SOL     OW 5809   0.787   0.918   3.156
 1637SOL    HW1 5810   0.783   1.018   3.145
 1637SOL    HW2 5811   0.867   0.882   3.109
 1638SOL     OW 5812   5.616   2.627   2.277
 1638SOL    HW1 5813   5.645   2.662   2.188
 1638SOL    HW2 5814   5.563   2.697   2.325
 1639SOL     OW 5815   4.743   2.261   2.561
 1639SOL    HW1 5816   4.711   2.335   2.502
 1639SOL    HW2 5817   4.665   2.212   2.599
 1640SOL     OW 5818   5.757   0.500   6.643
 1640SOL    HW1 5819   5.688   0.483   6.713
 1640SOL    HW2 5820   5.800   0.589   6.660
 1641SOL     OW 5821   6.047   2.227   3.118
 1641SOL    HW1 5822   6.067   2.233   3.216
 1641SOL    HW2 5823   5.956   2.264   3.101
 1642SOL     OW 5824   6.831   3.193   6.495
 1642SOL    HW1 5825   6.761   3.264   6.484
 1642SOL    HW2 5826   6.841   3.143   6.409
 1643SOL     OW 5827   2.067   5.638   4.207
 1643SOL    HW1 5828   2.019   5.551   4.219
 1643SOL    HW2 5829   2.086   5.653   4.111
 1644SOL     OW 5830   6.317   2.213   1.811
 1644SOL    HW1 5831   6.280   2.131   1.767
 1644SOL    HW2 5832   6.392   2.249   1.755
 1645SOL     OW 5833   2.273   0.465   5.588
 1645SOL    HW1 5834   2.196   0.506   5.637
 1645SOL    HW2 5835   2.280   0.506   5.497
 1646SOL     OW 5836   1.415   4.893   0.684
 1646SOL    HW1 5837   1.350   4.942   0.742
 1646SOL    HW2 5838   1.397   4.795   0.688
 1647SOL     OW 5839   5.297   3.196   4.401
 1647SOL    HW1 5840   5.318   3.100   4.380
 1647SOL    HW2 5841   5.274   3.244   4.316
 1648SOL     OW 5842   5.751   6.568   1.478
 1648SOL    HW1 5843   5.668   6.607   1.518
 1648SOL    HW2 5844   5.746   6.574   1.378
 1649SOL     OW 5845   3.584   1.598   3.194
 1649SOL    HW1 5846   3.615   1.536   3.266
 1649SOL    HW2 5847   3.496   1.566   3.158
 1650SOL     OW 5848   2.957   3.840   5.561
 1650SOL    HW1 5849   3.021   3.893   5.617
 1650SOL    HW2 5850   2.870   3.888   5.554
 1651SOL     OW 5851   1.289   2.602   3.808
 1651SOL    HW1 5852   1.347   2.524   3.785
 1651SOL    HW2 5853   1.209   2.604   3.748
 1652SOL     OW 5854   0.665   2.960   1.722
 1652SOL    HW1 5855   0.631   3.054   1.716
 1652SOL    HW2 5856   0.748   2.952   1.668
 1653SOL     OW 5857   0.333   4.781   2.470
 1653SOL    HW1 5858   0.333   4.878   2.491
 1653SOL    HW2 5859   0.239   4.749   2.458
 1654SOL     OW 5860   0.299   3.166   2.205
 1654SOL    HW1 5861   0.261   3.181   2.296
 1654SOL    HW2 5862   0.224   3.161   2.139
 1655SOL     OW 5863   0.022   0.399   5.586
 1655SOL    HW1 5864   6.970   0.464   5.550
 1655SOL    HW2 5865   7.006   0.306   5.570
 1656SOL     OW 5866   2.029   4.567   3.032
 1656SOL    HW1 5867   2.078   4.533   3.112
 1656SOL    HW2 5868   2.065   4.657   3.007
 1657SOL     OW 5869   0.182   6.643   5.843
 1657SOL    HW1 5870   0.254   6.575   5.858
 1657SOL    HW2 5871   0.118   6.609   5.775
 1658SOL     OW 5872   5.427   6.476   6.013
 1658SOL    HW1 5873   5.328   6.484   6.024
 1658SOL    HW2 5874   5.473   6.539   6.076
 1659SOL     OW 5875   3.900   0.012   5.747
 1659SOL    HW1 5876   3.882   6.945   5.692
 1659SOL    HW2 5877   3.813   0.055   5.772
 1660SOL     OW 5878   2.111   0.716   2.085
 1660SOL    HW1 5879   2.051   0.684   2.011
 1660SOL    HW2 5880   2.164   0.795   2.052
 1661SOL     OW 5881   5.028   4.356   2.456
 1661SOL    HW1 5882   4.957   4.366   2.526
 1661SOL    HW2 5883   4.986   4.345   2.366
 1662SOL     OW 5884   0.625   1.994   3.792
 1662SOL    HW1 5885   0.649   1.970   3.698
 1662SOL    HW2 5886   0.549   1.937   3.823
 1663SOL     OW 5887   5.084   4.512   0.987
 1663SOL    HW1 5888   5.169   4.561   1.006
 1663SOL    HW2 5889   5.087   4.422   1.031
 1664SOL     OW 5890   0.909   0.161   6.582
 1664SOL    HW1 5891   1.008   0.166   6.591
 1664SOL    HW2 5892   0.880   0.215   6.503
 1665SOL     OW 5893   2.970   4.299   7.003
 1665SOL    HW1 5894   3.063   4.293   0.024
 1665SOL    HW2 5895   2.966   4.372   6.935
 1666SOL     OW 5896   4.766   6.597   6.067
 1666SOL    HW1 5897   4.669   6.590   6.046
 1666SOL    HW2 5898   4.818   6.533   6.009
 1667SOL     OW 5899   6.753   6.302   1.125
 1667SOL    HW1 5900   6.837   6.287   1.072
 1667SOL    HW2 5901   6.749   6.237   1.201
 1668SOL     OW 5902   5.923   3.705   2.373
 1668SOL    HW1 5903   6.000   3.748   2.326
 1668SOL    HW2 5904   5.953   3.672   2.463
 1669SOL     OW 5905   6.928   3.422   5.395
 1669SOL    HW1 5906   6.868   3.500   5.413
 1669SOL    HW2 5907   6.995   3.447   5.326
 1670SOL     OW 5908   2.571   4.471   5.725
 1670SOL    HW1 5909   2.630   4.506   5.652
 1670SOL    HW2 5910   2.533   4.382   5.697
 1671SOL     OW 5911   6.046   1.919   0.896
 1671SOL    HW1 5912   5.967   1.863   0.871
 1671SOL    HW2 5913   6.128   1.863   0.894
 1672SOL     OW 5914   0.768   2.675   1.021
 1672SOL    HW1 5915   0.700   2.705   1.088
 1672SOL    HW2 5916   0.724   2.658   0.933
 1673SOL     OW 5917   1.557   0.666   4.609
 1673SOL    HW1 5918   1.635   0.689   4.667
 1673SOL    HW2 5919   1.589   0.650   4.515
 1674SOL     OW 5920   4.789   1.810   2.814
 1674SOL    HW1 5921   4.701   1.798   2.769
 1674SOL    HW2 5922   4.775   1.837   2.909
 1675SOL     OW 5923   5.092   0.716   1.785
 1675SOL    HW1 5924   5.151   0.649   1.740
 1675SOL    HW2 5925   5.137   0.752   1.866
 1676SOL     OW 5926   1.031   2.656   3.094
 1676SOL    HW1 5927   1.059   2.568   3.056
 1676SOL    HW2 5928   1.061   2.663   3.189
 1677SOL     OW 5929   3.383   2.886   3.511
 1677SOL    HW1 5930   3.460   2.878   3.448
 1677SOL    HW2 5931   3.298   2.892   3.459
 1678SOL     OW 5932   1.110   0.177   0.749
 1678SOL    HW1 5933   1.167   0.095   0.757
 1678SOL    HW2 5934   1.168   0.256   0.731
 1679SOL     OW 5935   6.887   1.712   6.788
 1679SOL    HW1 5936   6.883   1.617   6.755
 1679SOL    HW2 5937   6.844   1.719   6.877
 1680SOL     OW 5938   5.692   2.603   3.208
 1680SOL    HW1 5939   5.612   2.542   3.207
 1680SOL    HW2 5940   5.729   2.607   3.300
 1681SOL     OW 5941   2.849   6.130   4.907
 1681SOL    HW1 5942   2.849   6.068   4.828
 1681SOL    HW2 5943   2.936   6.180   4.910
 1682SOL     OW 5944   3.741   0.223   3.873
 1682SOL    HW1 5945   3.750   0.219   3.972
 1682SOL    HW2 5946   3.807   0.161   3.831
 1683SOL     OW 5947   6.256   3.467   2.954
 1683SOL    HW1 5948   6.303   3.402   2.893
 1683SOL    HW2 5949   6.254   3.429   3.046
 1684SOL     OW 5950   2.495   5.158   2.125
 1684SOL    HW1 5951   2.569   5.179   2.062
 1684SOL    HW2 5952   2.407   5.177   2.082
 1685SOL     OW 5953   0.491   0.832   5.727
 1685SOL    HW1 5954   0.413   0.786   5.685
 1685SOL    HW2 5955   0.485   0.930   5.709
 1686SOL     OW 5956   4.773   5.234   2.973
 1686SOL    HW1 5957   4.843   5.297   3.007
 1686SOL    HW2 5958   4.772   5.236   2.873
 1687SOL     OW 5959   4.951   4.829   1.097
 1687SOL    HW1 5960   4.908   4.742   1.119
 1687SOL    HW2 5961   4.884   4.903   1.102
 1688SOL     OW 5962   1.094   0.514   2.660
 1688SOL    HW1 5963   1.193   0.532   2.665
 1688SOL    HW2 5964   1.078   0.424   2.621
 1689SOL     OW 5965   4.324   0.711   1.635
 1689SOL    HW1 5966   4.240   0.702   1.687
 1689SOL    HW2 5967   4.385   0.634   1.657
 1690SOL     OW 5968   0.015   4.910   3.784
 1690SOL    HW1 5969   0.043   4.946   3.873
 1690SOL    HW2 5970   0.033   4.812   3.780
 1691SOL     OW 5971   4.437   2.574   5.096
 1691SOL    HW1 5972   4.483   2.531   5.018
 1691SOL    HW2 5973   4.342   2.543   5.098
 1692SOL     OW 5974   5.050   5.004   1.506
 1692SOL    HW1 5975   5.142   5.027   1.538
 1692SOL    HW2 5976   4.988   4.998   1.584
 1693SOL     OW 5977   5.567   6.805   5.919
 1693SOL    HW1 5978   5.504   6.824   5.994
 1693SOL    HW2 5979   5.599   6.892   5.879
 1694SOL     OW 5980   4.875   1.759   6.315
 1694SOL    HW1 5981   4.831   1.783   6.228
 1694SOL    HW2 5982   4.969   1.793   6.315
 1695SOL     OW 5983   3.311   0.834   6.502
 1695SOL    HW1 5984   3.380   0.901   6.476
 1695SOL    HW2 5985   3.336   0.793   6.590
 1696SOL     OW 5986   4.658   5.976   0.520
 1696SOL    HW1 5987   4.567   5.978   0.562
 1696SOL    HW2 5988   4.653   5.925   0.434
 1697SOL     OW 5989   4.718   2.767   2.168
 1697SOL    HW1 5990   4.799   2.716   2.143
 1697SOL    HW2 5991   4.719   2.856   2.123
 1698SOL     OW 5992   4.113   1.297   1.217
 1698SOL    HW1 5993   4.177   1.230   1.255
 1698SOL    HW2 5994   4.139   1.389   1.245
 1699SOL     OW 5995   2.339   0.227   0.149
 1699SOL    HW1 5996   2.380   0.135   0.150
 1699SOL    HW2 5997   2.385   0.282   0.079
 1700SOL     OW 5998   5.260   2.612   3.104
 1700SOL    HW1 5999   5.165   2.583   3.094
 1700SOL    HW2 6000   5.270   2.706   3.071
 1701SOL     OW 6001   6.926   6.010   5.121
 1701SOL    HW1 6002   6.887   5.976   5.207
 1701SOL    HW2 6003   6.860   6.070   5.076
 1702SOL     OW 6004   2.244   2.370   6.881
 1702SOL    HW1 6005   2.210   2.457   6.916
 1702SOL    HW2 6006   2.307   2.388   6.805
 1703SOL     OW 6007   1.220   1.638   1.885
 1703SOL    HW1 6008   1.246   1.596   1.971
 1703SOL    HW2 6009   1.290   1.703   1.856
 1704SOL     OW 6010   3.365   2.379   0.936
 1704SOL    HW1 6011   3.285   2.437   0.949
 1704SOL    HW2 6012   3.444   2.436   0.914
 1705SOL     OW 6013   4.628   2.701   0.638
 1705SOL    HW1 6014   4.711   2.661   0.675
 1705SOL    HW2 6015   4.587   2.638   0.572
 1706SOL     OW 6016   5.900   2.624   6.216
 1706SOL    HW1 6017   5.845   2.592   6.294
 1706SOL    HW2 6018   5.995   2.636   6.246
 1707SOL     OW 6019   4.404   1.202   2.172
 1707SOL    HW1 6020   4.335   1.150   2.221
 1707SOL    HW2 6021   4.365   1.240   2.088
 1708SOL     OW 6022   2.855   4.796   2.138
 1708SOL    HW1 6023   2.812   4.731   2.075
 1708SOL    HW2 6024   2.925   4.848   2.089
 1709SOL     OW 6025   4.931   5.182   0.977
 1709SOL    HW1 6026   4.894   5.197   0.885
 1709SOL    HW2 6027   4.895   5.251   1.039
 1710SOL     OW 6028   4.904   4.333   2.215
 1710SOL    HW1 6029   4.814   4.375   2.205
 1710SOL    HW2 6030   4.945   4.319   2.125
 1711SOL     OW 6031   4.006   5.185   6.839
 1711SOL    HW1 6032   3.908   5.206   6.838
 1711SOL    HW2 6033   4.019   5.088   6.820
 1712SOL     OW 6034   0.770   1.462   1.986
 1712SOL    HW1 6035   0.856   1.424   1.952
 1712SOL    HW2 6036   0.693   1.417   1.941
 1713SOL     OW 6037   3.557   1.303   3.040
 1713SOL    HW1 6038   3.485   1.367   3.065
 1713SOL    HW2 6039   3.542   1.216   3.088
 1714SOL     OW 6040   3.157   3.807   0.954
 1714SOL    HW1 6041   3.176   3.758   0.869
 1714SOL    HW2 6042   3.239   3.857   0.983
 1715SOL     OW 6043   1.929   6.267   1.950
 1715SOL    HW1 6044   2.022   6.265   1.985
 1715SOL    HW2 6045   1.915   6.191   1.886
 1716SOL     OW 6046   3.985   1.181   3.043
 1716SOL    HW1 6047   3.925   1.171   3.122
 1716SOL    HW2 6048   4.042   1.100   3.033
 1717SOL     OW 6049   3.429   5.783   4.759
 1717SOL    HW1 6050   3.455   5.687   4.759
 1717SOL    HW2 6051   3.329   5.791   4.770
 1718SOL     OW 6052   1.752   2.944   1.445
 1718SOL    HW1 6053   1.816   3.004   1.397
 1718SOL    HW2 6054   1.674   2.924   1.386
 1719SOL     OW 6055   1.024   5.264   2.400
 1719SOL    HW1 6056   1.122   5.246   2.397
 1719SOL    HW2 6057   0.977   5.203   2.337
 1720SOL     OW 6058   0.726   3.323   5.278
 1720SOL    HW1 6059   0.642   3.304   5.329
 1720SOL    HW2 6060   0.796   3.255   5.303
 1721SOL     OW 6061   2.250   2.730   0.240
 1721SOL    HW1 6062   2.262   2.827   0.260
 1721SOL    HW2 6063   2.318   2.676   0.292
 1722SOL     OW 6064   2.483   2.461   4.681
 1722SOL    HW1 6065   2.479   2.531   4.610
 1722SOL    HW2 6066   2.418   2.483   4.753
 1723SOL     OW 6067   6.197   4.345   1.369
 1723SOL    HW1 6068   6.270   4.319   1.306
 1723SOL    HW2 6069   6.237   4.371   1.457
 1724SOL     OW 6070   5.990   2.416   1.035
 1724SOL    HW1 6071   5.936   2.334   1.055
 1724SOL    HW2 6072   6.078   2.389   0.996
 1725SOL     OW 6073   1.878   6.324   6.098
 1725SOL    HW1 6074   1.960   6.378   6.077
 1725SOL    HW2 6075   1.812   6.333   6.023
 1726SOL     OW 6076   5.448   4.059   2.729
 1726SOL    HW1 6077   5.450   4.105   2.818
 1726SOL    HW2 6078   5.503   4.109   2.663
 1727SOL     OW 6079   3.241   4.012   3.023
 1727SOL    HW1 6080   3.210   4.017   3.118
 1727SOL    HW2 6081   3.163   4.000   2.962
 1728SOL     OW 6082   5.530   2.650   4.210
 1728SOL    HW1 6083   5.541   2.720   4.280
 1728SOL    HW2 6084   5.589   2.572   4.232
 1729SOL     OW 6085   1.467   2.906   2.902
 1729SOL    HW1 6086   1.500   2.816   2.929
 1729SOL    HW2 6087   1.371   2.899   2.874
 1730SOL     OW 6088   2.082   6.193   4.211
 1730SOL    HW1 6089   2.124   6.102   4.204
 1730SOL    HW2 6090   1.983   6.184   4.207
 1731SOL     OW 6091   5.730   5.378   3.736
 1731SOL    HW1 6092   5.827   5.388   3.713
 1731SOL    HW2 6093   5.687   5.468   3.738
 1732SOL     OW 6094   2.584   3.638   5.363
 1732SOL    HW1 6095   2.680   3.650   5.341
 1732SOL    HW2 6096   2.537   3.726   5.357
 1733SOL     OW 6097   2.171   2.960   5.931
 1733SOL    HW1 6098   2.170   3.040   5.871
 1733SOL    HW2 6099   2.221   2.982   6.015
 1734SOL     OW 6100   6.490   2.872   0.957
 1734SOL    HW1 6101   6.546   2.943   1.000
 1734SOL    HW2 6102   6.480   2.794   1.019
 1735SOL     OW 6103   3.847   5.611   6.171
 1735SOL    HW1 6104   3.898   5.692   6.201
 1735SOL    HW2 6105   3.836   5.548   6.248
 1736SOL     OW 6106   5.153   2.337   6.567
 1736SOL    HW1 6107   5.251   2.318   6.576
 1736SOL    HW2 6108   5.140   2.415   6.506
 1737SOL     OW 6109   3.511   1.243   5.959
 1737SOL    HW1 6110   3.436   1.179   5.973
 1737SOL    HW2 6111   3.595   1.192   5.941
 1738SOL     OW 6112   2.117   3.306   3.232
 1738SOL    HW1 6113   2.134   3.241   3.158
 1738SOL    HW2 6114   2.139   3.264   3.320
 1739SOL     OW 6115   5.395   0.013   3.067
 1739SOL    HW1 6116   5.367   0.088   3.007
 1739SOL    HW2 6117   5.446   6.960   3.013
 1740SOL     OW 6118   6.150   3.037   4.738
 1740SOL    HW1 6119   6.108   2.947   4.730
 1740SOL    HW2 6120   6.119   3.080   4.823
 1741SOL     OW 6121   0.326   1.679   4.918
 1741SOL    HW1 6122   0.323   1.779   4.914
 1741SOL    HW2 6123   0.338   1.643   4.826
 1742SOL     OW 6124   6.573   6.677   6.649
 1742SOL    HW1 6125   6.614   6.592   6.615
 1742SOL    HW2 6126   6.477   6.682   6.621
 1743SOL     OW 6127   1.788   1.786   2.016
 1743SOL    HW1 6128   1.828   1.705   2.058
 1743SOL    HW2 6129   1.838   1.867   2.045
 1744SOL     OW 6130   3.754   2.176   5.314
 1744SOL    HW1 6131   3.659   2.208   5.315
 1744SOL    HW2 6132   3.777   2.145   5.222
 1745SOL     OW 6133   6.101   6.316   1.029
 1745SOL    HW1 6134   6.041   6.341   1.105
 1745SOL    HW2 6135   6.079   6.223   0.998
 1746SOL     OW 6136   2.457   4.708   3.288
 1746SOL    HW1 6137   2.460   4.632   3.224
 1746SOL    HW2 6138   2.516   4.782   3.255
 1747SOL     OW 6139   3.914   6.926   2.747
 1747SOL    HW1 6140   3.939   6.845   2.798
 1747SOL    HW2 6141   3.817   6.923   2.724
 1748SOL     OW 6142   0.063   2.377   4.459
 1748SOL    HW1 6143   0.125   2.396   4.383
 1748SOL    HW2 6144   6.996   2.434   4.450
 1749SOL     OW 6145   7.011   5.433   1.479
 1749SOL    HW1 6146   6.977   5.507   1.419
 1749SOL    HW2 6147   6.968   5.441   1.569
 1750SOL     OW 6148   3.072   0.735   0.006
 1750SOL    HW1 6149   3.041   0.646   6.988
 1750SOL    HW2 6150   3.166   0.727   0.040
 1751SOL     OW 6151   5.448   3.378   4.738
 1751SOL    HW1 6152   5.371   3.431   4.702
 1751SOL    HW2 6153   5.466   3.300   4.677
 1752SOL     OW 6154   0.097   0.835   2.240
 1752SOL    HW1 6155   0.082   0.749   2.191
 1752SOL    HW2 6156   0.100   0.911   2.176
 1753SOL     OW 6157   6.644   1.384   1.344
 1753SOL    HW1 6158   6.567   1.421   1.292
 1753SOL    HW2 6159   6.628   1.287   1.362
 1754SOL     OW 6160   3.027   5.524   3.444
 1754SOL    HW1 6161   2.952   5.465   3.414
 1754SOL    HW2 6162   2.997   5.619   3.445
 1755SOL     OW 6163   6.693   0.097   5.456
 1755SOL    HW1 6164   6.772   0.155   5.471
 1755SOL    HW2 6165   6.717   0.002   5.474
 1756SOL     OW 6166   4.941   5.756   0.624
 1756SOL    HW1 6167   4.997   5.838   0.610
 1756SOL    HW2 6168   4.847   5.783   0.645
 1757SOL     OW 6169   2.704   4.845   5.181
 1757SOL    HW1 6170   2.730   4.781   5.108
 1757SOL    HW2 6171   2.753   4.823   5.265
 1758SOL     OW 6172   1.429   5.930   3.930
 1758SOL    HW1 6173   1.471   5.900   4.016
 1758SOL    HW2 6174   1.493   5.916   3.855
 1759SOL     OW 6175   1.224   6.028   0.211
 1759SOL    HW1 6176   1.201   5.985   0.124
 1759SOL    HW2 6177   1.305   6.086   0.199
 1760SOL     OW 6178   6.864   1.620   4.344
 1760SOL    HW1 6179   6.933   1.634   4.273
 1760SOL    HW2 6180   6.801   1.548   4.315
 1761SOL     OW 6181   5.148   1.007   2.570
 1761SOL    HW1 6182   5.215   1.000   2.643
 1761SOL    HW2 6183   5.062   1.043   2.607
 1762SOL     OW 6184   0.442   1.418   5.565
 1762SOL    HW1 6185   0.446   1.495   5.628
 1762SOL    HW2 6186   0.347   1.387   5.556
 1763SOL     OW 6187   1.123   4.961   3.774
 1763SOL    HW1 6188   1.138   4.887   3.840
 1763SOL    HW2 6189   1.192   4.957   3.702
 1764SOL     OW 6190   1.247   6.393   3.452
 1764SOL    HW1 6191   1.318   6.323   3.460
 1764SOL    HW2 6192   1.254   6.457   3.528
 1765SOL     OW 6193   5.859   4.076   2.137
 1765SOL    HW1 6194   5.788   4.132   2.092
 1765SOL    HW2 6195   5.819   4.028   2.215
 1766SOL     OW 6196   4.207   4.691   3.950
 1766SOL    HW1 6197   4.137   4.620   3.961
 1766SOL    HW2 6198   4.166   4.773   3.911
 1767SOL     OW 6199   0.273   4.923   1.969
 1767SOL    HW1 6200   0.238   4.990   1.904
 1767SOL    HW2 6201   0.212   4.917   2.048
 1768SOL     OW 6202   5.689   4.777   2.329
 1768SOL    HW1 6203   5.714   4.749   2.236
 1768SOL    HW2 6204   5.590   4.779   2.338
 1769SOL     OW 6205   5.338   0.434   0.875
 1769SOL    HW1 6206   5.397   0.353   0.874
 1769SOL    HW2 6207   5.353   0.487   0.792
 1770SOL     OW 6208   1.886   4.948   0.735
 1770SOL    HW1 6209   1.910   4.940   0.638
 1770SOL    HW2 6210   1.817   5.020   0.746
 1771SOL     OW 6211   2.126   3.160   5.764
 1771SOL    HW1 6212   2.119   3.178   5.665
 1771SOL    HW2 6213   2.064   3.222   5.813
 1772SOL     OW 6214   2.245   4.094   2.257
 1772SOL    HW1 6215   2.182   4.078   2.181
 1772SOL    HW2 6216   2.256   4.010   2.309
 1773SOL     OW 6217   2.207   6.107   5.858
 1773SOL    HW1 6218   2.230   6.179   5.923
 1773SOL    HW2 6219   2.290   6.056   5.834
 1774SOL     OW 6220   5.322   5.603   1.146
 1774SOL    HW1 6221   5.313   5.642   1.237
 1774SOL    HW2 6222   5.283   5.511   1.145
 1775SOL     OW 6223   2.055   4.970   0.967
 1775SOL    HW1 6224   2.139   4.938   1.010
 1775SOL    HW2 6225   2.065   4.968   0.868
 1776SOL     OW 6226   4.493   2.782   5.668
 1776SOL    HW1 6227   4.560   2.746   5.733
 1776SOL    HW2 6228   4.540   2.841   5.602
 1777SOL     OW 6229   4.414   5.991   0.066
 1777SOL    HW1 6230   4.502   6.025   0.032
 1777SOL    HW2 6231   4.408   6.005   0.165
 1778SOL     OW 6232   6.257   0.019   4.477
 1778SOL    HW1 6233   6.332   7.000   4.532
 1778SOL    HW2 6234   6.288   0.035   4.383
 1779SOL     OW 6235   5.814   0.618   4.149
 1779SOL    HW1 6236   5.868   0.599   4.067
 1779SOL    HW2 6237   5.837   0.710   4.183
 1780SOL     OW 6238   2.084   5.410   5.551
 1780SOL    HW1 6239   2.076   5.343   5.625
 1780SOL    HW2 6240   2.017   5.483   5.565
 1781SOL     OW 6241   4.223   0.562   5.489
 1781SOL    HW1 6242   4.310   0.550   5.442
 1781SOL    HW2 6243   4.155   0.500   5.451
 1782SOL     OW 6244   5.424   1.431   2.384
 1782SOL    HW1 6245   5.381   1.497   2.446
 1782SOL    HW2 6246   5.506   1.471   2.344
 1783SOL     OW 6247   1.770   4.250   0.077
 1783SOL    HW1 6248   1.710   4.174   0.099
 1783SOL    HW2 6249   1.821   4.277   0.159
 1784SOL     OW 6250   2.758   0.184   1.711
 1784SOL    HW1 6251   2.839   0.138   1.746
 1784SOL    HW2 6252   2.727   0.253   1.778
 1785SOL     OW 6253   1.633   6.464   4.628
 1785SOL    HW1 6254   1.546   6.498   4.593
 1785SOL    HW2 6255   1.705   6.485   4.562
 1786SOL     OW 6256   0.897   6.117   1.649
 1786SOL    HW1 6257   0.901   6.142   1.552
 1786SOL    HW2 6258   0.990   6.106   1.684
 1787SOL     OW 6259   2.138   3.276   5.489
 1787SOL    HW1 6260   2.186   3.346   5.436
 1787SOL    HW2 6261   2.177   3.186   5.469
 1788SOL     OW 6262   4.173   3.371   0.677
 1788SOL    HW1 6263   4.174   3.281   0.721
 1788SOL    HW2 6264   4.203   3.440   0.742
 1789SOL     OW 6265   6.394   3.240   2.277
 1789SOL    HW1 6266   6.331   3.163   2.287
 1789SOL    HW2 6267   6.350   3.323   2.310
 1790SOL     OW 6268   1.791   2.222   4.745
 1790SOL    HW1 6269   1.709   2.279   4.753
 1790SOL    HW2 6270   1.787   2.147   4.810
 1791SOL     OW 6271   5.121   0.354   3.829
 1791SOL    HW1 6272   5.148   0.447   3.851
 1791SOL    HW2 6273   5.030   0.336   3.867
 1792SOL     OW 6274   0.329   2.641   6.598
 1792SOL    HW1 6275   0.321   2.636   6.498
 1792SOL    HW2 6276   0.241   2.617   6.639
 1793SOL     OW 6277   6.676   1.313   5.426
 1793SOL    HW1 6278   6.629   1.371   5.492
 1793SOL    HW2 6279   6.632   1.223   5.423
 1794SOL     OW 6280   0.213   0.890   6.431
 1794SOL    HW1 6281   0.219   0.884   6.531
 1794SOL    HW2 6282   0.297   0.855   6.390
 1795SOL     OW 6283   5.316   4.603   1.138
 1795SOL    HW1 6284   5.384   4.544   1.096
 1795SOL    HW2 6285   5.349   4.698   1.138
 1796SOL     OW 6286   6.823   0.318   0.548
 1796SOL    HW1 6287   6.777   0.232   0.572
 1796SOL    HW2 6288   6.845   0.369   0.631
 1797SOL     OW 6289   2.868   5.340   5.662
 1797SOL    HW1 6290   2.904   5.404   5.729
 1797SOL    HW2 6291   2.913   5.355   5.574
 1798SOL     OW 6292   2.065   3.866   5.347
 1798SOL    HW1 6293   2.075   3.826   5.256
 1798SOL    HW2 6294   2.116   3.952   5.352
 1799SOL     OW 6295   2.897   1.451   1.411
 1799SOL    HW1 6296   2.887   1.423   1.507
 1799SOL    HW2 6297   2.994   1.451   1.387
 1800SOL     OW 6298   6.112   3.163   5.575
 1800SOL    HW1 6299   6.175   3.092   5.607
 1800SOL    HW2 6300   6.165   3.242   5.543
 1801SOL     OW 6301   0.391   0.442   3.045
 1801SOL    HW1 6302   0.447   0.485   2.974
 1801SOL    HW2 6303   0.439   0.361   3.080
 1802SOL     OW 6304   6.430   4.967   4.123
 1802SOL    HW1 6305   6.334   4.941   4.131
 1802SOL    HW2 6306   6.454   4.976   4.027
 1803SOL     OW 6307   6.981   0.284   3.780
 1803SOL    HW1 6308   6.985   0.309   3.684
 1803SOL    HW2 6309   6.920   0.206   3.792
 1804SOL     OW 6310   2.116   2.590   5.913
 1804SOL    HW1 6311   2.072   2.582   5.824
 1804SOL    HW2 6312   2.061   2.648   5.973
 1805SOL     OW 6313   6.440   4.666   0.702
 1805SOL    HW1 6314   6.363   4.704   0.652
 1805SOL    HW2 6315   6.523   4.715   0.678
 1806SOL     OW 6316   0.076   1.596   0.812
 1806SOL    HW1 6317   0.057   1.583   0.909
 1806SOL    HW2 6318   0.175   1.600   0.798
 1807SOL     OW 6319   6.285   2.646   2.860
 1807SOL    HW1 6320   6.199   2.599   2.842
 1807SOL    HW2 6321   6.358   2.603   2.805
 1808SOL     OW 6322   5.495   1.460   6.293
 1808SOL    HW1 6323   5.488   1.465   6.392
 1808SOL    HW2 6324   5.588   1.486   6.265
 1809SOL     OW 6325   5.326   0.408   5.249
 1809SOL    HW1 6326   5.286   0.497   5.274
 1809SOL    HW2 6327   5.407   0.391   5.306
 1810SOL     OW 6328   1.331   0.581   4.170
 1810SOL    HW1 6329   1.346   0.666   4.120
 1810SOL    HW2 6330   1.280   0.517   4.112
 1811SOL     OW 6331   3.720   6.208   1.968
 1811SOL    HW1 6332   3.776   6.290   1.965
 1811SOL    HW2 6333   3.668   6.200   1.883
 1812SOL     OW 6334   4.204   6.680   6.880
 1812SOL    HW1 6335   4.180   6.754   6.944
 1812SOL    HW2 6336   4.126   6.660   6.822
 1813SOL     OW 6337   4.850   3.991   2.189
 1813SOL    HW1 6338   4.906   3.910   2.205
 1813SOL    HW2 6339   4.833   4.037   2.276
 1814SOL     OW 6340   6.462   6.025   0.490
 1814SOL    HW1 6341   6.390   6.031   0.559
 1814SOL    HW2 6342   6.421   6.029   0.398
 1815SOL     OW 6343   4.813   5.815   1.046
 1815SOL    HW1 6344   4.907   5.783   1.039
 1815SOL    HW2 6345   4.752   5.736   1.056
 1816SOL     OW 6346   4.389   4.907   5.446
 1816SOL    HW1 6347   4.337   4.993   5.442
 1816SOL    HW2 6348   4.470   4.920   5.503
 1817SOL     OW 6349   0.555   2.677   3.668
 1817SOL    HW1 6350   0.559   2.745   3.741
 1817SOL    HW2 6351   0.637   2.620   3.672
 1818SOL     OW 6352   2.689   1.373   0.627
 1818SOL    HW1 6353   2.701   1.420   0.714
 1818SOL    HW2 6354   2.605   1.318   0.629
 1819SOL     OW 6355   1.681   4.019   1.995
 1819SOL    HW1 6356   1.678   4.110   2.037
 1819SOL    HW2 6357   1.588   3.985   1.983
 1820SOL     OW 6358   3.777   0.305   4.407
 1820SOL    HW1 6359   3.874   0.313   4.430
 1820SOL    HW2 6360   3.765   0.318   4.309
 1821SOL     OW 6361   3.344   1.516   2.626
 1821SOL    HW1 6362   3.248   1.519   2.656
 1821SOL    HW2 6363   3.347   1.516   2.526
 1822SOL     OW 6364   1.003   4.114   3.326
 1822SOL    HW1 6365   0.915   4.102   3.280
 1822SOL    HW2 6366   0.992   4.175   3.404
 1823SOL     OW 6367   4.272   6.447   3.022
 1823SOL    HW1 6368   4.288   6.536   3.065
 1823SOL    HW2 6369   4.287   6.455   2.923
 1824SOL     OW 6370   4.357   3.082   1.723
 1824SOL    HW1 6371   4.339   3.179   1.709
 1824SOL    HW2 6372   4.432   3.070   1.787
 1825SOL     OW 6373   0.900   3.120   5.672
 1825SOL    HW1 6374   0.855   3.133   5.760
 1825SOL    HW2 6375   0.880   3.029   5.637
 1826SOL     OW 6376   3.407   2.305   1.295
 1826SOL    HW1 6377   3.476   2.376   1.311
 1826SOL    HW2 6378   3.317   2.342   1.318
 1827SOL     OW 6379   5.478   4.766   0.874
 1827SOL    HW1 6380   5.518   4.841   0.927
 1827SOL    HW2 6381   5.477   4.789   0.777
 1828SOL     OW 6382   1.512   4.085   4.720
 1828SOL    HW1 6383   1.585   4.152   4.704
 1828SOL    HW2 6384   1.493   4.079   4.818
 1829SOL     OW 6385   3.736   6.571   2.074
 1829SOL    HW1 6386   3.655   6.608   2.120
 1829SOL    HW2 6387   3.782   6.643   2.023
 1830SOL     OW 6388   4.407   1.092   6.264
 1830SOL    HW1 6389   4.397   1.101   6.363
 1830SOL    HW2 6390   4.339   1.150   6.218
 1831SOL     OW 6391   3.383   4.667   0.345
 1831SOL    HW1 6392   3.432   4.754   0.347
 1831SOL    HW2 6393   3.439   4.596   0.387
 1832SOL     OW 6394   2.390   3.233   6.209
 1832SOL    HW1 6395   2.318   3.297   6.181
 1832SOL    HW2 6396   2.470   3.244   6.150
 1833SOL     OW 6397   6.093   0.852   6.931
 1833SOL    HW1 6398   6.176   0.816   6.888
 1833SOL    HW2 6399   6.114   0.881   0.009
 1834SOL     OW 6400   0.537   3.452   6.333
 1834SOL    HW1 6401   0.527   3.431   6.430
 1834SOL    HW2 6402   0.595   3.532   6.321
 1835SOL     OW 6403   6.904   6.017   1.187
 1835SOL    HW1 6404   6.814   6.000   1.228
 1835SOL    HW2 6405   6.972   6.031   1.259
 1836SOL     OW 6406   5.268   1.596   2.989
 1836SOL    HW1 6407   5.189   1.612   2.931
 1836SOL    HW2 6408   5.297   1.500   2.981
 1837SOL     OW 6409   2.741   2.172   0.170
 1837SOL    HW1 6410   2.836   2.169   0.201
 1837SOL    HW2 6411   2.693   2.090   0.201
 1838SOL     OW 6412   5.008   1.347   0.949
 1838SOL    HW1 6413   5.086   1.346   0.886
 1838SOL    HW2 6414   4.926   1.374   0.898
 1839SOL     OW 6415   6.139   0.435   0.388
 1839SOL    HW1 6416   6.134   0.344   0.346
 1839SOL    HW2 6417   6.146   0.505   0.317
 1840SOL     OW 6418   4.479   6.442   4.153
 1840SOL    HW1 6419   4.471   6.540   4.169
 1840SOL    HW2 6420   4.394   6.396   4.179
 1841SOL     OW 6421   1.407   0.777   1.651
 1841SOL    HW1 6422   1.310   0.795   1.667
 1841SOL    HW2 6423   1.462   0.840   1.706
 1842SOL     OW 6424   0.566   5.310   1.512
 1842SOL    HW1 6425   0.640   5.349   1.567
 1842SOL    HW2 6426   0.496   5.380   1.496
 1843SOL     OW 6427   2.508   0.706   0.012
 1843SOL    HW1 6428   2.440   0.635   7.011
 1843SOL    HW2 6429   2.540   0.700   0.107
 1844SOL     OW 6430   5.629   2.575   6.407
 1844SOL    HW1 6431   5.636   2.668   6.443
 1844SOL    HW2 6432   5.674   2.511   6.469
 1845SOL     OW 6433   1.158   2.695   3.537
 1845SOL    HW1 6434   1.199   2.720   3.449
 1845SOL    HW2 6435   1.140   2.596   3.538
 1846SOL     OW 6436   2.665   1.304   1.367
 1846SOL    HW1 6437   2.710   1.352   1.442
 1846SOL    HW2 6438   2.602   1.236   1.404
 1847SOL     OW 6439   2.228   5.430   6.224
 1847SOL    HW1 6440   2.224   5.524   6.189
 1847SOL    HW2 6441   2.158   5.418   6.294
 1848SOL     OW 6442   3.683   6.684   3.461
 1848SOL    HW1 6443   3.771   6.682   3.413
 1848SOL    HW2 6444   3.617   6.629   3.411
 1849SOL     OW 6445   4.524   2.497   2.362
 1849SOL    HW1 6446   4.568   2.461   2.280
 1849SOL    HW2 6447   4.536   2.596   2.366
 1850SOL     OW 6448   4.221   2.040   0.954
 1850SOL    HW1 6449   4.211   2.139   0.964
 1850SOL    HW2 6450   4.237   1.999   1.043
 1851SOL     OW 6451   0.055   4.922   4.594
 1851SOL    HW1 6452   0.089   4.853   4.530
 1851SOL    HW2 6453   0.127   4.944   4.660
 1852SOL     OW 6454   0.868   0.138   3.225
 1852SOL    HW1 6455   0.914   0.220   3.193
 1852SOL    HW2 6456   0.832   0.153   3.317
 1853SOL     OW 6457   0.583   2.405   5.789
 1853SOL    HW1 6458   0.632   2.435   5.707
 1853SOL    HW2 6459   0.645   2.405   5.867
 1854SOL     OW 6460   0.290   0.051   3.343
 1854SOL    HW1 6461   0.281   6.968   3.328
 1854SOL    HW2 6462   0.362   0.087   3.283
 1855SOL     OW 6463   5.628   2.459   4.981
 1855SOL    HW1 6464   5.644   2.387   4.914
 1855SOL    HW2 6465   5.560   2.428   5.048
 1856SOL     OW 6466   4.382   3.443   0.170
 1856SOL    HW1 6467   4.475   3.469   0.143
 1856SOL    HW2 6468   4.377   3.344   0.184
 1857SOL     OW 6469   3.963   0.920   6.494
 1857SOL    HW1 6470   3.890   0.898   6.559
 1857SOL    HW2 6471   4.051   0.923   6.542
 1858SOL     OW 6472   5.402   2.104   4.297
 1858SOL    HW1 6473   5.359   2.165   4.363
 1858SOL    HW2 6474   5.400   2.010   4.332
 1859SOL     OW 6475   0.021   1.043   3.906
 1859SOL    HW1 6476   0.102   0.987   3.922
 1859SOL    HW2 6477   6.963   1.014   3.968
 1860SOL     OW 6478   2.728   1.288   6.522
 1860SOL    HW1 6479   2.671   1.334   6.590
 1860SOL    HW2 6480   2.710   1.190   6.524
 1861SOL     OW 6481   6.166   6.708   4.746
 1861SOL    HW1 6482   6.241   6.759   4.790
 1861SOL    HW2 6483   6.139   6.755   4.662
 1862SOL     OW 6484   3.408   6.034   5.404
 1862SOL    HW1 6485   3.438   5.978   5.481
 1862SOL    HW2 6486   3.418   5.983   5.319
 1863SOL     OW 6487   6.586   1.532   0.972
 1863SOL    HW1 6488   6.649   1.584   0.914
 1863SOL    HW2 6489   6.509   1.500   0.918
 1864SOL     OW 6490   3.193   6.145   1.604
 1864SOL    HW1 6491   3.102   6.121   1.571
 1864SOL    HW2 6492   3.196   6.134   1.704
 1865SOL     OW 6493   6.578   2.456   5.778
 1865SOL    HW1 6494   6.674   2.469   5.752
 1865SOL    HW2 6495   6.543   2.372   5.737
 1866SOL     OW 6496   0.595   5.749   3.319
 1866SOL    HW1 6497   0.514   5.722   3.267
 1866SOL    HW2 6498   0.566   5.788   3.407
 1867SOL     OW 6499   0.918   1.942   1.485
 1867SOL    HW1 6500   0.864   1.874   1.535
 1867SOL    HW2 6501   0.956   2.008   1.550
 1868SOL     OW 6502   5.571   3.412   6.420
 1868SOL    HW1 6503   5.604   3.328   6.377
 1868SOL    HW2 6504   5.471   3.411   6.422
 1869SOL     OW 6505   5.311   0.828   5.137
 1869SOL    HW1 6506   5.322   0.842   5.235
 1869SOL    HW2 6507   5.214   0.815   5.115
 1870SOL     OW 6508   5.983   0.298   6.054
 1870SOL    HW1 6509   5.888   0.330   6.062
 1870SOL    HW2 6510   6.034   0.327   6.135
 1871SOL     OW 6511   0.807   6.248   0.118
 1871SOL    HW1 6512   0.841   6.198   0.198
 1871SOL    HW2 6513   0.850   6.212   0.035
 1872SOL     OW 6514   2.255   2.968   1.454
 1872SOL    HW1 6515   2.164   3.008   1.443
 1872SOL    HW2 6516   2.277   2.960   1.551
 1873SOL     OW 6517   6.167   0.996   1.231
 1873SOL    HW1 6518   6.224   1.042   1.300
 1873SOL    HW2 6519   6.203   0.905   1.214
 1874SOL     OW 6520   1.370   5.694   0.020
 1874SOL    HW1 6521   1.335   5.778   6.996
 1874SOL    HW2 6522   1.293   5.633   0.042
 1875SOL     OW 6523   0.223   6.264   1.841
 1875SOL    HW1 6524   0.249   6.352   1.802
 1875SOL    HW2 6525   0.201   6.277   1.938
 1876SOL     OW 6526   0.239   4.842   0.863
 1876SOL    HW1 6527   0.319   4.898   0.886
 1876SOL    HW2 6528   0.245   4.813   0.767
 1877SOL     OW 6529   1.385   1.845   2.432
 1877SOL    HW1 6530   1.462   1.820   2.491
 1877SOL    HW2 6531   1.302   1.799   2.465
 1878SOL     OW 6532   5.100   3.942   4.300
 1878SOL    HW1 6533   5.116   3.989   4.387
 1878SOL    HW2 6534   5.066   4.007   4.232
 1879SOL     OW 6535   4.615   6.245   4.499
 1879SOL    HW1 6536   4.594   6.191   4.417
 1879SOL    HW2 6537   4.689   6.201   4.549
 1880SOL     OW 6538   0.640   1.443   4.504
 1880SOL    HW1 6539   0.694   1.392   4.437
 1880SOL    HW2 6540   0.700   1.504   4.556
 1881SOL     OW 6541   2.068   0.738   3.836
 1881SOL    HW1 6542   2.014   0.804   3.888
 1881SOL    HW2 6543   2.142   0.786   3.788
 1882SOL     OW 6544   2.405   5.413   0.500
 1882SOL    HW1 6545   2.314   5.391   0.465
 1882SOL    HW2 6546   2.473   5.398   0.428
 1883SOL     OW 6547   2.484   2.548   2.593
 1883SOL    HW1 6548   2.456   2.644   2.581
 1883SOL    HW2 6549   2.525   2.536   2.683
 1884SOL     OW 6550   4.855   1.114   0.571
 1884SOL    HW1 6551   4.833   1.101   0.668
 1884SOL    HW2 6552   4.954   1.107   0.558
 1885SOL     OW 6553   0.129   2.042   0.708
 1885SOL    HW1 6554   0.170   2.072   0.622
 1885SOL    HW2 6555   0.093   2.121   0.757
 1886SOL     OW 6556   3.617   2.790   5.760
 1886SOL    HW1 6557   3.651   2.884   5.750
 1886SOL    HW2 6558   3.536   2.779   5.701
 1887SOL     OW 6559   0.670   6.188   5.067
 1887SOL    HW1 6560   0.745   6.253   5.059
 1887SOL    HW2 6561   0.680   6.117   4.997
 1888SOL     OW 6562   1.801   2.111   5.439
 1888SOL    HW1 6563   1.842   2.178   5.502
 1888SOL    HW2 6564   1.872   2.049   5.406
 1889SOL     OW 6565   2.959   3.310   0.298
 1889SOL    HW1 6566   2.986   3.275   0.208
 1889SOL    HW2 6567   2.914   3.398   0.287
 1890SOL     OW 6568   6.136   5.811   6.610
 1890SOL    HW1 6569   6.195   5.763   6.675
 1890SOL    HW2 6570   6.135   5.761   6.523
 1891SOL     OW 6571   5.552   3.833   6.673
 1891SOL    HW1 6572   5.632   3.890   6.659
 1891SOL    HW2 6573   5.501   3.866   6.752
 1892SOL     OW 6574   4.062   0.035   2.542
 1892SOL    HW1 6575   4.119   6.977   2.504
 1892SOL    HW2 6576   4.023   0.004   2.629
 1893SOL     OW 6577   3.001   1.133   5.559
 1893SOL    HW1 6578   2.975   1.038   5.539
 1893SOL    HW2 6579   2.926   1.194   5.533
 1894SOL     OW 6580   4.785   3.809   1.467
 1894SOL    HW1 6581   4.856   3.781   1.403
 1894SOL    HW2 6582   4.822   3.875   1.532
 1895SOL     OW 6583   4.130   6.151   3.571
 1895SOL    HW1 6584   4.196   6.168   3.645
 1895SOL    HW2 6585   4.105   6.238   3.528
 1896SOL     OW 6586   5.947   1.876   5.779
 1896SOL    HW1 6587   5.998   1.841   5.701
 1896SOL    HW2 6588   5.926   1.973   5.765
 1897SOL     OW 6589   5.842   4.648   3.535
 1897SOL    HW1 6590   5.801   4.701   3.460
 1897SOL    HW2 6591   5.937   4.627   3.512
 1898SOL     OW 6592   5.793   6.428   6.828
 1898SOL    HW1 6593   5.779   6.459   6.734
 1898SOL    HW2 6594   5.790   6.507   6.890
 1899SOL     OW 6595   1.699   2.137   3.424
 1899SOL    HW1 6596   1.680   2.220   3.372
 1899SOL    HW2 6597   1.730   2.065   3.361
 1900SOL     OW 6598   2.680   6.441   1.612
 1900SOL    HW1 6599   2.685   6.514   1.544
 1900SOL    HW2 6600   2.584   6.419   1.629
 1901SOL     OW 6601   1.261   0.629   5.997
 1901SOL    HW1 6602   1.228   0.556   6.057
 1901SOL    HW2 6603   1.246   0.603   5.902
 1902SOL     OW 6604   1.354   2.669   5.086
 1902SOL    HW1 6605   1.335   2.735   5.013
 1902SOL    HW2 6606   1.278   2.668   5.151
 1903SOL     OW 6607   7.010   4.643   3.926
 1903SOL    HW1 6608   6.942   4.647   3.853
 1903SOL    HW2 6609   0.057   4.566   3.910
 1904SOL     OW 6610   0.616   0.419   4.015
 1904SOL    HW1 6611   0.562   0.339   3.990
 1904SOL    HW2 6612   0.674   0.397   4.094
 1905SOL     OW 6613   6.230   2.962   4.410
 1905SOL    HW1 6614   6.148   3.012   4.438
 1905SOL    HW2 6615   6.214   2.864   4.420
 1906SOL     OW 6616   3.115   6.297   6.183
 1906SOL    HW1 6617   3.110   6.273   6.280
 1906SOL    HW2 6618   3.080   6.390   6.170
 1907SOL     OW 6619   4.617   6.124   4.029
 1907SOL    HW1 6620   4.667   6.126   3.942
 1907SOL    HW2 6621   4.673   6.080   4.099
 1908SOL     OW 6622   5.157   6.390   0.442
 1908SOL    HW1 6623   5.199   6.390   0.533
 1908SOL    HW2 6624   5.114   6.479   0.426
 1909SOL     OW 6625   4.556   5.458   3.924
 1909SOL    HW1 6626   4.474   5.407   3.948
 1909SOL    HW2 6627   4.540   5.556   3.938
 1910SOL     OW 6628   4.908   3.246   5.082
 1910SOL    HW1 6629   4.855   3.331   5.082
 1910SOL    HW2 6630   4.975   3.250   5.007
 1911SOL     OW 6631   0.143   3.727   5.575
 1911SOL    HW1 6632   0.217   3.790   5.554
 1911SOL    HW2 6633   0.118   3.676   5.492
 1912SOL     OW 6634   2.855   5.723   3.086
 1912SOL    HW1 6635   2.770   5.683   3.050
 1912SOL    HW2 6636   2.833   5.798   3.148
 1913SOL     OW 6637   1.684   4.742   5.191
 1913SOL    HW1 6638   1.689   4.771   5.095
 1913SOL    HW2 6639   1.770   4.699   5.217
 1914SOL     OW 6640   4.415   1.230   5.566
 1914SOL    HW1 6641   4.401   1.182   5.653
 1914SOL    HW2 6642   4.327   1.241   5.520
 1915SOL     OW 6643   2.969   0.518   5.068
 1915SOL    HW1 6644   3.054   0.513   5.121
 1915SOL    HW2 6645   2.937   0.612   5.063
 1916SOL     OW 6646   4.146   6.184   2.629
 1916SOL    HW1 6647   4.208   6.261   2.612
 1916SOL    HW2 6648   4.199   6.101   2.646
 1917SOL     OW 6649   3.261   3.507   4.537
 1917SOL    HW1 6650   3.319   3.587   4.551
 1917SOL    HW2 6651   3.221   3.512   4.445
 1918SOL     OW 6652   6.694   6.834   5.430
 1918SOL    HW1 6653   6.606   6.788   5.420
 1918SOL    HW2 6654   6.723   6.869   5.341
 1919SOL     OW 6655   6.537   0.253   2.345
 1919SOL    HW1 6656   6.562   0.238   2.250
 1919SOL    HW2 6657   6.492   0.172   2.381
 1920SOL     OW 6658   6.529   6.408   5.021
 1920SOL    HW1 6659   6.441   6.419   5.067
 1920SOL    HW2 6660   6.598   6.463   5.067
 1921SOL     OW 6661   1.485   0.237   6.586
 1921SOL    HW1 6662   1.456   0.219   6.680
 1921SOL    HW2 6663   1.495   0.151   6.536
 1922SOL     OW 6664   4.105   4.051   0.903
 1922SOL    HW1 6665   4.124   4.149   0.907
 1922SOL    HW2 6666   4.123   4.017   0.811
 1923SOL     OW 6667   1.928   2.825   0.275
 1923SOL    HW1 6668   1.920   2.885   0.195
 1923SOL    HW2 6669   1.939   2.881   0.357
 1924SOL     OW 6670   0.210   4.596   1.200
 1924SOL    HW1 6671   0.125   4.638   1.169
 1924SOL    HW2 6672   0.195   4.498   1.215
 1925SOL     OW 6673   3.759   4.303   0.349
 1925SOL    HW1 6674   3.741   4.207   0.370
 1925SOL    HW2 6675   3.844   4.331   0.395
 1926SOL     OW 6676   0.444   0.483   3.583
 1926SOL    HW1 6677   0.374   0.413   3.571
 1926SOL    HW2 6678   0.450   0.509   3.680
 1927SOL     OW 6679   4.454   3.586   0.612
 1927SOL    HW1 6680   4.471   3.683   0.632
 1927SOL    HW2 6681   4.510   3.529   0.672
 1928SOL     OW 6682   0.329   5.809   5.165
 1928SOL    HW1 6683   0.271   5.731   5.187
 1928SOL    HW2 6684   0.272   5.883   5.129
 1929SOL     OW 6685   1.617   5.989   3.246
 1929SOL    HW1 6686   1.703   6.005   3.294
 1929SOL    HW2 6687   1.634   5.933   3.165
 1930SOL     OW 6688   6.828   5.069   6.948
 1930SOL    HW1 6689   6.810   4.977   6.983
 1930SOL    HW2 6690   6.832   5.066   6.848
 1931SOL     OW 6691   0.549   1.761   5.117
 1931SOL    HW1 6692   0.494   1.744   5.199
 1931SOL    HW2 6693   0.489   1.767   5.037
 1932SOL     OW 6694   5.960   2.832   2.891
 1932SOL    HW1 6695   5.979   2.923   2.856
 1932SOL    HW2 6696   5.865   2.828   2.922
 1933SOL     OW 6697   2.062   4.680   0.656
 1933SOL    HW1 6698   2.077   4.581   0.655
 1933SOL    HW2 6699   1.996   4.704   0.584
 1934SOL     OW 6700   0.054   6.553   4.181
 1934SOL    HW1 6701   0.046   6.535   4.083
 1934SOL    HW2 6702   0.131   6.615   4.197
 1935SOL     OW 6703   2.248   0.790   3.642
 1935SOL    HW1 6704   2.322   0.761   3.702
 1935SOL    HW2 6705   2.243   0.728   3.563
 1936SOL     OW 6706   6.935   6.222   5.414
 1936SOL    HW1 6707   0.006   6.183   5.381
 1936SOL    HW2 6708   6.930   6.212   5.514
 1937SOL     OW 6709   4.164   0.701   2.839
 1937SOL    HW1 6710   4.141   0.726   2.745
 1937SOL    HW2 6711   4.263   0.684   2.846
 1938SOL     OW 6712   5.027   1.019   4.319
 1938SOL    HW1 6713   5.078   0.952   4.373
 1938SOL    HW2 6714   5.043   1.110   4.355
 1939SOL     OW 6715   2.939   0.550   3.668
 1939SOL    HW1 6716   2.867   0.618   3.679
 1939SOL    HW2 6717   2.992   0.544   3.753
 1940SOL     OW 6718   6.567   5.337   6.387
 1940SOL    HW1 6719   6.643   5.393   6.356
 1940SOL    HW2 6720   6.557   5.346   6.486
 1941SOL     OW 6721   5.714   4.913   2.903
 1941SOL    HW1 6722   5.669   4.996   2.934
 1941SOL    HW2 6723   5.648   4.852   2.859
 1942SOL     OW 6724   6.611   4.309   3.471
 1942SOL    HW1 6725   6.546   4.385   3.477
 1942SOL    HW2 6726   6.699   4.343   3.438
 1943SOL     OW 6727   3.095   5.778   2.220
 1943SOL    HW1 6728   3.102   5.764   2.121
 1943SOL    HW2 6729   3.160   5.718   2.267
 1944SOL     OW 6730   6.749   6.998   2.178
 1944SOL    HW1 6731   6.816   6.946   2.124
 1944SOL    HW2 6732   6.657   6.967   2.154
 1945SOL     OW 6733   3.200   4.907   3.830
 1945SOL    HW1 6734   3.237   4.883   3.920
 1945SOL    HW2 6735   3.272   4.900   3.761
 1946SOL     OW 6736   1.694   6.504   0.156
 1946SOL    HW1 6737   1.633   6.561   0.211
 1946SOL    HW2 6738   1.771   6.473   0.212
 1947SOL     OW 6739   5.366   6.973   3.835
 1947SOL    HW1 6740   5.296   6.913   3.872
 1947SOL    HW2 6741   5.350   6.985   3.737
 1948SOL     OW 6742   0.096   3.998   5.334
 1948SOL    HW1 6743   0.155   3.957   5.404
 1948SOL    HW2 6744   0.137   3.985   5.244
 1949SOL     OW 6745   5.081   3.823   6.512
 1949SOL    HW1 6746   5.085   3.923   6.521
 1949SOL    HW2 6747   5.150   3.794   6.446
 1950SOL     OW 6748   3.007   4.647   0.910
 1950SOL    HW1 6749   2.909   4.649   0.892
 1950SOL    HW2 6750   3.056   4.632   0.824
 1951SOL     OW 6751   6.734   3.292   0.222
 1951SOL    HW1 6752   6.726   3.384   0.259
 1951SOL    HW2 6753   6.652   3.269   0.170
 1952SOL     OW 6754   3.611   2.888   5.109
 1952SOL    HW1 6755   3.661   2.916   5.191
 1952SOL    HW2 6756   3.533   2.832   5.134
 1953SOL     OW 6757   0.205   2.398   4.697
 1953SOL    HW1 6758   0.133   2.444   4.749
 1953SOL    HW2 6759   0.166   2.361   4.612
 1954SOL     OW 6760   2.328   2.183   3.513
 1954SOL    HW1 6761   2.234   2.176   3.544
 1954SOL    HW2 6762   2.374   2.095   3.525
 1955SOL     OW 6763   5.979   5.491   1.990
 1955SOL    HW1 6764   5.964   5.423   2.062
 1955SOL    HW2 6765   5.958   5.450   1.901
 1956SOL     OW 6766   5.394   6.254   2.038
 1956SOL    HW1 6767   5.304   6.212   2.030
 1956SOL    HW2 6768   5.454   6.194   2.093
 1957SOL     OW 6769   0.954   6.608   5.497
 1957SOL    HW1 6770   0.973   6.535   5.563
 1957SOL    HW2 6771   1.040   6.639   5.456
 1958SOL     OW 6772   4.698   3.099   5.750
 1958SOL    HW1 6773   4.686   3.038   5.671
 1958SOL    HW2 6774   4.623   3.084   5.815
 1959SOL     OW 6775   2.341   1.981   0.232
 1959SOL    HW1 6776   2.338   2.059   0.168
 1959SOL    HW2 6777   2.291   1.904   0.193
 1960SOL     OW 6778   5.265   6.127   2.754
 1960SOL    HW1 6779   5.290   6.049   2.811
 1960SOL    HW2 6780   5.347   6.169   2.716
 1961SOL     OW 6781   5.934   5.183   5.517
 1961SOL    HW1 6782   5.875   5.116   5.563
 1961SOL    HW2 6783   5.892   5.210   5.430
 1962SOL     OW 6784   6.712   6.835   3.646
 1962SOL    HW1 6785   6.631   6.827   3.704
 1962SOL    HW2 6786   6.751   6.926   3.654
 1963SOL     OW 6787   2.648   0.371   3.140
 1963SOL    HW1 6788   2.655   0.458   3.091
 1963SOL    HW2 6789   2.586   0.381   3.217
 1964SOL     OW 6790   5.813   4.462   2.228
 1964SOL    HW1 6791   5.854   4.448   2.318
 1964SOL    HW2 6792   5.721   4.500   2.238
 1965SOL     OW 6793   1.964   5.470   3.632
 1965SOL    HW1 6794   2.020   5.425   3.702
 1965SOL    HW2 6795   1.904   5.402   3.589
 1966SOL     OW 6796   6.146   6.350   6.525
 1966SOL    HW1 6797   6.110   6.257   6.535
 1966SOL    HW2 6798   6.141   6.398   6.612
 1967SOL     OW 6799   4.912   3.519   4.553
 1967SOL    HW1 6800   4.882   3.568   4.635
 1967SOL    HW2 6801   4.973   3.444   4.579
 1968SOL     OW 6802   3.844   5.710   5.538
 1968SOL    HW1 6803   3.938   5.739   5.556
 1968SOL    HW2 6804   3.782   5.759   5.599
 1969SOL     OW 6805   6.899   2.062   1.340
 1969SOL    HW1 6806   6.805   2.081   1.369
 1969SOL    HW2 6807   6.937   2.142   1.294
 1970SOL     OW 6808   2.127   6.689   3.325
 1970SOL    HW1 6809   2.081   6.777   3.312
 1970SOL    HW2 6810   2.060   6.620   3.352
 1971SOL     OW 6811   0.445   0.975   6.122
 1971SOL    HW1 6812   0.448   0.893   6.065
 1971SOL    HW2 6813   0.350   0.997   6.144
 1972SOL     OW 6814   1.697   5.771   3.851
 1972SOL    HW1 6815   1.760   5.834   3.896
 1972SOL    HW2 6816   1.724   5.759   3.756
 1973SOL     OW 6817   2.346   2.705   6.659
 1973SOL    HW1 6818   2.400   2.622   6.668
 1973SOL    HW2 6819   2.399   2.775   6.610
 1974SOL     OW 6820   5.720   6.850   4.648
 1974SOL    HW1 6821   5.774   6.820   4.727
 1974SOL    HW2 6822   5.747   6.943   4.622
 1975SOL     OW 6823   3.260   0.621   3.573
 1975SOL    HW1 6824   3.210   0.681   3.636
 1975SOL    HW2 6825   3.200   0.593   3.498
 1976SOL     OW 6826   6.510   4.130   0.043
 1976SOL    HW1 6827   6.583   4.129   6.990
 1976SOL    HW2 6828   6.530   4.197   0.114
 1977SOL     OW 6829   2.806   2.530   5.285
 1977SOL    HW1 6830   2.895   2.565   5.313
 1977SOL    HW2 6831   2.818   2.466   5.209
 1978SOL     OW 6832   0.004   1.754   4.832
 1978SOL    HW1 6833   0.023   1.833   4.773
 1978SOL    HW2 6834   0.047   1.672   4.795
 1979SOL     OW 6835   5.832   4.476   2.993
 1979SOL    HW1 6836   5.849   4.399   3.054
 1979SOL    HW2 6837   5.871   4.559   3.033
 1980SOL     OW 6838   3.400   0.795   1.041
 1980SOL    HW1 6839   3.381   0.891   1.062
 1980SOL    HW2 6840   3.427   0.748   1.125
 1981SOL     OW 6841   4.920   3.503   1.723
 1981SOL    HW1 6842   4.967   3.442   1.659
 1981SOL    HW2 6843   4.988   3.557   1.774
 1982SOL     OW 6844   5.869   6.960   5.528
 1982SOL    HW1 6845   5.777   6.999   5.536
 1982SOL    HW2 6846   5.893   6.951   5.431
 1983SOL     OW 6847   0.619   4.367   2.091
 1983SOL    HW1 6848   0.718   4.361   2.104
 1983SOL    HW2 6849   0.597   4.449   2.039
 1984SOL     OW 6850   4.439   1.074   5.809
 1984SOL    HW1 6851   4.469   1.081   5.904
 1984SOL    HW2 6852   4.485   0.996   5.765
 1985SOL     OW 6853   1.820   6.587   1.232
 1985SOL    HW1 6854   1.920   6.593   1.229
 1985SOL    HW2 6855   1.780   6.670   1.193
 1986SOL     OW 6856   0.469   2.004   6.424
 1986SOL    HW1 6857   0.387   2.031   6.374
 1986SOL    HW2 6858   0.545   2.063   6.397
 1987SOL     OW 6859   2.693   4.226   0.479
 1987SOL    HW1 6860   2.758   4.157   0.447
 1987SOL    HW2 6861   2.735   4.282   0.550
 1988SOL     OW 6862   4.791   3.321   0.485
 1988SOL    HW1 6863   4.717   3.260   0.512
 1988SOL    HW2 6864   4.762   3.416   0.494
 1989SOL     OW 6865   2.727   0.951   4.253
 1989SOL    HW1 6866   2.651   1.015   4.263
 1989SOL    HW2 6867   2.809   1.000   4.223
 1990SOL     OW 6868   2.440   1.482   2.857
 1990SOL    HW1 6869   2.420   1.580   2.866
 1990SOL    HW2 6870   2.381   1.430   2.919
 1991SOL     OW 6871   4.813   5.149   3.731
 1991SOL    HW1 6872   4.869   5.181   3.808
 1991SOL    HW2 6873   4.843   5.058   3.704
 1992SOL     OW 6874   2.186   6.647   5.239
 1992SOL    HW1 6875   2.154   6.572   5.181
 1992SOL    HW2 6876   2.120   6.663   5.312
 1993SOL     OW 6877   3.415   3.182   4.402
 1993SOL    HW1 6878   3.422   3.084   4.386
 1993SOL    HW2 6879   3.429   3.202   4.499
 1994SOL     OW 6880   5.998   2.669   2.112
 1994SOL    HW1 6881   6.049   2.696   2.193
 1994SOL    HW2 6882   5.980   2.571   2.115
 1995SOL     OW 6883   4.470   2.500   1.256
 1995SOL    HW1 6884   4.534   2.517   1.330
 1995SOL    HW2 6885   4.377   2.497   1.293
 1996SOL     OW 6886   2.680   3.925   5.569
 1996SOL    HW1 6887   2.633   3.998   5.619
 1996SOL    HW2 6888   2.613   3.871   5.517
 1997SOL     OW 6889   5.811   0.199   4.161
 1997SOL    HW1 6890   5.748   0.125   4.136
 1997SOL    HW2 6891   5.860   0.231   4.079
 1998SOL     OW 6892   2.886   5.046   4.912
 1998SOL    HW1 6893   2.944   5.074   4.988
 1998SOL    HW2 6894   2.862   5.127   4.857
 1999SOL     OW 6895   1.818   0.800   1.972
 1999SOL    HW1 6896   1.892   0.751   1.926
 1999SOL    HW2 6897   1.856   0.866   2.037
 2000SOL     OW 6898   3.810   1.634   4.700
 2000SOL    HW1 6899   3.829   1.703   4.630
 2000SOL    HW2 6900   3.854   1.662   4.786
 2001SOL     OW 6901   2.542   3.380   0.141
 2001SOL    HW1 6902   2.532   3.288   0.178
 2001SOL    HW2 6903   2.625   3.423   0.177
 2002SOL     OW 6904   1.647   5.346   4.699
 2002SOL    HW1 6905   1.725   5.392   4.742
 2002SOL    HW2 6906   1.575   5.412   4.681
 2003SOL     OW 6907   6.197   4.848   3.328
 2003SOL    HW1 6908   6.289   4.861   3.364
 2003SOL    HW2 6909   6.153   4.771   3.375
 2004SOL     OW 6910   3.224   0.412   6.403
 2004SOL    HW1 6911   3.200   0.321   6.370
 2004SOL    HW2 6912   3.207   0.417   6.501
 2005SOL     OW 6913   2.966   6.674   5.272
 2005SOL    HW1 6914   3.014   6.713   5.194
 2005SOL    HW2 6915   2.926   6.587   5.246
 2006SOL     OW 6916   4.390   5.349   3.344
 2006SOL    HW1 6917   4.293   5.338   3.365
 2006SOL    HW2 6918   4.432   5.258   3.332
 2007SOL     OW 6919   6.483   5.308   0.327
 2007SOL    HW1 6920   6.463   5.396   0.370
 2007SOL    HW2 6921   6.455   5.311   0.231
 2008SOL     OW 6922   6.843   6.555   4.589
 2008SOL    HW1 6923   6.828   6.488   4.661
 2008SOL    HW2 6924   6.941   6.573   4.580
 2009SOL     OW 6925   0.432   0.464   0.626
 2009SOL    HW1 6926   0.528   0.492   0.631
 2009SOL    HW2 6927   0.427   0.365   0.609
 2010SOL     OW 6928   0.700   6.868   0.862
 2010SOL    HW1 6929   0.787   6.910   0.887
 2010SOL    HW2 6930   0.673   6.898   0.770
 2011SOL     OW 6931   6.729   2.350   4.614
 2011SOL    HW1 6932   6.771   2.354   4.705
 2011SOL    HW2 6933   6.791   2.389   4.546
 2012SOL     OW 6934   0.382   3.442   0.805
 2012SOL    HW1 6935   0.437   3.509   0.755
 2012SOL    HW2 6936   0.439   3.394   0.871
 2013SOL     OW 6937   4.811   1.006   2.375
 2013SOL    HW1 6938   4.813   1.005   2.275
 2013SOL    HW2 6939   4.786   1.097   2.407
 2014SOL     OW 6940   2.441   5.112   3.397
 2014SOL    HW1 6941   2.526   5.069   3.426
 2014SOL    HW2 6942   2.444   5.130   3.299
 2015SOL     OW 6943   3.221   6.694   6.939
 2015SOL    HW1 6944   3.293   6.685   7.008
 2015SOL    HW2 6945   3.198   6.603   6.903
 2016SOL     OW 6946   6.096   4.909   3.636
 2016SOL    HW1 6947   6.019   4.959   3.597
 2016SOL    HW2 6948   6.181   4.945   3.599
 2017SOL     OW 6949   2.492   5.326   1.729
 2017SOL    HW1 6950   2.532   5.302   1.640
 2017SOL    HW2 6951   2.393   5.327   1.722
 2018SOL     OW 6952   0.509   4.074   6.501
 2018SOL    HW1 6953   0.502   4.017   6.419
 2018SOL    HW2 6954   0.547   4.163   6.477
 2019SOL     OW 6955   5.480   1.749   2.939
 2019SOL    HW1 6956   5.387   1.716   2.956
 2019SOL    HW2 6957   5.527   1.687   2.877
 2020SOL     OW 6958   1.647   5.475   2.929
 2020SOL    HW1 6959   1.632   5.497   3.026
 2020SOL    HW2 6960   1.745   5.481   2.909
 2021SOL     OW 6961   1.638   6.707   1.609
 2021SOL    HW1 6962   1.594   6.779   1.556
 2021SOL    HW2 6963   1.568   6.648   1.649
 2022SOL     OW 6964   2.659   4.590   1.213
 2022SOL    HW1 6965   2.697   4.497   1.203
 2022SOL    HW2 6966   2.703   4.635   1.291
 2023SOL     OW 6967   6.259   1.619   6.435
 2023SOL    HW1 6968   6.324   1.692   6.453
 2023SOL    HW2 6969   6.180   1.629   6.495
 2024SOL     OW 6970   6.033   0.307   2.773
 2024SOL    HW1 6971   5.948   0.359   2.763
 2024SOL    HW2 6972   6.068   0.318   2.865
 2025SOL     OW 6973   6.541   0.829   0.473
 2025SOL    HW1 6974   6.632   0.806   0.438
 2025SOL    HW2 6975   6.486   0.746   0.480
 2026SOL     OW 6976   1.357   1.886   5.654
 2026SOL    HW1 6977   1.447   1.917   5.623
 2026SOL    HW2 6978   1.295   1.882   5.575
 2027SOL     OW 6979   0.349   1.513   2.404
 2027SOL    HW1 6980   0.446   1.501   2.425
 2027SOL    HW2 6981   0.311   1.586   2.461
 2028SOL     OW 6982   3.529   3.802   5.869
 2028SOL    HW1 6983   3.480   3.714   5.861
 2028SOL    HW2 6984   3.622   3.785   5.901
 2029SOL     OW 6985   1.453   0.277   0.445
 2029SOL    HW1 6986   1.432   0.371   0.418
 2029SOL    HW2 6987   1.528   0.241   0.389
 2030SOL     OW 6988   1.320   1.299   2.723
 2030SOL    HW1 6989   1.301   1.389   2.761
 2030SOL    HW2 6990   1.260   1.282   2.645
 2031SOL     OW 6991   4.657   0.020   2.877
 2031SOL    HW1 6992   4.731   7.009   2.815
 2031SOL    HW2 6993   4.696   0.047   2.965
 2032SOL     OW 6994   5.497   6.669   1.546
 2032SOL    HW1 6995   5.440   6.719   1.481
 2032SOL    HW2 6996   5.442   6.600   1.593
 2033SOL     OW 6997   6.922   5.368   6.591
 2033SOL    HW1 6998   0.005   5.376   6.572
 2033SOL    HW2 6999   6.907   5.362   6.690
 2034SOL     OW 7000   2.722   0.111   3.218
 2034SOL    HW1 7001   2.719   0.211   3.216
 2034SOL    HW2 7002   2.806   0.079   3.174
 2035SOL     OW 7003   1.148   3.069   1.657
 2035SOL    HW1 7004   1.214   3.117   1.599
 2035SOL    HW2 7005   1.196   3.023   1.731
 2036SOL     OW 7006   1.008   4.300   0.252
 2036SOL    HW1 7007   0.948   4.243   0.197
 2036SOL    HW2 7008   1.103   4.274   0.235
 2037SOL     OW 7009   6.899   0.956   6.295
 2037SOL    HW1 7010   6.921   0.875   6.350
 2037SOL    HW2 7011   6.917   0.938   6.199
 2038SOL     OW 7012   0.762   7.002   4.769
 2038SOL    HW1 7013   0.850   6.997   4.722
 2038SOL    HW2 7014   0.721   6.911   4.774
 2039SOL     OW 7015   1.222   4.965   1.777
 2039SOL    HW1 7016   1.224   4.969   1.677
 2039SOL    HW2 7017   1.315   4.966   1.813
 2040SOL     OW 7018   3.173   3.602   4.297
 2040SOL    HW1 7019   3.079   3.635   4.285
 2040SOL    HW2 7020   3.203   3.555   4.214
 2041SOL     OW 7021   6.333   3.535   6.490
 2041SOL    HW1 7022   6.253   3.479   6.471
 2041SOL    HW2 7023   6.329   3.568   6.584
 2042SOL     OW 7024   3.387   5.315   0.408
 2042SOL    HW1 7025   3.330   5.356   0.337
 2042SOL    HW2 7026   3.434   5.388   0.459
 2043SOL     OW 7027   4.411   4.682   2.269
 2043SOL    HW1 7028   4.323   4.644   2.239
 2043SOL    HW2 7029   4.446   4.628   2.345
 2044SOL     OW 7030   6.537   0.618   1.922
 2044SOL    HW1 7031   6.476   0.538   1.920
 2044SOL    HW2 7032   6.576   0.628   2.013
 2045SOL     OW 7033   2.238   5.142   6.199
 2045SOL    HW1 7034   2.248   5.129   6.100
 2045SOL    HW2 7035   2.230   5.239   6.220
 2046SOL     OW 7036   5.995   0.378   4.672
 2046SOL    HW1 7037   5.914   0.410   4.623
 2046SOL    HW2 7038   5.991   0.408   4.767
 2047SOL     OW 7039   5.725   2.615   7.004
 2047SOL    HW1 7040   5.668   2.615   0.071
 2047SOL    HW2 7041   5.677   2.565   6.931
 2048SOL     OW 7042   3.958   6.831   5.526
 2048SOL    HW1 7043   3.943   6.783   5.440
 2048SOL    HW2 7044   4.055   6.853   5.535
 2049SOL     OW 7045   4.921   6.012   0.451
 2049SOL    HW1 7046   4.827   5.993   0.481
 2049SOL    HW2 7047   4.937   5.970   0.362
 2050SOL     OW 7048   5.308   1.321   4.164
 2050SOL    HW1 7049   5.230   1.345   4.106
 2050SOL    HW2 7050   5.369   1.400   4.172
 2051SOL     OW 7051   1.959   5.311   0.568
 2051SOL    HW1 7052   1.860   5.302   0.556
 2051SOL    HW2 7053   1.999   5.220   0.576
 2052SOL     OW 7054   1.158   2.853   0.573
 2052SOL    HW1 7055   1.116   2.937   0.608
 2052SOL    HW2 7056   1.249   2.873   0.538
 2053SOL     OW 7057   5.272   0.812   0.754
 2053SOL    HW1 7058   5.263   0.910   0.772
 2053SOL    HW2 7059   5.186   0.767   0.778
 2054SOL     OW 7060   6.852   3.372   1.566
 2054SOL    HW1 7061   6.753   3.362   1.580
 2054SOL    HW2 7062   6.899   3.296   1.610
 2055SOL     OW 7063   6.581   2.159   3.976
 2055SOL    HW1 7064   6.605   2.086   4.039
 2055SOL    HW2 7065   6.511   2.218   4.017
 2056SOL     OW 7066   1.501   0.401   2.578
 2056SOL    HW1 7067   1.580   0.395   2.517
 2056SOL    HW2 7068   1.489   0.496   2.608
 2057SOL     OW 7069   6.749   2.654   4.011
 2057SOL    HW1 7070   6.796   2.737   3.980
 2057SOL    HW2 7071   6.736   2.659   4.110
 2058SOL     OW 7072   0.291   2.125   1.413
 2058SOL    HW1 7073   0.231   2.045   1.418
 2058SOL    HW2 7074   0.350   2.128   1.493
 2059SOL     OW 7075   1.476   1.088   6.578
 2059SOL    HW1 7076   1.542   1.142   6.526
 2059SOL    HW2 7077   1.514   1.067   6.668
 2060SOL     OW 7078   0.547   5.117   2.291
 2060SOL    HW1 7079   0.511   5.207   2.314
 2060SOL    HW2 7080   0.519   5.092   2.199
 2061SOL     OW 7081   0.221   1.469   1.421
 2061SOL    HW1 7082   0.129   1.447   1.389
 2061SOL    HW2 7083   0.254   1.550   1.372
 2062SOL     OW 7084   4.438   0.146   3.287
 2062SOL    HW1 7085   4.449   0.121   3.384
 2062SOL    HW2 7086   4.501   0.093   3.231
 2063SOL     OW 7087   2.824   1.782   0.440
 2063SOL    HW1 7088   2.916   1.821   0.437
 2063SOL    HW2 7089   2.762   1.835   0.382
 2064SOL     OW 7090   0.667   2.370   0.293
 2064SOL    HW1 7091   0.621   2.418   0.218
 2064SOL    HW2 7092   0.601   2.352   0.366
 2065SOL     OW 7093   5.898   2.913   2.088
 2065SOL    HW1 7094   5.856   2.930   2.177
 2065SOL    HW2 7095   5.921   2.816   2.079
 2066SOL     OW 7096   2.315   6.536   3.437
 2066SOL    HW1 7097   2.385   6.602   3.465
 2066SOL    HW2 7098   2.240   6.585   3.391
 2067SOL     OW 7099   0.035   0.142   1.027
 2067SOL    HW1 7100   0.081   0.200   1.094
 2067SOL    HW2 7101   6.993   0.075   1.074
 2068SOL     OW 7102   1.848   1.611   5.303
 2068SOL    HW1 7103   1.902   1.619   5.387
 2068SOL    HW2 7104   1.903   1.568   5.232
 2069SOL     OW 7105   0.771   1.807   1.678
 2069SOL    HW1 7106   0.672   1.804   1.671
 2069SOL    HW2 7107   0.800   1.750   1.755
 2070SOL     OW 7108   0.783   1.201   3.104
 2070SOL    HW1 7109   0.693   1.239   3.120
 2070SOL    HW2 7110   0.844   1.271   3.067
 2071SOL     OW 7111   1.395   6.280   5.021
 2071SOL    HW1 7112   1.408   6.335   5.103
 2071SOL    HW2 7113   1.298   6.255   5.012
 2072SOL     OW 7114   5.009   4.870   2.203
 2072SOL    HW1 7115   5.094   4.858   2.152
 2072SOL    HW2 7116   4.970   4.780   2.223
 2073SOL     OW 7117   3.255   6.882   5.413
 2073SOL    HW1 7118   3.176   6.924   5.458
 2073SOL    HW2 7119   3.331   6.877   5.477
 2074SOL     OW 7120   6.329   1.939   1.705
 2074SOL    HW1 7121   6.274   1.884   1.767
 2074SOL    HW2 7122   6.419   1.955   1.746
 2075SOL     OW 7123   4.142   3.481   5.765
 2075SOL    HW1 7124   4.144   3.546   5.841
 2075SOL    HW2 7125   4.176   3.392   5.797
 2076SOL     OW 7126   4.755   0.434   1.507
 2076SOL    HW1 7127   4.725   0.416   1.413
 2076SOL    HW2 7128   4.828   0.501   1.506
 2077SOL     OW 7129   5.215   1.606   3.514
 2077SOL    HW1 7130   5.312   1.596   3.535
 2077SOL    HW2 7131   5.203   1.674   3.442
 2078SOL     OW 7132   4.163   5.711   5.368
 2078SOL    HW1 7133   4.244   5.768   5.384
 2078SOL    HW2 7134   4.084   5.770   5.349
 2079SOL     OW 7135   5.722   1.508   3.540
 2079SOL    HW1 7136   5.649   1.527   3.604
 2079SOL    HW2 7137   5.810   1.528   3.582
 2080SOL     OW 7138   3.069   2.155   4.602
 2080SOL    HW1 7139   2.975   2.178   4.578
 2080SOL    HW2 7140   3.076   2.142   4.700
 2081SOL     OW 7141   0.498   6.264   5.255
 2081SOL    HW1 7142   0.404   6.230   5.264
 2081SOL    HW2 7143   0.544   6.217   5.180
 2082SOL     OW 7144   5.241   0.456   1.727
 2082SOL    HW1 7145   5.275   0.404   1.649
 2082SOL    HW2 7146   5.227   0.394   1.804
 2083SOL     OW 7147   3.460   5.408   5.462
 2083SOL    HW1 7148   3.521   5.336   5.495
 2083SOL    HW2 7149   3.367   5.373   5.455
 2084SOL     OW 7150   6.921   3.413   2.954
 2084SOL    HW1 7151   6.957   3.454   3.037
 2084SOL    HW2 7152   6.878   3.325   2.976
 2085SOL     OW 7153   5.741   6.456   6.564
 2085SOL    HW1 7154   5.708   6.530   6.505
 2085SOL    HW2 7155   5.664   6.406   6.602
 2086SOL     OW 7156   2.769   4.951   1.218
 2086SOL    HW1 7157   2.861   4.970   1.183
 2086SOL    HW2 7158   2.716   4.903   1.148
 2087SOL     OW 7159   5.750   6.214   3.734
 2087SOL    HW1 7160   5.735   6.204   3.636
 2087SOL    HW2 7161   5.690   6.285   3.771
 2088SOL     OW 7162   2.716   6.934   0.658
 2088SOL    HW1 7163   2.775   6.929   0.577
 2088SOL    HW2 7164   2.625   6.965   0.631
 2089SOL     OW 7165   2.931   0.565   6.603
 2089SOL    HW1 7166   2.926   0.516   6.516
 2089SOL    HW2 7167   2.863   0.526   6.666
 2090SOL     OW 7168   3.277   3.050   4.041
 2090SOL    HW1 7169   3.348   3.115   4.069
 2090SOL    HW2 7170   3.291   3.025   3.945
 2091SOL     OW 7171   2.008   5.044   0.487
 2091SOL    HW1 7172   2.038   4.954   0.455
 2091SOL    HW2 7173   1.947   5.085   0.419
 2092SOL     OW 7174   6.495   6.490   0.643
 2092SOL    HW1 7175   6.549   6.472   0.561
 2092SOL    HW2 7176   6.553   6.527   0.714
 2093SOL     OW 7177   1.574   2.414   1.630
 2093SOL    HW1 7178   1.494   2.360   1.657
 2093SOL    HW2 7179   1.566   2.507   1.667
 2094SOL     OW 7180   5.625   0.466   2.294
 2094SOL    HW1 7181   5.550   0.438   2.233
 2094SOL    HW2 7182   5.657   0.557   2.268
 2095SOL     OW 7183   6.849   5.027   5.040
 2095SOL    HW1 7184   6.915   5.007   5.112
 2095SOL    HW2 7185   6.757   5.024   5.078
 2096SOL     OW 7186   4.933   3.574   2.938
 2096SOL    HW1 7187   4.893   3.649   2.887
 2096SOL    HW2 7188   5.015   3.541   2.891
 2097SOL     OW 7189   6.862   3.034   6.700
 2097SOL    HW1 7190   6.839   3.108   6.636
 2097SOL    HW2 7191   6.871   3.072   6.792
 2098SOL     OW 7192   4.782   0.434   4.107
 2098SOL    HW1 7193   4.842   0.430   4.186
 2098SOL    HW2 7194   4.745   0.526   4.097
 2099SOL     OW 7195   2.818   1.409   4.133
 2099SOL    HW1 7196   2.888   1.416   4.061
 2099SOL    HW2 7197   2.727   1.416   4.092
 2100SOL     OW 7198   3.543   3.949   6.726
 2100SOL    HW1 7199   3.455   3.983   6.694
 2100SOL    HW2 7200   3.530   3.896   6.810
 2101SOL     OW 7201   6.909   0.625   3.342
 2101SOL    HW1 7202   6.830   0.640   3.402
 2101SOL    HW2 7203   6.918   0.528   3.321
 2102SOL     OW 7204   0.137   4.835   2.203
 2102SOL    HW1 7205   0.061   4.784   2.162
 2102SOL    HW2 7206   0.111   4.867   2.294
 2103SOL     OW 7207   2.757   3.598   6.762
 2103SOL    HW1 7208   2.817   3.539   6.708
 2103SOL    HW2 7209   2.724   3.673   6.705
 2104SOL     OW 7210   1.225   3.800   5.036
 2104SOL    HW1 7211   1.260   3.770   5.125
 2104SOL    HW2 7212   1.162   3.732   5.001
 2105SOL     OW 7213   5.909   5.951   1.555
 2105SOL    HW1 7214   5.981   6.008   1.516
 2105SOL    HW2 7215   5.833   5.944   1.491
 2106SOL     OW 7216   5.214   5.949   6.777
 2106SOL    HW1 7217   5.213   5.944   6.877
 2106SOL    HW2 7218   5.247   5.861   6.740
 2107SOL     OW 7219   3.593   4.318   6.737
 2107SOL    HW1 7220   3.565   4.267   6.818
 2107SOL    HW2 7221   3.601   4.256   6.659
 2108SOL     OW 7222   5.510   4.634   5.694
 2108SOL    HW1 7223   5.574   4.661   5.766
 2108SOL    HW2 7224   5.416   4.643   5.728
 2109SOL     OW 7225   5.394   6.644   2.804
 2109SOL    HW1 7226   5.459   6.567   2.802
 2109SOL    HW2 7227   5.319   6.623   2.867
 2110SOL     OW 7228   2.540   4.876   5.434
 2110SOL    HW1 7229   2.573   4.880   5.340
 2110SOL    HW2 7230   2.573   4.792   5.477
 2111SOL     OW 7231   1.427   2.912   6.429
 2111SOL    HW1 7232   1.392   2.904   6.522
 2111SOL    HW2 7233   1.357   2.886   6.364
 2112SOL     OW 7234   5.250   3.350   1.116
 2112SOL    HW1 7235   5.239   3.410   1.037
 2112SOL    HW2 7236   5.160   3.316   1.144
 2113SOL     OW 7237   0.034   1.113   3.127
 2113SOL    HW1 7238   0.112   1.098   3.189
 2113SOL    HW2 7239   0.067   1.151   3.041
 2114SOL     OW 7240   1.877   3.757   6.842
 2114SOL    HW1 7241   1.778   3.742   6.836
 2114SOL    HW2 7242   1.924   3.691   6.783
 2115SOL     OW 7243   2.570   4.895   2.268
 2115SOL    HW1 7244   2.662   4.931   2.255
 2115SOL    HW2 7245   2.503   4.965   2.242
 2116SOL     OW 7246   0.073   4.423   3.186
 2116SOL    HW1 7247   0.128   4.506   3.182
 2116SOL    HW2 7248   0.127   4.349   3.226
 2117SOL     OW 7249   6.568   4.884   0.613
 2117SOL    HW1 7250   6.501   4.941   0.661
 2117SOL    HW2 7251   6.599   4.930   0.530
 2118SOL     OW 7252   6.719   3.978   2.234
 2118SOL    HW1 7253   6.738   3.904   2.169
 2118SOL    HW2 7254   6.687   4.058   2.183
 2119SOL     OW 7255   3.061   5.578   0.995
 2119SOL    HW1 7256   3.081   5.671   0.964
 2119SOL    HW2 7257   3.116   5.557   1.075
 2120SOL     OW 7258   0.115   5.407   2.362
 2120SOL    HW1 7259   0.104   5.498   2.403
 2120SOL    HW2 7260   0.139   5.416   2.266
 2121SOL     OW 7261   0.573   4.348   4.655
 2121SOL    HW1 7262   0.638   4.299   4.598
 2121SOL    HW2 7263   0.563   4.301   4.743
 2122SOL     OW 7264   4.522   4.488   5.267
 2122SOL    HW1 7265   4.597   4.518   5.208
 2122SOL    HW2 7266   4.456   4.435   5.213
 2123SOL     OW 7267   5.431   4.725   3.258
 2123SOL    HW1 7268   5.530   4.727   3.266
 2123SOL    HW2 7269   5.404   4.716   3.162
 2124SOL     OW 7270   2.368   1.487   0.758
 2124SOL    HW1 7271   2.290   1.538   0.721
 2124SOL    HW2 7272   2.393   1.526   0.847
 2125SOL     OW 7273   2.593   6.917   1.044
 2125SOL    HW1 7274   2.640   7.002   1.021
 2125SOL    HW2 7275   2.659   6.850   1.076
 2126SOL     OW 7276   2.594   0.876   1.991
 2126SOL    HW1 7277   2.631   0.787   2.020
 2126SOL    HW2 7278   2.653   0.949   2.025
 2127SOL     OW 7279   5.864   3.020   4.936
 2127SOL    HW1 7280   5.867   2.942   4.999
 2127SOL    HW2 7281   5.790   3.081   4.963
 2128SOL     OW 7282   0.519   5.047   4.457
 2128SOL    HW1 7283   0.561   4.960   4.431
 2128SOL    HW2 7284   0.420   5.037   4.461
 2129SOL     OW 7285   3.782   1.742   5.755
 2129SOL    HW1 7286   3.762   1.803   5.679
 2129SOL    HW2 7287   3.720   1.762   5.831
 2130SOL     OW 7288   4.022   6.417   3.496
 2130SOL    HW1 7289   4.008   6.426   3.397
 2130SOL    HW2 7290   4.065   6.500   3.532
 2131SOL     OW 7291   6.011   2.219   6.786
 2131SOL    HW1 7292   6.016   2.288   6.857
 2131SOL    HW2 7293   5.931   2.160   6.802
 2132SOL     OW 7294   2.554   2.831   0.281
 2132SOL    HW1 7295   2.516   2.743   0.308
 2132SOL    HW2 7296   2.654   2.825   0.277
 2133SOL     OW 7297   3.004   3.628   5.917
 2133SOL    HW1 7298   2.991   3.695   5.989
 2133SOL    HW2 7299   2.919   3.618   5.865
 2134SOL     OW 7300   0.752   6.843   1.266
 2134SOL    HW1 7301   0.828   6.887   1.216
 2134SOL    HW2 7302   0.686   6.807   1.200
 2135SOL     OW 7303   6.840   4.224   4.494
 2135SOL    HW1 7304   6.763   4.289   4.498
 2135SOL    HW2 7305   6.864   4.196   4.586
 2136SOL     OW 7306   1.541   4.970   0.964
 2136SOL    HW1 7307   1.638   4.954   0.947
 2136SOL    HW2 7308   1.524   5.068   0.972
 2137SOL     OW 7309   1.689   5.975   4.422
 2137SOL    HW1 7310   1.634   5.978   4.505
 2137SOL    HW2 7311   1.668   5.890   4.372
 2138SOL     OW 7312   5.237   1.469   2.025
 2138SOL    HW1 7313   5.231   1.568   2.029
 2138SOL    HW2 7314   5.332   1.440   2.040
 2139SOL     OW 7315   2.770   0.481   5.307
 2139SOL    HW1 7316   2.859   0.437   5.294
 2139SOL    HW2 7317   2.762   0.557   5.243
 2140SOL     OW 7318   2.365   1.276   4.937
 2140SOL    HW1 7319   2.432   1.203   4.946
 2140SOL    HW2 7320   2.307   1.279   5.019
 2141SOL     OW 7321   6.586   3.747   2.802
 2141SOL    HW1 7322   6.679   3.711   2.815
 2141SOL    HW2 7323   6.523   3.697   2.861
 2142SOL     OW 7324   1.622   2.325   2.857
 2142SOL    HW1 7325   1.551   2.255   2.853
 2142SOL    HW2 7326   1.586   2.411   2.819
 2143SOL     OW 7327   1.149   4.457   6.859
 2143SOL    HW1 7328   1.121   4.370   6.817
 2143SOL    HW2 7329   1.084   4.482   6.930
 2144SOL     OW 7330   6.167   4.413   3.733
 2144SOL    HW1 7331   6.199   4.507   3.747
 2144SOL    HW2 7332   6.068   4.409   3.747
 2145SOL     OW 7333   4.383   0.474   3.470
 2145SOL    HW1 7334   4.286   0.463   3.449
 2145SOL    HW2 7335   4.397   0.560   3.520
 2146SOL     OW 7336   2.465   2.930   6.999
 2146SOL    HW1 7337   2.506   2.914   0.074
 2146SOL    HW2 7338   2.444   2.842   6.956
 2147SOL     OW 7339   5.907   0.144   4.414
 2147SOL    HW1 7340   5.868   0.175   4.327
 2147SOL    HW2 7341   6.003   0.171   4.420
 2148SOL     OW 7342   0.635   3.241   6.179
 2148SOL    HW1 7343   0.617   3.267   6.084
 2148SOL    HW2 7344   0.607   3.316   6.240
 2149SOL     OW 7345   0.739   0.294   0.244
 2149SOL    HW1 7346   0.795   0.213   0.264
 2149SOL    HW2 7347   0.789   0.376   0.269
 2150SOL     OW 7348   2.462   2.288   1.491
 2150SOL    HW1 7349   2.474   2.373   1.438
 2150SOL    HW2 7350   2.371   2.250   1.472
 2151SOL     OW 7351   1.214   5.454   0.426
 2151SOL    HW1 7352   1.187   5.492   0.515
 2151SOL    HW2 7353   1.313   5.440   0.425
 2152SOL     OW 7354   5.231   5.899   4.459
 2152SOL    HW1 7355   5.273   5.907   4.369
 2152SOL    HW2 7356   5.164   5.824   4.459
 2153SOL     OW 7357   4.859   1.263   3.446
 2153SOL    HW1 7358   4.837   1.198   3.518
 2153SOL    HW2 7359   4.935   1.321   3.474
 2154SOL     OW 7360   3.544   0.084   3.379
 2154SOL    HW1 7361   3.517   0.095   3.283
 2154SOL    HW2 7362   3.642   0.062   3.383
 2155SOL     OW 7363   4.420   0.436   1.064
 2155SOL    HW1 7364   4.365   0.519   1.066
 2155SOL    HW2 7365   4.360   0.357   1.046
 2156SOL     OW 7366   5.030   1.601   4.798
 2156SOL    HW1 7367   5.008   1.677   4.737
 2156SOL    HW2 7368   5.040   1.634   4.891
 2157SOL     OW 7369   3.333   6.147   4.159
 2157SOL    HW1 7370   3.367   6.054   4.172
 2157SOL    HW2 7371   3.323   6.192   4.248
 2158SOL     OW 7372   3.713   0.369   0.311
 2158SOL    HW1 7373   3.641   0.406   0.253
 2158SOL    HW2 7374   3.729   0.273   0.288
 2159SOL     OW 7375   0.727   1.081   5.795
 2159SOL    HW1 7376   0.628   1.084   5.807
 2159SOL    HW2 7377   0.756   0.987   5.780
 2160SOL     OW 7378   5.852   6.894   0.468
 2160SOL    HW1 7379   5.922   6.953   0.427
 2160SOL    HW2 7380   5.851   6.906   0.567
 2161SOL     OW 7381   1.647   2.651   1.757
 2161SOL    HW1 7382   1.718   2.693   1.701
 2161SOL    HW2 7383   1.583   2.721   1.789
 2162SOL     OW 7384   1.318   6.692   1.702
 2162SOL    HW1 7385   1.268   6.682   1.616
 2162SOL    HW2 7386   1.302   6.783   1.741
 2163SOL     OW 7387   1.770   2.785   2.901
 2163SOL    HW1 7388   1.853   2.777   2.845
 2163SOL    HW2 7389   1.765   2.876   2.941
 2164SOL     OW 7390   2.202   3.015   2.779
 2164SOL    HW1 7391   2.283   2.958   2.792
 2164SOL    HW2 7392   2.162   2.996   2.689
 2165SOL     OW 7393   6.907   1.687   3.604
 2165SOL    HW1 7394   6.825   1.648   3.646
 2165SOL    HW2 7395   6.969   1.613   3.577
 2166SOL     OW 7396   0.145   4.068   2.629
 2166SOL    HW1 7397   0.051   4.048   2.657
 2166SOL    HW2 7398   0.146   4.153   2.576
 2167SOL     OW 7399   2.276   1.915   3.302
 2167SOL    HW1 7400   2.215   1.912   3.382
 2167SOL    HW2 7401   2.241   1.852   3.232
 2168SOL     OW 7402   1.246   1.882   3.090
 2168SOL    HW1 7403   1.345   1.871   3.097
 2168SOL    HW2 7404   1.202   1.830   3.163
 2169SOL     OW 7405   0.759   0.321   1.526
 2169SOL    HW1 7406   0.774   0.336   1.428
 2169SOL    HW2 7407   0.747   0.223   1.543
 2170SOL     OW 7408   1.276   3.947   5.468
 2170SOL    HW1 7409   1.189   3.925   5.514
 2170SOL    HW2 7410   1.309   3.866   5.420
 2171SOL     OW 7411   6.857   5.475   1.684
 2171SOL    HW1 7412   6.827   5.411   1.755
 2171SOL    HW2 7413   6.834   5.568   1.711
 2172SOL     OW 7414   1.458   1.608   5.433
 2172SOL    HW1 7415   1.383   1.559   5.389
 2172SOL    HW2 7416   1.429   1.639   5.524
 2173SOL     OW 7417   5.942   0.906   5.198
 2173SOL    HW1 7418   6.031   0.860   5.201
 2173SOL    HW2 7419   5.951   0.997   5.239
 2174SOL     OW 7420   5.678   0.262   6.086
 2174SOL    HW1 7421   5.721   0.188   6.138
 2174SOL    HW2 7422   5.602   0.226   6.032
 2175SOL     OW 7423   2.450   3.880   5.401
 2175SOL    HW1 7424   2.396   3.944   5.455
 2175SOL    HW2 7425   2.428   3.893   5.304
 2176SOL     OW 7426   5.349   2.356   2.544
 2176SOL    HW1 7427   5.268   2.396   2.502
 2176SOL    HW2 7428   5.363   2.396   2.634
 2177SOL     OW 7429   0.660   0.276   4.469
 2177SOL    HW1 7430   0.623   0.189   4.438
 2177SOL    HW2 7431   0.605   0.310   4.546
 2178SOL     OW 7432   0.444   2.079   2.867
 2178SOL    HW1 7433   0.428   1.980   2.862
 2178SOL    HW2 7434   0.427   2.120   2.778
 2179SOL     OW 7435   1.454   4.372   6.406
 2179SOL    HW1 7436   1.371   4.395   6.355
 2179SOL    HW2 7437   1.506   4.303   6.356
 2180SOL     OW 7438   0.822   6.138   2.781
 2180SOL    HW1 7439   0.890   6.080   2.736
 2180SOL    HW2 7440   0.736   6.088   2.790
 2181SOL     OW 7441   2.905   4.793   4.553
 2181SOL    HW1 7442   2.847   4.727   4.505
 2181SOL    HW2 7443   2.885   4.789   4.651
 2182SOL     OW 7444   6.928   6.447   2.855
 2182SOL    HW1 7445   6.904   6.502   2.776
 2182SOL    HW2 7446   0.012   6.451   2.870
 2183SOL     OW 7447   3.303   2.869   6.348
 2183SOL    HW1 7448   3.263   2.865   6.440
 2183SOL    HW2 7449   3.349   2.783   6.327
 2184SOL     OW 7450   6.501   1.606   6.787
 2184SOL    HW1 7451   6.443   1.664   6.729
 2184SOL    HW2 7452   6.587   1.589   6.739
 2185SOL     OW 7453   1.173   0.194   6.638
 2185SOL    HW1 7454   1.217   0.283   6.642
 2185SOL    HW2 7455   1.177   0.150   6.728
 2186SOL     OW 7456   0.296   5.367   5.632
 2186SOL    HW1 7457   0.254   5.389   5.544
 2186SOL    HW2 7458   0.224   5.355   5.701
 2187SOL     OW 7459   0.763   5.681   2.896
 2187SOL    HW1 7460   0.846   5.735   2.906
 2187SOL    HW2 7461   0.778   5.607   2.830
 2188SOL     OW 7462   2.429   0.411   0.836
 2188SOL    HW1 7463   2.455   0.507   0.831
 2188SOL    HW2 7464   2.431   0.371   0.744
 2189SOL     OW 7465   2.044   1.430   1.523
 2189SOL    HW1 7466   2.024   1.365   1.449
 2189SOL    HW2 7467   1.973   1.501   1.526
 2190SOL     OW 7468   6.342   4.086   2.016
 2190SOL    HW1 7469   6.318   4.087   1.919
 2190SOL    HW2 7470   6.315   4.173   2.058
 2191SOL     OW 7471   2.710   0.182   0.089
 2191SOL    HW1 7472   2.688   0.277   0.064
 2191SOL    HW2 7473   2.637   0.122   0.057
 2192SOL     OW 7474   4.600   1.840   1.648
 2192SOL    HW1 7475   4.587   1.751   1.605
 2192SOL    HW2 7476   4.677   1.887   1.605
 2193SOL     OW 7477   2.164   6.879   5.777
 2193SOL    HW1 7478   2.099   6.928   5.719
 2193SOL    HW2 7479   2.188   6.936   5.856
 2194SOL     OW 7480   0.946   3.941   6.038
 2194SOL    HW1 7481   0.939   3.914   5.941
 2194SOL    HW2 7482   0.854   3.945   6.078
 2195SOL     OW 7483   0.285   3.703   5.042
 2195SOL    HW1 7484   0.301   3.608   5.015
 2195SOL    HW2 7485   0.201   3.737   4.998
 2196SOL     OW 7486   2.574   0.577   6.599
 2196SOL    HW1 7487   2.565   0.664   6.647
 2196SOL    HW2 7488   2.654   0.528   6.631
 2197SOL     OW 7489   3.681   5.588   5.793
 2197SOL    HW1 7490   3.698   5.518   5.863
 2197SOL    HW2 7491   3.751   5.659   5.799
 2198SOL     OW 7492   0.627   0.398   0.004
 2198SOL    HW1 7493   0.543   0.345   7.013
 2198SOL    HW2 7494   0.689   0.355   0.071
 2199SOL     OW 7495   3.774   6.533   4.856
 2199SOL    HW1 7496   3.744   6.593   4.930
 2199SOL    HW2 7497   3.697   6.515   4.794
 2200SOL     OW 7498   2.576   1.663   3.985
 2200SOL    HW1 7499   2.627   1.712   3.914
 2200SOL    HW2 7500   2.485   1.703   3.994
 2201SOL     OW 7501   6.231   4.148   4.971
 2201SOL    HW1 7502   6.245   4.239   4.932
 2201SOL    HW2 7503   6.269   4.145   5.063
 2202SOL     OW 7504   3.726   6.685   1.511
 2202SOL    HW1 7505   3.726   6.743   1.429
 2202SOL    HW2 7506   3.803   6.712   1.569
 2203SOL     OW 7507   1.938   4.407   0.897
 2203SOL    HW1 7508   1.972   4.386   0.806
 2203SOL    HW2 7509   1.854   4.461   0.889
 2204SOL     OW 7510   5.517   3.326   0.918
 2204SOL    HW1 7511   5.616   3.313   0.907
 2204SOL    HW2 7512   5.480   3.254   0.975
 2205SOL     OW 7513   0.558   5.447   0.484
 2205SOL    HW1 7514   0.568   5.348   0.479
 2205SOL    HW2 7515   0.549   5.485   0.392
 2206SOL     OW 7516   3.655   2.312   5.742
 2206SOL    HW1 7517   3.728   2.298   5.676
 2206SOL    HW2 7518   3.605   2.226   5.756
 2207SOL     OW 7519   4.402   5.793   0.977
 2207SOL    HW1 7520   4.400   5.860   0.902
 2207SOL    HW2 7521   4.381   5.839   1.063
 2208SOL     OW 7522   6.678   6.504   3.670
 2208SOL    HW1 7523   6.708   6.411   3.692
 2208SOL    HW2 7524   6.755   6.567   3.678
 2209SOL     OW 7525   2.587   5.714   4.138
 2209SOL    HW1 7526   2.504   5.743   4.185
 2209SOL    HW2 7527   2.572   5.719   4.039
 2210SOL     OW 7528   4.686   0.151   1.200
 2210SOL    HW1 7529   4.670   0.058   1.169
 2210SOL    HW2 7530   4.713   0.208   1.122
 2211SOL     OW 7531   0.426   2.219   0.813
 2211SOL    HW1 7532   0.455   2.123   0.816
 2211SOL    HW2 7533   0.505   2.277   0.798
 2212SOL     OW 7534   3.241   5.970   6.496
 2212SOL    HW1 7535   3.227   5.918   6.580
 2212SOL    HW2 7536   3.197   5.922   6.420
 2213SOL     OW 7537   3.454   1.587   4.643
 2213SOL    HW1 7538   3.508   1.530   4.704
 2213SOL    HW2 7539   3.359   1.556   4.643
 2214SOL     OW 7540   4.425   3.967   6.756
 2214SOL    HW1 7541   4.378   3.945   6.842
 2214SOL    HW2 7542   4.523   3.955   6.767
 2215SOL     OW 7543   3.943   6.783   0.234
 2215SOL    HW1 7544   3.949   6.699   0.287
 2215SOL    HW2 7545   4.034   6.812   0.206
 2216SOL     OW 7546   0.645   6.864   6.581
 2216SOL    HW1 7547   0.665   6.940   6.643
 2216SOL    HW2 7548   0.573   6.891   6.518
 2217SOL     OW 7549   4.372   0.751   3.772
 2217SOL    HW1 7550   4.286   0.725   3.727
 2217SOL    HW2 7551   4.352   0.814   3.847
 2218SOL     OW 7552   0.888   6.018   5.760
 2218SOL    HW1 7553   0.806   6.068   5.730
 2218SOL    HW2 7554   0.905   5.942   5.698
 2219SOL     OW 7555   6.110   1.020   0.921
 2219SOL    HW1 7556   6.029   1.048   0.973
 2219SOL    HW2 7557   6.082   0.961   0.846
 2220SOL     OW 7558   0.480   5.823   4.895
 2220SOL    HW1 7559   0.423   5.819   4.977
 2220SOL    HW2 7560   0.426   5.860   4.819
 2221SOL     OW 7561   6.654   1.557   3.671
 2221SOL    HW1 7562   6.563   1.545   3.712
 2221SOL    HW2 7563   6.661   1.502   3.588
 2222SOL     OW 7564   5.103   6.800   2.304
 2222SOL    HW1 7565   5.149   6.723   2.347
 2222SOL    HW2 7566   5.017   6.768   2.262
 2223SOL     OW 7567   0.588   6.380   5.550
 2223SOL    HW1 7568   0.550   6.451   5.610
 2223SOL    HW2 7569   0.549   6.390   5.459
 2224SOL     OW 7570   6.067   3.882   0.562
 2224SOL    HW1 7571   6.075   3.974   0.602
 2224SOL    HW2 7572   6.099   3.814   0.628
 2225SOL     OW 7573   6.786   6.276   3.016
 2225SOL    HW1 7574   6.849   6.343   2.976
 2225SOL    HW2 7575   6.805   6.186   2.979
 2226SOL     OW 7576   2.337   5.072   1.032
 2226SOL    HW1 7577   2.345   5.016   0.950
 2226SOL    HW2 7578   2.296   5.018   1.106
 2227SOL     OW 7579   3.653   2.099   1.670
 2227SOL    HW1 7580   3.752   2.107   1.657
 2227SOL    HW2 7581   3.623   2.168   1.736
 2228SOL     OW 7582   5.663   5.136   6.676
 2228SOL    HW1 7583   5.757   5.167   6.693
 2228SOL    HW2 7584   5.599   5.199   6.719
 2229SOL     OW 7585   3.476   3.514   3.413
 2229SOL    HW1 7586   3.548   3.491   3.349
 2229SOL    HW2 7587   3.445   3.608   3.396
 2230SOL     OW 7588   5.516   0.411   0.120
 2230SOL    HW1 7589   5.543   0.330   0.067
 2230SOL    HW2 7590   5.444   0.387   0.184
 2231SOL     OW 7591   1.538   6.932   6.683
 2231SOL    HW1 7592   1.589   6.918   6.598
 2231SOL    HW2 7593   1.440   6.922   6.664
 2232SOL     OW 7594   0.971   0.705   4.915
 2232SOL    HW1 7595   1.034   0.772   4.877
 2232SOL    HW2 7596   1.022   0.626   4.947
 2233SOL     OW 7597   2.757   4.333   1.095
 2233SOL    HW1 7598   2.767   4.241   1.134
 2233SOL    HW2 7599   2.843   4.383   1.107
 2234SOL     OW 7600   5.031   1.659   1.567
 2234SOL    HW1 7601   5.086   1.709   1.500
 2234SOL    HW2 7602   4.949   1.623   1.522
 2235SOL     OW 7603   1.120   1.548   3.170
 2235SOL    HW1 7604   1.123   1.545   3.270
 2235SOL    HW2 7605   1.059   1.476   3.137
 2236SOL     OW 7606   1.949   4.636   5.263
 2236SOL    HW1 7607   2.031   4.613   5.210
 2236SOL    HW2 7608   1.976   4.682   5.347
 2237SOL     OW 7609   6.742   5.317   5.833
 2237SOL    HW1 7610   6.706   5.275   5.916
 2237SOL    HW2 7611   6.668   5.332   5.767
 2238SOL     OW 7612   5.725   4.287   2.023
 2238SOL    HW1 7613   5.661   4.347   1.976
 2238SOL    HW2 7614   5.761   4.334   2.104
 2239SOL     OW 7615   4.423   6.441   3.344
 2239SOL    HW1 7616   4.396   6.459   3.439
 2239SOL    HW2 7617   4.505   6.494   3.322
 2240SOL     OW 7618   5.059   4.771   3.127
 2240SOL    HW1 7619   4.960   4.782   3.118
 2240SOL    HW2 7620   5.103   4.861   3.127
 2241SOL     OW 7621   0.680   1.402   1.523
 2241SOL    HW1 7622   0.686   1.351   1.437
 2241SOL    HW2 7623   0.699   1.499   1.506
 2242SOL     OW 7624   4.965   2.848   3.158
 2242SOL    HW1 7625   4.923   2.809   3.240
 2242SOL    HW2 7626   5.039   2.788   3.127
 2243SOL     OW 7627   1.713   6.484   0.619
 2243SOL    HW1 7628   1.683   6.436   0.701
 2243SOL    HW2 7629   1.773   6.425   0.565
 2244SOL     OW 7630   2.669   0.920   0.442
 2244SOL    HW1 7631   2.573   0.939   0.459
 2244SOL    HW2 7632   2.707   0.992   0.383
 2245SOL     OW 7633   0.312   0.383   0.099
 2245SOL    HW1 7634   0.363   0.430   0.171
 2245SOL    HW2 7635   0.292   0.289   0.128
 2246SOL     OW 7636   2.750   0.903   4.943
 2246SOL    HW1 7637   2.822   0.957   4.900
 2246SOL    HW2 7638   2.748   0.811   4.903
 2247SOL     OW 7639   2.909   3.669   2.577
 2247SOL    HW1 7640   2.824   3.662   2.525
 2247SOL    HW2 7641   2.898   3.625   2.666
 2248SOL     OW 7642   4.911   4.091   5.257
 2248SOL    HW1 7643   4.841   4.159   5.279
 2248SOL    HW2 7644   4.871   3.999   5.260
 2249SOL     OW 7645   1.915   6.062   3.058
 2249SOL    HW1 7646   1.852   6.111   2.998
 2249SOL    HW2 7647   1.885   6.074   3.153
 2250SOL     OW 7648   4.519   5.499   6.036
 2250SOL    HW1 7649   4.536   5.525   6.131
 2250SOL    HW2 7650   4.548   5.573   5.976
 2251SOL     OW 7651   5.589   6.418   5.752
 2251SOL    HW1 7652   5.663   6.374   5.701
 2251SOL    HW2 7653   5.623   6.445   5.842
 2252SOL     OW 7654   4.421   1.621   2.826
 2252SOL    HW1 7655   4.485   1.593   2.896
 2252SOL    HW2 7656   4.384   1.541   2.779
 2253SOL     OW 7657   0.415   3.344   1.376
 2253SOL    HW1 7658   0.451   3.252   1.394
 2253SOL    HW2 7659   0.339   3.338   1.311
 2254SOL     OW 7660   3.720   3.470   2.630
 2254SOL    HW1 7661   3.800   3.434   2.583
 2254SOL    HW2 7662   3.638   3.447   2.577
 2255SOL     OW 7663   3.302   3.595   6.282
 2255SOL    HW1 7664   3.375   3.586   6.214
 2255SOL    HW2 7665   3.233   3.524   6.267
 2256SOL     OW 7666   4.350   0.193   2.029
 2256SOL    HW1 7667   4.288   0.118   2.053
 2256SOL    HW2 7668   4.425   0.157   1.974
 2257SOL     OW 7669   0.573   1.179   4.879
 2257SOL    HW1 7670   0.663   1.216   4.853
 2257SOL    HW2 7671   0.577   1.146   4.973
 2258SOL     OW 7672   2.577   5.791   3.743
 2258SOL    HW1 7673   2.519   5.831   3.673
 2258SOL    HW2 7674   2.606   5.863   3.807
 2259SOL     OW 7675   5.941   2.098   4.304
 2259SOL    HW1 7676   5.952   2.023   4.239
 2259SOL    HW2 7677   6.020   2.160   4.298
 2260SOL     OW 7678   0.940   3.966   1.387
 2260SOL    HW1 7679   1.011   3.940   1.322
 2260SOL    HW2 7680   0.904   4.057   1.364
 2261SOL     OW 7681   5.471   4.050   0.110
 2261SOL    HW1 7682   5.432   4.142   0.105
 2261SOL    HW2 7683   5.570   4.057   0.125
 2262SOL     OW 7684   6.607   0.528   4.599
 2262SOL    HW1 7685   6.616   0.504   4.503
 2262SOL    HW2 7686   6.697   0.528   4.642
 2263SOL     OW 7687   2.368   4.238   6.699
 2263SOL    HW1 7688   2.337   4.331   6.679
 2263SOL    HW2 7689   2.464   4.240   6.727
 2264SOL     OW 7690   2.478   0.048   5.606
 2264SOL    HW1 7691   2.424   0.124   5.570
 2264SOL    HW2 7692   2.567   0.046   5.562
 2265SOL     OW 7693   0.378   6.292   4.788
 2265SOL    HW1 7694   0.454   6.321   4.847
 2265SOL    HW2 7695   0.395   6.199   4.755
 2266SOL     OW 7696   4.367   2.049   6.609
 2266SOL    HW1 7697   4.449   2.038   6.554
 2266SOL    HW2 7698   4.367   1.982   6.683
 2267SOL     OW 7699   4.964   2.428   4.417
 2267SOL    HW1 7700   4.946   2.397   4.324
 2267SOL    HW2 7701   4.901   2.384   4.481
 2268SOL     OW 7702   0.731   5.732   4.916
 2268SOL    HW1 7703   0.748   5.673   4.995
 2268SOL    HW2 7704   0.636   5.761   4.915
 2269SOL     OW 7705   2.087   2.205   5.110
 2269SOL    HW1 7706   2.155   2.273   5.084
 2269SOL    HW2 7707   2.008   2.251   5.151
 2270SOL     OW 7708   4.831   2.015   5.917
 2270SOL    HW1 7709   4.751   1.969   5.879
 2270SOL    HW2 7710   4.903   1.948   5.935
 2271SOL     OW 7711   5.108   5.239   6.110
 2271SOL    HW1 7712   5.061   5.317   6.068
 2271SOL    HW2 7713   5.041   5.183   6.158
 2272SOL     OW 7714   5.575   1.069   5.826
 2272SOL    HW1 7715   5.641   1.105   5.892
 2272SOL    HW2 7716   5.608   0.981   5.791
 2273SOL     OW 7717   1.194   2.449   2.987
 2273SOL    HW1 7718   1.270   2.509   3.014
 2273SOL    HW2 7719   1.225   2.385   2.917
 2274SOL     OW 7720   0.218   1.757   6.355
 2274SOL    HW1 7721   0.304   1.756   6.303
 2274SOL    HW2 7722   0.230   1.706   6.440
 2275SOL     OW 7723   5.943   4.920   2.751
 2275SOL    HW1 7724   5.868   4.919   2.816
 2275SOL    HW2 7725   6.008   4.992   2.776
 2276SOL     OW 7726   1.216   2.679   1.012
 2276SOL    HW1 7727   1.126   2.657   1.051
 2276SOL    HW2 7728   1.214   2.659   0.913
 2277SOL     OW 7729   3.836   3.378   3.437
 2277SOL    HW1 7730   3.795   3.411   3.351
 2277SOL    HW2 7731   3.935   3.377   3.428
 2278SOL     OW 7732   0.258   2.298   3.991
 2278SOL    HW1 7733   0.312   2.326   3.911
 2278SOL    HW2 7734   0.260   2.198   3.999
 2279SOL     OW 7735   0.908   5.992   5.232
 2279SOL    HW1 7736   0.818   5.992   5.275
 2279SOL    HW2 7737   0.898   5.997   5.132
 2280SOL     OW 7738   4.841   1.472   5.030
 2280SOL    HW1 7739   4.902   1.548   5.011
 2280SOL    HW2 7740   4.849   1.404   4.957
 2281SOL     OW 7741   5.247   0.094   2.694
 2281SOL    HW1 7742   5.292   0.137   2.616
 2281SOL    HW2 7743   5.253   7.010   2.685
 2282SOL     OW 7744   4.191   6.100   5.396
 2282SOL    HW1 7745   4.184   6.186   5.447
 2282SOL    HW2 7746   4.276   6.053   5.420
 2283SOL     OW 7747   0.208   0.283   3.908
 2283SOL    HW1 7748   0.123   0.278   3.856
 2283SOL    HW2 7749   0.258   0.197   3.901
 2284SOL     OW 7750   1.638   3.159   6.600
 2284SOL    HW1 7751   1.609   3.084   6.540
 2284SOL    HW2 7752   1.560   3.191   6.654
 2285SOL     OW 7753   1.555   4.468   6.665
 2285SOL    HW1 7754   1.497   4.412   6.606
 2285SOL    HW2 7755   1.630   4.413   6.700
 2286SOL     OW 7756   4.506   5.710   4.041
 2286SOL    HW1 7757   4.524   5.753   3.952
 2286SOL    HW2 7758   4.408   5.719   4.063
 2287SOL     OW 7759   2.023   0.957   3.346
 2287SOL    HW1 7760   2.081   1.027   3.304
 2287SOL    HW2 7761   2.004   0.981   3.441
 2288SOL     OW 7762   0.032   6.575   3.159
 2288SOL    HW1 7763   0.065   6.667   3.136
 2288SOL    HW2 7764   0.078   6.508   3.100
 2289SOL     OW 7765   0.741   5.168   1.873
 2289SOL    HW1 7766   0.804   5.208   1.940
 2289SOL    HW2 7767   0.767   5.197   1.781
 2290SOL     OW 7768   0.369   6.041   0.784
 2290SOL    HW1 7769   0.428   6.057   0.863
 2290SOL    HW2 7770   0.419   5.988   0.715
 2291SOL     OW 7771   2.466   2.141   6.352
 2291SOL    HW1 7772   2.371   2.115   6.333
 2291SOL    HW2 7773   2.486   2.125   6.448
 2292SOL     OW 7774   1.260   1.250   4.734
 2292SOL    HW1 7775   1.316   1.332   4.716
 2292SOL    HW2 7776   1.315   1.183   4.784
 2293SOL     OW 7777   5.756   4.973   2.502
 2293SOL    HW1 7778   5.732   4.894   2.444
 2293SOL    HW2 7779   5.817   4.943   2.575
 2294SOL     OW 7780   3.945   6.718   6.417
 2294SOL    HW1 7781   3.891   6.673   6.487
 2294SOL    HW2 7782   3.999   6.650   6.368
 2295SOL     OW 7783   0.709   2.413   1.360
 2295SOL    HW1 7784   0.656   2.495   1.383
 2295SOL    HW2 7785   0.683   2.379   1.270
 2296SOL     OW 7786   3.360   6.340   6.963
 2296SOL    HW1 7787   3.321   6.256   6.926
 2296SOL    HW2 7788   3.387   6.400   6.887
 2297SOL     OW 7789   4.361   5.587   5.751
 2297SOL    HW1 7790   4.434   5.534   5.708
 2297SOL    HW2 7791   4.345   5.552   5.844
 2298SOL     OW 7792   4.088   3.137   0.285
 2298SOL    HW1 7793   4.038   3.151   0.200
 2298SOL    HW2 7794   4.120   3.043   0.290
 2299SOL     OW 7795   4.976   5.679   0.248
 2299SOL    HW1 7796   4.941   5.615   0.316
 2299SOL    HW2 7797   5.047   5.736   0.290
 2300SOL     OW 7798   1.788   4.998   1.365
 2300SOL    HW1 7799   1.784   5.075   1.301
 2300SOL    HW2 7800   1.883   4.973   1.380
 2301SOL     OW 7801   4.177   3.549   2.392
 2301SOL    HW1 7802   4.133   3.461   2.371
 2301SOL    HW2 7803   4.240   3.536   2.468
 2302SOL     OW 7804   3.313   5.626   2.900
 2302SOL    HW1 7805   3.356   5.540   2.926
 2302SOL    HW2 7806   3.383   5.691   2.871
 2303SOL     OW 7807   1.057   2.850   4.745
 2303SOL    HW1 7808   1.095   2.922   4.687
 2303SOL    HW2 7809   0.971   2.817   4.706
 2304SOL     OW 7810   2.278   0.870   4.164
 2304SOL    HW1 7811   2.257   0.773   4.170
 2304SOL    HW2 7812   2.342   0.885   4.089
 2305SOL     OW 7813   3.603   5.196   1.979
 2305SOL    HW1 7814   3.623   5.280   1.928
 2305SOL    HW2 7815   3.614   5.117   1.918
 2306SOL     OW 7816   1.092   3.868   0.612
 2306SOL    HW1 7817   1.164   3.806   0.642
 2306SOL    HW2 7818   1.011   3.856   0.670
 2307SOL     OW 7819   0.519   2.546   2.844
 2307SOL    HW1 7820   0.592   2.499   2.894
 2307SOL    HW2 7821   0.431   2.505   2.869
 2308SOL     OW 7822   0.085   0.064   0.498
 2308SOL    HW1 7823   0.088   0.148   0.551
 2308SOL    HW2 7824   0.078   0.086   0.400
 2309SOL     OW 7825   3.529   5.550   6.172
 2309SOL    HW1 7826   3.607   5.587   6.222
 2309SOL    HW2 7827   3.487   5.476   6.224
 2310SOL     OW 7828   5.728   0.635   1.953
 2310SOL    HW1 7829   5.774   0.685   1.880
 2310SOL    HW2 7830   5.757   0.671   2.042
 2311SOL     OW 7831   3.246   0.291   2.937
 2311SOL    HW1 7832   3.305   0.232   2.882
 2311SOL    HW2 7833   3.162   0.310   2.886
 2312SOL     OW 7834   3.813   1.022   2.798
 2312SOL    HW1 7835   3.898   1.064   2.767
 2312SOL    HW2 7836   3.749   1.093   2.828
 2313SOL     OW 7837   5.222   3.996   2.019
 2313SOL    HW1 7838   5.126   3.971   2.006
 2313SOL    HW2 7839   5.228   4.089   2.054
 2314SOL     OW 7840   6.315   0.331   2.860
 2314SOL    HW1 7841   6.270   0.249   2.824
 2314SOL    HW2 7842   6.409   0.335   2.826
 2315SOL     OW 7843   4.459   4.897   5.820
 2315SOL    HW1 7844   4.526   4.959   5.777
 2315SOL    HW2 7845   4.367   4.924   5.792
 2316SOL     OW 7846   3.043   1.315   5.956
 2316SOL    HW1 7847   2.966   1.342   5.898
 2316SOL    HW2 7848   3.043   1.371   6.039
 2317SOL     OW 7849   6.270   5.634   3.779
 2317SOL    HW1 7850   6.335   5.631   3.703
 2317SOL    HW2 7851   6.195   5.697   3.756
 2318SOL     OW 7852   1.839   4.665   4.946
 2318SOL    HW1 7853   1.831   4.622   4.856
 2318SOL    HW2 7854   1.855   4.595   5.015
 2319SOL     OW 7855   2.414   5.090   4.079
 2319SOL    HW1 7856   2.473   5.080   4.159
 2319SOL    HW2 7857   2.471   5.109   3.998
 2320SOL     OW 7858   1.431   3.380   5.003
 2320SOL    HW1 7859   1.484   3.464   5.014
 2320SOL    HW2 7860   1.367   3.390   4.926
 2321SOL     OW 7861   2.869   5.149   6.199
 2321SOL    HW1 7862   2.802   5.130   6.126
 2321SOL    HW2 7863   2.828   5.129   6.288
 2322SOL     OW 7864   1.225   3.652   2.099
 2322SOL    HW1 7865   1.308   3.656   2.155
 2322SOL    HW2 7866   1.224   3.566   2.048
 2323SOL     OW 7867   1.926   5.124   1.746
 2323SOL    HW1 7868   1.907   5.122   1.845
 2323SOL    HW2 7869   2.004   5.066   1.726
 2324SOL     OW 7870   0.147   5.710   1.638
 2324SOL    HW1 7871   0.064   5.706   1.583
 2324SOL    HW2 7872   0.155   5.626   1.692
 2325SOL     OW 7873   6.826   5.490   2.077
 2325SOL    HW1 7874   6.785   5.536   2.157
 2325SOL    HW2 7875   6.888   5.554   2.031
 2326SOL     OW 7876   1.076   0.747   6.637
 2326SOL    HW1 7877   1.095   0.779   6.544
 2326SOL    HW2 7878   1.157   0.763   6.694
 2327SOL     OW 7879   6.429   0.532   2.579
 2327SOL    HW1 7880   6.442   0.481   2.664
 2327SOL    HW2 7881   6.336   0.569   2.576
 2328SOL     OW 7882   1.668   2.376   2.345
 2328SOL    HW1 7883   1.626   2.467   2.348
 2328SOL    HW2 7884   1.767   2.385   2.350
 2329SOL     OW 7885   0.783   5.686   3.696
 2329SOL    HW1 7886   0.767   5.637   3.611
 2329SOL    HW2 7887   0.838   5.768   3.678
 2330SOL     OW 7888   6.616   2.960   6.998
 2330SOL    HW1 7889   6.641   3.051   0.016
 2330SOL    HW2 7890   6.695   2.900   7.001
 2331SOL     OW 7891   3.790   5.704   6.951
 2331SOL    HW1 7892   3.811   5.657   6.866
 2331SOL    HW2 7893   3.831   5.655   0.013
 2332SOL     OW 7894   5.252   6.674   6.484
 2332SOL    HW1 7895   5.237   6.621   6.400
 2332SOL    HW2 7896   5.195   6.636   6.557
 2333SOL     OW 7897   0.155   5.018   2.838
 2333SOL    HW1 7898   0.196   5.025   2.747
 2333SOL    HW2 7899   0.205   4.951   2.893
 2334SOL     OW 7900   2.568   0.778   5.719
 2334SOL    HW1 7901   2.559   0.739   5.810
 2334SOL    HW2 7902   2.613   0.712   5.658
 2335SOL     OW 7903   6.130   1.827   3.556
 2335SOL    HW1 7904   6.154   1.826   3.653
 2335SOL    HW2 7905   6.206   1.793   3.503
 2336SOL     OW 7906   2.191   1.674   2.609
 2336SOL    HW1 7907   2.215   1.577   2.613
 2336SOL    HW2 7908   2.130   1.690   2.531
 2337SOL     OW 7909   3.895   1.847   1.415
 2337SOL    HW1 7910   3.899   1.884   1.508
 2337SOL    HW2 7911   3.900   1.922   1.349
 2338SOL     OW 7912   0.576   4.108   4.166
 2338SOL    HW1 7913   0.478   4.103   4.145
 2338SOL    HW2 7914   0.591   4.081   4.261
 2339SOL     OW 7915   3.254   2.869   2.387
 2339SOL    HW1 7916   3.268   2.771   2.376
 2339SOL    HW2 7917   3.256   2.914   2.297
 2340SOL     OW 7918   1.015   4.854   6.493
 2340SOL    HW1 7919   0.988   4.940   6.451
 2340SOL    HW2 7920   1.102   4.823   6.454
 2341SOL     OW 7921   2.432   4.505   3.083
 2341SOL    HW1 7922   2.423   4.526   2.985
 2341SOL    HW2 7923   2.369   4.431   3.107
 2342SOL     OW 7924   3.257   6.527   4.136
 2342SOL    HW1 7925   3.241   6.447   4.078
 2342SOL    HW2 7926   3.180   6.590   4.129
 2343SOL     OW 7927   1.761   6.269   2.619
 2343SOL    HW1 7928   1.677   6.304   2.576
 2343SOL    HW2 7929   1.832   6.340   2.614
 2344SOL     OW 7930   6.298   4.462   0.890
 2344SOL    HW1 7931   6.268   4.526   0.960
 2344SOL    HW2 7932   6.323   4.511   0.807
 2345SOL     OW 7933   2.778   5.951   4.614
 2345SOL    HW1 7934   2.800   6.037   4.568
 2345SOL    HW2 7935   2.709   5.967   4.684
 2346SOL     OW 7936   3.989   3.823   6.111
 2346SOL    HW1 7937   3.963   3.829   6.207
 2346SOL    HW2 7938   4.015   3.914   6.077
 2347SOL     OW 7939   1.340   2.249   1.698
 2347SOL    HW1 7940   1.254   2.299   1.685
 2347SOL    HW2 7941   1.321   2.152   1.710
 2348SOL     OW 7942   1.236   5.270   3.150
 2348SOL    HW1 7943   1.326   5.308   3.169
 2348SOL    HW2 7944   1.168   5.316   3.207
 2349SOL     OW 7945   0.629   4.351   6.518
 2349SOL    HW1 7946   0.551   4.386   6.569
 2349SOL    HW2 7947   0.711   4.356   6.574
 2350SOL     OW 7948   6.393   4.660   6.124
 2350SOL    HW1 7949   6.464   4.724   6.154
 2350SOL    HW2 7950   6.355   4.691   6.037
 2351SOL     OW 7951   2.709   4.673   2.986
 2351SOL    HW1 7952   2.636   4.739   2.969
 2351SOL    HW2 7953   2.670   4.585   3.012
 2352SOL     OW 7954   0.184   3.095   3.278
 2352SOL    HW1 7955   0.094   3.056   3.297
 2352SOL    HW2 7956   0.235   3.102   3.364
 2353SOL     OW 7957   4.172   5.294   5.641
 2353SOL    HW1 7958   4.144   5.301   5.545
 2353SOL    HW2 7959   4.117   5.357   5.696
 2354SOL     OW 7960   2.542   1.729   4.405
 2354SOL    HW1 7961   2.560   1.643   4.451
 2354SOL    HW2 7962   2.592   1.732   4.318
 2355SOL     OW 7963   2.147   5.934   4.624
 2355SOL    HW1 7964   2.173   5.989   4.544
 2355SOL    HW2 7965   2.082   5.984   4.680
 2356SOL     OW 7966   0.494   3.055   6.824
 2356SOL    HW1 7967   0.581   3.095   6.853
 2356SOL    HW2 7968   0.419   3.113   6.854
 2357SOL     OW 7969   3.315   0.851   2.544
 2357SOL    HW1 7970   3.287   0.942   2.574
 2357SOL    HW2 7971   3.411   0.837   2.568
 2358SOL     OW 7972   3.504   4.885   6.185
 2358SOL    HW1 7973   3.433   4.891   6.114
 2358SOL    HW2 7974   3.594   4.877   6.141
 2359SOL     OW 7975   1.243   0.304   5.443
 2359SOL    HW1 7976   1.198   0.385   5.404
 2359SOL    HW2 7977   1.217   0.294   5.539
 2360SOL     OW 7978   6.242   3.347   0.750
 2360SOL    HW1 7979   6.234   3.257   0.794
 2360SOL    HW2 7980   6.279   3.413   0.816
 2361SOL     OW 7981   3.200   1.550   5.860
 2361SOL    HW1 7982   3.145   1.633   5.849
 2361SOL    HW2 7983   3.144   1.476   5.895
 2362SOL     OW 7984   3.412   4.920   3.634
 2362SOL    HW1 7985   3.501   4.879   3.617
 2362SOL    HW2 7986   3.360   4.922   3.549
 2363SOL     OW 7987   3.837   1.637   3.601
 2363SOL    HW1 7988   3.748   1.663   3.639
 2363SOL    HW2 7989   3.897   1.717   3.599
 2364SOL     OW 7990   1.106   2.388   1.697
 2364SOL    HW1 7991   1.140   2.478   1.672
 2364SOL    HW2 7992   1.049   2.396   1.779
 2365SOL     OW 7993   6.059   2.343   0.258
 2365SOL    HW1 7994   6.146   2.362   0.213
 2365SOL    HW2 7995   6.005   2.426   0.263
 2366SOL     OW 7996   3.787   5.340   0.876
 2366SOL    HW1 7997   3.752   5.434   0.887
 2366SOL    HW2 7998   3.823   5.308   0.963
 2367SOL     OW 7999   2.113   3.209   6.627
 2367SOL    HW1 8000   2.132   3.210   6.725
 2367SOL    HW2 8001   2.018   3.183   6.612
 2368SOL     OW 8002   6.102   6.832   3.744
 2368SOL    HW1 8003   6.005   6.821   3.763
 2368SOL    HW2 8004   6.121   6.928   3.720
 2369SOL     OW 8005   1.963   0.148   3.891
 2369SOL    HW1 8006   1.962   0.191   3.981
 2369SOL    HW2 8007   1.927   0.212   3.823
 2370SOL     OW 8008   5.710   2.808   6.653
 2370SOL    HW1 8009   5.798   2.762   6.639
 2370SOL    HW2 8010   5.713   2.898   6.609
 2371SOL     OW 8011   2.320   0.002   1.471
 2371SOL    HW1 8012   2.359   6.926   1.489
 2371SOL    HW2 8013   2.233   7.007   1.425
 2372SOL     OW 8014   0.041   2.737   2.318
 2372SOL    HW1 8015   0.035   2.741   2.417
 2372SOL    HW2 8016   7.010   2.654   2.286
 2373SOL     OW 8017   2.038   3.423   5.799
 2373SOL    HW1 8018   2.125   3.462   5.770
 2373SOL    HW2 8019   1.985   3.398   5.718
 2374SOL     OW 8020   6.298   1.756   4.621
 2374SOL    HW1 8021   6.202   1.781   4.604
 2374SOL    HW2 8022   6.358   1.825   4.581
 2375SOL     OW 8023   3.520   5.759   5.335
 2375SOL    HW1 8024   3.606   5.725   5.298
 2375SOL    HW2 8025   3.512   5.733   5.431
 2376SOL     OW 8026   6.111   3.206   3.554
 2376SOL    HW1 8027   6.173   3.196   3.632
 2376SOL    HW2 8028   6.028   3.254   3.584
 2377SOL     OW 8029   2.984   3.197   3.869
 2377SOL    HW1 8030   2.986   3.151   3.958
 2377SOL    HW2 8031   3.017   3.135   3.798
 2378SOL     OW 8032   5.152   2.394   0.181
 2378SOL    HW1 8033   5.192   2.464   0.122
 2378SOL    HW2 8034   5.053   2.390   0.167
 2379SOL     OW 8035   6.246   0.540   1.012
 2379SOL    HW1 8036   6.337   0.583   1.014
 2379SOL    HW2 8037   6.243   0.467   1.080
 2380SOL     OW 8038   6.087   2.667   1.090
 2380SOL    HW1 8039   6.064   2.570   1.082
 2380SOL    HW2 8040   6.173   2.685   1.043
 2381SOL     OW 8041   1.678   5.840   3.000
 2381SOL    HW1 8042   1.598   5.896   2.979
 2381SOL    HW2 8043   1.729   5.820   2.916
 2382SOL     OW 8044   2.106   3.147   4.567
 2382SOL    HW1 8045   2.152   3.094   4.496
 2382SOL    HW2 8046   2.044   3.088   4.618
 2383SOL     OW 8047   6.591   6.178   1.468
 2383SOL    HW1 8048   6.565   6.118   1.544
 2383SOL    HW2 8049   6.614   6.122   1.388
 2384SOL     OW 8050   4.832   2.145   1.980
 2384SOL    HW1 8051   4.756   2.104   2.031
 2384SOL    HW2 8052   4.800   2.171   1.889
 2385SOL     OW 8053   0.061   1.018   6.929
 2385SOL    HW1 8054   0.006   1.028   7.012
 2385SOL    HW2 8055   0.093   1.108   6.900
 2386SOL     OW 8056   5.190   5.829   5.308
 2386SOL    HW1 8057   5.117   5.886   5.271
 2386SOL    HW2 8058   5.216   5.862   5.399
 2387SOL     OW 8059   2.024   0.992   4.227
 2387SOL    HW1 8060   2.110   0.947   4.205
 2387SOL    HW2 8061   1.957   0.922   4.254
 2388SOL     OW 8062   6.591   2.672   3.314
 2388SOL    HW1 8063   6.505   2.673   3.364
 2388SOL    HW2 8064   6.573   2.675   3.216
 2389SOL     OW 8065   4.478   4.598   3.251
 2389SOL    HW1 8066   4.532   4.678   3.277
 2389SOL    HW2 8067   4.381   4.622   3.252
 2390SOL     OW 8068   3.951   3.814   2.885
 2390SOL    HW1 8069   3.854   3.790   2.882
 2390SOL    HW2 8070   3.961   3.913   2.876
 2391SOL     OW 8071   4.688   4.942   6.271
 2391SOL    HW1 8072   4.676   4.843   6.283
 2391SOL    HW2 8073   4.631   4.972   6.195
 2392SOL     OW 8074   2.756   0.469   6.780
 2392SOL    HW1 8075   2.830   0.458   6.846
 2392SOL    HW2 8076   2.669   0.450   6.825
 2393SOL     OW 8077   4.314   4.693   6.060
 2393SOL    HW1 8078   4.330   4.608   6.010
 2393SOL    HW2 8079   4.401   4.739   6.075
 2394SOL     OW 8080   0.147   4.321   4.840
 2394SOL    HW1 8081   0.190   4.348   4.753
 2394SOL    HW2 8082   0.161   4.223   4.855
 2395SOL     OW 8083   4.171   6.688   5.865
 2395SOL    HW1 8084   4.244   6.674   5.932
 2395SOL    HW2 8085   4.210   6.692   5.773
 2396SOL     OW 8086   3.995   4.652   0.779
 2396SOL    HW1 8087   4.046   4.732   0.812
 2396SOL    HW2 8088   3.994   4.582   0.851
 2397SOL     OW 8089   0.625   4.629   4.620
 2397SOL    HW1 8090   0.601   4.539   4.656
 2397SOL    HW2 8091   0.701   4.620   4.556
 2398SOL     OW 8092   4.995   4.378   6.172
 2398SOL    HW1 8093   4.966   4.430   6.092
 2398SOL    HW2 8094   5.091   4.398   6.192
 2399SOL     OW 8095   4.250   1.722   1.806
 2399SOL    HW1 8096   4.324   1.667   1.846
 2399SOL    HW2 8097   4.246   1.811   1.851
 2400SOL     OW 8098   2.402   4.662   1.101
 2400SOL    HW1 8099   2.346   4.580   1.114
 2400SOL    HW2 8100   2.499   4.639   1.114
 2401SOL     OW 8101   6.606   6.081   6.129
 2401SOL    HW1 8102   6.648   5.990   6.136
 2401SOL    HW2 8103   6.604   6.124   6.219
 2402SOL     OW 8104   0.712   6.811   4.431
 2402SOL    HW1 8105   0.762   6.751   4.369
 2402SOL    HW2 8106   0.619   6.776   4.443
 2403SOL     OW 8107   0.467   2.569   5.087
 2403SOL    HW1 8108   0.443   2.619   5.003
 2403SOL    HW2 8109   0.540   2.504   5.067
 2404SOL     OW 8110   1.753   0.562   0.843
 2404SOL    HW1 8111   1.786   0.556   0.938
 2404SOL    HW2 8112   1.814   0.510   0.783
 2405SOL     OW 8113   3.354   4.143   2.396
 2405SOL    HW1 8114   3.274   4.086   2.412
 2405SOL    HW2 8115   3.358   4.215   2.465
 2406SOL     OW 8116   4.101   2.049   0.585
 2406SOL    HW1 8117   4.097   1.961   0.632
 2406SOL    HW2 8118   4.184   2.097   0.612
 2407SOL     OW 8119   5.623   0.996   3.523
 2407SOL    HW1 8120   5.649   0.910   3.568
 2407SOL    HW2 8121   5.685   1.069   3.552
 2408SOL     OW 8122   4.563   4.531   1.877
 2408SOL    HW1 8123   4.632   4.530   1.804
 2408SOL    HW2 8124   4.554   4.439   1.915
 2409SOL     OW 8125   2.137   3.647   0.714
 2409SOL    HW1 8126   2.195   3.647   0.796
 2409SOL    HW2 8127   2.090   3.560   0.706
 2410SOL     OW 8128   3.232   3.301   3.582
 2410SOL    HW1 8129   3.277   3.386   3.607
 2410SOL    HW2 8130   3.230   3.292   3.482
 2411SOL     OW 8131   5.437   6.882   4.916
 2411SOL    HW1 8132   5.406   6.970   4.879
 2411SOL    HW2 8133   5.359   6.831   4.951
 2412SOL     OW 8134   5.134   3.663   1.193
 2412SOL    HW1 8135   5.147   3.739   1.257
 2412SOL    HW2 8136   5.220   3.643   1.147
 2413SOL     OW 8137   5.159   0.734   2.070
 2413SOL    HW1 8138   5.060   0.720   2.066
 2413SOL    HW2 8139   5.184   0.766   2.161
 2414SOL     OW 8140   4.930   3.012   4.069
 2414SOL    HW1 8141   4.872   2.930   4.074
 2414SOL    HW2 8142   4.948   3.033   3.973
 2415SOL     OW 8143   4.662   0.954   3.056
 2415SOL    HW1 8144   4.694   0.902   2.977
 2415SOL    HW2 8145   4.740   0.980   3.113
 2416SOL     OW 8146   5.163   1.614   6.032
 2416SOL    HW1 8147   5.134   1.554   6.107
 2416SOL    HW2 8148   5.261   1.633   6.040
 2417SOL     OW 8149   3.056   3.217   4.755
 2417SOL    HW1 8150   3.144   3.264   4.770
 2417SOL    HW2 8151   3.072   3.130   4.708
 2418SOL     OW 8152   3.570   2.968   3.337
 2418SOL    HW1 8153   3.668   2.968   3.355
 2418SOL    HW2 8154   3.553   2.921   3.250
 2419SOL     OW 8155   0.286   0.015   2.947
 2419SOL    HW1 8156   0.234   0.098   2.925
 2419SOL    HW2 8157   0.355   7.015   2.877
 2420SOL     OW 8158   2.416   0.026   1.958
 2420SOL    HW1 8159   2.494   0.083   1.985
 2420SOL    HW2 8160   2.352   0.080   1.903
 2421SOL     OW 8161   2.187   2.132   4.794
 2421SOL    HW1 8162   2.208   2.074   4.716
 2421SOL    HW2 8163   2.183   2.076   4.877
 2422SOL     OW 8164   5.051   1.496   1.209
 2422SOL    HW1 8165   5.146   1.490   1.177
 2422SOL    HW2 8166   4.990   1.458   1.140
 2423SOL     OW 8167   2.620   5.810   2.487
 2423SOL    HW1 8168   2.565   5.746   2.433
 2423SOL    HW2 8169   2.713   5.815   2.449
 2424SOL     OW 8170   6.210   1.130   0.494
 2424SOL    HW1 8171   6.309   1.128   0.511
 2424SOL    HW2 8172   6.182   1.224   0.474
 2425SOL     OW 8173   6.890   6.846   3.903
 2425SOL    HW1 8174   6.886   6.777   3.831
 2425SOL    HW2 8175   6.833   6.818   3.980
 2426SOL     OW 8176   2.684   4.634   4.507
 2426SOL    HW1 8177   2.668   4.665   4.601
 2426SOL    HW2 8178   2.626   4.554   4.488
 2427SOL     OW 8179   6.524   6.920   5.972
 2427SOL    HW1 8180   6.601   6.868   5.935
 2427SOL    HW2 8181   6.555   6.974   6.051
 2428SOL     OW 8182   0.555   0.691   0.865
 2428SOL    HW1 8183   0.649   0.721   0.849
 2428SOL    HW2 8184   0.493   0.740   0.803
 2429SOL     OW 8185   5.156   6.119   2.237
 2429SOL    HW1 8186   5.199   6.032   2.211
 2429SOL    HW2 8187   5.060   6.118   2.208
 2430SOL     OW 8188   6.116   0.942   2.868
 2430SOL    HW1 8189   6.197   0.884   2.852
 2430SOL    HW2 8190   6.060   0.901   2.940
 2431SOL     OW 8191   3.859   0.815   2.051
 2431SOL    HW1 8192   3.918   0.843   1.975
 2431SOL    HW2 8193   3.799   0.892   2.075
 2432SOL     OW 8194   3.418   6.389   2.005
 2432SOL    HW1 8195   3.365   6.460   1.959
 2432SOL    HW2 8196   3.416   6.305   1.951
 2433SOL     OW 8197   4.088   0.065   0.462
 2433SOL    HW1 8198   4.165   0.083   0.401
 2433SOL    HW2 8199   4.047   0.152   0.490
 2434SOL     OW 8200   4.131   2.270   5.885
 2434SOL    HW1 8201   4.099   2.184   5.846
 2434SOL    HW2 8202   4.231   2.274   5.881
 2435SOL     OW 8203   5.716   5.625   4.982
 2435SOL    HW1 8204   5.713   5.649   4.885
 2435SOL    HW2 8205   5.809   5.596   5.005
 2436SOL     OW 8206   2.606   5.361   0.335
 2436SOL    HW1 8207   2.575   5.325   0.247
 2436SOL    HW2 8208   2.662   5.443   0.320
 2437SOL     OW 8209   6.719   0.233   6.038
 2437SOL    HW1 8210   6.780   0.161   6.005
 2437SOL    HW2 8211   6.709   0.303   5.967
 2438SOL     OW 8212   2.680   2.705   1.191
 2438SOL    HW1 8213   2.756   2.693   1.255
 2438SOL    HW2 8214   2.595   2.673   1.234
 2439SOL     OW 8215   5.968   4.460   5.394
 2439SOL    HW1 8216   5.928   4.388   5.450
 2439SOL    HW2 8217   5.898   4.528   5.371
 2440SOL     OW 8218   5.894   5.086   6.222
 2440SOL    HW1 8219   5.985   5.048   6.238
 2440SOL    HW2 8220   5.893   5.182   6.251
 2441SOL     OW 8221   5.840   2.570   1.248
 2441SOL    HW1 8222   5.864   2.478   1.218
 2441SOL    HW2 8223   5.924   2.621   1.267
 2442SOL     OW 8224   6.842   3.810   4.405
 2442SOL    HW1 8225   6.743   3.809   4.396
 2442SOL    HW2 8226   6.867   3.824   4.501
 2443SOL     OW 8227   3.247   4.855   5.793
 2443SOL    HW1 8228   3.175   4.916   5.759
 2443SOL    HW2 8229   3.250   4.772   5.736
 2444SOL     OW 8230   2.800   3.639   5.728
 2444SOL    HW1 8231   2.717   3.686   5.761
 2444SOL    HW2 8232   2.850   3.700   5.667
 2445SOL     OW 8233   0.706   0.470   0.959
 2445SOL    HW1 8234   0.688   0.381   1.001
 2445SOL    HW2 8235   0.626   0.529   0.970
 2446SOL     OW 8236   6.166   3.841   6.114
 2446SOL    HW1 8237   6.171   3.875   6.020
 2446SOL    HW2 8238   6.255   3.803   6.140
 2447SOL     OW 8239   0.608   2.221   6.915
 2447SOL    HW1 8240   0.706   2.237   6.898
 2447SOL    HW2 8241   0.558   2.229   6.829
 2448SOL     OW 8242   1.011   6.990   4.613
 2448SOL    HW1 8243   1.011   6.904   4.562
 2448SOL    HW2 8244   0.975   0.048   4.554
 2449SOL     OW 8245   0.235   2.661   4.811
 2449SOL    HW1 8246   0.233   2.621   4.719
 2449SOL    HW2 8247   0.145   2.651   4.853
 2450SOL     OW 8248   2.147   3.322   2.674
 2450SOL    HW1 8249   2.172   3.229   2.700
 2450SOL    HW2 8250   2.092   3.363   2.747
 2451SOL     OW 8251   2.745   6.497   3.964
 2451SOL    HW1 8252   2.735   6.586   3.919
 2451SOL    HW2 8253   2.810   6.441   3.913
 2452SOL     OW 8254   1.222   2.357   4.446
 2452SOL    HW1 8255   1.297   2.351   4.380
 2452SOL    HW2 8256   1.194   2.266   4.475
 2453SOL     OW 8257   6.947   3.655   1.201
 2453SOL    HW1 8258   0.007   3.708   1.240
 2453SOL    HW2 8259   6.880   3.635   1.273
 2454SOL     OW 8260   2.142   0.621   2.328
 2454SOL    HW1 8261   2.236   0.622   2.361
 2454SOL    HW2 8262   2.136   0.670   2.241
 2455SOL     OW 8263   5.245   4.457   0.525
 2455SOL    HW1 8264   5.165   4.431   0.471
 2455SOL    HW2 8265   5.303   4.377   0.540
 2456SOL     OW 8266   3.250   6.212   1.223
 2456SOL    HW1 8267   3.332   6.170   1.262
 2456SOL    HW2 8268   3.179   6.143   1.212
 2457SOL     OW 8269   5.754   6.543   1.189
 2457SOL    HW1 8270   5.805   6.603   1.127
 2457SOL    HW2 8271   5.673   6.508   1.142
 2458SOL     OW 8272   0.545   5.836   3.596
 2458SOL    HW1 8273   0.466   5.854   3.654
 2458SOL    HW2 8274   0.612   5.781   3.646
 2459SOL     OW 8275   1.334   0.722   0.646
 2459SOL    HW1 8276   1.255   0.763   0.691
 2459SOL    HW2 8277   1.379   0.659   0.709
 2460SOL     OW 8278   3.363   5.092   1.295
 2460SOL    HW1 8279   3.436   5.151   1.260
 2460SOL    HW2 8280   3.401   5.003   1.320
 2461SOL     OW 8281   5.032   0.858   3.192
 2461SOL    HW1 8282   5.108   0.842   3.129
 2461SOL    HW2 8283   5.037   0.793   3.267
 2462SOL     OW 8284   2.768   4.632   6.233
 2462SOL    HW1 8285   2.802   4.648   6.325
 2462SOL    HW2 8286   2.669   4.642   6.231
 2463SOL     OW 8287   0.158   1.685   4.467
 2463SOL    HW1 8288   0.114   1.642   4.545
 2463SOL    HW2 8289   0.219   1.619   4.422
 2464SOL     OW 8290   1.049   3.524   1.221
 2464SOL    HW1 8291   1.110   3.464   1.272
 2464SOL    HW2 8292   1.013   3.595   1.281
 2465SOL     OW 8293   6.030   5.024   3.146
 2465SOL    HW1 8294   5.936   5.059   3.155
 2465SOL    HW2 8295   6.060   4.989   3.235
 2466SOL     OW 8296   3.472   1.599   1.990
 2466SOL    HW1 8297   3.430   1.658   1.920
 2466SOL    HW2 8298   3.514   1.520   1.945
 2467SOL     OW 8299   6.569   1.485   5.623
 2467SOL    HW1 8300   6.488   1.493   5.680
 2467SOL    HW2 8301   6.623   1.569   5.629
 2468SOL     OW 8302   0.126   3.874   0.237
 2468SOL    HW1 8303   0.077   3.790   0.259
 2468SOL    HW2 8304   0.111   3.941   0.310
 2469SOL     OW 8305   3.240   3.449   5.430
 2469SOL    HW1 8306   3.281   3.521   5.487
 2469SOL    HW2 8307   3.260   3.467   5.334
 2470SOL     OW 8308   5.396   2.733   0.163
 2470SOL    HW1 8309   5.431   2.768   0.076
 2470SOL    HW2 8310   5.297   2.749   0.167
 2471SOL     OW 8311   0.262   0.282   3.497
 2471SOL    HW1 8312   0.266   0.351   3.425
 2471SOL    HW2 8313   0.256   0.191   3.455
 2472SOL     OW 8314   5.310   1.364   3.338
 2472SOL    HW1 8315   5.255   1.448   3.334
 2472SOL    HW2 8316   5.346   1.352   3.430
 2473SOL     OW 8317   0.451   0.019   5.421
 2473SOL    HW1 8318   0.504   6.951   5.437
 2473SOL    HW2 8319   0.484   0.091   5.482
 2474SOL     OW 8320   6.092   6.098   4.781
 2474SOL    HW1 8321   6.045   6.010   4.778
 2474SOL    HW2 8322   6.159   6.103   4.707
 2475SOL     OW 8323   4.668   2.214   6.305
 2475SOL    HW1 8324   4.657   2.189   6.209
 2475SOL    HW2 8325   4.643   2.310   6.318
 2476SOL     OW 8326   0.855   1.675   3.799
 2476SOL    HW1 8327   0.920   1.650   3.871
 2476SOL    HW2 8328   0.784   1.734   3.838
 2477SOL     OW 8329   4.569   5.014   2.647
 2477SOL    HW1 8330   4.517   4.951   2.705
 2477SOL    HW2 8331   4.506   5.066   2.590
 2478SOL     OW 8332   6.481   6.809   3.459
 2478SOL    HW1 8333   6.470   6.715   3.426
 2478SOL    HW2 8334   6.530   6.808   3.546
 2479SOL     OW 8335   0.643   2.698   6.989
 2479SOL    HW1 8336   0.607   2.730   6.902
 2479SOL    HW2 8337   0.641   2.773   0.040
 2480SOL     OW 8338   0.869   4.605   1.969
 2480SOL    HW1 8339   0.866   4.700   1.938
 2480SOL    HW2 8340   0.884   4.602   2.068
 2481SOL     OW 8341   3.905   5.103   2.545
 2481SOL    HW1 8342   3.830   5.159   2.509
 2481SOL    HW2 8343   3.950   5.152   2.620
 2482SOL     OW 8344   4.532   2.447   3.867
 2482SOL    HW1 8345   4.575   2.533   3.895
 2482SOL    HW2 8346   4.548   2.378   3.937
 2483SOL     OW 8347   0.763   2.820   6.645
 2483SOL    HW1 8348   0.684   2.791   6.699
 2483SOL    HW2 8349   0.770   2.920   6.648
 2484SOL     OW 8350   3.863   3.176   6.282
 2484SOL    HW1 8351   3.815   3.089   6.268
 2484SOL    HW2 8352   3.797   3.250   6.292
 2485SOL     OW 8353   1.163   5.896   1.137
 2485SOL    HW1 8354   1.083   5.930   1.187
 2485SOL    HW2 8355   1.217   5.837   1.197
 2486SOL     OW 8356   0.541   5.351   3.125
 2486SOL    HW1 8357   0.558   5.301   3.040
 2486SOL    HW2 8358   0.504   5.288   3.193
 2487SOL     OW 8359   3.119   1.114   1.149
 2487SOL    HW1 8360   3.157   1.076   1.065
 2487SOL    HW2 8361   3.190   1.116   1.220
 2488SOL     OW 8362   3.260   6.471   6.489
 2488SOL    HW1 8363   3.341   6.469   6.431
 2488SOL    HW2 8364   3.224   6.378   6.499
 2489SOL     OW 8365   6.629   6.078   4.722
 2489SOL    HW1 8366   6.575   6.155   4.756
 2489SOL    HW2 8367   6.589   6.044   4.637
 2490SOL     OW 8368   5.306   3.452   1.735
 2490SOL    HW1 8369   5.247   3.516   1.785
 2490SOL    HW2 8370   5.345   3.499   1.655
 2491SOL     OW 8371   0.045   4.304   2.937
 2491SOL    HW1 8372   0.049   4.358   3.021
 2491SOL    HW2 8373   7.004   4.223   2.952
 2492SOL     OW 8374   4.359   1.956   5.752
 2492SOL    HW1 8375   4.303   1.912   5.823
 2492SOL    HW2 8376   4.371   2.053   5.774
 2493SOL     OW 8377   6.646   1.112   4.508
 2493SOL    HW1 8378   6.582   1.118   4.431
 2493SOL    HW2 8379   6.640   1.020   4.548
 2494SOL     OW 8380   4.138   4.519   1.309
 2494SOL    HW1 8381   4.134   4.618   1.322
 2494SOL    HW2 8382   4.214   4.497   1.248
 2495SOL     OW 8383   6.424   0.820   3.651
 2495SOL    HW1 8384   6.396   0.724   3.656
 2495SOL    HW2 8385   6.524   0.825   3.640
 2496SOL     OW 8386   1.844   5.814   6.575
 2496SOL    HW1 8387   1.852   5.841   6.479
 2496SOL    HW2 8388   1.830   5.895   6.632
 2497SOL     OW 8389   5.622   0.839   0.007
 2497SOL    HW1 8390   5.522   0.839   7.014
 2497SOL    HW2 8391   5.649   0.787   0.088
 2498SOL     OW 8392   0.639   3.000   4.771
 2498SOL    HW1 8393   0.691   2.948   4.703
 2498SOL    HW2 8394   0.702   3.044   4.835
 2499SOL     OW 8395   5.021   0.383   6.767
 2499SOL    HW1 8396   5.083   0.422   6.698
 2499SOL    HW2 8397   5.074   0.337   6.838
 2500SOL     OW 8398   4.584   3.515   6.417
 2500SOL    HW1 8399   4.581   3.463   6.502
 2500SOL    HW2 8400   4.491   3.542   6.391
 2501SOL     OW 8401   6.321   5.075   1.067
 2501SOL    HW1 8402   6.321   5.092   1.166
 2501SOL    HW2 8403   6.356   4.982   1.050
 2502SOL     OW 8404   1.415   6.526   3.106
 2502SOL    HW1 8405   1.392   6.624   3.105
 2502SOL    HW2 8406   1.512   6.515   3.086
 2503SOL     OW 8407   5.043   6.938   4.553
 2503SOL    HW1 8408   4.984   6.871   4.506
 2503SOL    HW2 8409   4.997   0.011   4.555
 2504SOL     OW 8410   1.887   4.241   2.874
 2504SOL    HW1 8411   1.868   4.287   2.961
 2504SOL    HW2 8412   1.950   4.165   2.889
 2505SOL     OW 8413   5.126   4.431   4.567
 2505SOL    HW1 8414   5.050   4.429   4.632
 2505SOL    HW2 8415   5.090   4.445   4.475
 2506SOL     OW 8416   0.618   1.972   0.840
 2506SOL    HW1 8417   0.671   1.888   0.826
 2506SOL    HW2 8418   0.622   1.999   0.936
 2507SOL     OW 8419   6.647   6.201   0.867
 2507SOL    HW1 8420   6.683   6.251   0.946
 2507SOL    HW2 8421   6.547   6.200   0.871
 2508SOL     OW 8422   2.391   2.235   1.999
 2508SOL    HW1 8423   2.439   2.229   1.912
 2508SOL    HW2 8424   2.434   2.175   2.066
 2509SOL     OW 8425   5.201   0.950   3.575
 2509SOL    HW1 8426   5.108   0.921   3.596
 2509SOL    HW2 8427   5.205   1.050   3.576
 2510SOL     OW 8428   3.864   5.948   2.032
 2510SOL    HW1 8429   3.786   5.890   2.058
 2510SOL    HW2 8430   3.838   6.044   2.039
 2511SOL     OW 8431   0.688   6.656   3.692
 2511SOL    HW1 8432   0.650   6.717   3.761
 2511SOL    HW2 8433   0.763   6.703   3.644
 2512SOL     OW 8434   5.312   2.925   4.316
 2512SOL    HW1 8435   5.259   2.858   4.368
 2512SOL    HW2 8436   5.410   2.904   4.324
 2513SOL     OW 8437   0.101   4.953   1.343
 2513SOL    HW1 8438   0.073   4.937   1.249
 2513SOL    HW2 8439   0.116   5.051   1.358
 2514SOL     OW 8440   0.424   2.537   3.281
 2514SOL    HW1 8441   0.408   2.463   3.216
 2514SOL    HW2 8442   0.343   2.595   3.286
 2515SOL     OW 8443   0.793   4.821   0.149
 2515SOL    HW1 8444   0.858   4.808   0.224
 2515SOL    HW2 8445   0.832   4.883   0.081
 2516SOL     OW 8446   5.159   6.297   4.271
 2516SOL    HW1 8447   5.258   6.299   4.262
 2516SOL    HW2 8448   5.118   6.281   4.180
 2517SOL     OW 8449   2.552   5.274   0.838
 2517SOL    HW1 8450   2.518   5.212   0.766
 2517SOL    HW2 8451   2.481   5.339   0.862
 2518SOL     OW 8452   2.157   2.970   6.467
 2518SOL    HW1 8453   2.066   3.010   6.480
 2518SOL    HW2 8454   2.227   3.038   6.486
 2519SOL     OW 8455   5.317   3.892   5.183
 2519SOL    HW1 8456   5.254   3.951   5.233
 2519SOL    HW2 8457   5.381   3.849   5.247
 2520SOL     OW 8458   3.114   5.479   1.540
 2520SOL    HW1 8459   3.112   5.540   1.620
 2520SOL    HW2 8460   3.207   5.448   1.524
 2521SOL     OW 8461   5.841   6.843   6.089
 2521SOL    HW1 8462   5.769   6.787   6.048
 2521SOL    HW2 8463   5.917   6.784   6.117
 2522SOL     OW 8464   2.052   4.450   4.385
 2522SOL    HW1 8465   2.092   4.534   4.421
 2522SOL    HW2 8466   2.090   4.371   4.434
 2523SOL     OW 8467   0.478   2.785   5.518
 2523SOL    HW1 8468   0.382   2.801   5.541
 2523SOL    HW2 8469   0.531   2.779   5.603
 2524SOL     OW 8470   1.158   6.976   5.197
 2524SOL    HW1 8471   1.131   0.054   5.174
 2524SOL    HW2 8472   1.258   6.969   5.197
 2525SOL     OW 8473   1.830   3.955   2.832
 2525SOL    HW1 8474   1.801   4.005   2.751
 2525SOL    HW2 8475   1.916   3.906   2.812
 2526SOL     OW 8476   0.644   2.394   5.026
 2526SOL    HW1 8477   0.671   2.395   4.930
 2526SOL    HW2 8478   0.652   2.301   5.062
 2527SOL     OW 8479   6.480   6.790   3.766
 2527SOL    HW1 8480   6.423   6.864   3.802
 2527SOL    HW2 8481   6.430   6.704   3.772
 2528SOL     OW 8482   5.803   5.121   0.575
 2528SOL    HW1 8483   5.820   5.026   0.601
 2528SOL    HW2 8484   5.810   5.179   0.656
 2529SOL     OW 8485   5.462   3.851   4.885
 2529SOL    HW1 8486   5.482   3.948   4.871
 2529SOL    HW2 8487   5.413   3.839   4.971
 2530SOL     OW 8488   1.324   6.494   3.681
 2530SOL    HW1 8489   1.383   6.454   3.751
 2530SOL    HW2 8490   1.297   6.586   3.708
 2531SOL     OW 8491   5.148   1.252   0.266
 2531SOL    HW1 8492   5.248   1.243   0.260
 2531SOL    HW2 8493   5.107   1.234   0.177
 2532SOL     OW 8494   0.944   4.430   6.153
 2532SOL    HW1 8495   0.981   4.337   6.150
 2532SOL    HW2 8496   0.944   4.469   6.061
 2533SOL     OW 8497   5.906   6.695   5.485
 2533SOL    HW1 8498   5.814   6.662   5.463
 2533SOL    HW2 8499   5.902   6.790   5.514
 2534SOL     OW 8500   6.934   1.698   2.735
 2534SOL    HW1 8501   6.912   1.635   2.809
 2534SOL    HW2 8502   6.873   1.778   2.741
 2535SOL     OW 8503   2.013   1.410   3.010
 2535SOL    HW1 8504   1.923   1.399   2.968
 2535SOL    HW2 8505   2.081   1.359   2.958
 2536SOL     OW 8506   0.382   0.523   3.868
 2536SOL    HW1 8507   0.332   0.440   3.844
 2536SOL    HW2 8508   0.475   0.499   3.896
 2537SOL     OW 8509   3.689   5.759   2.104
 2537SOL    HW1 8510   3.691   5.697   2.183
 2537SOL    HW2 8511   3.597   5.797   2.094
 2538SOL     OW 8512   1.376   4.385   4.592
 2538SOL    HW1 8513   1.380   4.454   4.664
 2538SOL    HW2 8514   1.457   4.392   4.534
 2539SOL     OW 8515   2.639   1.029   5.631
 2539SOL    HW1 8516   2.616   0.936   5.661
 2539SOL    HW2 8517   2.658   1.028   5.533
 2540SOL     OW 8518   5.189   1.808   2.647
 2540SOL    HW1 8519   5.160   1.778   2.738
 2540SOL    HW2 8520   5.187   1.908   2.643
 2541SOL     OW 8521   0.236   0.553   6.225
 2541SOL    HW1 8522   0.307   0.610   6.266
 2541SOL    HW2 8523   0.240   0.560   6.126
 2542SOL     OW 8524   3.866   2.169   3.619
 2542SOL    HW1 8525   3.876   2.174   3.718
 2542SOL    HW2 8526   3.769   2.157   3.597
 2543SOL     OW 8527   0.062   1.643   4.109
 2543SOL    HW1 8528   0.042   1.654   4.012
 2543SOL    HW2 8529   0.123   1.716   4.139
 2544SOL     OW 8530   6.592   6.052   1.976
 2544SOL    HW1 8531   6.571   6.144   2.009
 2544SOL    HW2 8532   6.643   6.003   2.046
 2545SOL     OW 8533   6.167   1.690   0.254
 2545SOL    HW1 8534   6.206   1.618   0.196
 2545SOL    HW2 8535   6.120   1.758   0.197
 2546SOL     OW 8536   6.594   3.414   1.953
 2546SOL    HW1 8537   6.510   3.376   1.992
 2546SOL    HW2 8538   6.661   3.429   2.026
 2547SOL     OW 8539   5.477   4.301   1.484
 2547SOL    HW1 8540   5.443   4.207   1.494
 2547SOL    HW2 8541   5.409   4.356   1.437
 2548SOL     OW 8542   5.970   0.489   5.858
 2548SOL    HW1 8543   6.015   0.573   5.829
 2548SOL    HW2 8544   6.027   0.442   5.925
 2549SOL     OW 8545   2.842   4.023   0.771
 2549SOL    HW1 8546   2.867   4.028   0.867
 2549SOL    HW2 8547   2.746   3.997   0.763
 2550SOL     OW 8548   3.697   5.972   0.221
 2550SOL    HW1 8549   3.659   5.905   0.157
 2550SOL    HW2 8550   3.631   5.990   0.294
 2551SOL     OW 8551   3.732   5.009   1.034
 2551SOL    HW1 8552   3.740   4.910   1.034
 2551SOL    HW2 8553   3.722   5.043   0.941
 2552SOL     OW 8554   2.047   4.589   1.912
 2552SOL    HW1 8555   1.996   4.675   1.902
 2552SOL    HW2 8556   2.126   4.604   1.971
 2553SOL     OW 8557   4.987   1.627   0.335
 2553SOL    HW1 8558   4.981   1.707   0.395
 2553SOL    HW2 8559   4.898   1.611   0.292
 2554SOL     OW 8560   1.496   5.251   0.962
 2554SOL    HW1 8561   1.564   5.307   0.914
 2554SOL    HW2 8562   1.409   5.255   0.913
 2555SOL     OW 8563   6.341   0.008   5.185
 2555SOL    HW1 8564   6.310   7.003   5.093
 2555SOL    HW2 8565   6.437   0.035   5.183
 2556SOL     OW 8566   4.013   6.898   0.804
 2556SOL    HW1 8567   3.920   6.918   0.775
 2556SOL    HW2 8568   4.074   6.897   0.724
 2557SOL     OW 8569   3.039   0.943   0.237
 2557SOL    HW1 8570   3.112   0.948   0.304
 2557SOL    HW2 8571   3.072   0.896   0.155
 2558SOL     OW 8572   5.369   2.286   1.569
 2558SOL    HW1 8573   5.368   2.374   1.521
 2558SOL    HW2 8574   5.448   2.281   1.630
 2559SOL     OW 8575   0.093   5.226   3.327
 2559SOL    HW1 8576   0.041   5.207   3.243
 2559SOL    HW2 8577   0.096   5.324   3.342
 2560SOL     OW 8578   4.998   2.239   2.602
 2560SOL    HW1 8579   5.009   2.317   2.664
 2560SOL    HW2 8580   4.903   2.233   2.573
 2561SOL     OW 8581   3.551   6.927   4.222
 2561SOL    HW1 8582   3.502   7.014   4.216
 2561SOL    HW2 8583   3.559   6.900   4.318
 2562SOL     OW 8584   1.513   6.923   4.833
 2562SOL    HW1 8585   1.430   6.978   4.820
 2562SOL    HW2 8586   1.586   6.959   4.775
 2563SOL     OW 8587   3.504   2.551   6.571
 2563SOL    HW1 8588   3.522   2.474   6.633
 2563SOL    HW2 8589   3.413   2.588   6.590
 2564SOL     OW 8590   1.050   1.982   0.296
 2564SOL    HW1 8591   0.961   2.026   0.287
 2564SOL    HW2 8592   1.122   2.044   0.264
 2565SOL     OW 8593   1.040   0.562   0.763
 2565SOL    HW1 8594   1.077   0.520   0.846
 2565SOL    HW2 8595   1.073   0.512   0.683
 2566SOL     OW 8596   2.791   0.753   1.070
 2566SOL    HW1 8597   2.859   0.715   1.132
 2566SOL    HW2 8598   2.792   0.853   1.077
 2567SOL     OW 8599   1.411   0.838   6.387
 2567SOL    HW1 8600   1.451   0.924   6.355
 2567SOL    HW2 8601   1.312   0.841   6.372
 2568SOL     OW 8602   1.886   5.461   1.053
 2568SOL    HW1 8603   1.929   5.412   0.978
 2568SOL    HW2 8604   1.907   5.415   1.140
 2569SOL     OW 8605   1.629   0.170   0.258
 2569SOL    HW1 8606   1.702   0.204   0.199
 2569SOL    HW2 8607   1.654   0.080   0.294
 2570SOL     OW 8608   0.457   6.066   4.614
 2570SOL    HW1 8609   0.370   6.026   4.586
 2570SOL    HW2 8610   0.503   6.106   4.535
 2571SOL     OW 8611   3.223   4.088   3.796
 2571SOL    HW1 8612   3.215   4.137   3.883
 2571SOL    HW2 8613   3.135   4.046   3.773
 2572SOL     OW 8614   1.819   5.334   2.336
 2572SOL    HW1 8615   1.888   5.329   2.408
 2572SOL    HW2 8616   1.854   5.390   2.261
 2573SOL     OW 8617   0.154   1.842   3.472
 2573SOL    HW1 8618   0.061   1.876   3.486
 2573SOL    HW2 8619   0.192   1.813   3.560
 2574SOL     OW 8620   0.749   3.522   2.084
 2574SOL    HW1 8621   0.815   3.577   2.035
 2574SOL    HW2 8622   0.686   3.479   2.019
 2575SOL     OW 8623   5.078   3.401   6.488
 2575SOL    HW1 8624   5.023   3.319   6.505
 2575SOL    HW2 8625   5.026   3.466   6.433
 2576SOL     OW 8626   1.834   6.789   3.234
 2576SOL    HW1 8627   1.797   6.870   3.279
 2576SOL    HW2 8628   1.880   6.816   3.150
 2577SOL     OW 8629   1.681   5.400   1.372
 2577SOL    HW1 8630   1.585   5.399   1.399
 2577SOL    HW2 8631   1.733   5.458   1.435
 2578SOL     OW 8632   4.376   1.877   4.342
 2578SOL    HW1 8633   4.382   1.778   4.352
 2578SOL    HW2 8634   4.361   1.919   4.431
 2579SOL     OW 8635   6.906   1.306   6.355
 2579SOL    HW1 8636   6.992   1.256   6.341
 2579SOL    HW2 8637   6.924   1.387   6.410
 2580SOL     OW 8638   1.336   1.445   6.271
 2580SOL    HW1 8639   1.421   1.422   6.224
 2580SOL    HW2 8640   1.264   1.463   6.204
 2581SOL     OW 8641   6.396   6.755   4.910
 2581SOL    HW1 8642   6.460   6.689   4.871
 2581SOL    HW2 8643   6.349   6.713   4.987
 2582SOL     OW 8644   0.486   5.550   2.580
 2582SOL    HW1 8645   0.491   5.617   2.505
 2582SOL    HW2 8646   0.577   5.536   2.618
 2583SOL     OW 8647   2.321   1.062   6.588
 2583SOL    HW1 8648   2.372   1.070   6.502
 2583SOL    HW2 8649   2.227   1.034   6.568
 2584SOL     OW 8650   5.037   6.727   2.652
 2584SOL    HW1 8651   5.040   6.714   2.751
 2584SOL    HW2 8652   5.120   6.775   2.622
 2585SOL     OW 8653   4.335   1.338   1.949
 2585SOL    HW1 8654   4.316   1.299   1.858
 2585SOL    HW2 8655   4.399   1.414   1.940
 2586SOL     OW 8656   6.478   1.266   4.076
 2586SOL    HW1 8657   6.461   1.213   3.992
 2586SOL    HW2 8658   6.576   1.268   4.095
 2587SOL     OW 8659   6.816   6.023   2.883
 2587SOL    HW1 8660   6.816   6.053   2.787
 2587SOL    HW2 8661   6.779   5.930   2.889
 2588SOL     OW 8662   5.200   0.294   1.926
 2588SOL    HW1 8663   5.159   0.352   1.997
 2588SOL    HW2 8664   5.267   0.233   1.967
 2589SOL     OW 8665   5.312   6.005   0.531
 2589SOL    HW1 8666   5.381   6.073   0.507
 2589SOL    HW2 8667   5.335   5.963   0.618
 2590SOL     OW 8668   3.382   6.481   3.053
 2590SOL    HW1 8669   3.285   6.460   3.043
 2590SOL    HW2 8670   3.434   6.396   3.062
 2591SOL     OW 8671   6.089   0.040   1.251
 2591SOL    HW1 8672   6.116   0.065   1.343
 2591SOL    HW2 8673   5.993   0.012   1.251
 2592SOL     OW 8674   3.178   4.641   1.570
 2592SOL    HW1 8675   3.133   4.650   1.481
 2592SOL    HW2 8676   3.242   4.565   1.568
 2593SOL     OW 8677   3.433   0.128   2.814
 2593SOL    HW1 8678   3.405   0.033   2.804
 2593SOL    HW2 8679   3.524   0.140   2.774
 2594SOL     OW 8680   1.609   6.437   6.743
 2594SOL    HW1 8681   1.656   6.469   6.660
 2594SOL    HW2 8682   1.514   6.470   6.741
 2595SOL     OW 8683   6.407   3.119   3.964
 2595SOL    HW1 8684   6.382   3.112   4.060
 2595SOL    HW2 8685   6.343   3.066   3.908
 2596SOL     OW 8686   4.228   2.429   1.396
 2596SOL    HW1 8687   4.289   2.377   1.457
 2596SOL    HW2 8688   4.142   2.447   1.443
 2597SOL     OW 8689   1.770   2.017   6.348
 2597SOL    HW1 8690   1.855   2.057   6.381
 2597SOL    HW2 8691   1.701   2.020   6.421
 2598SOL     OW 8692   6.095   1.401   2.769
 2598SOL    HW1 8693   6.132   1.375   2.680
 2598SOL    HW2 8694   6.082   1.319   2.825
 2599SOL     OW 8695   4.325   4.709   6.698
 2599SOL    HW1 8696   4.283   4.743   6.614
 2599SOL    HW2 8697   4.421   4.736   6.701
 2600SOL     OW 8698   6.688   3.098   3.924
 2600SOL    HW1 8699   6.596   3.095   3.964
 2600SOL    HW2 8700   6.701   3.185   3.877
 2601SOL     OW 8701   3.813   3.582   5.076
 2601SOL    HW1 8702   3.795   3.680   5.088
 2601SOL    HW2 8703   3.905   3.561   5.108
 2602SOL     OW 8704   6.356   6.055   5.736
 2602SOL    HW1 8705   6.374   5.995   5.658
 2602SOL    HW2 8706   6.278   6.115   5.715
 2603SOL     OW 8707   1.975   2.315   6.903
 2603SOL    HW1 8708   1.949   2.267   6.987
 2603SOL    HW2 8709   2.075   2.326   6.901
 2604SOL     OW 8710   6.108   1.459   0.965
 2604SOL    HW1 8711   6.039   1.420   0.903
 2604SOL    HW2 8712   6.062   1.508   1.039
 2605SOL     OW 8713   4.992   3.753   3.947
 2605SOL    HW1 8714   4.980   3.656   3.930
 2605SOL    HW2 8715   5.052   3.766   4.026
 2606SOL     OW 8716   6.670   4.701   1.235
 2606SOL    HW1 8717   6.639   4.659   1.150
 2606SOL    HW2 8718   6.591   4.716   1.295
 2607SOL     OW 8719   0.956   1.850   4.532
 2607SOL    HW1 8720   0.928   1.766   4.578
 2607SOL    HW2 8721   0.974   1.831   4.435
 2608SOL     OW 8722   5.465   6.963   0.561
 2608SOL    HW1 8723   5.449   6.977   0.659
 2608SOL    HW2 8724   5.559   6.989   0.538
 2609SOL     OW 8725   0.580   2.817   3.889
 2609SOL    HW1 8726   0.572   2.911   3.923
 2609SOL    HW2 8727   0.648   2.768   3.944
 2610SOL     OW 8728   5.763   5.312   4.897
 2610SOL    HW1 8729   5.824   5.242   4.860
 2610SOL    HW2 8730   5.817   5.390   4.928
 2611SOL     OW 8731   3.176   5.627   1.990
 2611SOL    HW1 8732   3.231   5.562   2.043
 2611SOL    HW2 8733   3.219   5.642   1.901
 2612SOL     OW 8734   6.584   0.100   5.198
 2612SOL    HW1 8735   6.636   0.045   5.133
 2612SOL    HW2 8736   6.634   0.105   5.285
 2613SOL     OW 8737   3.218   0.828   0.444
 2613SOL    HW1 8738   3.153   0.752   0.440
 2613SOL    HW2 8739   3.180   0.902   0.500
 2614SOL     OW 8740   6.471   6.108   6.880
 2614SOL    HW1 8741   6.389   6.122   6.936
 2614SOL    HW2 8742   6.505   6.197   6.848
 2615SOL     OW 8743   5.500   5.049   1.995
 2615SOL    HW1 8744   5.476   5.145   2.006
 2615SOL    HW2 8745   5.599   5.038   2.001
 2616SOL     OW 8746   4.030   3.798   2.338
 2616SOL    HW1 8747   4.085   3.720   2.309
 2616SOL    HW2 8748   4.039   3.810   2.437
 2617SOL     OW 8749   2.932   0.483   0.690
 2617SOL    HW1 8750   2.874   0.562   0.710
 2617SOL    HW2 8751   2.904   0.407   0.749
 2618SOL     OW 8752   0.969   0.463   0.280
 2618SOL    HW1 8753   0.985   0.518   0.198
 2618SOL    HW2 8754   0.891   0.499   0.330
 2619SOL     OW 8755   5.627   1.764   1.266
 2619SOL    HW1 8756   5.594   1.743   1.358
 2619SOL    HW2 8757   5.718   1.806   1.272
 2620SOL     OW 8758   1.071   5.263   3.922
 2620SOL    HW1 8759   1.052   5.178   3.970
 2620SOL    HW2 8760   1.156   5.254   3.870
 2621SOL     OW 8761   0.662   5.555   3.918
 2621SOL    HW1 8762   0.713   5.469   3.911
 2621SOL    HW2 8763   0.697   5.620   3.850
 2622SOL     OW 8764   2.562   3.038   6.068
 2622SOL    HW1 8765   2.659   3.015   6.062
 2622SOL    HW2 8766   2.512   2.988   5.997
 2623SOL     OW 8767   3.710   0.930   6.386
 2623SOL    HW1 8768   3.800   0.918   6.427
 2623SOL    HW2 8769   3.707   0.884   6.297
 2624SOL     OW 8770   6.895   2.193   3.765
 2624SOL    HW1 8771   6.911   2.268   3.829
 2624SOL    HW2 8772   6.973   2.130   3.768
 2625SOL     OW 8773   4.775   0.417   5.511
 2625SOL    HW1 8774   4.855   0.360   5.530
 2625SOL    HW2 8775   4.755   0.413   5.413
 2626SOL     OW 8776   2.534   0.042   2.310
 2626SOL    HW1 8777   2.581   0.059   2.397
 2626SOL    HW2 8778   2.445   0.001   2.328
 2627SOL     OW 8779   0.450   1.324   4.681
 2627SOL    HW1 8780   0.523   1.369   4.629
 2627SOL    HW2 8781   0.491   1.258   4.745
 2628SOL     OW 8782   3.864   6.116   6.212
 2628SOL    HW1 8783   3.938   6.137   6.149
 2628SOL    HW2 8784   3.834   6.200   6.258
 2629SOL     OW 8785   2.845   3.835   1.269
 2629SOL    HW1 8786   2.882   3.769   1.204
 2629SOL    HW2 8787   2.899   3.833   1.353
 2630SOL     OW 8788   2.846   2.262   2.335
 2630SOL    HW1 8789   2.861   2.270   2.237
 2630SOL    HW2 8790   2.767   2.318   2.362
 2631SOL     OW 8791   4.482   6.506   4.769
 2631SOL    HW1 8792   4.462   6.423   4.718
 2631SOL    HW2 8793   4.516   6.577   4.707
 2632SOL     OW 8794   5.751   1.403   1.158
 2632SOL    HW1 8795   5.808   1.484   1.144
 2632SOL    HW2 8796   5.721   1.399   1.253
 2633SOL     OW 8797   6.939   2.683   6.055
 2633SOL    HW1 8798   6.927   2.584   6.060
 2633SOL    HW2 8799   6.974   2.717   6.142
 2634SOL     OW 8800   2.993   4.887   1.100
 2634SOL    HW1 8801   3.013   4.964   1.039
 2634SOL    HW2 8802   2.961   4.809   1.046
 2635SOL     OW 8803   5.781   4.355   3.659
 2635SOL    HW1 8804   5.771   4.363   3.560
 2635SOL    HW2 8805   5.717   4.417   3.705
 2636SOL     OW 8806   5.749   0.249   4.839
 2636SOL    HW1 8807   5.696   0.256   4.924
 2636SOL    HW2 8808   5.823   0.318   4.840
 2637SOL     OW 8809   4.833   6.412   2.816
 2637SOL    HW1 8810   4.861   6.429   2.721
 2637SOL    HW2 8811   4.877   6.329   2.849
 2638SOL     OW 8812   5.604   5.674   0.735
 2638SOL    HW1 8813   5.620   5.578   0.713
 2638SOL    HW2 8814   5.680   5.729   0.701
 2639SOL     OW 8815   6.668   6.562   0.103
 2639SOL    HW1 8816   6.732   6.626   0.059
 2639SOL    HW2 8817   6.588   6.549   0.044
 2640SOL     OW 8818   6.013   0.124   6.392
 2640SOL    HW1 8819   5.960   0.083   6.318
 2640SOL    HW2 8820   5.995   0.222   6.396
 2641SOL     OW 8821   5.522   5.163   0.459
 2641SOL    HW1 8822   5.556   5.101   0.530
 2641SOL    HW2 8823   5.488   5.110   0.381
 2642SOL     OW 8824   6.738   0.179   3.433
 2642SOL    HW1 8825   6.801   0.227   3.371
 2642SOL    HW2 8826   6.663   0.140   3.381
 2643SOL     OW 8827   1.017   0.726   1.949
 2643SOL    HW1 8828   1.113   0.702   1.932
 2643SOL    HW2 8829   0.962   0.703   1.869
 2644SOL     OW 8830   0.153   5.690   5.986
 2644SOL    HW1 8831   0.132   5.785   6.008
 2644SOL    HW2 8832   0.092   5.629   6.037
 2645SOL     OW 8833   5.851   5.327   5.950
 2645SOL    HW1 8834   5.770   5.300   6.001
 2645SOL    HW2 8835   5.917   5.252   5.948
 2646SOL     OW 8836   6.597   6.347   6.820
 2646SOL    HW1 8837   6.582   6.437   6.861
 2646SOL    HW2 8838   6.693   6.338   6.793
 2647SOL     OW 8839   3.492   3.010   0.388
 2647SOL    HW1 8840   3.592   3.012   0.389
 2647SOL    HW2 8841   3.458   3.073   0.458
 2648SOL     OW 8842   3.765   0.859   3.006
 2648SOL    HW1 8843   3.834   0.852   3.078
 2648SOL    HW2 8844   3.806   0.902   2.925
 2649SOL     OW 8845   3.392   2.804   5.280
 2649SOL    HW1 8846   3.411   2.838   5.372
 2649SOL    HW2 8847   3.353   2.712   5.286
 2650SOL     OW 8848   0.157   6.725   2.123
 2650SOL    HW1 8849   0.242   6.674   2.115
 2650SOL    HW2 8850   0.123   6.720   2.217
 2651SOL     OW 8851   0.827   0.008   3.596
 2651SOL    HW1 8852   0.857   0.091   3.549
 2651SOL    HW2 8853   0.728   7.012   3.585
 2652SOL     OW 8854   3.380   2.877   2.641
 2652SOL    HW1 8855   3.307   2.828   2.688
 2652SOL    HW2 8856   3.350   2.900   2.548
 2653SOL     OW 8857   6.196   5.142   0.210
 2653SOL    HW1 8858   6.276   5.188   0.170
 2653SOL    HW2 8859   6.188   5.050   0.172
 2654SOL     OW 8860   5.323   1.710   6.350
 2654SOL    HW1 8861   5.341   1.670   6.440
 2654SOL    HW2 8862   5.408   1.744   6.311
 2655SOL     OW 8863   4.821   5.327   5.276
 2655SOL    HW1 8864   4.914   5.362   5.276
 2655SOL    HW2 8865   4.763   5.387   5.221
 2656SOL     OW 8866   5.185   3.559   4.420
 2656SOL    HW1 8867   5.198   3.657   4.403
 2656SOL    HW2 8868   5.120   3.523   4.353
 2657SOL     OW 8869   2.521   2.293   5.538
 2657SOL    HW1 8870   2.478   2.233   5.605
 2657SOL    HW2 8871   2.511   2.388   5.566
 2658SOL     OW 8872   5.708   4.371   5.975
 2658SOL    HW1 8873   5.694   4.411   5.884
 2658SOL    HW2 8874   5.802   4.390   6.005
 2659SOL     OW 8875   6.568   1.815   2.965
 2659SOL    HW1 8876   6.588   1.788   2.871
 2659SOL    HW2 8877   6.628   1.890   2.992
 2660SOL     OW 8878   6.308   1.932   2.613
 2660SOL    HW1 8879   6.326   1.962   2.707
 2660SOL    HW2 8880   6.276   1.837   2.614
 2661SOL     OW 8881   3.927   6.718   1.707
 2661SOL    HW1 8882   3.987   6.651   1.663
 2661SOL    HW2 8883   3.921   6.698   1.805
 2662SOL     OW 8884   3.911   6.728   3.752
 2662SOL    HW1 8885   4.005   6.698   3.762
 2662SOL    HW2 8886   3.855   6.652   3.717
 2663SOL     OW 8887   0.921   4.445   3.065
 2663SOL    HW1 8888   0.852   4.406   3.126
 2663SOL    HW2 8889   0.879   4.514   3.006
 2664SOL     OW 8890   4.194   3.860   1.790
 2664SOL    HW1 8891   4.224   3.952   1.763
 2664SOL    HW2 8892   4.149   3.865   1.879
 2665SOL     OW 8893   4.720   0.921   4.376
 2665SOL    HW1 8894   4.702   1.001   4.433
 2665SOL    HW2 8895   4.731   0.841   4.435
 2666SOL     OW 8896   5.178   6.071   1.912
 2666SOL    HW1 8897   5.079   6.073   1.909
 2666SOL    HW2 8898   5.215   6.120   1.833
 2667SOL     OW 8899   1.404   4.992   3.702
 2667SOL    HW1 8900   1.419   4.895   3.725
 2667SOL    HW2 8901   1.459   5.015   3.622
 2668SOL     OW 8902   6.273   2.471   5.577
 2668SOL    HW1 8903   6.199   2.494   5.514
 2668SOL    HW2 8904   6.253   2.384   5.622
 2669SOL     OW 8905   3.928   5.465   5.721
 2669SOL    HW1 8906   3.869   5.507   5.652
 2669SOL    HW2 8907   3.905   5.368   5.730
 2670SOL     OW 8908   1.871   0.203   6.017
 2670SOL    HW1 8909   1.958   0.249   6.001
 2670SOL    HW2 8910   1.821   0.197   5.930
 2671SOL     OW 8911   3.406   3.980   6.032
 2671SOL    HW1 8912   3.454   3.985   6.119
 2671SOL    HW2 8913   3.464   3.933   5.965
 2672SOL     OW 8914   1.035   3.891   0.337
 2672SOL    HW1 8915   1.080   3.877   0.425
 2672SOL    HW2 8916   1.101   3.874   0.263
 2673SOL     OW 8917   4.514   2.086   3.956
 2673SOL    HW1 8918   4.543   2.143   4.033
 2673SOL    HW2 8919   4.454   2.139   3.896
 2674SOL     OW 8920   5.829   5.412   5.318
 2674SOL    HW1 8921   5.793   5.445   5.405
 2674SOL    HW2 8922   5.898   5.475   5.283
 2675SOL     OW 8923   0.353   3.933   5.230
 2675SOL    HW1 8924   0.343   4.001   5.157
 2675SOL    HW2 8925   0.320   3.845   5.197
 2676SOL     OW 8926   4.099   0.490   2.110
 2676SOL    HW1 8927   4.170   0.428   2.143
 2676SOL    HW2 8928   4.046   0.525   2.187
 2677SOL     OW 8929   2.842   4.754   2.421
 2677SOL    HW1 8930   2.927   4.775   2.469
 2677SOL    HW2 8931   2.862   4.732   2.325
 2678SOL     OW 8932   0.293   6.331   6.429
 2678SOL    HW1 8933   0.193   6.330   6.437
 2678SOL    HW2 8934   0.334   6.339   6.520
 2679SOL     OW 8935   2.709   4.752   1.407
 2679SOL    HW1 8936   2.762   4.763   1.491
 2679SOL    HW2 8937   2.735   4.822   1.342
 2680SOL     OW 8938   1.254   2.031   1.843
 2680SOL    HW1 8939   1.216   1.959   1.785
 2680SOL    HW2 8940   1.330   1.994   1.897
 2681SOL     OW 8941   1.485   1.128   2.838
 2681SOL    HW1 8942   1.497   1.131   2.937
 2681SOL    HW2 8943   1.428   1.204   2.808
 2682SOL     OW 8944   6.722   2.359   3.144
 2682SOL    HW1 8945   6.629   2.322   3.153
 2682SOL    HW2 8946   6.744   2.414   3.225
 2683SOL     OW 8947   1.318   0.202   1.936
 2683SOL    HW1 8948   1.409   0.209   1.976
 2683SOL    HW2 8949   1.256   0.264   1.984
 2684SOL     OW 8950   2.643   6.008   2.868
 2684SOL    HW1 8951   2.709   5.964   2.808
 2684SOL    HW2 8952   2.691   6.060   2.939
 2685SOL     OW 8953   5.792   5.994   5.094
 2685SOL    HW1 8954   5.734   6.011   5.175
 2685SOL    HW2 8955   5.734   5.966   5.018
 2686SOL     OW 8956   1.226   3.070   4.542
 2686SOL    HW1 8957   1.299   3.035   4.601
 2686SOL    HW2 8958   1.232   3.027   4.452
 2687SOL     OW 8959   5.199   4.624   3.328
 2687SOL    HW1 8960   5.129   4.660   3.267
 2687SOL    HW2 8961   5.281   4.680   3.322
 2688SOL     OW 8962   3.425   5.326   5.782
 2688SOL    HW1 8963   3.503   5.350   5.839
 2688SOL    HW2 8964   3.455   5.266   5.707
 2689SOL     OW 8965   0.043   2.995   4.236
 2689SOL    HW1 8966   0.034   2.924   4.306
 2689SOL    HW2 8967   0.125   2.979   4.182
 2690SOL     OW 8968   2.903   3.453   3.085
 2690SOL    HW1 8969   2.885   3.430   3.180
 2690SOL    HW2 8970   2.926   3.370   3.034
 2691SOL     OW 8971   1.431   5.901   1.327
 2691SOL    HW1 8972   1.458   5.817   1.280
 2691SOL    HW2 8973   1.479   5.906   1.415
 2692SOL     OW 8974   6.658   5.320   3.292
 2692SOL    HW1 8975   6.738   5.366   3.331
 2692SOL    HW2 8976   6.688   5.245   3.233
 2693SOL     OW 8977   1.691   3.772   3.657
 2693SOL    HW1 8978   1.624   3.713   3.702
 2693SOL    HW2 8979   1.769   3.717   3.626
 2694SOL     OW 8980   2.636   0.628   2.524
 2694SOL    HW1 8981   2.675   0.719   2.541
 2694SOL    HW2 8982   2.551   0.637   2.472
 2695SOL     OW 8983   3.955   2.208   3.085
 2695SOL    HW1 8984   3.997   2.299   3.085
 2695SOL    HW2 8985   4.022   2.140   3.055
 2696SOL     OW 8986   4.206   3.515   4.915
 2696SOL    HW1 8987   4.149   3.448   4.962
 2696SOL    HW2 8988   4.293   3.524   4.964
 2697SOL     OW 8989   2.297   2.308   4.337
 2697SOL    HW1 8990   2.275   2.359   4.421
 2697SOL    HW2 8991   2.385   2.263   4.348
 2698SOL     OW 8992   2.227   3.447   6.549
 2698SOL    HW1 8993   2.287   3.487   6.617
 2698SOL    HW2 8994   2.180   3.367   6.588
 2699SOL     OW 8995   3.456   5.858   1.999
 2699SOL    HW1 8996   3.459   5.899   1.907
 2699SOL    HW2 8997   3.377   5.894   2.049
 2700SOL     OW 8998   1.164   3.466   2.994
 2700SOL    HW1 8999   1.233   3.393   3.002
 2700SOL    HW2 9000   1.102   3.462   3.072
 2701SOL     OW 9001   3.343   0.183   5.783
 2701SOL    HW1 9002   3.399   0.101   5.786
 2701SOL    HW2 9003   3.255   0.163   5.740
 2702SOL     OW 9004   6.736   0.024   2.950
 2702SOL    HW1 9005   6.646   0.002   2.988
 2702SOL    HW2 9006   6.726   0.062   2.858
 2703SOL     OW 9007   1.304   1.270   3.302
 2703SOL    HW1 9008   1.286   1.268   3.401
 2703SOL    HW2 9009   1.368   1.343   3.282
 2704SOL     OW 9010   1.573   5.774   0.521
 2704SOL    HW1 9011   1.667   5.750   0.494
 2704SOL    HW2 9012   1.556   5.870   0.500
 2705SOL     OW 9013   0.503   4.326   2.388
 2705SOL    HW1 9014   0.534   4.279   2.470
 2705SOL    HW2 9015   0.540   4.281   2.307
 2706SOL     OW 9016   6.629   2.211   1.902
 2706SOL    HW1 9017   6.570   2.133   1.922
 2706SOL    HW2 9018   6.724   2.181   1.903
 2707SOL     OW 9019   2.374   1.627   5.910
 2707SOL    HW1 9020   2.334   1.672   5.990
 2707SOL    HW2 9021   2.372   1.528   5.923
 2708SOL     OW 9022   1.951   3.248   0.811
 2708SOL    HW1 9023   1.989   3.202   0.891
 2708SOL    HW2 9024   1.902   3.181   0.754
 2709SOL     OW 9025   4.226   6.954   1.819
 2709SOL    HW1 9026   4.285   6.887   1.864
 2709SOL    HW2 9027   4.156   6.984   1.884
 2710SOL     OW 9028   6.127   4.004   2.419
 2710SOL    HW1 9029   6.150   3.933   2.352
 2710SOL    HW2 9030   6.097   4.086   2.370
 2711SOL     OW 9031   1.262   6.627   1.966
 2711SOL    HW1 9032   1.167   6.604   1.946
 2711SOL    HW2 9033   1.314   6.636   1.881
 2712SOL     OW 9034   3.170   5.242   1.157
 2712SOL    HW1 9035   3.228   5.275   1.083
 2712SOL    HW2 9036   3.227   5.198   1.227
 2713SOL     OW 9037   2.020   2.944   4.750
 2713SOL    HW1 9038   2.059   2.906   4.834
 2713SOL    HW2 9039   1.923   2.964   4.765
 2714SOL     OW 9040   5.259   6.731   5.507
 2714SOL    HW1 9041   5.180   6.784   5.540
 2714SOL    HW2 9042   5.291   6.670   5.579
 2715SOL     OW 9043   6.895   0.452   6.932
 2715SOL    HW1 9044   6.813   0.413   6.974
 2715SOL    HW2 9045   6.909   0.545   6.966
 2716SOL     OW 9046   0.627   6.731   2.770
 2716SOL    HW1 9047   0.543   6.710   2.720
 2716SOL    HW2 9048   0.661   6.649   2.815
 2717SOL     OW 9049   1.394   0.613   2.760
 2717SOL    HW1 9050   1.380   0.534   2.820
 2717SOL    HW2 9051   1.457   0.677   2.803
 2718SOL     OW 9052   1.168   4.579   3.148
 2718SOL    HW1 9053   1.210   4.521   3.218
 2718SOL    HW2 9054   1.081   4.539   3.120
 2719SOL     OW 9055   4.068   4.731   2.673
 2719SOL    HW1 9056   3.988   4.749   2.615
 2719SOL    HW2 9057   4.052   4.771   2.764
 2720SOL     OW 9058   0.471   5.789   4.115
 2720SOL    HW1 9059   0.411   5.726   4.066
 2720SOL    HW2 9060   0.464   5.880   4.075
 2721SOL     OW 9061   4.910   6.802   4.842
 2721SOL    HW1 9062   4.865   6.886   4.813
 2721SOL    HW2 9063   4.942   6.811   4.936
 2722SOL     OW 9064   1.524   5.665   1.215
 2722SOL    HW1 9065   1.445   5.609   1.193
 2722SOL    HW2 9066   1.605   5.608   1.224
 2723SOL     OW 9067   1.458   1.329   5.301
 2723SOL    HW1 9068   1.542   1.371   5.336
 2723SOL    HW2 9069   1.469   1.230   5.298
 2724SOL     OW 9070   3.023   5.592   6.323
 2724SOL    HW1 9071   3.024   5.546   6.412
 2724SOL    HW2 9072   3.037   5.524   6.250
 2725SOL     OW 9073   2.986   4.823   3.392
 2725SOL    HW1 9074   2.920   4.836   3.466
 2725SOL    HW2 9075   2.978   4.730   3.355
 2726SOL     OW 9076   4.790   6.238   2.432
 2726SOL    HW1 9077   4.871   6.197   2.474
 2726SOL    HW2 9078   4.781   6.333   2.464
 2727SOL     OW 9079   1.980   5.291   3.299
 2727SOL    HW1 9080   2.047   5.266   3.229
 2727SOL    HW2 9081   1.984   5.390   3.315
 2728SOL     OW 9082   3.957   0.122   5.430
 2728SOL    HW1 9083   3.886   0.149   5.365
 2728SOL    HW2 9084   3.942   0.026   5.457
 2729SOL     OW 9085   6.586   4.914   2.467
 2729SOL    HW1 9086   6.656   4.856   2.509
 2729SOL    HW2 9087   6.532   4.858   2.404
 2730SOL     OW 9088   1.324   4.164   1.044
 2730SOL    HW1 9089   1.256   4.210   1.102
 2730SOL    HW2 9090   1.407   4.147   1.097
 2731SOL     OW 9091   2.890   3.784   1.560
 2731SOL    HW1 9092   2.928   3.737   1.640
 2731SOL    HW2 9093   2.850   3.871   1.588
 2732SOL     OW 9094   5.376   2.383   3.665
 2732SOL    HW1 9095   5.379   2.337   3.576
 2732SOL    HW2 9096   5.390   2.317   3.738
 2733SOL     OW 9097   1.630   0.813   5.648
 2733SOL    HW1 9098   1.625   0.839   5.552
 2733SOL    HW2 9099   1.723   0.780   5.669
 2734SOL     OW 9100   2.648   6.224   3.736
 2734SOL    HW1 9101   2.652   6.322   3.719
 2734SOL    HW2 9102   2.637   6.175   3.649
 2735SOL     OW 9103   2.181   4.973   1.683
 2735SOL    HW1 9104   2.275   5.003   1.668
 2735SOL    HW2 9105   2.177   4.873   1.681
 2736SOL     OW 9106   3.472   6.781   6.698
 2736SOL    HW1 9107   3.407   6.832   6.643
 2736SOL    HW2 9108   3.548   6.841   6.725
 2737SOL     OW 9109   4.177   3.720   5.595
 2737SOL    HW1 9110   4.184   3.642   5.658
 2737SOL    HW2 9111   4.139   3.799   5.644
 2738SOL     OW 9112   6.368   4.532   4.137
 2738SOL    HW1 9113   6.400   4.598   4.068
 2738SOL    HW2 9114   6.268   4.532   4.140
 2739SOL     OW 9115   5.649   3.628   0.870
 2739SOL    HW1 9116   5.694   3.672   0.948
 2739SOL    HW2 9117   5.617   3.537   0.898
 2740SOL     OW 9118   6.732   2.903   3.101
 2740SOL    HW1 9119   6.796   2.828   3.122
 2740SOL    HW2 9120   6.705   2.898   3.005
 2741SOL     OW 9121   1.254   2.473   5.659
 2741SOL    HW1 9122   1.348   2.466   5.626
 2741SOL    HW2 9123   1.192   2.484   5.582
 2742SOL     OW 9124   2.178   6.487   5.779
 2742SOL    HW1 9125   2.110   6.423   5.744
 2742SOL    HW2 9126   2.167   6.496   5.878
 2743SOL     OW 9127   5.794   4.658   0.901
 2743SOL    HW1 9128   5.773   4.716   0.980
 2743SOL    HW2 9129   5.781   4.562   0.925
 2744SOL     OW 9130   4.180   0.395   6.753
 2744SOL    HW1 9131   4.123   0.417   6.833
 2744SOL    HW2 9132   4.135   0.324   6.699
 2745SOL     OW 9133   2.569   5.855   1.149
 2745SOL    HW1 9134   2.555   5.759   1.122
 2745SOL    HW2 9135   2.535   5.869   1.242
 2746SOL     OW 9136   1.169   2.560   6.212
 2746SOL    HW1 9137   1.249   2.512   6.247
 2746SOL    HW2 9138   1.178   2.574   6.113
 2747SOL     OW 9139   5.306   5.642   3.927
 2747SOL    HW1 9140   5.299   5.554   3.879
 2747SOL    HW2 9141   5.240   5.646   4.001
 2748SOL     OW 9142   3.915   1.207   4.347
 2748SOL    HW1 9143   3.816   1.190   4.349
 2748SOL    HW2 9144   3.962   1.135   4.398
 2749SOL     OW 9145   4.981   4.680   3.864
 2749SOL    HW1 9146   5.040   4.732   3.802
 2749SOL    HW2 9147   4.975   4.726   3.952
 2750SOL     OW 9148   0.292   6.208   1.573
 2750SOL    HW1 9149   0.325   6.268   1.645
 2750SOL    HW2 9150   0.193   6.218   1.563
 2751SOL     OW 9151   1.290   0.043   0.381
 2751SOL    HW1 9152   1.338   0.127   0.404
 2751SOL    HW2 9153   1.337   7.012   0.306
 2752SOL     OW 9154   6.572   6.407   5.863
 2752SOL    HW1 9155   6.472   6.405   5.868
 2752SOL    HW2 9156   6.603   6.333   5.803
 2753SOL     OW 9157   2.795   5.828   4.935
 2753SOL    HW1 9158   2.861   5.793   4.868
 2753SOL    HW2 9159   2.722   5.761   4.948
 2754SOL     OW 9160   0.921   5.993   4.209
 2754SOL    HW1 9161   0.949   5.950   4.294
 2754SOL    HW2 9162   0.823   5.981   4.196
 2755SOL     OW 9163   3.794   5.940   2.360
 2755SOL    HW1 9164   3.732   5.863   2.348
 2755SOL    HW2 9165   3.880   5.923   2.312
 2756SOL     OW 9166   0.063   3.582   5.201
 2756SOL    HW1 9167   0.156   3.617   5.210
 2756SOL    HW2 9168   0.019   3.626   5.122
 2757SOL     OW 9169   4.321   3.435   6.900
 2757SOL    HW1 9170   4.221   3.428   6.903
 2757SOL    HW2 9171   4.357   3.443   6.993
 2758SOL     OW 9172   6.894   6.777   2.090
 2758SOL    HW1 9173   6.992   6.758   2.085
 2758SOL    HW2 9174   6.844   6.713   2.032
 2759SOL     OW 9175   3.734   3.446   5.310
 2759SOL    HW1 9176   3.757   3.512   5.239
 2759SOL    HW2 9177   3.715   3.495   5.395
 2760SOL     OW 9178   5.877   6.150   2.672
 2760SOL    HW1 9179   5.911   6.118   2.760
 2760SOL    HW2 9180   5.955   6.169   2.612
 2761SOL     OW 9181   1.526   3.265   3.226
 2761SOL    HW1 9182   1.612   3.297   3.188
 2761SOL    HW2 9183   1.535   3.170   3.254
 2762SOL     OW 9184   3.335   2.210   0.709
 2762SOL    HW1 9185   3.375   2.124   0.678
 2762SOL    HW2 9186   3.391   2.250   0.781
 2763SOL     OW 9187   6.344   1.593   4.294
 2763SOL    HW1 9188   6.395   1.654   4.354
 2763SOL    HW2 9189   6.373   1.499   4.308
 2764SOL     OW 9190   0.202   3.299   3.068
 2764SOL    HW1 9191   0.288   3.343   3.094
 2764SOL    HW2 9192   0.178   3.230   3.136
 2765SOL     OW 9193   5.505   6.651   6.207
 2765SOL    HW1 9194   5.481   6.632   6.302
 2765SOL    HW2 9195   5.604   6.665   6.200
 2766SOL     OW 9196   4.388   6.855   0.257
 2766SOL    HW1 9197   4.322   6.791   0.296
 2766SOL    HW2 9198   4.478   6.840   0.298
 2767SOL     OW 9199   0.650   5.348   6.488
 2767SOL    HW1 9200   0.599   5.370   6.404
 2767SOL    HW2 9201   0.683   5.433   6.529
 2768SOL     OW 9202   4.210   0.331   1.742
 2768SOL    HW1 9203   4.209   0.292   1.834
 2768SOL    HW2 9204   4.297   0.310   1.698
 2769SOL     OW 9205   0.606   5.002   5.508
 2769SOL    HW1 9206   0.584   5.025   5.603
 2769SOL    HW2 9207   0.683   5.058   5.477
 2770SOL     OW 9208   2.335   6.353   0.399
 2770SOL    HW1 9209   2.342   6.401   0.486
 2770SOL    HW2 9210   2.426   6.328   0.367
 2771SOL     OW 9211   4.335   0.287   5.210
 2771SOL    HW1 9212   4.307   0.219   5.278
 2771SOL    HW2 9213   4.286   0.270   5.125
 2772SOL     OW 9214   4.766   1.036   3.620
 2772SOL    HW1 9215   4.819   0.952   3.618
 2772SOL    HW2 9216   4.670   1.016   3.599
 2773SOL     OW 9217   5.918   2.021   4.589
 2773SOL    HW1 9218   5.989   2.049   4.654
 2773SOL    HW2 9219   5.950   2.037   4.496
 2774SOL     OW 9220   5.853   1.755   4.209
 2774SOL    HW1 9221   5.843   1.684   4.139
 2774SOL    HW2 9222   5.913   1.827   4.176
 2775SOL     OW 9223   6.899   3.451   3.983
 2775SOL    HW1 9224   6.885   3.358   4.018
 2775SOL    HW2 9225   6.873   3.517   4.052
 2776SOL     OW 9226   4.946   4.742   6.198
 2776SOL    HW1 9227   5.006   4.732   6.278
 2776SOL    HW2 9228   4.852   4.719   6.224
 2777SOL     OW 9229   2.152   2.330   6.509
 2777SOL    HW1 9230   2.219   2.404   6.498
 2777SOL    HW2 9231   2.089   2.354   6.582
 2778SOL     OW 9232   2.478   1.008   6.371
 2778SOL    HW1 9233   2.536   0.927   6.360
 2778SOL    HW2 9234   2.448   1.041   6.282
 2779SOL     OW 9235   5.015   1.107   1.488
 2779SOL    HW1 9236   4.966   1.091   1.574
 2779SOL    HW2 9237   4.959   1.075   1.412
 2780SOL     OW 9238   0.021   1.365   5.064
 2780SOL    HW1 9239   0.072   1.330   4.985
 2780SOL    HW2 9240   0.043   1.462   5.076
 2781SOL     OW 9241   5.809   0.706   3.287
 2781SOL    HW1 9242   5.803   0.609   3.308
 2781SOL    HW2 9243   5.717   0.746   3.286
 2782SOL     OW 9244   5.489   0.688   6.086
 2782SOL    HW1 9245   5.579   0.723   6.059
 2782SOL    HW2 9246   5.442   0.756   6.143
 2783SOL     OW 9247   5.821   3.756   1.709
 2783SOL    HW1 9248   5.858   3.844   1.680
 2783SOL    HW2 9249   5.866   3.682   1.658
 2784SOL     OW 9250   0.435   3.062   0.890
 2784SOL    HW1 9251   0.391   2.978   0.922
 2784SOL    HW2 9252   0.365   3.133   0.876
 2785SOL     OW 9253   6.127   3.126   2.278
 2785SOL    HW1 9254   6.085   3.199   2.331
 2785SOL    HW2 9255   6.104   3.137   2.181
 2786SOL     OW 9256   1.115   6.452   6.661
 2786SOL    HW1 9257   1.076   6.535   6.621
 2786SOL    HW2 9258   1.052   6.416   6.730
 2787SOL     OW 9259   0.514   5.931   6.754
 2787SOL    HW1 9260   0.428   5.947   6.803
 2787SOL    HW2 9261   0.494   5.909   6.658
 2788SOL     OW 9262   2.478   0.162   6.503
 2788SOL    HW1 9263   2.421   0.231   6.549
 2788SOL    HW2 9264   2.572   0.171   6.535
 2789SOL     OW 9265   0.974   2.534   4.910
 2789SOL    HW1 9266   0.905   2.579   4.853
 2789SOL    HW2 9267   1.052   2.507   4.853
 2790SOL     OW 9268   0.755   5.419   1.661
 2790SOL    HW1 9269   0.854   5.416   1.673
 2790SOL    HW2 9270   0.713   5.460   1.741
 2791SOL     OW 9271   1.326   3.200   3.850
 2791SOL    HW1 9272   1.281   3.124   3.897
 2791SOL    HW2 9273   1.268   3.281   3.855
 2792SOL     OW 9274   3.690   1.914   6.125
 2792SOL    HW1 9275   3.660   1.948   6.215
 2792SOL    HW2 9276   3.620   1.853   6.088
 2793SOL     OW 9277   3.765   3.802   0.471
 2793SOL    HW1 9278   3.727   3.716   0.438
 2793SOL    HW2 9279   3.860   3.809   0.442
 2794SOL     OW 9280   1.861   2.469   0.250
 2794SOL    HW1 9281   1.872   2.554   0.199
 2794SOL    HW2 9282   1.938   2.408   0.229
 2795SOL     OW 9283   1.680   6.155   0.786
 2795SOL    HW1 9284   1.593   6.173   0.831
 2795SOL    HW2 9285   1.741   6.108   0.850
 2796SOL     OW 9286   2.030   6.288   6.592
 2796SOL    HW1 9287   2.035   6.341   6.677
 2796SOL    HW2 9288   1.941   6.303   6.548
 2797SOL     OW 9289   5.448   4.811   2.870
 2797SOL    HW1 9290   5.400   4.781   2.787
 2797SOL    HW2 9291   5.425   4.906   2.890
 2798SOL     OW 9292   5.385   0.886   1.780
 2798SOL    HW1 9293   5.379   0.975   1.825
 2798SOL    HW2 9294   5.334   0.888   1.695
 2799SOL     OW 9295   3.547   6.813   4.756
 2799SOL    HW1 9296   3.463   6.799   4.808
 2799SOL    HW2 9297   3.569   6.730   4.705
 2800SOL     OW 9298   4.954   0.391   6.369
 2800SOL    HW1 9299   5.031   0.362   6.313
 2800SOL    HW2 9300   4.909   0.311   6.408
 2801SOL     OW 9301   0.251   4.590   4.238
 2801SOL    HW1 9302   0.214   4.498   4.249
 2801SOL    HW2 9303   0.340   4.586   4.193
 2802SOL     OW 9304   1.576   5.149   4.914
 2802SOL    HW1 9305   1.650   5.103   4.962
 2802SOL    HW2 9306   1.611   5.231   4.868
 2803SOL     OW 9307   3.461   2.611   6.307
 2803SOL    HW1 9308   3.543   2.636   6.256
 2803SOL    HW2 9309   3.487   2.577   6.397
 2804SOL     OW 9310   0.016   2.741   3.422
 2804SOL    HW1 9311   7.000   2.756   3.515
 2804SOL    HW2 9312   7.010   2.822   3.366
 2805SOL     OW 9313   3.421   4.158   0.957
 2805SOL    HW1 9314   3.342   4.217   0.946
 2805SOL    HW2 9315   3.411   4.077   0.899
 2806SOL     OW 9316   0.402   3.095   5.513
 2806SOL    HW1 9317   0.367   3.188   5.501
 2806SOL    HW2 9318   0.405   3.073   5.610
 2807SOL     OW 9319   4.273   1.100   3.804
 2807SOL    HW1 9320   4.301   1.051   3.886
 2807SOL    HW2 9321   4.344   1.165   3.778
 2808SOL     OW 9322   0.830   5.419   5.660
 2808SOL    HW1 9323   0.889   5.376   5.592
 2808SOL    HW2 9324   0.853   5.516   5.668
 2809SOL     OW 9325   0.005   5.743   1.953
 2809SOL    HW1 9326   0.076   5.687   1.909
 2809SOL    HW2 9327   6.948   5.764   1.887
 2810SOL     OW 9328   1.530   6.864   2.913
 2810SOL    HW1 9329   1.538   6.818   2.824
 2810SOL    HW2 9330   1.528   6.963   2.899
 2811SOL     OW 9331   1.273   1.197   0.817
 2811SOL    HW1 9332   1.266   1.269   0.886
 2811SOL    HW2 9333   1.358   1.146   0.831
 2812SOL     OW 9334   1.276   2.095   0.534
 2812SOL    HW1 9335   1.360   2.073   0.485
 2812SOL    HW2 9336   1.244   2.015   0.584
 2813SOL     OW 9337   0.710   3.429   1.642
 2813SOL    HW1 9338   0.727   3.514   1.692
 2813SOL    HW2 9339   0.797   3.388   1.616
 2814SOL     OW 9340   2.686   4.044   6.830
 2814SOL    HW1 9341   2.785   4.030   6.818
 2814SOL    HW2 9342   2.665   4.141   6.819
 2815SOL     OW 9343   6.638   5.336   4.645
 2815SOL    HW1 9344   6.636   5.301   4.738
 2815SOL    HW2 9345   6.659   5.261   4.582
 2816SOL     OW 9346   0.741   5.665   4.652
 2816SOL    HW1 9347   0.656   5.631   4.611
 2816SOL    HW2 9348   0.726   5.684   4.749
 2817SOL     OW 9349   3.079   0.707   2.574
 2817SOL    HW1 9350   3.143   0.771   2.533
 2817SOL    HW2 9351   3.038   0.748   2.656
 2818SOL     OW 9352   1.834   0.505   0.417
 2818SOL    HW1 9353   1.891   0.586   0.408
 2818SOL    HW2 9354   1.834   0.476   0.513
 2819SOL     OW 9355   0.976   0.391   6.722
 2819SOL    HW1 9356   0.958   0.293   6.721
 2819SOL    HW2 9357   1.034   0.415   6.644
 2820SOL     OW 9358   1.465   1.902   0.130
 2820SOL    HW1 9359   1.466   1.973   0.059
 2820SOL    HW2 9360   1.372   1.891   0.164
 2821SOL     OW 9361   3.124   3.378   6.318
 2821SOL    HW1 9362   3.155   3.302   6.376
 2821SOL    HW2 9363   3.134   3.352   6.222
 2822SOL     OW 9364   4.800   2.520   0.287
 2822SOL    HW1 9365   4.817   2.605   0.336
 2822SOL    HW2 9366   4.853   2.518   0.202
 2823SOL     OW 9367   4.744   3.717   1.782
 2823SOL    HW1 9368   4.648   3.689   1.788
 2823SOL    HW2 9369   4.800   3.639   1.757
 2824SOL     OW 9370   1.156   4.527   4.707
 2824SOL    HW1 9371   1.153   4.525   4.807
 2824SOL    HW2 9372   1.069   4.495   4.670
 2825SOL     OW 9373   5.209   1.461   6.271
 2825SOL    HW1 9374   5.169   1.552   6.282
 2825SOL    HW2 9375   5.307   1.465   6.289
 2826SOL     OW 9376   2.491   2.906   6.510
 2826SOL    HW1 9377   2.461   3.001   6.502
 2826SOL    HW2 9378   2.557   2.886   6.438
 2827SOL     OW 9379   5.790   1.809   6.660
 2827SOL    HW1 9380   5.747   1.855   6.582
 2827SOL    HW2 9381   5.883   1.844   6.672
 2828SOL     OW 9382   1.684   3.576   1.431
 2828SOL    HW1 9383   1.729   3.488   1.415
 2828SOL    HW2 9384   1.741   3.650   1.395
 2829SOL     OW 9385   3.452   3.582   2.047
 2829SOL    HW1 9386   3.412   3.491   2.060
 2829SOL    HW2 9387   3.541   3.586   2.091
 2830SOL     OW 9388   2.986   5.796   4.722
 2830SOL    HW1 9389   3.073   5.819   4.679
 2830SOL    HW2 9390   2.912   5.841   4.674
 2831SOL     OW 9391   0.073   1.957   1.531
 2831SOL    HW1 9392   7.003   1.967   1.478
 2831SOL    HW2 9393   0.082   1.862   1.560
 2832SOL     OW 9394   0.867   3.851   2.811
 2832SOL    HW1 9395   0.942   3.805   2.859
 2832SOL    HW2 9396   0.784   3.795   2.819
 2833SOL     OW 9397   0.543   2.764   2.549
 2833SOL    HW1 9398   0.612   2.773   2.477
 2833SOL    HW2 9399   0.490   2.848   2.555
 2834SOL     OW 9400   3.822   6.918   4.070
 2834SOL    HW1 9401   3.728   6.910   4.100
 2834SOL    HW2 9402   3.830   6.887   3.975
 2835SOL     OW 9403   6.517   0.573   6.756
 2835SOL    HW1 9404   6.542   0.500   6.692
 2835SOL    HW2 9405   6.496   0.534   6.845
 2836SOL     OW 9406   3.322   5.485   3.325
 2836SOL    HW1 9407   3.228   5.488   3.356
 2836SOL    HW2 9408   3.379   5.541   3.385
 2837SOL     OW 9409   5.090   4.485   1.740
 2837SOL    HW1 9410   5.139   4.545   1.803
 2837SOL    HW2 9411   5.098   4.521   1.647
 2838SOL     OW 9412   6.759   4.047   5.926
 2838SOL    HW1 9413   6.705   4.051   5.842
 2838SOL    HW2 9414   6.824   4.123   5.928
 2839SOL     OW 9415   6.002   3.273   5.359
 2839SOL    HW1 9416   6.016   3.370   5.335
 2839SOL    HW2 9417   6.021   3.259   5.456
 2840SOL     OW 9418   6.276   6.423   4.249
 2840SOL    HW1 9419   6.205   6.402   4.316
 2840SOL    HW2 9420   6.366   6.405   4.290
 2841SOL     OW 9421   5.769   3.930   2.331
 2841SOL    HW1 9422   5.754   3.944   2.428
 2841SOL    HW2 9423   5.820   3.845   2.317
 2842SOL     OW 9424   0.887   6.767   3.500
 2842SOL    HW1 9425   0.865   6.864   3.511
 2842SOL    HW2 9426   0.955   6.756   3.427
 2843SOL     OW 9427   2.519   2.507   3.187
 2843SOL    HW1 9428   2.515   2.463   3.276
 2843SOL    HW2 9429   2.472   2.596   3.191
 2844SOL     OW 9430   5.170   3.513   0.875
 2844SOL    HW1 9431   5.223   3.597   0.869
 2844SOL    HW2 9432   5.116   3.502   0.792
 2845SOL     OW 9433   2.765   1.872   1.597
 2845SOL    HW1 9434   2.696   1.825   1.541
 2845SOL    HW2 9435   2.784   1.962   1.557
 2846SOL     OW 9436   6.377   7.014   6.684
 2846SOL    HW1 9437   6.331   6.929   6.710
 2846SOL    HW2 9438   6.476   7.001   6.687
 2847SOL     OW 9439   4.512   5.346   1.009
 2847SOL    HW1 9440   4.534   5.257   0.970
 2847SOL    HW2 9441   4.542   5.349   1.104
 2848SOL     OW 9442   0.518   4.249   5.925
 2848SOL    HW1 9443   0.448   4.317   5.943
 2848SOL    HW2 9444   0.559   4.266   5.835
 2849SOL     OW 9445   5.250   0.953   1.557
 2849SOL    HW1 9446   5.194   1.033   1.538
 2849SOL    HW2 9447   5.207   0.871   1.518
 2850SOL     OW 9448   0.977   0.523   1.637
 2850SOL    HW1 9449   0.967   0.445   1.699
 2850SOL    HW2 9450   1.067   0.519   1.594
 2851SOL     OW 9451   3.021   3.290   1.323
 2851SOL    HW1 9452   3.101   3.231   1.333
 2851SOL    HW2 9453   3.020   3.356   1.399
 2852SOL     OW 9454   0.485   5.251   5.788
 2852SOL    HW1 9455   0.563   5.207   5.743
 2852SOL    HW2 9456   0.409   5.259   5.724
 2853SOL     OW 9457   0.240   4.550   5.572
 2853SOL    HW1 9458   0.241   4.615   5.496
 2853SOL    HW2 9459   0.261   4.459   5.537
 2854SOL     OW 9460   3.392   0.641   6.336
 2854SOL    HW1 9461   3.369   0.716   6.398
 2854SOL    HW2 9462   3.342   0.559   6.363
 2855SOL     OW 9463   2.356   1.273   4.069
 2855SOL    HW1 9464   2.259   1.248   4.071
 2855SOL    HW2 9465   2.412   1.191   4.058
 2856SOL     OW 9466   0.240   5.441   4.170
 2856SOL    HW1 9467   0.316   5.494   4.132
 2856SOL    HW2 9468   0.171   5.427   4.099
 2857SOL     OW 9469   6.694   4.579   0.991
 2857SOL    HW1 9470   6.715   4.656   0.929
 2857SOL    HW2 9471   6.779   4.535   1.019
 2858SOL     OW 9472   5.371   4.743   2.318
 2858SOL    HW1 9473   5.358   4.818   2.254
 2858SOL    HW2 9474   5.282   4.700   2.338
 2859SOL     OW 9475   5.573   5.205   1.637
 2859SOL    HW1 9476   5.521   5.287   1.661
 2859SOL    HW2 9477   5.527   5.125   1.674
 2860SOL     OW 9478   1.339   0.428   2.985
 2860SOL    HW1 9479   1.263   0.461   3.041
 2860SOL    HW2 9480   1.339   0.328   2.986
 2861SOL     OW 9481   4.983   4.014   5.992
 2861SOL    HW1 9482   5.039   4.010   6.075
 2861SOL    HW2 9483   4.980   4.108   5.959
 2862SOL     OW 9484   4.961   1.822   0.882
 2862SOL    HW1 9485   4.887   1.863   0.935
 2862SOL    HW2 9486   4.998   1.891   0.819
 2863SOL     OW 9487   5.734   2.212   5.346
 2863SOL    HW1 9488   5.736   2.308   5.320
 2863SOL    HW2 9489   5.824   2.171   5.330
 2864SOL     OW 9490   3.449   4.220   0.557
 2864SOL    HW1 9491   3.419   4.151   0.624
 2864SOL    HW2 9492   3.536   4.191   0.517
 2865SOL     OW 9493   5.610   4.949   5.419
 2865SOL    HW1 9494   5.575   5.004   5.343
 2865SOL    HW2 9495   5.563   4.861   5.421
 2866SOL     OW 9496   3.777   4.750   0.666
 2866SOL    HW1 9497   3.699   4.688   0.675
 2866SOL    HW2 9498   3.856   4.712   0.714
 2867SOL     OW 9499   6.229   6.162   3.458
 2867SOL    HW1 9500   6.284   6.187   3.379
 2867SOL    HW2 9501   6.142   6.211   3.456
 2868SOL     OW 9502   0.409   0.228   5.656
 2868SOL    HW1 9503   0.356   0.203   5.737
 2868SOL    HW2 9504   0.502   0.253   5.684
 2869SOL     OW 9505   6.461   4.632   3.869
 2869SOL    HW1 9506   6.509   4.645   3.783
 2869SOL    HW2 9507   6.362   4.644   3.855
 2870SOL     OW 9508   6.774   2.059   1.661
 2870SOL    HW1 9509   6.746   2.013   1.577
 2870SOL    HW2 9510   6.756   2.157   1.652
 2871SOL     OW 9511   5.329   1.321   2.956
 2871SOL    HW1 9512   5.395   1.314   3.031
 2871SOL    HW2 9513   5.272   1.240   2.955
 2872SOL     OW 9514   2.213   2.272   2.273
 2872SOL    HW1 9515   2.215   2.200   2.204
 2872SOL    HW2 9516   2.260   2.241   2.356
 2873SOL     OW 9517   1.132   0.072   1.509
 2873SOL    HW1 9518   1.099   0.148   1.453
 2873SOL    HW2 9519   1.200   0.106   1.574
 2874SOL     OW 9520   2.160   1.359   3.455
 2874SOL    HW1 9521   2.171   1.323   3.548
 2874SOL    HW2 9522   2.064   1.383   3.440
 2875SOL     OW 9523   2.520   0.160   2.960
 2875SOL    HW1 9524   2.555   0.212   3.038
 2875SOL    HW2 9525   2.536   0.210   2.875
 2876SOL     OW 9526   1.464   6.186   0.927
 2876SOL    HW1 9527   1.395   6.255   0.904
 2876SOL    HW2 9528   1.464   6.170   1.025
 2877SOL     OW 9529   1.604   2.760   5.660
 2877SOL    HW1 9530   1.691   2.716   5.640
 2877SOL    HW2 9531   1.619   2.838   5.720
 2878SOL     OW 9532   4.076   3.271   4.466
 2878SOL    HW1 9533   4.078   3.300   4.370
 2878SOL    HW2 9534   4.114   3.343   4.524
 2879SOL     OW 9535   5.430   4.540   0.166
 2879SOL    HW1 9536   5.471   4.568   0.080
 2879SOL    HW2 9537   5.398   4.621   0.216
 2880SOL     OW 9538   1.828   1.258   3.603
 2880SOL    HW1 9539   1.900   1.252   3.672
 2880SOL    HW2 9540   1.739   1.250   3.647
 2881SOL     OW 9541   5.287   5.110   0.818
 2881SOL    HW1 9542   5.264   5.043   0.889
 2881SOL    HW2 9543   5.257   5.074   0.729
 2882SOL     OW 9544   4.504   6.521   0.139
 2882SOL    HW1 9545   4.427   6.472   0.099
 2882SOL    HW2 9546   4.491   6.619   0.127
 2883SOL     OW 9547   5.892   6.569   3.434
 2883SOL    HW1 9548   5.979   6.574   3.483
 2883SOL    HW2 9549   5.907   6.588   3.337
 2884SOL     OW 9550   6.073   5.901   4.202
 2884SOL    HW1 9551   6.022   5.837   4.144
 2884SOL    HW2 9552   6.069   5.993   4.163
 2885SOL     OW 9553   1.687   2.533   4.002
 2885SOL    HW1 9554   1.671   2.525   4.100
 2885SOL    HW2 9555   1.609   2.494   3.952
 2886SOL     OW 9556   2.285   4.620   5.491
 2886SOL    HW1 9557   2.385   4.618   5.505
 2886SOL    HW2 9558   2.265   4.659   5.401
 2887SOL     OW 9559   0.051   5.867   2.867
 2887SOL    HW1 9560   0.128   5.898   2.921
 2887SOL    HW2 9561   6.990   5.931   2.876
 2888SOL     OW 9562   4.868   6.852   6.270
 2888SOL    HW1 9563   4.876   6.754   6.291
 2888SOL    HW2 9564   4.957   6.896   6.280
 2889SOL     OW 9565   4.341   6.141   4.098
 2889SOL    HW1 9566   4.319   6.128   4.195
 2889SOL    HW2 9567   4.440   6.139   4.085
 2890SOL     OW 9568   1.033   2.365   0.773
 2890SOL    HW1 9569   1.038   2.265   0.777
 2890SOL    HW2 9570   0.983   2.398   0.853
 2891SOL     OW 9571   0.659   1.935   5.370
 2891SOL    HW1 9572   0.672   2.032   5.350
 2891SOL    HW2 9573   0.612   1.892   5.293
 2892SOL     OW 9574   5.410   4.233   1.867
 2892SOL    HW1 9575   5.370   4.242   1.959
 2892SOL    HW2 9576   5.341   4.198   1.804
 2893SOL     OW 9577   0.066   5.661   5.201
 2893SOL    HW1 9578   7.008   5.593   5.211
 2893SOL    HW2 9579   0.067   5.696   5.107
 2894SOL     OW 9580   2.193   5.749   1.752
 2894SOL    HW1 9581   2.282   5.776   1.790
 2894SOL    HW2 9582   2.207   5.685   1.676
 2895SOL     OW 9583   3.950   6.606   5.691
 2895SOL    HW1 9584   4.036   6.606   5.742
 2895SOL    HW2 9585   3.942   6.691   5.639
 2896SOL     OW 9586   5.893   0.582   4.847
 2896SOL    HW1 9587   5.864   0.593   4.942
 2896SOL    HW2 9588   5.976   0.636   4.830
 2897SOL     OW 9589   3.546   4.866   3.182
 2897SOL    HW1 9590   3.562   4.768   3.168
 2897SOL    HW2 9591   3.448   4.881   3.199
 2898SOL     OW 9592   4.634   2.353   2.167
 2898SOL    HW1 9593   4.588   2.269   2.142
 2898SOL    HW2 9594   4.733   2.338   2.167
 2899SOL     OW 9595   6.868   3.435   0.870
 2899SOL    HW1 9596   6.825   3.501   0.932
 2899SOL    HW2 9597   6.909   3.483   0.793
 2900SOL     OW 9598   2.439   2.830   5.902
 2900SOL    HW1 9599   2.341   2.849   5.909
 2900SOL    HW2 9600   2.465   2.822   5.806
 2901SOL     OW 9601   1.069   3.984   3.029
 2901SOL    HW1 9602   1.155   4.012   3.071
 2901SOL    HW2 9603   1.026   3.912   3.085
 2902SOL     OW 9604   6.078   5.295   3.532
 2902SOL    HW1 9605   6.175   5.284   3.554
 2902SOL    HW2 9606   6.069   5.344   3.445
 2903SOL     OW 9607   6.047   4.667   0.729
 2903SOL    HW1 9608   5.980   4.644   0.800
 2903SOL    HW2 9609   6.047   4.766   0.715
 2904SOL     OW 9610   2.147   4.585   5.067
 2904SOL    HW1 9611   2.134   4.636   4.983
 2904SOL    HW2 9612   2.173   4.491   5.046
 2905SOL     OW 9613   1.941   5.335   1.276
 2905SOL    HW1 9614   1.847   5.346   1.308
 2905SOL    HW2 9615   2.000   5.315   1.355
 2906SOL     OW 9616   6.279   6.367   5.132
 2906SOL    HW1 9617   6.239   6.289   5.085
 2906SOL    HW2 9618   6.307   6.339   5.224
 2907SOL     OW 9619   0.881   0.876   5.153
 2907SOL    HW1 9620   0.934   0.839   5.076
 2907SOL    HW2 9621   0.932   0.951   5.194
 2908SOL     OW 9622   4.400   6.686   3.107
 2908SOL    HW1 9623   4.490   6.648   3.084
 2908SOL    HW2 9624   4.387   6.773   3.058
 2909SOL     OW 9625   6.658   6.704   1.684
 2909SOL    HW1 9626   6.594   6.771   1.647
 2909SOL    HW2 9627   6.680   6.637   1.614
 2910SOL     OW 9628   0.610   1.010   4.273
 2910SOL    HW1 9629   0.612   0.991   4.371
 2910SOL    HW2 9630   0.618   0.924   4.223
 2911SOL     OW 9631   0.329   4.468   5.901
 2911SOL    HW1 9632   0.326   4.554   5.851
 2911SOL    HW2 9633   0.316   4.484   5.998
 2912SOL     OW 9634   1.243   1.093   1.347
 2912SOL    HW1 9635   1.292   1.166   1.394
 2912SOL    HW2 9636   1.186   1.044   1.412
 2913SOL     OW 9637   2.212   6.868   2.805
 2913SOL    HW1 9638   2.140   6.876   2.874
 2913SOL    HW2 9639   2.301   6.886   2.846
 2914SOL     OW 9640   3.913   5.232   1.085
 2914SOL    HW1 9641   3.880   5.137   1.088
 2914SOL    HW2 9642   3.970   5.249   1.166
 2915SOL     OW 9643   2.931   0.312   3.544
 2915SOL    HW1 9644   3.010   0.294   3.487
 2915SOL    HW2 9645   2.940   0.401   3.588
 2916SOL     OW 9646   1.594   5.415   0.151
 2916SOL    HW1 9647   1.547   5.499   0.177
 2916SOL    HW2 9648   1.569   5.389   0.058
 2917SOL     OW 9649   2.663   6.791   2.840
 2917SOL    HW1 9650   2.654   6.764   2.744
 2917SOL    HW2 9651   2.724   6.870   2.846
 2918SOL     OW 9652   5.287   2.749   1.868
 2918SOL    HW1 9653   5.269   2.819   1.938
 2918SOL    HW2 9654   5.278   2.658   1.909
 2919SOL     OW 9655   0.090   5.942   4.790
 2919SOL    HW1 9656   0.159   5.943   4.719
 2919SOL    HW2 9657   7.015   5.957   4.750
 2920SOL     OW 9658   2.519   2.270   1.755
 2920SOL    HW1 9659   2.496   2.249   1.660
 2920SOL    HW2 9660   2.534   2.368   1.765
 2921SOL     OW 9661   1.563   5.765   3.543
 2921SOL    HW1 9662   1.521   5.675   3.541
 2921SOL    HW2 9663   1.662   5.756   3.527
 2922SOL     OW 9664   4.209   5.247   4.265
 2922SOL    HW1 9665   4.293   5.194   4.273
 2922SOL    HW2 9666   4.193   5.297   4.350
 2923SOL     OW 9667   0.193   5.495   4.978
 2923SOL    HW1 9668   0.137   5.417   4.954
 2923SOL    HW2 9669   0.137   5.578   4.980
 2924SOL     OW 9670   5.824   2.179   6.443
 2924SOL    HW1 9671   5.889   2.105   6.426
 2924SOL    HW2 9672   5.792   2.174   6.538
 2925SOL     OW 9673   5.904   6.710   4.805
 2925SOL    HW1 9674   5.869   6.619   4.785
 2925SOL    HW2 9675   6.003   6.710   4.797
 2926SOL     OW 9676   6.592   2.422   3.893
 2926SOL    HW1 9677   6.645   2.338   3.906
 2926SOL    HW2 9678   6.648   2.501   3.919
 2927SOL     OW 9679   0.993   1.994   1.979
 2927SOL    HW1 9680   1.068   2.029   1.923
 2927SOL    HW2 9681   1.027   1.975   2.071
 2928SOL     OW 9682   6.034   3.064   0.281
 2928SOL    HW1 9683   6.019   3.109   0.369
 2928SOL    HW2 9684   6.131   3.067   0.257
 2929SOL     OW 9685   1.829   2.105   4.293
 2929SOL    HW1 9686   1.891   2.097   4.371
 2929SOL    HW2 9687   1.764   2.180   4.309
 2930SOL     OW 9688   0.214   3.638   4.151
 2930SOL    HW1 9689   0.166   3.586   4.081
 2930SOL    HW2 9690   0.262   3.715   4.109
 2931SOL     OW 9691   5.667   4.400   5.642
 2931SOL    HW1 9692   5.698   4.394   5.547
 2931SOL    HW2 9693   5.623   4.488   5.657
 2932SOL     OW 9694   5.835   5.236   1.532
 2932SOL    HW1 9695   5.743   5.215   1.565
 2932SOL    HW2 9696   5.901   5.184   1.586
 2933SOL     OW 9697   0.743   6.691   0.009
 2933SOL    HW1 9698   0.646   6.675   0.026
 2933SOL    HW2 9699   0.795   6.664   0.090
 2934SOL     OW 9700   4.428   5.349   1.520
 2934SOL    HW1 9701   4.486   5.296   1.582
 2934SOL    HW2 9702   4.406   5.437   1.562
 2935SOL     OW 9703   0.662   2.815   5.762
 2935SOL    HW1 9704   0.724   2.809   5.684
 2935SOL    HW2 9705   0.716   2.827   5.846
 2936SOL     OW 9706   4.557   6.599   2.186
 2936SOL    HW1 9707   4.496   6.523   2.164
 2936SOL    HW2 9708   4.503   6.681   2.203
 2937SOL     OW 9709   5.683   3.862   2.878
 2937SOL    HW1 9710   5.771   3.897   2.909
 2937SOL    HW2 9711   5.632   3.936   2.832
 2938SOL     OW 9712   0.599   6.153   6.322
 2938SOL    HW1 9713   0.604   6.143   6.422
 2938SOL    HW2 9714   0.676   6.104   6.280
 2939SOL     OW 9715   0.052   6.024   1.418
 2939SOL    HW1 9716   0.074   5.951   1.482
 2939SOL    HW2 9717   0.043   6.110   1.467
 2940SOL     OW 9718   4.924   6.383   3.725
 2940SOL    HW1 9719   5.024   6.378   3.722
 2940SOL    HW2 9720   4.896   6.471   3.763
 2941SOL     OW 9721   2.331   4.653   2.613
 2941SOL    HW1 9722   2.382   4.593   2.675
 2941SOL    HW2 9723   2.346   4.623   2.519
 2942SOL     OW 9724   3.232   1.709   1.621
 2942SOL    HW1 9725   3.152   1.751   1.663
 2942SOL    HW2 9726   3.235   1.612   1.644
 2943SOL     OW 9727   5.875   3.632   3.021
 2943SOL    HW1 9728   5.936   3.613   2.944
 2943SOL    HW2 9729   5.920   3.607   3.107
 2944SOL     OW 9730   2.051   6.061   2.440
 2944SOL    HW1 9731   1.953   6.043   2.451
 2944SOL    HW2 9732   2.064   6.153   2.402
 2945SOL     OW 9733   5.187   3.899   1.338
 2945SOL    HW1 9734   5.170   3.994   1.366
 2945SOL    HW2 9735   5.196   3.842   1.419
 2946SOL     OW 9736   3.773   2.939   4.343
 2946SOL    HW1 9737   3.762   3.028   4.298
 2946SOL    HW2 9738   3.758   2.866   4.278
 2947SOL     OW 9739   6.133   5.907   1.204
 2947SOL    HW1 9740   6.190   5.846   1.259
 2947SOL    HW2 9741   6.037   5.881   1.213
 2948SOL     OW 9742   6.944   3.643   1.958
 2948SOL    HW1 9743   6.998   3.560   1.946
 2948SOL    HW2 9744   7.000   3.723   1.936
 2949SOL     OW 9745   2.051   6.110   0.477
 2949SOL    HW1 9746   2.131   6.142   0.526
 2949SOL    HW2 9747   2.075   6.096   0.380
 2950SOL     OW 9748   6.128   6.149   2.542
 2950SOL    HW1 9749   6.088   6.143   2.450
 2950SOL    HW2 9750   6.217   6.195   2.537
 2951SOL     OW 9751   0.699   1.667   1.386
 2951SOL    HW1 9752   0.751   1.715   1.457
 2951SOL    HW2 9753   0.637   1.731   1.342
 2952SOL     OW 9754   6.989   1.688   5.474
 2952SOL    HW1 9755   6.980   1.770   5.417
 2952SOL    HW2 9756   6.979   1.714   5.570
 2953SOL     OW 9757   1.641   4.958   3.110
 2953SOL    HW1 9758   1.717   4.911   3.155
 2953SOL    HW2 9759   1.661   5.055   3.103
 2954SOL     OW 9760   0.726   4.104   6.066
 2954SOL    HW1 9761   0.731   4.163   6.147
 2954SOL    HW2 9762   0.654   4.137   6.005
 2955SOL     OW 9763   1.619   4.584   6.378
 2955SOL    HW1 9764   1.556   4.507   6.386
 2955SOL    HW2 9765   1.703   4.563   6.428
 2956SOL     OW 9766   5.299   4.643   4.615
 2956SOL    HW1 9767   5.256   4.726   4.651
 2956SOL    HW2 9768   5.228   4.574   4.598
 2957SOL     OW 9769   2.477   5.629   1.360
 2957SOL    HW1 9770   2.565   5.663   1.393
 2957SOL    HW2 9771   2.474   5.635   1.260
 2958SOL     OW 9772   1.698   3.924   2.250
 2958SOL    HW1 9773   1.620   3.972   2.291
 2958SOL    HW2 9774   1.686   3.921   2.151
 2959SOL     OW 9775   0.288   3.393   3.680
 2959SOL    HW1 9776   0.234   3.325   3.631
 2959SOL    HW2 9777   0.228   3.451   3.735
 2960SOL     OW 9778   4.794   0.010   1.438
 2960SOL    HW1 9779   4.815   0.069   1.516
 2960SOL    HW2 9780   4.781   0.067   1.357
 2961SOL     OW 9781   5.768   2.665   1.872
 2961SOL    HW1 9782   5.735   2.571   1.884
 2961SOL    HW2 9783   5.868   2.666   1.875
 2962SOL     OW 9784   6.796   0.089   3.674
 2962SOL    HW1 9785   6.771   0.117   3.581
 2962SOL    HW2 9786   6.716   0.098   3.734
 2963SOL     OW 9787   1.672   0.883   4.984
 2963SOL    HW1 9788   1.658   0.784   4.982
 2963SOL    HW2 9789   1.636   0.919   5.070
 2964SOL     OW 9790   1.625   0.970   6.241
 2964SOL    HW1 9791   1.704   0.911   6.222
 2964SOL    HW2 9792   1.654   1.047   6.298
 2965SOL     OW 9793   6.196   0.321   6.275
 2965SOL    HW1 9794   6.258   0.311   6.197
 2965SOL    HW2 9795   6.240   0.286   6.357
 2966SOL     OW 9796   2.838   5.418   2.111
 2966SOL    HW1 9797   2.907   5.347   2.126
 2966SOL    HW2 9798   2.791   5.438   2.197
 2967SOL     OW 9799   5.622   6.660   5.404
 2967SOL    HW1 9800   5.595   6.740   5.351
 2967SOL    HW2 9801   5.594   6.673   5.500
 2968SOL     OW 9802   0.913   3.862   0.830
 2968SOL    HW1 9803   0.918   3.775   0.880
 2968SOL    HW2 9804   0.900   3.937   0.896
 2969SOL     OW 9805   4.692   2.846   5.181
 2969SOL    HW1 9806   4.702   2.750   5.158
 2969SOL    HW2 9807   4.754   2.900   5.123
 2970SOL     OW 9808   2.543   2.657   5.305
 2970SOL    HW1 9809   2.532   2.755   5.322
 2970SOL    HW2 9810   2.640   2.632   5.311
 2971SOL     OW 9811   4.800   2.943   6.893
 2971SOL    HW1 9812   4.842   2.980   6.976
 2971SOL    HW2 9813   4.848   2.977   6.812
 2972SOL     OW 9814   6.719   5.545   6.014
 2972SOL    HW1 9815   6.655   5.573   5.942
 2972SOL    HW2 9816   6.778   5.472   5.980
 2973SOL     OW 9817   5.156   1.243   4.389
 2973SOL    HW1 9818   5.211   1.270   4.468
 2973SOL    HW2 9819   5.211   1.254   4.306
 2974SOL     OW 9820   4.821   6.794   2.166
 2974SOL    HW1 9821   4.732   6.832   2.191
 2974SOL    HW2 9822   4.826   6.784   2.066
 2975SOL     OW 9823   5.746   3.873   5.279
 2975SOL    HW1 9824   5.776   3.800   5.219
 2975SOL    HW2 9825   5.661   3.846   5.325
 2976SOL     OW 9826   3.355   1.118   1.671
 2976SOL    HW1 9827   3.340   1.025   1.704
 2976SOL    HW2 9828   3.275   1.149   1.620
 2977SOL     OW 9829   1.150   0.845   1.640
 2977SOL    HW1 9830   1.095   0.800   1.570
 2977SOL    HW2 9831   1.089   0.890   1.706
 2978SOL     OW 9832   4.091   5.362   6.615
 2978SOL    HW1 9833   4.104   5.350   6.713
 2978SOL    HW2 9834   4.054   5.278   6.575
 2979SOL     OW 9835   3.194   0.987   4.870
 2979SOL    HW1 9836   3.234   1.077   4.888
 2979SOL    HW2 9837   3.094   0.994   4.867
 2980SOL     OW 9838   3.068   3.105   4.403
 2980SOL    HW1 9839   3.074   3.054   4.488
 2980SOL    HW2 9840   3.137   3.178   4.402
 2981SOL     OW 9841   2.287   1.242   1.456
 2981SOL    HW1 9842   2.286   1.340   1.475
 2981SOL    HW2 9843   2.348   1.197   1.521
 2982SOL     OW 9844   1.640   0.656   1.214
 2982SOL    HW1 9845   1.612   0.752   1.210
 2982SOL    HW2 9846   1.559   0.598   1.209
 2983SOL     OW 9847   6.285   3.349   5.475
 2983SOL    HW1 9848   6.369   3.306   5.509
 2983SOL    HW2 9849   6.307   3.439   5.436
 2984SOL     OW 9850   0.565   5.890   1.356
 2984SOL    HW1 9851   0.581   5.971   1.299
 2984SOL    HW2 9852   0.576   5.807   1.300
 2985SOL     OW 9853   5.801   0.475   0.106
 2985SOL    HW1 9854   5.841   0.481   0.015
 2985SOL    HW2 9855   5.701   0.473   0.099
 2986SOL     OW 9856   3.664   3.153   2.092
 2986SOL    HW1 9857   3.724   3.077   2.116
 2986SOL    HW2 9858   3.714   3.239   2.104
 2987SOL     OW 9859   2.375   6.071   4.414
 2987SOL    HW1 9860   2.391   5.974   4.396
 2987SOL    HW2 9861   2.378   6.122   4.327
 2988SOL     OW 9862   6.558   1.817   6.012
 2988SOL    HW1 9863   6.480   1.835   6.071
 2988SOL    HW2 9864   6.530   1.824   5.916
 2989SOL     OW 9865   5.689   3.420   4.491
 2989SOL    HW1 9866   5.639   3.497   4.532
 2989SOL    HW2 9867   5.668   3.415   4.393
 2990SOL     OW 9868   5.268   2.079   4.913
 2990SOL    HW1 9869   5.240   2.144   4.842
 2990SOL    HW2 9870   5.367   2.087   4.928
 2991SOL     OW 9871   0.346   3.287   0.547
 2991SOL    HW1 9872   0.384   3.361   0.601
 2991SOL    HW2 9873   0.416   3.218   0.530
 2992SOL     OW 9874   0.849   3.947   4.725
 2992SOL    HW1 9875   0.942   3.919   4.702
 2992SOL    HW2 9876   0.791   3.867   4.734
 2993SOL     OW 9877   3.060   4.529   1.151
 2993SOL    HW1 9878   3.025   4.582   1.074
 2993SOL    HW2 9879   3.134   4.470   1.120
 2994SOL     OW 9880   3.318   5.245   4.659
 2994SOL    HW1 9881   3.295   5.290   4.746
 2994SOL    HW2 9882   3.265   5.287   4.585
 2995SOL     OW 9883   4.665   0.666   1.800
 2995SOL    HW1 9884   4.717   0.584   1.825
 2995SOL    HW2 9885   4.568   0.649   1.813
 2996SOL     OW 9886   6.493   0.975   3.915
 2996SOL    HW1 9887   6.563   0.906   3.932
 2996SOL    HW2 9888   6.510   1.018   3.826
 2997SOL     OW 9889   4.740   6.386   4.220
 2997SOL    HW1 9890   4.643   6.388   4.195
 2997SOL    HW2 9891   4.796   6.402   4.139
 2998SOL     OW 9892   2.349   0.927   2.048
 2998SOL    HW1 9893   2.319   1.023   2.050
 2998SOL    HW2 9894   2.449   0.924   2.047
 2999SOL     OW 9895   1.734   4.443   0.667
 2999SOL    HW1 9896   1.663   4.457   0.598
 2999SOL    HW2 9897   1.767   4.349   0.663
 3000SOL     OW 9898   2.223   4.114   5.296
 3000SOL    HW1 9899   2.142   4.130   5.241
 3000SOL    HW2 9900   2.287   4.056   5.245
 3001SOL     OW 9901   4.577   0.408   6.388
 3001SOL    HW1 9902   4.535   0.456   6.465
 3001SOL    HW2 9903   4.639   0.337   6.423
 3002SOL     OW 9904   1.868   1.781   1.750
 3002SOL    HW1 9905   1.842   1.789   1.846
 3002SOL    HW2 9906   1.947   1.719   1.742
 3003SOL     OW 9907   1.347   6.621   0.702
 3003SOL    HW1 9908   1.395   6.575   0.778
 3003SOL    HW2 9909   1.410   6.684   0.656
 3004SOL     OW 9910   3.079   6.753   3.439
 3004SOL    HW1 9911   3.121   6.844   3.446
 3004SOL    HW2 9912   2.979   6.762   3.443
 3005SOL     OW 9913   2.210   1.776   0.661
 3005SOL    HW1 9914   2.155   1.696   0.636
 3005SOL    HW2 9915   2.197   1.796   0.758
 3006SOL     OW 9916   5.104   1.481   5.793
 3006SOL    HW1 9917   5.165   1.516   5.864
 3006SOL    HW2 9918   5.145   1.494   5.703
 3007SOL     OW 9919   6.494   5.856   6.506
 3007SOL    HW1 9920   6.488   5.847   6.606
 3007SOL    HW2 9921   6.418   5.910   6.472
 3008SOL     OW 9922   4.598   3.839   5.478
 3008SOL    HW1 9923   4.551   3.751   5.492
 3008SOL    HW2 9924   4.669   3.828   5.408
 3009SOL     OW 9925   5.999   2.962   2.624
 3009SOL    HW1 9926   6.090   2.980   2.661
 3009SOL    HW2 9927   6.006   2.897   2.548
 3010SOL     OW 9928   4.496   5.395   1.991
 3010SOL    HW1 9929   4.554   5.456   1.937
 3010SOL    HW2 9930   4.405   5.434   2.000
 3011SOL     OW 9931   6.452   0.123   0.291
 3011SOL    HW1 9932   6.534   0.169   0.255
 3011SOL    HW2 9933   6.410   0.068   0.218
 3012SOL     OW 9934   2.004   1.497   5.130
 3012SOL    HW1 9935   2.051   1.581   5.101
 3012SOL    HW2 9936   1.983   1.442   5.049
 3013SOL     OW 9937   0.845   4.519   5.491
 3013SOL    HW1 9938   0.918   4.478   5.546
 3013SOL    HW2 9939   0.878   4.531   5.397
 3014SOL     OW 9940   4.735   0.081   6.377
 3014SOL    HW1 9941   4.770   7.003   6.382
 3014SOL    HW2 9942   4.680   0.100   6.458
 3015SOL     OW 9943   1.901   0.751   5.935
 3015SOL    HW1 9944   1.821   0.734   5.993
 3015SOL    HW2 9945   1.982   0.712   5.977
 3016SOL     OW 9946   2.053   0.138   4.402
 3016SOL    HW1 9947   2.054   0.209   4.472
 3016SOL    HW2 9948   2.145   0.126   4.365
 3017SOL     OW 9949   1.433   5.654   0.338
 3017SOL    HW1 9950   1.460   5.705   0.420
 3017SOL    HW2 9951   1.379   5.712   0.278
 3018SOL     OW 9952   3.246   1.454   1.677
 3018SOL    HW1 9953   3.271   1.396   1.755
 3018SOL    HW2 9954   3.238   1.397   1.595
 3019SOL     OW 9955   2.020   7.011   6.126
 3019SOL    HW1 9956   2.115   0.016   6.102
 3019SOL    HW2 9957   1.959   0.038   6.059
 3020SOL     OW 9958   5.652   5.002   0.080
 3020SOL    HW1 9959   5.722   5.030   0.146
 3020SOL    HW2 9960   5.697   4.975   7.010
 3021SOL     OW 9961   4.513   0.641   4.263
 3021SOL    HW1 9962   4.586   0.655   4.196
 3021SOL    HW2 9963   4.547   0.664   4.354
 3022SOL     OW 9964   4.182   5.875   3.520
 3022SOL    HW1 9965   4.143   5.827   3.599
 3022SOL    HW2 9966   4.144   5.967   3.515
 3023SOL     OW 9967   6.079   4.676   5.117
 3023SOL    HW1 9968   5.992   4.695   5.162
 3023SOL    HW2 9969   6.068   4.597   5.056
 3024SOL     OW 9970   0.111   0.898   0.309
 3024SOL    HW1 9971   0.069   0.833   0.372
 3024SOL    HW2 9972   0.093   0.991   0.341
 3025SOL     OW 9973   4.407   5.373   6.942
 3025SOL    HW1 9974   4.431   5.363   0.023
 3025SOL    HW2 9975   4.353   5.293   6.912
 3026SOL     OW 9976   0.375   0.840   1.851
 3026SOL    HW1 9977   0.415   0.930   1.836
 3026SOL    HW2 9978   0.378   0.818   1.949
 3027SOL     OW 9979   3.736   6.985   0.758
 3027SOL    HW1 9980   3.698   6.941   0.677
 3027SOL    HW2 9981   3.723   0.069   0.752
 3028SOL     OW 9982   3.339   3.687   4.875
 3028SOL    HW1 9983   3.396   3.653   4.800
 3028SOL    HW2 9984   3.360   3.635   4.958
 3029SOL     OW 9985   6.591   3.507   4.935
 3029SOL    HW1 9986   6.689   3.524   4.943
 3029SOL    HW2 9987   6.540   3.578   4.983
 3030SOL     OW 9988   1.705   2.757   6.432
 3030SOL    HW1 9989   1.692   2.838   6.376
 3030SOL    HW2 9990   1.798   2.756   6.470
 3031SOL     OW 9991   0.981   5.307   0.611
 3031SOL    HW1 9992   1.009   5.361   0.691
 3031SOL    HW2 9993   0.962   5.369   0.534
 3032SOL     OW 9994   2.443   6.756   3.568
 3032SOL    HW1 9995   2.538   6.775   3.544
 3032SOL    HW2 9996   2.385   6.832   3.540
 3033SOL     OW 9997   1.367   1.841   6.135
 3033SOL    HW1 9998   1.466   1.828   6.129
 3033SOL    HW2 9999   1.345   1.938   6.121
 3034SOL     OW10000   5.401   3.104   2.751
 3034SOL    HW110001   5.494   3.111   2.717
 3034SOL    HW210002   5.363   3.015   2.725
 3035SOL     OW10003   6.986   3.409   6.966
 3035SOL    HW110004   0.004   3.503   6.975
 3035SOL    HW210005   0.022   3.350   0.014
 3036SOL     OW10006   3.281   2.225   5.679
 3036SOL    HW110007   3.184   2.235   5.656
 3036SOL    HW210008   3.298   2.133   5.713
 3037SOL     OW10009   0.988   5.356   6.590
 3037SOL    HW110010   0.990   5.456   6.595
 3037SOL    HW210011   0.897   5.325   6.564
 3038SOL     OW10012   5.884   5.417   6.250
 3038SOL    HW110013   5.790   5.425   6.216
 3038SOL    HW210014   5.948   5.448   6.179
 3039SOL     OW10015   6.125   3.886   5.843
 3039SOL    HW110016   6.042   3.898   5.788
 3039SOL    HW210017   6.149   3.789   5.848
 3040SOL     OW10018   4.640   5.728   5.921
 3040SOL    HW110019   4.688   5.699   5.837
 3040SOL    HW210020   4.672   5.819   5.948
 3041SOL     OW10021   1.070   4.496   5.676
 3041SOL    HW110022   1.104   4.429   5.611
 3041SOL    HW210023   1.147   4.543   5.719
 3042SOL     OW10024   0.087   5.203   3.703
 3042SOL    HW110025   7.014   5.249   3.712
 3042SOL    HW210026   0.071   5.108   3.676
 3043SOL     OW10027   2.650   5.179   1.514
 3043SOL    HW110028   2.638   5.234   1.431
 3043SOL    HW210029   2.741   5.137   1.513
 3044SOL     OW10030   3.814   3.388   4.643
 3044SOL    HW110031   3.913   3.405   4.647
 3044SOL    HW210032   3.795   3.322   4.571
 3045SOL     OW10033   5.276   1.725   2.315
 3045SOL    HW110034   5.188   1.704   2.273
 3045SOL    HW210035   5.298   1.654   2.382
 3046SOL     OW10036   6.070   6.591   1.733
 3046SOL    HW110037   6.028   6.681   1.742
 3046SOL    HW210038   6.000   6.521   1.742
 3047SOL     OW10039   6.401   1.324   4.344
 3047SOL    HW110040   6.440   1.305   4.254
 3047SOL    HW210041   6.305   1.295   4.346
 3048SOL     OW10042   4.318   5.039   1.614
 3048SOL    HW110043   4.249   4.966   1.619
 3048SOL    HW210044   4.395   5.009   1.559
 3049SOL     OW10045   0.845   2.212   2.416
 3049SOL    HW110046   0.944   2.203   2.404
 3049SOL    HW210047   0.801   2.217   2.327
 3050SOL     OW10048   3.232   2.197   6.550
 3050SOL    HW110049   3.250   2.232   6.642
 3050SOL    HW210050   3.308   2.221   6.490
 3051SOL     OW10051   2.545   5.424   5.378
 3051SOL    HW110052   2.498   5.496   5.429
 3051SOL    HW210053   2.520   5.429   5.281
 3052SOL     OW10054   0.138   6.592   3.590
 3052SOL    HW110055   0.196   6.667   3.624
 3052SOL    HW210056   0.181   6.551   3.510
 3053SOL     OW10057   0.833   3.916   6.805
 3053SOL    HW110058   0.795   4.008   6.812
 3053SOL    HW210059   0.928   3.921   6.774
 3054SOL     OW10060   5.642   0.265   3.006
 3054SOL    HW110061   5.558   0.257   2.953
 3054SOL    HW210062   5.710   0.316   2.952
 3055SOL     OW10063   5.857   6.663   0.341
 3055SOL    HW110064   5.906   6.610   0.409
 3055SOL    HW210065   5.855   6.759   0.368
 3056SOL     OW10066   4.115   1.830   6.584
 3056SOL    HW110067   4.065   1.753   6.546
 3056SOL    HW210068   4.166   1.877   6.512
 3057SOL     OW10069   5.200   4.006   3.158
 3057SOL    HW110070   5.131   4.057   3.209
 3057SOL    HW210071   5.176   3.909   3.156
 3058SOL     OW10072   0.608   5.490   5.854
 3058SOL    HW110073   0.615   5.498   5.755
 3058SOL    HW210074   0.556   5.407   5.877
 3059SOL     OW10075   1.332   1.832   2.132
 3059SOL    HW110076   1.233   1.838   2.128
 3059SOL    HW210077   1.365   1.866   2.221
 3060SOL     OW10078   5.447   4.137   3.650
 3060SOL    HW110079   5.426   4.044   3.679
 3060SOL    HW210080   5.540   4.140   3.613
 3061SOL     OW10081   5.836   6.784   3.724
 3061SOL    HW110082   5.828   6.704   3.784
 3061SOL    HW210083   5.745   6.811   3.692
 3062SOL     OW10084   3.702   5.234   1.380
 3062SOL    HW110085   3.667   5.261   1.290
 3062SOL    HW210086   3.802   5.223   1.375
 3063SOL     OW10087   6.539   4.772   1.907
 3063SOL    HW110088   6.535   4.699   1.975
 3063SOL    HW210089   6.547   4.860   1.954
 3064SOL     OW10090   5.139   2.425   6.846
 3064SOL    HW110091   5.051   2.436   6.892
 3064SOL    HW210092   5.125   2.386   6.755
 3065SOL     OW10093   5.533   1.264   6.706
 3065SOL    HW110094   5.581   1.249   6.793
 3065SOL    HW210095   5.501   1.359   6.702
 3066SOL     OW10096   5.328   7.004   5.477
 3066SOL    HW110097   5.249   0.037   5.514
 3066SOL    HW210098   5.301   6.911   5.452
 3067SOL     OW10099   1.358   2.380   5.056
 3067SOL    HW110100   1.262   2.353   5.054
 3067SOL    HW210101   1.366   2.477   5.033
 3068SOL     OW10102   6.458   0.341   0.461
 3068SOL    HW110103   6.527   0.336   0.532
 3068SOL    HW210104   6.470   0.266   0.396
 3069SOL     OW10105   5.214   6.776   4.017
 3069SOL    HW110106   5.301   6.729   4.028
 3069SOL    HW210107   5.189   6.821   4.103
 3070SOL     OW10108   2.136   0.923   1.147
 3070SOL    HW110109   2.128   1.014   1.187
 3070SOL    HW210110   2.101   0.925   1.053
 3071SOL     OW10111   5.914   4.831   5.312
 3071SOL    HW110112   5.843   4.762   5.298
 3071SOL    HW210113   5.882   4.920   5.279
 3072SOL     OW10114   2.129   6.616   6.290
 3072SOL    HW110115   2.036   6.650   6.274
 3072SOL    HW210116   2.124   6.519   6.317
 3073SOL     OW10117   0.224   5.437   2.074
 3073SOL    HW110118   0.277   5.515   2.041
 3073SOL    HW210119   0.216   5.369   2.001
 3074SOL     OW10120   3.177   2.933   1.599
 3074SOL    HW110121   3.207   2.852   1.547
 3074SOL    HW210122   3.177   2.911   1.696
 3075SOL     OW10123   3.936   5.003   1.268
 3075SOL    HW110124   3.850   4.982   1.313
 3075SOL    HW210125   3.974   4.919   1.228
 3076SOL     OW10126   1.090   1.093   4.576
 3076SOL    HW110127   1.165   1.116   4.637
 3076SOL    HW210128   1.086   1.160   4.501
 3077SOL     OW10129   6.718   3.823   1.957
 3077SOL    HW110130   6.792   3.756   1.961
 3077SOL    HW210131   6.638   3.781   1.914
 3078SOL     OW10132   0.446   3.716   1.954
 3078SOL    HW110133   0.496   3.634   1.927
 3078SOL    HW210134   0.349   3.694   1.965
 3079SOL     OW10135   2.135   3.854   4.574
 3079SOL    HW110136   2.131   3.856   4.474
 3079SOL    HW210137   2.108   3.764   4.608
 3080SOL     OW10138   4.250   5.006   1.280
 3080SOL    HW110139   4.308   4.925   1.273
 3080SOL    HW210140   4.290   5.080   1.227
 3081SOL     OW10141   2.227   3.781   6.361
 3081SOL    HW110142   2.149   3.775   6.424
 3081SOL    HW210143   2.221   3.865   6.307
 3082SOL     OW10144   5.493   4.451   5.295
 3082SOL    HW110145   5.405   4.435   5.249
 3082SOL    HW210146   5.546   4.367   5.297
 3083SOL     OW10147   3.571   5.392   1.770
 3083SOL    HW110148   3.523   5.472   1.806
 3083SOL    HW210149   3.507   5.338   1.715
 3084SOL     OW10150   6.802   4.896   3.653
 3084SOL    HW110151   6.816   4.908   3.555
 3084SOL    HW210152   6.889   4.912   3.700
 3085SOL     OW10153   5.912   5.485   0.307
 3085SOL    HW110154   5.928   5.560   0.371
 3085SOL    HW210155   5.825   5.441   0.328
 3086SOL     OW10156   6.481   6.230   6.374
 3086SOL    HW110157   6.422   6.304   6.341
 3086SOL    HW210158   6.426   6.148   6.388
 3087SOL     OW10159   3.719   0.334   2.361
 3087SOL    HW110160   3.636   0.295   2.400
 3087SOL    HW210161   3.699   0.372   2.271
 3088SOL     OW10162   2.052   3.740   5.597
 3088SOL    HW110163   2.052   3.775   5.504
 3088SOL    HW210164   2.145   3.745   5.635
 3089SOL     OW10165   4.223   5.104   5.841
 3089SOL    HW110166   4.203   5.170   5.769
 3089SOL    HW210167   4.265   5.152   5.918
 3090SOL     OW10168   0.719   2.718   2.314
 3090SOL    HW110169   0.810   2.744   2.279
 3090SOL    HW210170   0.661   2.799   2.320
 3091SOL     OW10171   0.980   2.788   1.207
 3091SOL    HW110172   0.913   2.759   1.139
 3091SOL    HW210173   0.987   2.718   1.279
 3092SOL     OW10174   6.243   1.415   2.020
 3092SOL    HW110175   6.244   1.331   1.966
 3092SOL    HW210176   6.335   1.454   2.024
 3093SOL     OW10177   6.679   5.523   6.838
 3093SOL    HW110178   6.716   5.615   6.825
 3093SOL    HW210179   6.752   5.462   6.869
 3094SOL     OW10180   2.583   1.717   6.727
 3094SOL    HW110181   2.659   1.701   6.790
 3094SOL    HW210182   2.619   1.746   6.638
 3095SOL     OW10183   1.560   4.193   5.127
 3095SOL    HW110184   1.631   4.157   5.188
 3095SOL    HW210185   1.505   4.118   5.092
 3096SOL     OW10186   1.305   3.106   4.130
 3096SOL    HW110187   1.266   3.197   4.118
 3096SOL    HW210188   1.394   3.114   4.176
 3097SOL     OW10189   5.480   2.859   4.997
 3097SOL    HW110190   5.451   2.860   5.093
 3097SOL    HW210191   5.457   2.947   4.955
 3098SOL     OW10192   1.897   3.184   2.836
 3098SOL    HW110193   1.815   3.168   2.892
 3098SOL    HW210194   1.874   3.173   2.739
 3099SOL     OW10195   0.486   0.117   4.735
 3099SOL    HW110196   0.442   0.102   4.647
 3099SOL    HW210197   0.577   0.076   4.734
 3100SOL     OW10198   5.465   4.707   1.663
 3100SOL    HW110199   5.440   4.740   1.572
 3100SOL    HW210200   5.496   4.613   1.656
 3101SOL     OW10201   4.816   0.077   4.989
 3101SOL    HW110202   4.746   0.061   5.059
 3101SOL    HW210203   4.905   0.084   5.033
 3102SOL     OW10204   6.074   4.561   2.126
 3102SOL    HW110205   5.984   4.520   2.141
 3102SOL    HW210206   6.088   4.636   2.191
 3103SOL     OW10207   2.009   2.091   1.505
 3103SOL    HW110208   2.029   1.993   1.517
 3103SOL    HW210209   1.996   2.133   1.595
 3104SOL     OW10210   5.716   2.711   5.015
 3104SOL    HW110211   5.630   2.761   5.004
 3104SOL    HW210212   5.700   2.614   4.996
 3105SOL     OW10213   5.623   3.647   0.576
 3105SOL    HW110214   5.640   3.666   0.673
 3105SOL    HW210215   5.684   3.574   0.545
 3106SOL     OW10216   5.040   1.777   5.377
 3106SOL    HW110217   5.101   1.735   5.309
 3106SOL    HW210218   5.057   1.736   5.466
 3107SOL     OW10219   3.320   1.925   5.331
 3107SOL    HW110220   3.406   1.885   5.299
 3107SOL    HW210221   3.324   2.024   5.323
 3108SOL     OW10222   2.285   4.265   3.088
 3108SOL    HW110223   2.247   4.195   3.027
 3108SOL    HW210224   2.212   4.299   3.147
 3109SOL     OW10225   6.916   6.669   3.692
 3109SOL    HW110226   6.854   6.725   3.638
 3109SOL    HW210227   6.990   6.635   3.634
 3110SOL     OW10228   0.947   5.678   3.219
 3110SOL    HW110229   0.867   5.703   3.274
 3110SOL    HW210230   0.917   5.622   3.141
 3111SOL     OW10231   5.977   3.900   3.939
 3111SOL    HW110232   5.955   3.991   3.973
 3111SOL    HW210233   5.901   3.865   3.884
 3112SOL     OW10234   3.761   1.310   6.780
 3112SOL    HW110235   3.680   1.307   6.839
 3112SOL    HW210236   3.819   1.231   6.800
 3113SOL     OW10237   1.520   6.241   3.243
 3113SOL    HW110238   1.550   6.147   3.229
 3113SOL    HW210239   1.508   6.286   3.154
 3114SOL     OW10240   4.704   0.590   5.698
 3114SOL    HW110241   4.727   0.528   5.623
 3114SOL    HW210242   4.742   0.555   5.783
 3115SOL     OW10243   5.321   5.382   5.151
 3115SOL    HW110244   5.380   5.423   5.220
 3115SOL    HW210245   5.369   5.379   5.063
 3116SOL     OW10246   0.529   1.281   6.809
 3116SOL    HW110247   0.538   1.378   6.784
 3116SOL    HW210248   0.539   1.272   6.908
 3117SOL     OW10249   4.394   0.122   0.570
 3117SOL    HW110250   4.365   0.063   0.645
 3117SOL    HW210251   4.344   0.096   0.487
 3118SOL     OW10252   1.565   1.276   3.747
 3118SOL    HW110253   1.531   1.199   3.694
 3118SOL    HW210254   1.502   1.354   3.736
 3119SOL     OW10255   4.732   5.723   4.761
 3119SOL    HW110256   4.742   5.796   4.693
 3119SOL    HW210257   4.746   5.761   4.853
 3120SOL     OW10258   2.308   5.048   6.472
 3120SOL    HW110259   2.306   4.966   6.415
 3120SOL    HW210260   2.361   5.119   6.426
 3121SOL     OW10261   4.141   2.097   4.430
 3121SOL    HW110262   4.057   2.138   4.393
 3121SOL    HW210263   4.202   2.170   4.462
 3122SOL     OW10264   5.559   5.123   5.822
 3122SOL    HW110265   5.608   5.037   5.805
 3122SOL    HW210266   5.568   5.148   5.919
 3123SOL     OW10267   1.462   1.106   3.105
 3123SOL    HW110268   1.390   1.154   3.155
 3123SOL    HW210269   1.532   1.074   3.169
 3124SOL     OW10270   4.762   0.163   4.733
 3124SOL    HW110271   4.668   0.136   4.712
 3124SOL    HW210272   4.784   0.137   4.827
 3125SOL     OW10273   1.981   1.290   5.794
 3125SOL    HW110274   1.998   1.362   5.861
 3125SOL    HW210275   1.899   1.238   5.820
 3126SOL     OW10276   5.232   4.711   5.787
 3126SOL    HW110277   5.168   4.667   5.724
 3126SOL    HW210278   5.224   4.810   5.779
 3127SOL     OW10279   0.256   1.344   5.297
 3127SOL    HW110280   0.183   1.291   5.341
 3127SOL    HW210281   0.243   1.441   5.316
 3128SOL     OW10282   3.405   0.632   0.646
 3128SOL    HW110283   3.472   0.565   0.613
 3128SOL    HW210284   3.413   0.716   0.592
 3129SOL     OW10285   4.220   3.667   0.126
 3129SOL    HW110286   4.128   3.653   0.163
 3129SOL    HW210287   4.276   3.586   0.145
 3130SOL     OW10288   0.253   5.701   2.213
 3130SOL    HW110289   0.244   5.606   2.183
 3130SOL    HW210290   0.163   5.738   2.233
 3131SOL     OW10291   6.315   4.193   2.879
 3131SOL    HW110292   6.341   4.267   2.942
 3131SOL    HW210293   6.390   4.127   2.873
 3132SOL     OW10294   4.796   4.074   0.321
 3132SOL    HW110295   4.794   4.053   0.223
 3132SOL    HW210296   4.888   4.058   0.357
 3133SOL     OW10297   4.916   0.150   4.479
 3133SOL    HW110298   4.860   0.183   4.555
 3133SOL    HW210299   4.859   0.096   4.416
 3134SOL     OW10300   6.291   5.035   2.433
 3134SOL    HW110301   6.361   5.052   2.502
 3134SOL    HW210302   6.323   4.965   2.370
 3135SOL     OW10303   3.519   5.645   6.780
 3135SOL    HW110304   3.493   5.716   6.715
 3135SOL    HW210305   3.590   5.681   6.841
 3136SOL     OW10306   6.127   0.640   3.083
 3136SOL    HW110307   6.044   0.667   3.036
 3136SOL    HW210308   6.150   0.709   3.152
 3137SOL     OW10309   5.098   6.124   0.625
 3137SOL    HW110310   5.171   6.075   0.579
 3137SOL    HW210311   5.013   6.114   0.573
 3138SOL     OW10312   6.654   6.598   5.172
 3138SOL    HW110313   6.705   6.680   5.148
 3138SOL    HW210314   6.590   6.620   5.246
 3139SOL     OW10315   1.889   5.413   1.834
 3139SOL    HW110316   1.829   5.395   1.911
 3139SOL    HW210317   1.916   5.326   1.792
 3140SOL     OW10318   0.195   6.117   0.027
 3140SOL    HW110319   0.211   6.140   0.123
 3140SOL    HW210320   0.109   6.160   7.012
 3141SOL     OW10321   5.708   2.139   6.697
 3141SOL    HW110322   5.684   2.062   6.756
 3141SOL    HW210323   5.632   2.204   6.695
 3142SOL     OW10324   4.915   0.796   3.680
 3142SOL    HW110325   4.969   0.825   3.758
 3142SOL    HW210326   4.848   0.728   3.708
 3143SOL     OW10327   6.756   1.333   0.661
 3143SOL    HW110328   6.795   1.425   0.664
 3143SOL    HW210329   6.672   1.334   0.606
 3144SOL     OW10330   3.749   4.609   0.158
 3144SOL    HW110331   3.740   4.637   0.254
 3144SOL    HW210332   3.725   4.686   0.099
 3145SOL     OW10333   0.480   6.059   0.269
 3145SOL    HW110334   0.547   6.085   0.200
 3145SOL    HW210335   0.423   5.985   0.234
 3146SOL     OW10336   6.820   1.893   4.304
 3146SOL    HW110337   6.834   1.796   4.326
 3146SOL    HW210338   6.805   1.944   4.389
 3147SOL     OW10339   3.956   6.346   0.322
 3147SOL    HW110340   4.046   6.315   0.293
 3147SOL    HW210341   3.886   6.302   0.266
 3148SOL     OW10342   6.670   5.252   1.492
 3148SOL    HW110343   6.718   5.322   1.438
 3148SOL    HW210344   6.737   5.189   1.531
 3149SOL     OW10345   3.433   2.720   0.020
 3149SOL    HW110346   3.497   2.749   6.964
 3149SOL    HW210347   3.343   2.705   6.995
 3150SOL     OW10348   0.007   6.574   5.650
 3150SOL    HW110349   7.014   6.619   5.561
 3150SOL    HW210350   6.941   6.594   5.705
 3151SOL     OW10351   6.987   0.758   5.528
 3151SOL    HW110352   0.049   0.702   5.498
 3151SOL    HW210353   7.001   0.853   5.499
 3152SOL     OW10354   1.746   2.567   5.314
 3152SOL    HW110355   1.796   2.637   5.264
 3152SOL    HW210356   1.658   2.550   5.270
 3153SOL     OW10357   5.483   5.458   1.706
 3153SOL    HW110358   5.541   5.482   1.784
 3153SOL    HW210359   5.490   5.530   1.637
 3154SOL     OW10360   4.124   1.584   0.559
 3154SOL    HW110361   4.130   1.488   0.532
 3154SOL    HW210362   4.104   1.589   0.657
 3155SOL     OW10363   0.892   5.009   7.001
 3155SOL    HW110364   0.840   5.094   7.002
 3155SOL    HW210365   0.984   5.027   6.965
 3156SOL     OW10366   4.338   4.369   1.153
 3156SOL    HW110367   4.394   4.292   1.186
 3156SOL    HW210368   4.269   4.335   1.089
 3157SOL     OW10369   1.184   0.876   4.867
 3157SOL    HW110370   1.187   0.968   4.905
 3157SOL    HW210371   1.274   0.852   4.830
 3158SOL     OW10372   1.999   0.901   5.527
 3158SOL    HW110373   1.960   0.826   5.579
 3158SOL    HW210374   1.935   0.978   5.526
 3159SOL     OW10375   4.892   0.493   0.837
 3159SOL    HW110376   4.973   0.440   0.862
 3159SOL    HW210377   4.865   0.471   0.743
 3160SOL     OW10378   1.848   0.645   5.356
 3160SOL    HW110379   1.907   0.702   5.299
 3160SOL    HW210380   1.757   0.687   5.363
 3161SOL     OW10381   1.968   3.247   2.249
 3161SOL    HW110382   1.968   3.318   2.178
 3161SOL    HW210383   2.036   3.269   2.319
 3162SOL     OW10384   1.075   5.400   1.623
 3162SOL    HW110385   1.112   5.482   1.667
 3162SOL    HW210386   1.073   5.325   1.689
 3163SOL     OW10387   4.267   4.460   0.756
 3163SOL    HW110388   4.282   4.559   0.755
 3163SOL    HW210389   4.302   4.421   0.671
 3164SOL     OW10390   2.695   6.867   3.580
 3164SOL    HW110391   2.770   6.874   3.646
 3164SOL    HW210392   2.648   6.955   3.574
 3165SOL     OW10393   1.428   6.000   6.084
 3165SOL    HW110394   1.356   5.936   6.111
 3165SOL    HW210395   1.401   6.050   6.002
 3166SOL     OW10396   4.827   1.014   5.204
 3166SOL    HW110397   4.900   1.061   5.254
 3166SOL    HW210398   4.741   1.062   5.219
 3167SOL     OW10399   5.642   3.061   1.259
 3167SOL    HW110400   5.628   2.985   1.323
 3167SOL    HW210401   5.567   3.062   1.193
 3168SOL     OW10402   4.679   1.669   0.450
 3168SOL    HW110403   4.732   1.697   0.530
 3168SOL    HW210404   4.585   1.704   0.458
 3169SOL     OW10405   1.811   4.470   1.727
 3169SOL    HW110406   1.772   4.420   1.650
 3169SOL    HW210407   1.883   4.532   1.694
 3170SOL     OW10408   2.104   3.813   3.797
 3170SOL    HW110409   2.160   3.891   3.767
 3170SOL    HW210410   2.038   3.791   3.726
 3171SOL     OW10411   5.221   1.653   3.827
 3171SOL    HW110412   5.234   1.698   3.738
 3171SOL    HW210413   5.178   1.717   3.890
 3172SOL     OW10414   5.486   4.435   1.705
 3172SOL    HW110415   5.495   4.390   1.616
 3172SOL    HW210416   5.441   4.373   1.769
 3173SOL     OW10417   4.953   2.726   0.695
 3173SOL    HW110418   4.935   2.825   0.690
 3173SOL    HW210419   4.895   2.685   0.765
 3174SOL     OW10420   3.175   2.271   6.126
 3174SOL    HW110421   3.250   2.332   6.099
 3174SOL    HW210422   3.091   2.325   6.138
 3175SOL     OW10423   5.303   0.204   5.676
 3175SOL    HW110424   5.354   0.164   5.600
 3175SOL    HW210425   5.311   0.304   5.672
 3176SOL     OW10426   0.346   5.038   3.691
 3176SOL    HW110427   0.400   5.122   3.687
 3176SOL    HW210428   0.357   4.996   3.781
 3177SOL     OW10429   5.581   2.932   3.536
 3177SOL    HW110430   5.661   2.902   3.587
 3177SOL    HW210431   5.498   2.896   3.580
 3178SOL     OW10432   0.387   0.837   2.129
 3178SOL    HW110433   0.296   0.819   2.168
 3178SOL    HW210434   0.447   0.874   2.200
 3179SOL     OW10435   1.376   2.793   2.476
 3179SOL    HW110436   1.329   2.795   2.564
 3179SOL    HW210437   1.375   2.884   2.435
 3180SOL     OW10438   0.005   5.901   0.190
 3180SOL    HW110439   6.943   5.933   0.244
 3180SOL    HW210440   0.041   5.816   0.229
 3181SOL     OW10441   1.288   6.581   5.624
 3181SOL    HW110442   1.238   6.495   5.633
 3181SOL    HW210443   1.293   6.627   5.713
 3182SOL     OW10444   1.926   0.445   1.033
 3182SOL    HW110445   1.960   0.512   1.098
 3182SOL    HW210446   2.000   0.415   0.973
 3183SOL     OW10447   4.189   2.929   1.116
 3183SOL    HW110448   4.157   2.879   1.197
 3183SOL    HW210449   4.228   3.017   1.144
 3184SOL     OW10450   6.377   2.046   4.271
 3184SOL    HW110451   6.459   2.006   4.230
 3184SOL    HW210452   6.313   1.973   4.295
 3185SOL     OW10453   0.428   5.923   6.312
 3185SOL    HW110454   0.482   6.007   6.303
 3185SOL    HW210455   0.341   5.934   6.265
 3186SOL     OW10456   0.269   2.665   6.308
 3186SOL    HW110457   0.254   2.566   6.317
 3186SOL    HW210458   0.341   2.681   6.240
 3187SOL     OW10459   5.326   6.327   2.932
 3187SOL    HW110460   5.284   6.415   2.953
 3187SOL    HW210461   5.271   6.280   2.863
 3188SOL     OW10462   1.921   5.971   0.245
 3188SOL    HW110463   1.826   5.988   0.217
 3188SOL    HW210464   1.922   5.906   0.321
 3189SOL     OW10465   3.541   1.373   5.401
 3189SOL    HW110466   3.509   1.286   5.437
 3189SOL    HW210467   3.523   1.446   5.468
 3190SOL     OW10468   5.969   6.175   4.447
 3190SOL    HW110469   5.887   6.147   4.396
 3190SOL    HW210470   6.038   6.103   4.440
 3191SOL     OW10471   3.471   5.459   1.251
 3191SOL    HW110472   3.531   5.538   1.262
 3191SOL    HW210473   3.521   5.385   1.207
 3192SOL     OW10474   5.445   1.051   2.527
 3192SOL    HW110475   5.423   1.102   2.445
 3192SOL    HW210476   5.382   1.077   2.601
 3193SOL     OW10477   3.344   6.781   4.940
 3193SOL    HW110478   3.278   6.795   4.866
 3193SOL    HW210479   3.300   6.733   5.016
 3194SOL     OW10480   1.879   0.175   6.559
 3194SOL    HW110481   1.855   0.164   6.462
 3194SOL    HW210482   1.955   0.114   6.581
 3195SOL     OW10483   0.900   1.172   1.049
 3195SOL    HW110484   0.963   1.247   1.068
 3195SOL    HW210485   0.828   1.203   0.988
 3196SOL     OW10486   5.647   6.873   3.553
 3196SOL    HW110487   5.567   6.814   3.540
 3196SOL    HW210488   5.717   6.850   3.486
 3197SOL     OW10489   2.499   0.456   6.182
 3197SOL    HW110490   2.484   0.549   6.215
 3197SOL    HW210491   2.423   0.398   6.210
 3198SOL     OW10492   5.661   2.835   3.782
 3198SOL    HW110493   5.638   2.743   3.750
 3198SOL    HW210494   5.623   2.849   3.873
 3199SOL     OW10495   5.147   3.764   2.721
 3199SOL    HW110496   5.197   3.773   2.807
 3199SOL    HW210497   5.197   3.703   2.660
 3200SOL     OW10498   5.338   3.579   4.154
 3200SOL    HW110499   5.402   3.603   4.081
 3200SOL    HW210500   5.330   3.655   4.218
 3201SOL     OW10501   6.054   4.217   2.268
 3201SOL    HW110502   6.106   4.282   2.213
 3201SOL    HW210503   5.981   4.176   2.213
 3202SOL     OW10504   2.362   3.667   6.698
 3202SOL    HW110505   2.398   3.626   6.782
 3202SOL    HW210506   2.438   3.707   6.645
 3203SOL     OW10507   3.170   6.935   1.245
 3203SOL    HW110508   3.166   6.870   1.322
 3203SOL    HW210509   3.215   0.004   1.275
 3204SOL     OW10510   3.734   1.337   4.026
 3204SOL    HW110511   3.690   1.271   4.087
 3204SOL    HW210512   3.665   1.400   3.991
 3205SOL     OW10513   4.634   3.438   6.143
 3205SOL    HW110514   4.541   3.404   6.154
 3205SOL    HW210515   4.668   3.472   6.231
 3206SOL     OW10516   2.572   3.790   1.373
 3206SOL    HW110517   2.664   3.791   1.335
 3206SOL    HW210518   2.576   3.810   1.471
 3207SOL     OW10519   2.229   5.643   5.069
 3207SOL    HW110520   2.215   5.625   5.167
 3207SOL    HW210521   2.252   5.557   5.023
 3208SOL     OW10522   6.391   5.141   6.829
 3208SOL    HW110523   6.299   5.179   6.839
 3208SOL    HW210524   6.432   5.175   6.744
 3209SOL     OW10525   5.034   6.400   6.096
 3209SOL    HW110526   5.056   6.315   6.144
 3209SOL    HW210527   5.031   6.384   5.998
 3210SOL     OW10528   5.298   5.877   1.755
 3210SOL    HW110529   5.284   5.939   1.832
 3210SOL    HW210530   5.210   5.840   1.725
 3211SOL     OW10531   2.133   6.355   6.345
 3211SOL    HW110532   2.100   6.301   6.422
 3211SOL    HW210533   2.111   6.309   6.259
 3212SOL     OW10534   2.458   0.111   3.347
 3212SOL    HW110535   2.549   0.108   3.305
 3212SOL    HW210536   2.404   0.033   3.317
 3213SOL     OW10537   1.303   6.763   6.166
 3213SOL    HW110538   1.305   6.701   6.245
 3213SOL    HW210539   1.249   6.844   6.188
 3214SOL     OW10540   3.376   0.879   2.883
 3214SOL    HW110541   3.397   0.783   2.865
 3214SOL    HW210542   3.283   0.887   2.917
 3215SOL     OW10543   1.777   3.359   1.824
 3215SOL    HW110544   1.752   3.454   1.805
 3215SOL    HW210545   1.849   3.357   1.894
 3216SOL     OW10546   6.221   4.655   1.063
 3216SOL    HW110547   6.298   4.716   1.082
 3216SOL    HW210548   6.156   4.660   1.138
 3217SOL     OW10549   0.217   6.126   2.305
 3217SOL    HW110550   0.269   6.052   2.262
 3217SOL    HW210551   0.205   6.201   2.240
 3218SOL     OW10552   5.307   1.000   2.788
 3218SOL    HW110553   5.399   1.034   2.807
 3218SOL    HW210554   5.241   1.045   2.848
 3219SOL     OW10555   6.779   1.418   4.941
 3219SOL    HW110556   6.715   1.433   5.016
 3219SOL    HW210557   6.872   1.408   4.977
 3220SOL     OW10558   0.244   4.390   6.174
 3220SOL    HW110559   0.167   4.427   6.227
 3220SOL    HW210560   0.239   4.291   6.174
 3221SOL     OW10561   3.065   1.571   1.914
 3221SOL    HW110562   3.048   1.476   1.942
 3221SOL    HW210563   3.145   1.606   1.962
 3222SOL     OW10564   2.915   1.057   3.590
 3222SOL    HW110565   2.867   1.054   3.503
 3222SOL    HW210566   2.892   1.141   3.638
 3223SOL     OW10567   1.531   5.215   0.311
 3223SOL    HW110568   1.549   5.312   0.291
 3223SOL    HW210569   1.433   5.198   0.308
 3224SOL     OW10570   3.995   1.884   3.953
 3224SOL    HW110571   3.947   1.801   3.923
 3224SOL    HW210572   3.971   1.903   4.048
 3225SOL     OW10573   4.234   1.121   4.360
 3225SOL    HW110574   4.199   1.030   4.338
 3225SOL    HW210575   4.279   1.160   4.280
 3226SOL     OW10576   5.695   0.422   0.722
 3226SOL    HW110577   5.719   0.495   0.787
 3226SOL    HW210578   5.671   0.463   0.634
 3227SOL     OW10579   5.781   4.646   5.135
 3227SOL    HW110580   5.779   4.551   5.102
 3227SOL    HW210581   5.721   4.702   5.078
 3228SOL     OW10582   2.577   4.324   0.271
 3228SOL    HW110583   2.553   4.240   0.223
 3228SOL    HW210584   2.605   4.302   0.365
 3229SOL     OW10585   1.806   2.111   0.539
 3229SOL    HW110586   1.829   2.051   0.616
 3229SOL    HW210587   1.761   2.193   0.573
 3230SOL     OW10588   3.013   6.218   5.605
 3230SOL    HW110589   3.072   6.174   5.672
 3230SOL    HW210590   2.928   6.166   5.595
 3231SOL     OW10591   1.856   2.024   2.912
 3231SOL    HW110592   1.941   2.030   2.860
 3231SOL    HW210593   1.830   2.114   2.945
 3232SOL     OW10594   3.632   4.870   4.505
 3232SOL    HW110595   3.580   4.926   4.439
 3232SOL    HW210596   3.609   4.898   4.598
 3233SOL     OW10597   1.122   0.569   0.489
 3233SOL    HW110598   1.092   0.511   0.413
 3233SOL    HW210599   1.078   0.659   0.481
 3234SOL     OW10600   3.211   3.099   0.841
 3234SOL    HW110601   3.145   3.144   0.900
 3234SOL    HW210602   3.162   3.038   0.778
 3235SOL     OW10603   1.128   0.405   3.479
 3235SOL    HW110604   1.219   0.402   3.521
 3235SOL    HW210605   1.121   0.487   3.421
 3236SOL     OW10606   4.520   1.104   0.411
 3236SOL    HW110607   4.606   1.150   0.389
 3236SOL    HW210608   4.458   1.109   0.332
 3237SOL     OW10609   5.692   1.863   5.403
 3237SOL    HW110610   5.680   1.947   5.455
 3237SOL    HW210611   5.659   1.785   5.456
 3238SOL     OW10612   6.405   4.954   1.735
 3238SOL    HW110613   6.479   5.017   1.759
 3238SOL    HW210614   6.408   4.875   1.796
 3239SOL     OW10615   6.694   0.136   4.729
 3239SOL    HW110616   6.680   0.041   4.703
 3239SOL    HW210617   6.777   0.171   4.686
 3240SOL     OW10618   6.955   0.659   0.112
 3240SOL    HW110619   0.004   0.719   0.157
 3240SOL    HW210620   6.862   0.677   0.146
 3241SOL     OW10621   6.341   3.002   5.661
 3241SOL    HW110622   6.369   2.907   5.674
 3241SOL    HW210623   6.421   3.062   5.665
 3242SOL     OW10624   6.047   3.818   4.737
 3242SOL    HW110625   5.961   3.769   4.719
 3242SOL    HW210626   6.040   3.868   4.823
 3243SOL     OW10627   6.107   4.483   4.115
 3243SOL    HW110628   6.046   4.555   4.083
 3243SOL    HW210629   6.053   4.409   4.155
 3244SOL     OW10630   4.964   6.985   0.254
 3244SOL    HW110631   5.020   0.012   0.183
 3244SOL    HW210632   4.907   6.913   0.215
 3245SOL     OW10633   3.777   6.862   5.065
 3245SOL    HW110634   3.801   6.837   4.971
 3245SOL    HW210635   3.786   6.961   5.076
 3246SOL     OW10636   0.328   0.354   2.653
 3246SOL    HW110637   0.417   0.401   2.661
 3246SOL    HW210638   0.328   0.297   2.571
 3247SOL     OW10639   0.799   4.162   3.661
 3247SOL    HW110640   0.879   4.216   3.688
 3247SOL    HW210641   0.814   4.125   3.569
 3248SOL     OW10642   5.380   2.175   3.862
 3248SOL    HW110643   5.348   2.095   3.811
 3248SOL    HW210644   5.420   2.147   3.949
 3249SOL     OW10645   3.127   4.088   3.251
 3249SOL    HW110646   3.040   4.129   3.278
 3249SOL    HW210647   3.202   4.135   3.297
 3250SOL     OW10648   4.697   5.273   2.693
 3250SOL    HW110649   4.696   5.329   2.610
 3250SOL    HW210650   4.675   5.178   2.669
 3251SOL     OW10651   2.706   1.959   3.114
 3251SOL    HW110652   2.646   2.038   3.116
 3251SOL    HW210653   2.721   1.931   3.019
 3252SOL     OW10654   1.924   0.967   3.057
 3252SOL    HW110655   2.019   0.961   3.025
 3252SOL    HW210656   1.906   0.893   3.122
 3253SOL     OW10657   6.514   3.627   0.127
 3253SOL    HW110658   6.466   3.564   0.066
 3253SOL    HW210659   6.446   3.684   0.175
 3254SOL     OW10660   6.226   6.565   0.938
 3254SOL    HW110661   6.144   6.610   0.905
 3254SOL    HW210662   6.201   6.491   1.002
 3255SOL     OW10663   4.899   6.322   1.414
 3255SOL    HW110664   4.886   6.405   1.468
 3255SOL    HW210665   4.868   6.242   1.466
 3256SOL     OW10666   5.017   2.905   1.368
 3256SOL    HW110667   4.974   2.816   1.348
 3256SOL    HW210668   5.108   2.890   1.405
 3257SOL     OW10669   2.689   1.854   2.849
 3257SOL    HW110670   2.650   1.845   2.757
 3257SOL    HW210671   2.669   1.771   2.902
 3258SOL     OW10672   1.688   5.291   3.999
 3258SOL    HW110673   1.606   5.347   3.992
 3258SOL    HW210674   1.674   5.205   3.950
 3259SOL     OW10675   4.856   4.046   4.132
 3259SOL    HW110676   4.803   4.049   4.216
 3259SOL    HW210677   4.840   4.129   4.079
 3260SOL     OW10678   1.435   4.480   3.088
 3260SOL    HW110679   1.445   4.385   3.060
 3260SOL    HW210680   1.338   4.506   3.083
 3261SOL     OW10681   5.605   0.036   4.103
 3261SOL    HW110682   5.561   0.089   4.030
 3261SOL    HW210683   5.539   6.986   4.141
 3262SOL     OW10684   2.660   1.591   3.506
 3262SOL    HW110685   2.591   1.589   3.578
 3262SOL    HW210686   2.636   1.660   3.438
 3263SOL     OW10687   0.236   0.961   2.467
 3263SOL    HW110688   0.176   0.918   2.400
 3263SOL    HW210689   0.182   1.021   2.526
 3264SOL     OW10690   1.903   4.935   6.662
 3264SOL    HW110691   1.857   4.999   6.723
 3264SOL    HW210692   1.837   4.870   6.626
 3265SOL     OW10693   6.484   5.508   0.007
 3265SOL    HW110694   6.541   5.540   6.947
 3265SOL    HW210695   6.524   5.536   0.094
 3266SOL     OW10696   3.755   5.191   6.233
 3266SOL    HW110697   3.716   5.157   6.319
 3266SOL    HW210698   3.749   5.119   6.164
 3267SOL     OW10699   3.225   0.167   0.434
 3267SOL    HW110700   3.151   0.145   0.498
 3267SOL    HW210701   3.293   0.223   0.481
 3268SOL     OW10702   5.804   5.383   2.211
 3268SOL    HW110703   5.748   5.319   2.263
 3268SOL    HW210704   5.765   5.475   2.218
 3269SOL     OW10705   1.518   4.458   1.157
 3269SOL    HW110706   1.579   4.524   1.200
 3269SOL    HW210707   1.482   4.497   1.072
 3270SOL     OW10708   0.769   2.932   5.187
 3270SOL    HW110709   0.807   2.900   5.100
 3270SOL    HW210710   0.711   2.861   5.227
 3271SOL     OW10711   0.814   3.651   1.745
 3271SOL    HW110712   0.887   3.635   1.811
 3271SOL    HW210713   0.772   3.740   1.763
 3272SOL     OW10714   4.337   6.226   0.942
 3272SOL    HW110715   4.260   6.172   0.978
 3272SOL    HW210716   4.409   6.164   0.912
 3273SOL     OW10717   4.328   3.624   6.340
 3273SOL    HW110718   4.308   3.703   6.398
 3273SOL    HW210719   4.245   3.595   6.293
 3274SOL     OW10720   5.595   0.218   1.973
 3274SOL    HW110721   5.627   0.239   2.065
 3274SOL    HW210722   5.570   0.302   1.925
 3275SOL     OW10723   4.955   0.654   1.540
 3275SOL    HW110724   5.002   0.685   1.623
 3275SOL    HW210725   4.866   0.698   1.533
 3276SOL     OW10726   5.166   0.067   0.077
 3276SOL    HW110727   5.230   0.018   0.137
 3276SOL    HW210728   5.153   0.160   0.111
 3277SOL     OW10729   3.267   2.111   2.353
 3277SOL    HW110730   3.362   2.102   2.321
 3277SOL    HW210731   3.266   2.119   2.453
 3278SOL     OW10732   5.847   0.816   6.600
 3278SOL    HW110733   5.833   0.798   6.697
 3278SOL    HW210734   5.782   0.886   6.569
 3279SOL     OW10735   3.199   0.318   1.643
 3279SOL    HW110736   3.148   0.398   1.610
 3279SOL    HW210737   3.196   0.317   1.743
 3280SOL     OW10738   6.424   3.611   4.363
 3280SOL    HW110739   6.478   3.651   4.437
 3280SOL    HW210740   6.340   3.664   4.352
 3281SOL     OW10741   5.756   3.295   1.745
 3281SOL    HW110742   5.714   3.264   1.660
 3281SOL    HW210743   5.808   3.220   1.786
 3282SOL     OW10744   0.125   5.273   4.791
 3282SOL    HW110745   0.209   5.324   4.771
 3282SOL    HW210746   0.143   5.175   4.781
 3283SOL     OW10747   3.505   2.036   0.593
 3283SOL    HW110748   3.518   2.014   0.689
 3283SOL    HW210749   3.501   1.951   0.540
 3284SOL     OW10750   2.427   6.274   4.186
 3284SOL    HW110751   2.432   6.186   4.137
 3284SOL    HW210752   2.465   6.346   4.128
 3285SOL     OW10753   3.559   2.065   4.484
 3285SOL    HW110754   3.572   2.155   4.442
 3285SOL    HW210755   3.561   2.074   4.584
 3286SOL     OW10756   1.864   2.190   2.537
 3286SOL    HW110757   1.863   2.242   2.452
 3286SOL    HW210758   1.811   2.238   2.607
 3287SOL     OW10759   2.096   0.305   0.445
 3287SOL    HW110760   2.056   0.264   0.527
 3287SOL    HW210761   2.105   0.234   0.374
 3288SOL     OW10762   2.862   6.146   1.896
 3288SOL    HW110763   2.872   6.242   1.872
 3288SOL    HW210764   2.805   6.137   1.978
 3289SOL     OW10765   4.263   0.649   6.556
 3289SOL    HW110766   4.357   0.618   6.574
 3289SOL    HW210767   4.200   0.596   6.612
 3290SOL     OW10768   0.557   5.821   0.710
 3290SOL    HW110769   0.636   5.802   0.652
 3290SOL    HW210770   0.504   5.737   0.723
 3291SOL     OW10771   5.140   6.770   5.052
 3291SOL    HW110772   5.195   6.692   5.081
 3291SOL    HW210773   5.045   6.756   5.081
 3292SOL     OW10774   6.617   2.535   0.498
 3292SOL    HW110775   6.656   2.618   0.537
 3292SOL    HW210776   6.562   2.488   0.567
 3293SOL     OW10777   5.971   5.748   3.995
 3293SOL    HW110778   6.027   5.755   3.913
 3293SOL    HW210779   5.879   5.719   3.971
 3294SOL     OW10780   5.207   2.755   5.421
 3294SOL    HW110781   5.235   2.810   5.500
 3294SOL    HW210782   5.183   2.663   5.451
 3295SOL     OW10783   0.470   2.395   2.444
 3295SOL    HW110784   0.420   2.467   2.492
 3295SOL    HW210785   0.566   2.398   2.471
 3296SOL     OW10786   1.983   1.020   5.984
 3296SOL    HW110787   1.930   0.941   5.954
 3296SOL    HW210788   2.024   1.064   5.904
 3297SOL     OW10789   3.606   0.988   4.886
 3297SOL    HW110790   3.693   1.036   4.874
 3297SOL    HW210791   3.589   0.974   4.984
 3298SOL     OW10792   4.821   3.494   5.964
 3298SOL    HW110793   4.744   3.449   6.010
 3298SOL    HW210794   4.790   3.581   5.925
 3299SOL     OW10795   2.229   5.298   3.707
 3299SOL    HW110796   2.316   5.251   3.694
 3299SOL    HW210797   2.191   5.273   3.796
 3300SOL     OW10798   2.272   6.934   4.090
 3300SOL    HW110799   2.265   0.015   4.062
 3300SOL    HW210800   2.359   6.896   4.058
 3301SOL     OW10801   0.655   1.171   3.427
 3301SOL    HW110802   0.655   1.259   3.475
 3301SOL    HW210803   0.749   1.141   3.411
 3302SOL     OW10804   1.382   5.256   5.267
 3302SOL    HW110805   1.463   5.311   5.250
 3302SOL    HW210806   1.407   5.159   5.270
 3303SOL     OW10807   3.486   3.374   0.157
 3303SOL    HW110808   3.472   3.400   0.252
 3303SOL    HW210809   3.478   3.275   0.147
 3304SOL     OW10810   2.712   4.533   6.932
 3304SOL    HW110811   2.734   4.554   0.011
 3304SOL    HW210812   2.796   4.519   6.880
 3305SOL     OW10813   3.403   3.177   0.568
 3305SOL    HW110814   3.457   3.167   0.652
 3305SOL    HW210815   3.318   3.125   0.577
 3306SOL     OW10816   2.259   0.747   6.805
 3306SOL    HW110817   2.185   0.810   6.829
 3306SOL    HW210818   2.346   0.797   6.805
 3307SOL     OW10819   1.120   6.227   5.007
 3307SOL    HW110820   1.093   6.141   5.050
 3307SOL    HW210821   1.047   6.295   5.017
 3308SOL     OW10822   4.105   4.786   1.141
 3308SOL    HW110823   4.115   4.820   1.048
 3308SOL    HW210824   4.160   4.841   1.204
 3309SOL     OW10825   5.583   3.043   2.941
 3309SOL    HW110826   5.649   3.023   2.870
 3309SOL    HW210827   5.491   3.044   2.902
 3310SOL     OW10828   6.323   4.927   6.013
 3310SOL    HW110829   6.422   4.929   6.028
 3310SOL    HW210830   6.299   4.850   5.954
 3311SOL     OW10831   2.857   3.651   0.530
 3311SOL    HW110832   2.768   3.648   0.484
 3311SOL    HW210833   2.894   3.744   0.524
 3312SOL     OW10834   4.340   2.886   6.252
 3312SOL    HW110835   4.357   2.861   6.157
 3312SOL    HW210836   4.411   2.846   6.310
 3313SOL     OW10837   6.745   0.445   3.853
 3313SOL    HW110838   6.825   0.388   3.833
 3313SOL    HW210839   6.683   0.395   3.913
 3314SOL     OW10840   3.569   5.741   2.475
 3314SOL    HW110841   3.528   5.703   2.557
 3314SOL    HW210842   3.637   5.677   2.438
 3315SOL     OW10843   0.313   5.792   4.369
 3315SOL    HW110844   0.356   5.730   4.434
 3315SOL    HW210845   0.363   5.790   4.282
 3316SOL     OW10846   4.854   2.413   6.687
 3316SOL    HW110847   4.891   2.321   6.684
 3316SOL    HW210848   4.756   2.409   6.707
 3317SOL     OW10849   4.952   2.621   2.074
 3317SOL    HW110850   5.023   2.648   2.139
 3317SOL    HW210851   4.932   2.524   2.085
 3318SOL     OW10852   3.341   2.668   0.530
 3318SOL    HW110853   3.338   2.748   0.590
 3318SOL    HW210854   3.358   2.698   0.436
 3319SOL     OW10855   6.558   5.824   3.819
 3319SOL    HW110856   6.597   5.867   3.901
 3319SOL    HW210857   6.598   5.866   3.737
 3320SOL     OW10858   6.317   6.555   1.818
 3320SOL    HW110859   6.220   6.560   1.794
 3320SOL    HW210860   6.370   6.535   1.736
 3321SOL     OW10861   4.912   2.082   0.414
 3321SOL    HW110862   4.859   2.164   0.437
 3321SOL    HW210863   4.873   2.039   0.332
 3322SOL     OW10864   6.069   3.205   0.542
 3322SOL    HW110865   5.996   3.191   0.610
 3322SOL    HW210866   6.128   3.280   0.572
 3323SOL     OW10867   1.411   2.323   1.388
 3323SOL    HW110868   1.369   2.412   1.372
 3323SOL    HW210869   1.468   2.327   1.470
 3324SOL     OW10870   5.184   5.951   5.599
 3324SOL    HW110871   5.272   5.965   5.643
 3324SOL    HW210872   5.115   5.929   5.669
 3325SOL     OW10873   2.181   4.299   5.506
 3325SOL    HW110874   2.243   4.245   5.451
 3325SOL    HW210875   2.162   4.386   5.459
 3326SOL     OW10876   3.983   1.591   2.320
 3326SOL    HW110877   4.026   1.614   2.407
 3326SOL    HW210878   3.888   1.624   2.320
 3327SOL     OW10879   0.571   5.078   6.478
 3327SOL    HW110880   0.637   5.008   6.504
 3327SOL    HW210881   0.615   5.168   6.477
 3328SOL     OW10882   4.742   2.457   5.701
 3328SOL    HW110883   4.805   2.521   5.658
 3328SOL    HW210884   4.649   2.478   5.672
 3329SOL     OW10885   6.629   6.183   5.702
 3329SOL    HW110886   6.543   6.132   5.707
 3329SOL    HW210887   6.696   6.131   5.649
 3330SOL     OW10888   0.239   3.639   2.937
 3330SOL    HW110889   0.188   3.718   2.903
 3330SOL    HW210890   0.210   3.557   2.886
 3331SOL     OW10891   2.264   3.364   0.200
 3331SOL    HW110892   2.235   3.459   0.213
 3331SOL    HW210893   2.358   3.362   0.167
 3332SOL     OW10894   6.469   4.485   1.638
 3332SOL    HW110895   6.508   4.393   1.641
 3332SOL    HW210896   6.491   4.528   1.550
 3333SOL     OW10897   3.823   5.551   6.710
 3333SOL    HW110898   3.895   5.499   6.664
 3333SOL    HW210899   3.804   5.635   6.658
 3334SOL     OW10900   2.154   3.919   1.480
 3334SOL    HW110901   2.251   3.943   1.490
 3334SOL    HW210902   2.134   3.903   1.384
 3335SOL     OW10903   5.923   3.985   4.408
 3335SOL    HW110904   5.842   4.003   4.464
 3335SOL    HW210905   6.005   4.013   4.457
 3336SOL     OW10906   2.695   6.125   5.800
 3336SOL    HW110907   2.674   6.104   5.895
 3336SOL    HW210908   2.770   6.066   5.769
 3337SOL     OW10909   3.708   1.662   0.493
 3337SOL    HW110910   3.782   1.702   0.547
 3337SOL    HW210911   3.733   1.569   0.467
 3338SOL     OW10912   6.771   4.190   0.384
 3338SOL    HW110913   6.741   4.120   0.320
 3338SOL    HW210914   6.799   4.148   0.470
 3339SOL     OW10915   0.589   5.733   6.174
 3339SOL    HW110916   0.648   5.800   6.128
 3339SOL    HW210917   0.546   5.776   6.253
 3340SOL     OW10918   3.806   6.957   1.682
 3340SOL    HW110919   3.830   6.866   1.715
 3340SOL    HW210920   3.711   6.977   1.704
 3341SOL     OW10921   0.918   6.886   1.999
 3341SOL    HW110922   0.984   6.860   2.070
 3341SOL    HW210923   0.832   6.912   2.042
 3342SOL     OW10924   2.612   0.159   4.589
 3342SOL    HW110925   2.605   0.218   4.669
 3342SOL    HW210926   2.708   0.141   4.568
 3343SOL     OW10927   6.314   2.126   1.492
 3343SOL    HW110928   6.281   2.043   1.538
 3343SOL    HW210929   6.271   2.131   1.401
 3344SOL     OW10930   6.733   2.883   5.308
 3344SOL    HW110931   6.691   2.868   5.398
 3344SOL    HW210932   6.751   2.981   5.296
 3345SOL     OW10933   3.138   3.860   6.051
 3345SOL    HW110934   3.228   3.846   6.009
 3345SOL    HW210935   3.146   3.926   6.125
 3346SOL     OW10936   1.438   5.733   2.381
 3346SOL    HW110937   1.492   5.744   2.465
 3346SOL    HW210938   1.441   5.818   2.328
 3347SOL     OW10939   5.704   4.026   4.595
 3347SOL    HW110940   5.689   3.997   4.689
 3347SOL    HW210941   5.626   4.000   4.539
 3348SOL     OW10942   3.967   3.579   3.000
 3348SOL    HW110943   3.884   3.530   2.973
 3348SOL    HW210944   3.959   3.675   2.973
 3349SOL     OW10945   6.377   3.566   5.346
 3349SOL    HW110946   6.455   3.587   5.406
 3349SOL    HW210947   6.409   3.509   5.270
 3350SOL     OW10948   1.597   2.339   1.161
 3350SOL    HW110949   1.513   2.333   1.216
 3350SOL    HW210950   1.672   2.295   1.211
 3351SOL     OW10951   5.426   1.896   1.136
 3351SOL    HW110952   5.517   1.873   1.170
 3351SOL    HW210953   5.426   1.888   1.036
 3352SOL     OW10954   0.448   3.281   0.191
 3352SOL    HW110955   0.402   3.369   0.200
 3352SOL    HW210956   0.389   3.208   0.225
 3353SOL     OW10957   1.906   6.955   6.367
 3353SOL    HW110958   1.967   6.975   6.444
 3353SOL    HW210959   1.940   7.000   6.285
 3354SOL     OW10960   1.086   1.170   2.585
 3354SOL    HW110961   1.061   1.075   2.605
 3354SOL    HW210962   1.136   1.174   2.499
 3355SOL     OW10963   6.580   1.799   2.652
 3355SOL    HW110964   6.545   1.706   2.639
 3355SOL    HW210965   6.514   1.865   2.617
 3356SOL     OW10966   2.282   3.507   6.179
 3356SOL    HW110967   2.184   3.527   6.169
 3356SOL    HW210968   2.326   3.583   6.226
 3357SOL     OW10969   2.153   5.284   2.276
 3357SOL    HW110970   2.084   5.224   2.235
 3357SOL    HW210971   2.161   5.368   2.221
 3358SOL     OW10972   6.077   4.248   3.085
 3358SOL    HW110973   6.106   4.186   3.157
 3358SOL    HW210974   6.123   4.224   2.999
 3359SOL     OW10975   1.157   1.255   1.638
 3359SOL    HW110976   1.175   1.230   1.733
 3359SOL    HW210977   1.244   1.262   1.588
 3360SOL     OW10978   1.365   0.558   6.374
 3360SOL    HW110979   1.322   0.507   6.299
 3360SOL    HW210980   1.408   0.641   6.338
 3361SOL     OW10981   5.061   0.797   2.882
 3361SOL    HW110982   5.129   0.871   2.884
 3361SOL    HW210983   5.108   0.709   2.891
 3362SOL     OW10984   2.049   1.669   5.525
 3362SOL    HW110985   2.120   1.692   5.591
 3362SOL    HW210986   1.969   1.633   5.574
 3363SOL     OW10987   0.089   1.309   6.809
 3363SOL    HW110988   7.007   1.326   6.793
 3363SOL    HW210989   0.112   1.335   6.903
 3364SOL     OW10990   1.975   4.697   5.809
 3364SOL    HW110991   2.020   4.636   5.744
 3364SOL    HW210992   2.044   4.743   5.865
 3365SOL     OW10993   5.625   1.846   5.763
 3365SOL    HW110994   5.569   1.905   5.822
 3365SOL    HW210995   5.646   1.894   5.678
 3366SOL     OW10996   5.326   1.101   6.006
 3366SOL    HW110997   5.394   1.074   5.938
 3366SOL    HW210998   5.252   1.152   5.962
 3367SOL     OW10999   1.391   0.665   2.152
 3367SOL    HW111000   1.384   0.706   2.243
 3367SOL    HW211001   1.300   0.640   2.119
 3368SOL     OW11002   6.247   0.161   5.931
 3368SOL    HW111003   6.161   0.112   5.920
 3368SOL    HW211004   6.301   0.155   5.847
 3369SOL     OW11005   3.598   6.325   5.469
 3369SOL    HW111006   3.517   6.276   5.500
 3369SOL    HW211007   3.574   6.419   5.446
 3370SOL     OW11008   4.843   0.434   4.751
 3370SOL    HW111009   4.940   0.451   4.767
 3370SOL    HW211010   4.826   0.336   4.748
 3371SOL     OW11011   0.118   5.092   1.703
 3371SOL    HW111012   0.025   5.065   1.677
 3371SOL    HW211013   0.184   5.045   1.644
 3372SOL     OW11014   0.261   1.757   2.519
 3372SOL    HW111015   0.304   1.775   2.607
 3372SOL    HW211016   0.251   1.843   2.469
 3373SOL     OW11017   0.454   2.209   5.627
 3373SOL    HW111018   0.365   2.219   5.584
 3373SOL    HW211019   0.466   2.281   5.695
 3374SOL     OW11020   3.460   5.224   5.217
 3374SOL    HW111021   3.493   5.318   5.222
 3374SOL    HW211022   3.365   5.220   5.247
 3375SOL     OW11023   4.061   4.056   5.275
 3375SOL    HW111024   4.139   3.994   5.278
 3375SOL    HW211025   4.092   4.149   5.293
 3376SOL     OW11026   3.137   3.528   2.270
 3376SOL    HW111027   3.158   3.564   2.361
 3376SOL    HW211028   3.041   3.498   2.267
 3377SOL     OW11029   2.891   5.948   5.637
 3377SOL    HW111030   2.902   5.932   5.539
 3377SOL    HW211031   2.981   5.942   5.681
 3378SOL     OW11032   0.734   1.481   1.160
 3378SOL    HW111033   0.701   1.394   1.197
 3378SOL    HW211034   0.733   1.550   1.233
 3379SOL     OW11035   1.325   4.616   6.690
 3379SOL    HW111036   1.249   4.572   6.738
 3379SOL    HW211037   1.400   4.551   6.681
 3380SOL     OW11038   0.445   3.823   6.006
 3380SOL    HW111039   0.363   3.782   5.968
 3380SOL    HW211040   0.524   3.797   5.950
 3381SOL     OW11041   3.452   3.054   0.987
 3381SOL    HW111042   3.372   3.088   0.939
 3381SOL    HW211043   3.471   3.113   1.066
 3382SOL     OW11044   6.542   6.804   0.414
 3382SOL    HW111045   6.607   6.813   0.338
 3382SOL    HW211046   6.545   6.886   0.471
 3383SOL     OW11047   6.726   4.697   3.143
 3383SOL    HW111048   6.814   4.699   3.095
 3383SOL    HW211049   6.738   4.655   3.233
 3384SOL     OW11050   3.417   2.919   4.454
 3384SOL    HW111051   3.395   2.848   4.387
 3384SOL    HW211052   3.509   2.903   4.490
 3385SOL     OW11053   6.386   3.805   3.367
 3385SOL    HW111054   6.414   3.709   3.363
 3385SOL    HW211055   6.394   3.837   3.461
 3386SOL     OW11056   6.287   4.417   4.889
 3386SOL    HW111057   6.188   4.426   4.883
 3386SOL    HW211058   6.327   4.505   4.914
 3387SOL     OW11059   2.964   1.966   3.225
 3387SOL    HW111060   2.866   1.963   3.207
 3387SOL    HW211061   3.010   2.013   3.149
 3388SOL     OW11062   5.118   2.744   2.317
 3388SOL    HW111063   5.199   2.755   2.258
 3388SOL    HW211064   5.083   2.834   2.342
 3389SOL     OW11065   5.523   4.570   3.010
 3389SOL    HW111066   5.602   4.526   2.967
 3389SOL    HW211067   5.492   4.646   2.952
 3390SOL     OW11068   5.267   2.796   5.743
 3390SOL    HW111069   5.248   2.724   5.810
 3390SOL    HW211070   5.180   2.835   5.711
 3391SOL     OW11071   3.557   1.535   3.968
 3391SOL    HW111072   3.485   1.594   3.932
 3391SOL    HW211073   3.541   1.518   4.066
 3392SOL     OW11074   4.441   5.988   3.602
 3392SOL    HW111075   4.464   6.081   3.576
 3392SOL    HW211076   4.368   5.953   3.542
 3393SOL     OW11077   6.094   0.209   0.012
 3393SOL    HW111078   6.006   0.231   6.984
 3393SOL    HW211079   6.165   0.205   6.958
 3394SOL     OW11080   5.602   2.243   1.691
 3394SOL    HW111081   5.653   2.162   1.717
 3394SOL    HW211082   5.571   2.291   1.773
 3395SOL     OW11083   1.614   3.651   4.881
 3395SOL    HW111084   1.639   3.567   4.833
 3395SOL    HW211085   1.692   3.714   4.879
 3396SOL     OW11086   0.290   4.147   3.781
 3396SOL    HW111087   0.198   4.164   3.816
 3396SOL    HW211088   0.284   4.107   3.689
 3397SOL     OW11089   3.655   6.774   5.877
 3397SOL    HW111090   3.719   6.785   5.953
 3397SOL    HW211091   3.566   6.744   5.912
 3398SOL     OW11092   0.256   6.716   4.228
 3398SOL    HW111093   0.315   6.660   4.169
 3398SOL    HW211094   0.289   6.810   4.229
 3399SOL     OW11095   4.509   5.320   4.832
 3399SOL    HW111096   4.510   5.257   4.909
 3399SOL    HW211097   4.438   5.292   4.767
 3400SOL     OW11098   4.659   2.696   6.665
 3400SOL    HW111099   4.756   2.686   6.641
 3400SOL    HW211100   4.622   2.607   6.690
 3401SOL     OW11101   5.824   5.164   0.272
 3401SOL    HW111102   5.894   5.179   0.203
 3401SOL    HW211103   5.867   5.140   0.359
 3402SOL     OW11104   4.817   5.815   1.970
 3402SOL    HW111105   4.839   5.748   2.041
 3402SOL    HW211106   4.731   5.791   1.927
 3403SOL     OW11107   3.071   1.448   5.115
 3403SOL    HW111108   2.986   1.454   5.063
 3403SOL    HW211109   3.104   1.540   5.136
 3404SOL     OW11110   4.265   0.648   1.111
 3404SOL    HW111111   4.181   0.701   1.108
 3404SOL    HW211112   4.273   0.604   1.201
 3405SOL     OW11113   5.950   3.688   0.351
 3405SOL    HW111114   6.007   3.730   0.421
 3405SOL    HW211115   5.962   3.588   0.353
 3406SOL     OW11116   1.318   4.692   1.877
 3406SOL    HW111117   1.413   4.667   1.891
 3406SOL    HW211118   1.302   4.709   1.780
 3407SOL     OW11119   1.767   6.023   2.496
 3407SOL    HW111120   1.737   6.110   2.535
 3407SOL    HW211121   1.693   5.983   2.442
 3408SOL     OW11122   5.036   4.093   2.798
 3408SOL    HW111123   5.072   4.044   2.719
 3408SOL    HW211124   4.958   4.043   2.836
 3409SOL     OW11125   3.139   0.487   5.578
 3409SOL    HW111126   3.220   0.480   5.637
 3409SOL    HW211127   3.065   0.432   5.617
 3410SOL     OW11128   6.671   0.276   6.670
 3410SOL    HW111129   6.610   0.335   6.617
 3410SOL    HW211130   6.700   0.199   6.612
 3411SOL     OW11131   4.906   2.349   2.121
 3411SOL    HW111132   4.960   2.315   2.197
 3411SOL    HW211133   4.879   2.273   2.062
 3412SOL     OW11134   3.965   4.080   0.532
 3412SOL    HW111135   3.988   4.178   0.529
 3412SOL    HW211136   3.878   4.068   0.579
 3413SOL     OW11137   4.083   2.084   2.714
 3413SOL    HW111138   3.996   2.073   2.667
 3413SOL    HW211139   4.080   2.034   2.801
 3414SOL     OW11140   2.936   2.034   5.361
 3414SOL    HW111141   2.867   2.101   5.389
 3414SOL    HW211142   3.024   2.080   5.349
 3415SOL     OW11143   0.220   5.198   3.946
 3415SOL    HW111144   0.200   5.172   3.852
 3415SOL    HW211145   0.161   5.274   3.973
 3416SOL     OW11146   1.761   4.464   5.378
 3416SOL    HW111147   1.814   4.536   5.335
 3416SOL    HW211148   1.764   4.381   5.321
 3417SOL     OW11149   5.397   0.269   2.530
 3417SOL    HW111150   5.436   0.237   2.443
 3417SOL    HW211151   5.407   0.369   2.535
 3418SOL     OW11152   3.323   1.134   6.317
 3418SOL    HW111153   3.248   1.143   6.383
 3418SOL    HW211154   3.298   1.068   6.247
 3419SOL     OW11155   4.424   4.061   0.609
 3419SOL    HW111156   4.349   4.124   0.592
 3419SOL    HW211157   4.511   4.111   0.611
 3420SOL     OW11158   3.920   2.193   4.249
 3420SOL    HW111159   3.953   2.263   4.186
 3420SOL    HW211160   3.871   2.122   4.198
 3421SOL     OW11161   0.018   6.231   4.562
 3421SOL    HW111162   6.973   6.155   4.588
 3421SOL    HW211163   0.067   6.263   4.643
 3422SOL     OW11164   2.930   1.420   1.698
 3422SOL    HW111165   3.001   1.484   1.725
 3422SOL    HW211166   2.862   1.413   1.771
 3423SOL     OW11167   2.437   0.447   1.174
 3423SOL    HW111168   2.535   0.438   1.192
 3423SOL    HW211169   2.421   0.440   1.076
 3424SOL     OW11170   4.365   1.370   2.691
 3424SOL    HW111171   4.284   1.356   2.748
 3424SOL    HW211172   4.415   1.284   2.683
 3425SOL     OW11173   4.266   4.738   1.660
 3425SOL    HW111174   4.320   4.764   1.739
 3425SOL    HW211175   4.236   4.643   1.670
 3426SOL     OW11176   4.465   3.343   0.471
 3426SOL    HW111177   4.413   3.384   0.546
 3426SOL    HW211178   4.495   3.251   0.498
 3427SOL     OW11179   0.147   2.148   6.633
 3427SOL    HW111180   0.077   2.218   6.624
 3427SOL    HW211181   0.140   2.105   6.723
 3428SOL     OW11182   4.527   4.375   2.981
 3428SOL    HW111183   4.564   4.322   3.057
 3428SOL    HW211184   4.554   4.333   2.894
 3429SOL     OW11185   1.276   3.175   6.644
 3429SOL    HW111186   1.273   3.075   6.643
 3429SOL    HW211187   1.293   3.207   6.738
 3430SOL     OW11188   1.451   6.888   0.196
 3430SOL    HW111189   1.470   6.891   0.098
 3430SOL    HW211190   1.420   6.797   0.222
 3431SOL     OW11191   0.795   5.799   0.208
 3431SOL    HW111192   0.707   5.773   0.248
 3431SOL    HW211193   0.816   5.894   0.233
 3432SOL     OW11194   3.441   1.524   6.488
 3432SOL    HW111195   3.462   1.534   6.585
 3432SOL    HW211196   3.466   1.607   6.439
 3433SOL     OW11197   4.092   0.853   5.109
 3433SOL    HW111198   4.169   0.792   5.092
 3433SOL    HW211199   4.057   0.888   5.023
 3434SOL     OW11200   4.542   2.106   2.655
 3434SOL    HW111201   4.535   2.007   2.664
 3434SOL    HW211202   4.450   2.146   2.653
 3435SOL     OW11203   0.136   1.164   0.380
 3435SOL    HW111204   0.136   1.257   0.344
 3435SOL    HW211205   0.075   1.160   0.460
 3436SOL     OW11206   4.107   6.508   3.765
 3436SOL    HW111207   4.170   6.431   3.758
 3436SOL    HW211208   4.014   6.474   3.774
 3437SOL     OW11209   3.883   0.019   6.522
 3437SOL    HW111210   3.945   6.975   6.470
 3437SOL    HW211211   3.798   0.032   6.470
 3438SOL     OW11212   1.397   3.333   6.446
 3438SOL    HW111213   1.331   3.341   6.372
 3438SOL    HW211214   1.357   3.282   6.522
 3439SOL     OW11215   2.625   5.688   3.431
 3439SOL    HW111216   2.567   5.612   3.459
 3439SOL    HW211217   2.704   5.694   3.492
 3440SOL     OW11218   5.134   2.515   0.767
 3440SOL    HW111219   5.070   2.484   0.837
 3440SOL    HW211220   5.084   2.567   0.698
 3441SOL     OW11221   3.112   0.512   3.897
 3441SOL    HW111222   3.162   0.597   3.912
 3441SOL    HW211223   3.175   0.443   3.859
 3442SOL     OW11224   2.168   5.226   2.873
 3442SOL    HW111225   2.078   5.222   2.831
 3442SOL    HW211226   2.218   5.142   2.854
 3443SOL     OW11227   5.835   0.650   3.698
 3443SOL    HW111228   5.878   0.740   3.698
 3443SOL    HW211229   5.737   0.661   3.682
 3444SOL     OW11230   4.470   5.007   0.046
 3444SOL    HW111231   4.371   4.993   0.053
 3444SOL    HW211232   4.497   5.086   0.099
 3445SOL     OW11233   6.123   4.073   4.584
 3445SOL    HW111234   6.092   4.069   4.679
 3445SOL    HW211235   6.166   4.161   4.567
 3446SOL     OW11236   3.719   6.757   3.089
 3446SOL    HW111237   3.689   6.769   2.995
 3446SOL    HW211238   3.641   6.768   3.151
 3447SOL     OW11239   5.580   5.707   6.298
 3447SOL    HW111240   5.601   5.782   6.234
 3447SOL    HW211241   5.607   5.620   6.257
 3448SOL     OW11242   3.637   2.058   1.183
 3448SOL    HW111243   3.629   2.051   1.282
 3448SOL    HW211244   3.556   2.106   1.147
 3449SOL     OW11245   6.392   5.865   4.047
 3449SOL    HW111246   6.425   5.817   3.966
 3449SOL    HW211247   6.358   5.956   4.020
 3450SOL     OW11248   1.135   1.615   1.266
 3450SOL    HW111249   1.057   1.618   1.203
 3450SOL    HW211250   1.101   1.602   1.359
 3451SOL     OW11251   1.212   5.602   4.544
 3451SOL    HW111252   1.201   5.620   4.446
 3451SOL    HW211253   1.152   5.663   4.596
 3452SOL     OW11254   6.039   1.971   6.583
 3452SOL    HW111255   6.091   2.001   6.503
 3452SOL    HW211256   6.064   2.026   6.662
 3453SOL     OW11257   5.444   5.505   5.362
 3453SOL    HW111258   5.525   5.560   5.341
 3453SOL    HW211259   5.389   5.553   5.430
 3454SOL     OW11260   0.793   0.592   0.427
 3454SOL    HW111261   0.769   0.561   0.519
 3454SOL    HW211262   0.737   0.671   0.403
 3455SOL     OW11263   1.890   2.580   4.227
 3455SOL    HW111264   1.934   2.536   4.148
 3455SOL    HW211265   1.881   2.513   4.301
 3456SOL     OW11266   6.070   6.933   2.097
 3456SOL    HW111267   6.148   6.969   2.045
 3456SOL    HW211268   6.085   6.836   2.114
 3457SOL     OW11269   2.430   5.307   2.871
 3457SOL    HW111270   2.496   5.317   2.946
 3457SOL    HW211271   2.349   5.258   2.904
 3458SOL     OW11272   5.067   5.723   1.017
 3458SOL    HW111273   5.084   5.688   1.109
 3458SOL    HW211274   5.137   5.688   0.955
 3459SOL     OW11275   6.336   6.105   3.937
 3459SOL    HW111276   6.370   6.190   3.978
 3459SOL    HW211277   6.238   6.115   3.918
 3460SOL     OW11278   4.401   3.426   6.633
 3460SOL    HW111279   4.328   3.489   6.608
 3460SOL    HW211280   4.389   3.397   6.728
 3461SOL     OW11281   3.292   5.861   2.521
 3461SOL    HW111282   3.329   5.947   2.484
 3461SOL    HW211283   3.335   5.842   2.609
 3462SOL     OW11284   5.161   3.093   3.219
 3462SOL    HW111285   5.066   3.114   3.192
 3462SOL    HW211286   5.160   3.037   3.302
 3463SOL     OW11287   2.225   2.570   0.839
 3463SOL    HW111288   2.158   2.589   0.766
 3463SOL    HW211289   2.183   2.588   0.928
 3464SOL     OW11290   4.515   2.848   6.848
 3464SOL    HW111291   4.536   2.946   6.850
 3464SOL    HW211292   4.580   2.801   6.788
 3465SOL     OW11293   2.096   3.673   2.087
 3465SOL    HW111294   2.141   3.593   2.048
 3465SOL    HW211295   1.998   3.669   2.069
 3466SOL     OW11296   6.198   4.676   3.806
 3466SOL    HW111297   6.128   4.665   3.877
 3466SOL    HW211298   6.169   4.748   3.742
 3467SOL     OW11299   3.567   2.778   1.328
 3467SOL    HW111300   3.594   2.833   1.407
 3467SOL    HW211301   3.561   2.682   1.355
 3468SOL     OW11302   3.509   1.965   0.861
 3468SOL    HW111303   3.517   2.057   0.900
 3468SOL    HW211304   3.472   1.903   0.930
 3469SOL     OW11305   4.537   6.306   5.820
 3469SOL    HW111306   4.570   6.387   5.772
 3469SOL    HW211307   4.462   6.264   5.767
 3470SOL     OW11308   0.581   2.674   1.770
 3470SOL    HW111309   0.589   2.649   1.866
 3470SOL    HW211310   0.505   2.738   1.759
 3471SOL     OW11311   4.996   3.106   3.810
 3471SOL    HW111312   4.959   3.199   3.817
 3471SOL    HW211313   4.956   3.060   3.731
 3472SOL     OW11314   4.256   1.415   3.514
 3472SOL    HW111315   4.200   1.448   3.590
 3472SOL    HW211316   4.197   1.375   3.443
 3473SOL     OW11317   0.044   4.476   1.860
 3473SOL    HW111318   0.004   4.498   1.949
 3473SOL    HW211319   0.130   4.427   1.873
 3474SOL     OW11320   5.942   5.042   4.077
 3474SOL    HW111321   5.951   5.070   3.981
 3474SOL    HW211322   5.987   5.109   4.136
 3475SOL     OW11323   6.673   3.934   4.101
 3475SOL    HW111324   6.597   3.955   4.163
 3475SOL    HW211325   6.688   4.011   4.040
 3476SOL     OW11326   1.061   0.754   3.506
 3476SOL    HW111327   0.987   0.735   3.441
 3476SOL    HW211328   1.023   0.790   3.590
 3477SOL     OW11329   0.485   4.320   1.787
 3477SOL    HW111330   0.486   4.417   1.763
 3477SOL    HW211331   0.538   4.306   1.871
 3478SOL     OW11332   1.926   0.433   0.676
 3478SOL    HW111333   2.020   0.453   0.707
 3478SOL    HW211334   1.919   0.336   0.655
 3479SOL     OW11335   1.650   4.335   3.936
 3479SOL    HW111336   1.745   4.304   3.936
 3479SOL    HW211337   1.621   4.351   4.031
 3480SOL     OW11338   1.745   5.069   6.845
 3480SOL    HW111339   1.785   5.045   6.933
 3480SOL    HW211340   1.646   5.076   6.854
 3481SOL     OW11341   6.232   0.835   5.212
 3481SOL    HW111342   6.217   0.746   5.168
 3481SOL    HW211343   6.258   0.902   5.143
 3482SOL     OW11344   6.068   3.918   4.987
 3482SOL    HW111345   6.124   3.849   5.034
 3482SOL    HW211346   6.121   4.002   4.975
 3483SOL     OW11347   4.977   2.894   4.530
 3483SOL    HW111348   4.996   2.989   4.505
 3483SOL    HW211349   4.981   2.836   4.448
 3484SOL     OW11350   2.182   3.201   4.871
 3484SOL    HW111351   2.158   3.148   4.790
 3484SOL    HW211352   2.260   3.157   4.917
 3485SOL     OW11353   0.675   2.146   6.056
 3485SOL    HW111354   0.591   2.122   6.006
 3485SOL    HW211355   0.699   2.241   6.037
 3486SOL     OW11356   2.171   6.811   4.918
 3486SOL    HW111357   2.169   6.810   4.818
 3486SOL    HW211358   2.124   6.892   4.951
 3487SOL     OW11359   4.954   1.462   6.735
 3487SOL    HW111360   4.893   1.392   6.772
 3487SOL    HW211361   4.945   1.464   6.635
 3488SOL     OW11362   5.868   0.738   4.428
 3488SOL    HW111363   5.957   0.700   4.405
 3488SOL    HW211364   5.803   0.663   4.445
 3489SOL     OW11365   3.248   6.771   0.338
 3489SOL    HW111366   3.329   6.717   0.316
 3489SOL    HW211367   3.250   6.857   0.288
 3490SOL     OW11368   3.620   5.576   0.234
 3490SOL    HW111369   3.602   5.642   0.162
 3490SOL    HW211370   3.580   5.608   0.320
 3491SOL     OW11371   5.268   4.479   6.523
 3491SOL    HW111372   5.316   4.497   6.608
 3491SOL    HW211373   5.176   4.444   6.543
 3492SOL     OW11374   6.075   4.327   2.716
 3492SOL    HW111375   6.120   4.410   2.748
 3492SOL    HW211376   6.144   4.257   2.696
 3493SOL     OW11377   5.661   3.498   4.860
 3493SOL    HW111378   5.574   3.471   4.819
 3493SOL    HW211379   5.686   3.434   4.932
 3494SOL     OW11380   4.494   1.615   1.932
 3494SOL    HW111381   4.478   1.604   2.030
 3494SOL    HW211382   4.556   1.692   1.917
 3495SOL     OW11383   0.774   2.763   2.744
 3495SOL    HW111384   0.831   2.680   2.738
 3495SOL    HW211385   0.682   2.743   2.710
 3496SOL     OW11386   5.596   5.355   1.151
 3496SOL    HW111387   5.588   5.451   1.122
 3496SOL    HW211388   5.681   5.343   1.203
 3497SOL     OW11389   3.215   0.434   2.534
 3497SOL    HW111390   3.181   0.373   2.606
 3497SOL    HW211391   3.164   0.520   2.537
 3498SOL     OW11392   2.290   1.846   1.373
 3498SOL    HW111393   2.210   1.831   1.431
 3498SOL    HW211394   2.260   1.875   1.282
 3499SOL     OW11395   6.248   5.586   5.414
 3499SOL    HW111396   6.262   5.487   5.422
 3499SOL    HW211397   6.330   5.628   5.375
 3500SOL     OW11398   1.439   2.106   4.102
 3500SOL    HW111399   1.512   2.175   4.098
 3500SOL    HW211400   1.410   2.094   4.197
 3501SOL     OW11401   1.687   0.204   5.806
 3501SOL    HW111402   1.679   0.137   5.733
 3501SOL    HW211403   1.614   0.271   5.798
 3502SOL     OW11404   4.946   3.082   2.130
 3502SOL    HW111405   4.873   3.032   2.082
 3502SOL    HW211406   5.027   3.086   2.072
 3503SOL     OW11407   6.249   6.096   0.023
 3503SOL    HW111408   6.272   5.999   0.017
 3503SOL    HW211409   6.164   6.113   6.989
 3504SOL     OW11410   1.467   1.019   0.864
 3504SOL    HW111411   1.506   0.967   0.788
 3504SOL    HW211412   1.504   0.985   0.951
 3505SOL     OW11413   5.842   4.851   6.357
 3505SOL    HW111414   5.839   4.933   6.299
 3505SOL    HW211415   5.827   4.877   6.452
 3506SOL     OW11416   4.950   4.667   4.791
 3506SOL    HW111417   4.953   4.568   4.779
 3506SOL    HW211418   5.001   4.692   4.873
 3507SOL     OW11419   2.774   6.476   0.450
 3507SOL    HW111420   2.851   6.506   0.394
 3507SOL    HW211421   2.805   6.456   0.543
 3508SOL     OW11422   3.190   2.212   5.391
 3508SOL    HW111423   3.216   2.277   5.462
 3508SOL    HW211424   3.203   2.253   5.301
 3509SOL     OW11425   4.294   5.550   6.620
 3509SOL    HW111426   4.347   5.524   6.700
 3509SOL    HW211427   4.218   5.486   6.608
 3510SOL     OW11428   2.779   0.699   0.815
 3510SOL    HW111429   2.772   0.717   0.913
 3510SOL    HW211430   2.817   0.779   0.768
 3511SOL     OW11431   2.513   4.620   1.901
 3511SOL    HW111432   2.598   4.601   1.951
 3511SOL    HW211433   2.497   4.719   1.900
 3512SOL     OW11434   0.358   4.430   6.617
 3512SOL    HW111435   0.272   4.427   6.566
 3512SOL    HW211436   0.340   4.426   6.715
 3513SOL     OW11437   5.968   1.868   0.077
 3513SOL    HW111438   5.954   1.953   0.128
 3513SOL    HW211439   6.052   1.876   0.023
 3514SOL     OW11440   4.005   1.183   2.623
 3514SOL    HW111441   4.083   1.127   2.595
 3514SOL    HW211442   3.953   1.210   2.542
 3515SOL     OW11443   6.390   5.572   4.446
 3515SOL    HW111444   6.323   5.608   4.381
 3515SOL    HW211445   6.427   5.486   4.411
 3516SOL     OW11446   5.293   0.078   1.341
 3516SOL    HW111447   5.204   0.123   1.336
 3516SOL    HW211448   5.282   7.001   1.378
 3517SOL     OW11449   6.155   0.611   0.705
 3517SOL    HW111450   6.134   0.520   0.668
 3517SOL    HW211451   6.170   0.603   0.803
 3518SOL     OW11452   5.207   1.405   5.449
 3518SOL    HW111453   5.283   1.351   5.414
 3518SOL    HW211454   5.122   1.376   5.404
 3519SOL     OW11455   3.479   0.842   0.468
 3519SOL    HW111456   3.534   0.833   0.385
 3519SOL    HW211457   3.382   0.847   0.443
 3520SOL     OW11458   2.629   6.208   5.034
 3520SOL    HW111459   2.643   6.211   5.133
 3520SOL    HW211460   2.716   6.189   4.989
 3521SOL     OW11461   2.726   2.595   0.141
 3521SOL    HW111462   2.778   2.681   0.150
 3521SOL    HW211463   2.732   2.544   0.227
 3522SOL     OW11464   0.008   5.834   6.577
 3522SOL    HW111465   6.979   5.913   6.534
 3522SOL    HW211466   6.969   5.752   6.560
 3523SOL     OW11467   1.158   5.463   6.139
 3523SOL    HW111468   1.177   5.559   6.118
 3523SOL    HW211469   1.213   5.404   6.080
 3524SOL     OW11470   5.477   0.948   3.300
 3524SOL    HW111471   5.544   0.974   3.369
 3524SOL    HW211472   5.500   0.993   3.213
 3525SOL     OW11473   6.128   4.081   3.352
 3525SOL    HW111474   6.120   4.000   3.410
 3525SOL    HW211475   6.172   4.154   3.404
 3526SOL     OW11476   0.975   6.290   3.014
 3526SOL    HW111477   0.965   6.211   2.953
 3526SOL    HW211478   1.068   6.292   3.051
 3527SOL     OW11479   6.869   2.730   5.628
 3527SOL    HW111480   6.776   2.764   5.642
 3527SOL    HW211481   6.927   2.803   5.593
 3528SOL     OW11482   2.305   6.251   4.912
 3528SOL    HW111483   2.345   6.206   4.831
 3528SOL    HW211484   2.370   6.247   4.988
 3529SOL     OW11485   4.570   5.157   0.420
 3529SOL    HW111486   4.491   5.149   0.481
 3529SOL    HW211487   4.651   5.119   0.465
 3530SOL     OW11488   6.946   0.595   1.940
 3530SOL    HW111489   6.879   0.525   1.913
 3530SOL    HW211490   6.959   0.592   2.039
 3531SOL     OW11491   5.493   1.566   0.725
 3531SOL    HW111492   5.433   1.633   0.681
 3531SOL    HW211493   5.506   1.590   0.821
 3532SOL     OW11494   1.891   1.496   1.824
 3532SOL    HW111495   1.856   1.557   1.895
 3532SOL    HW211496   1.821   1.482   1.754
 3533SOL     OW11497   0.381   1.059   2.717
 3533SOL    HW111498   0.338   1.149   2.708
 3533SOL    HW211499   0.349   0.999   2.643
 3534SOL     OW11500   0.117   0.577   0.968
 3534SOL    HW111501   0.043   0.511   0.952
 3534SOL    HW211502   0.089   0.640   1.041
 3535SOL     OW11503   2.721   5.719   4.496
 3535SOL    HW111504   2.722   5.633   4.546
 3535SOL    HW211505   2.733   5.795   4.559
 3536SOL     OW11506   3.498   2.031   2.824
 3536SOL    HW111507   3.582   2.064   2.866
 3536SOL    HW211508   3.422   2.037   2.889
 3537SOL     OW11509   1.595   5.801   2.605
 3537SOL    HW111510   1.685   5.791   2.563
 3537SOL    HW211511   1.572   5.718   2.656
 3538SOL     OW11512   3.163   5.500   4.138
 3538SOL    HW111513   3.122   5.439   4.071
 3538SOL    HW211514   3.261   5.481   4.145
 3539SOL     OW11515   3.511   3.855   4.287
 3539SOL    HW111516   3.482   3.896   4.373
 3539SOL    HW211517   3.436   3.858   4.222
 3540SOL     OW11518   1.922   1.904   3.865
 3540SOL    HW111519   1.937   1.971   3.938
 3540SOL    HW211520   1.847   1.936   3.807
 3541SOL     OW11521   3.196   4.085   4.864
 3541SOL    HW111522   3.106   4.061   4.900
 3541SOL    HW211523   3.266   4.032   4.912
 3542SOL     OW11524   0.488   5.181   1.747
 3542SOL    HW111525   0.495   5.214   1.653
 3542SOL    HW211526   0.579   5.169   1.785
 3543SOL     OW11527   5.703   2.982   4.578
 3543SOL    HW111528   5.768   2.928   4.633
 3543SOL    HW211529   5.722   3.079   4.589
 3544SOL     OW11530   2.023   5.020   6.012
 3544SOL    HW111531   1.988   4.992   6.101
 3544SOL    HW211532   1.951   5.013   5.943
 3545SOL     OW11533   3.995   5.137   6.461
 3545SOL    HW111534   3.969   5.049   6.420
 3545SOL    HW211535   4.091   5.155   6.442
 3546SOL     OW11536   6.267   5.132   3.038
 3546SOL    HW111537   6.189   5.102   3.093
 3546SOL    HW211538   6.277   5.231   3.043
 3547SOL     OW11539   5.528   5.098   4.462
 3547SOL    HW111540   5.485   5.159   4.396
 3547SOL    HW211541   5.626   5.093   4.442
 3548SOL     OW11542   4.639   2.935   5.499
 3548SOL    HW111543   4.726   2.910   5.456
 3548SOL    HW211544   4.570   2.949   5.428
 3549SOL     OW11545   5.868   4.162   2.773
 3549SOL    HW111546   5.842   4.139   2.867
 3549SOL    HW211547   5.927   4.243   2.774
 3550SOL     OW11548   5.910   1.849   2.331
 3550SOL    HW111549   5.959   1.893   2.406
 3550SOL    HW211550   5.976   1.811   2.266
 3551SOL     OW11551   2.803   6.843   3.333
 3551SOL    HW111552   2.763   6.860   3.422
 3551SOL    HW211553   2.807   6.929   3.281
 3552SOL     OW11554   6.436   4.950   2.882
 3552SOL    HW111555   6.476   4.996   2.803
 3552SOL    HW211556   6.371   5.011   2.927
 3553SOL     OW11557   5.775   1.322   2.876
 3553SOL    HW111558   5.713   1.400   2.887
 3553SOL    HW211559   5.827   1.333   2.791
 3554SOL     OW11560   4.169   4.951   6.145
 3554SOL    HW111561   4.183   4.990   6.236
 3554SOL    HW211562   4.258   4.926   6.106
 3555SOL     OW11563   1.259   2.717   3.278
 3555SOL    HW111564   1.356   2.729   3.300
 3555SOL    HW211565   1.233   2.784   3.208
 3556SOL     OW11566   3.665   0.477   6.562
 3556SOL    HW111567   3.674   0.534   6.480
 3556SOL    HW211568   3.617   0.393   6.539
 3557SOL     OW11569   1.523   0.480   5.267
 3557SOL    HW111570   1.605   0.425   5.280
 3557SOL    HW211571   1.457   0.430   5.211
 3558SOL     OW11572   6.940   5.742   1.499
 3558SOL    HW111573   6.867   5.800   1.536
 3558SOL    HW211574   6.943   5.752   1.400
 3559SOL     OW11575   0.714   0.342   5.322
 3559SOL    HW111576   0.650   0.397   5.375
 3559SOL    HW211577   0.730   0.255   5.368
 3560SOL     OW11578   6.777   6.605   1.471
 3560SOL    HW111579   6.738   6.583   1.382
 3560SOL    HW211580   6.858   6.662   1.459
 3561SOL     OW11581   5.081   4.705   5.029
 3561SOL    HW111582   5.143   4.732   5.103
 3561SOL    HW211583   5.056   4.609   5.040
 3562SOL     OW11584   4.436   0.927   2.902
 3562SOL    HW111585   4.514   0.957   2.957
 3562SOL    HW211586   4.433   0.827   2.900
 3563SOL     OW11587   4.757   0.833   1.603
 3563SOL    HW111588   4.710   0.783   1.676
 3563SOL    HW211589   4.793   0.919   1.640
 3564SOL     OW11590   0.119   4.792   3.303
 3564SOL    HW111591   0.134   4.867   3.368
 3564SOL    HW211592   0.172   4.712   3.332
 3565SOL     OW11593   2.145   0.433   5.073
 3565SOL    HW111594   2.055   0.476   5.065
 3565SOL    HW211595   2.213   0.488   5.024
 3566SOL     OW11596   0.698   3.584   5.439
 3566SOL    HW111597   0.722   3.495   5.399
 3566SOL    HW211598   0.749   3.656   5.391
 3567SOL     OW11599   0.315   3.300   1.137
 3567SOL    HW111600   0.275   3.281   1.047
 3567SOL    HW211601   0.400   3.352   1.125
 3568SOL     OW11602   4.809   3.969   3.361
 3568SOL    HW111603   4.850   3.878   3.372
 3568SOL    HW211604   4.881   4.038   3.368
 3569SOL     OW11605   3.895   3.508   3.818
 3569SOL    HW111606   3.908   3.553   3.906
 3569SOL    HW211607   3.814   3.449   3.823
 3570SOL     OW11608   0.256   2.241   5.895
 3570SOL    HW111609   0.156   2.247   5.903
 3570SOL    HW211610   0.293   2.332   5.878
 3571SOL     OW11611   2.263   6.549   4.970
 3571SOL    HW111612   2.274   6.505   4.880
 3571SOL    HW211613   2.193   6.621   4.963
 3572SOL     OW11614   4.693   4.729   1.999
 3572SOL    HW111615   4.773   4.711   2.058
 3572SOL    HW211616   4.662   4.643   1.959
 3573SOL     OW11617   0.246   3.889   3.274
 3573SOL    HW111618   0.215   3.980   3.246
 3573SOL    HW211619   0.167   3.833   3.299
 3574SOL     OW11620   2.088   2.741   5.651
 3574SOL    HW111621   2.158   2.811   5.667
 3574SOL    HW211622   2.006   2.764   5.704
 3575SOL     OW11623   5.215   0.323   0.530
 3575SOL    HW111624   5.207   0.260   0.608
 3575SOL    HW211625   5.263   0.406   0.559
 3576SOL     OW11626   1.548   2.893   0.907
 3576SOL    HW111627   1.523   2.962   0.839
 3576SOL    HW211628   1.495   2.908   0.991
 3577SOL     OW11629   2.678   3.129   5.733
 3577SOL    HW111630   2.590   3.081   5.732
 3577SOL    HW211631   2.664   3.223   5.765
 3578SOL     OW11632   3.193   2.749   6.010
 3578SOL    HW111633   3.229   2.707   5.927
 3578SOL    HW211634   3.114   2.807   5.987
 3579SOL     OW11635   0.716   3.023   2.005
 3579SOL    HW111636   0.725   2.937   2.054
 3579SOL    HW211637   0.720   3.007   1.907
 3580SOL     OW11638   0.567   4.576   1.770
 3580SOL    HW111639   0.641   4.626   1.725
 3580SOL    HW211640   0.490   4.638   1.788
 3581SOL     OW11641   1.804   0.050   2.879
 3581SOL    HW111642   1.898   0.084   2.868
 3581SOL    HW211643   1.806   6.965   2.885
 3582SOL     OW11644   3.715   4.740   6.364
 3582SOL    HW111645   3.619   4.745   6.392
 3582SOL    HW211646   3.774   4.758   6.443
 3583SOL     OW11647   0.653   5.061   0.626
 3583SOL    HW111648   0.690   5.100   0.710
 3583SOL    HW211649   0.727   5.026   0.570
 3584SOL     OW11650   6.305   4.780   5.209
 3584SOL    HW111651   6.224   4.740   5.167
 3584SOL    HW211652   6.287   4.877   5.230
 3585SOL     OW11653   2.851   1.340   3.046
 3585SOL    HW111654   2.948   1.336   3.072
 3585SOL    HW211655   2.802   1.401   3.109
 3586SOL     OW11656   6.660   1.989   5.017
 3586SOL    HW111657   6.612   1.902   5.032
 3586SOL    HW211658   6.756   1.979   5.045
 3587SOL     OW11659   2.874   6.980   6.615
 3587SOL    HW111660   2.955   7.013   6.665
 3587SOL    HW211661   2.799   0.029   6.627
 3588SOL     OW11662   6.448   4.282   4.676
 3588SOL    HW111663   6.400   4.304   4.761
 3588SOL    HW211664   6.529   4.340   4.667
 3589SOL     OW11665   0.095   0.350   6.000
 3589SOL    HW111666   0.049   0.363   6.088
 3589SOL    HW211667   0.030   0.361   5.926
 3590SOL     OW11668   6.612   5.086   0.408
 3590SOL    HW111669   6.566   5.171   0.381
 3590SOL    HW211670   6.702   5.082   0.365
 3591SOL     OW11671   5.512   1.680   6.852
 3591SOL    HW111672   5.536   1.633   6.767
 3591SOL    HW211673   5.588   1.674   6.916
 3592SOL     OW11674   1.830   6.390   1.449
 3592SOL    HW111675   1.766   6.407   1.524
 3592SOL    HW211676   1.840   6.473   1.395
 3593SOL     OW11677   4.438   3.161   5.402
 3593SOL    HW111678   4.504   3.227   5.366
 3593SOL    HW211679   4.446   3.075   5.352
 3594SOL     OW11680   4.456   4.781   5.148
 3594SOL    HW111681   4.413   4.720   5.081
 3594SOL    HW211682   4.499   4.858   5.100
 3595SOL     OW11683   5.598   6.642   4.902
 3595SOL    HW111684   5.590   6.741   4.908
 3595SOL    HW211685   5.515   6.599   4.937
 3596SOL     OW11686   3.945   2.150   3.891
 3596SOL    HW111687   3.987   2.230   3.934
 3596SOL    HW211688   3.977   2.067   3.935
 3597SOL     OW11689   2.439   3.209   5.435
 3597SOL    HW111690   2.446   3.190   5.337
 3597SOL    HW211691   2.490   3.139   5.486
 3598SOL     OW11692   1.341   5.623   5.049
 3598SOL    HW111693   1.245   5.622   5.078
 3598SOL    HW211694   1.357   5.547   4.987
 3599SOL     OW11695   3.568   1.198   4.703
 3599SOL    HW111696   3.568   1.120   4.766
 3599SOL    HW211697   3.631   1.268   4.737
 3600SOL     OW11698   3.118   3.616   0.463
 3600SOL    HW111699   3.021   3.592   0.467
 3600SOL    HW211700   3.155   3.621   0.556
 3601SOL     OW11701   4.927   0.730   4.871
 3601SOL    HW111702   4.888   0.822   4.865
 3601SOL    HW211703   4.859   0.663   4.842
 3602SOL     OW11704   2.085   1.799   1.532
 3602SOL    HW111705   1.985   1.790   1.529
 3602SOL    HW211706   2.120   1.756   1.616
 3603SOL     OW11707   2.645   0.607   5.513
 3603SOL    HW111708   2.611   0.681   5.455
 3603SOL    HW211709   2.678   0.531   5.456
 3604SOL     OW11710   6.932   0.196   3.072
 3604SOL    HW111711   6.950   0.255   2.994
 3604SOL    HW211712   6.878   0.117   3.043
 3605SOL     OW11713   1.515   6.372   3.849
 3605SOL    HW111714   1.467   6.307   3.908
 3605SOL    HW211715   1.609   6.382   3.880
 3606SOL     OW11716   2.728   6.685   2.579
 3606SOL    HW111717   2.713   6.675   2.481
 3606SOL    HW211718   2.806   6.745   2.595
 3607SOL     OW11719   5.381   1.635   2.563
 3607SOL    HW111720   5.470   1.641   2.606
 3607SOL    HW211721   5.318   1.700   2.606
 3608SOL     OW11722   2.626   1.985   6.174
 3608SOL    HW111723   2.698   2.033   6.124
 3608SOL    HW211724   2.590   2.044   6.246
 3609SOL     OW11725   2.727   0.661   4.824
 3609SOL    HW111726   2.777   0.693   4.744
 3609SOL    HW211727   2.663   0.588   4.797
 3610SOL     OW11728   1.664   0.037   5.168
 3610SOL    HW111729   1.697   0.002   5.080
 3610SOL    HW211730   1.691   0.132   5.179
 3611SOL     OW11731   5.381   5.071   2.882
 3611SOL    HW111732   5.345   5.118   2.962
 3611SOL    HW211733   5.468   5.113   2.855
 3612SOL     OW11734   6.010   1.300   0.050
 3612SOL    HW111735   6.110   1.299   0.046
 3612SOL    HW211736   5.974   1.356   6.991
 3613SOL     OW11737   4.424   5.921   2.040
 3613SOL    HW111738   4.330   5.920   2.075
 3613SOL    HW211739   4.472   6.001   2.075
 3614SOL     OW11740   3.588   5.381   6.596
 3614SOL    HW111741   3.629   5.451   6.656
 3614SOL    HW211742   3.645   5.299   6.599
 3615SOL     OW11743   5.458   2.313   6.085
 3615SOL    HW111744   5.482   2.396   6.035
 3615SOL    HW211745   5.512   2.307   6.169
 3616SOL     OW11746   1.079   2.044   6.983
 3616SOL    HW111747   1.163   2.048   0.022
 3616SOL    HW211748   1.015   2.115   7.015
 3617SOL     OW11749   4.001   5.923   5.326
 3617SOL    HW111750   4.071   5.981   5.367
 3617SOL    HW211751   3.914   5.972   5.324
 3618SOL     OW11752   1.265   5.366   4.203
 3618SOL    HW111753   1.186   5.344   4.146
 3618SOL    HW211754   1.240   5.434   4.271
 3619SOL     OW11755   5.558   3.775   1.599
 3619SOL    HW111756   5.479   3.766   1.659
 3619SOL    HW211757   5.642   3.772   1.653
 3620SOL     OW11758   6.002   5.852   5.133
 3620SOL    HW111759   6.015   5.802   5.048
 3620SOL    HW211760   5.918   5.907   5.127
 3621SOL     OW11761   3.160   3.028   3.370
 3621SOL    HW111762   3.200   3.120   3.365
 3621SOL    HW211763   3.110   3.019   3.456
 3622SOL     OW11764   1.316   6.073   6.496
 3622SOL    HW111765   1.389   6.086   6.429
 3622SOL    HW211766   1.339   6.122   6.580
 3623SOL     OW11767   0.945   5.547   6.284
 3623SOL    HW111768   0.869   5.524   6.224
 3623SOL    HW211769   1.029   5.503   6.251
 3624SOL     OW11770   2.635   2.361   1.229
 3624SOL    HW111771   2.676   2.273   1.203
 3624SOL    HW211772   2.683   2.398   1.308
 3625SOL     OW11773   6.799   2.183   0.679
 3625SOL    HW111774   6.819   2.158   0.773
 3625SOL    HW211775   6.767   2.278   0.676
 3626SOL     OW11776   1.561   2.838   4.868
 3626SOL    HW111777   1.563   2.744   4.835
 3626SOL    HW211778   1.468   2.862   4.895
 3627SOL     OW11779   3.543   2.068   2.164
 3627SOL    HW111780   3.605   2.127   2.113
 3627SOL    HW211781   3.546   2.091   2.261
 3628SOL     OW11782   6.772   2.363   1.311
 3628SOL    HW111783   6.743   2.307   1.233
 3628SOL    HW211784   6.868   2.390   1.299
 3629SOL     OW11785   0.988   1.284   4.076
 3629SOL    HW111786   1.001   1.185   4.067
 3629SOL    HW211787   0.890   1.304   4.088
 3630SOL     OW11788   0.194   2.437   2.027
 3630SOL    HW111789   0.105   2.483   2.025
 3630SOL    HW211790   0.246   2.468   2.108
 3631SOL     OW11791   1.877   6.990   2.557
 3631SOL    HW111792   1.799   6.995   2.619
 3631SOL    HW211793   1.846   6.958   2.467
 3632SOL     OW11794   4.521   3.796   1.482
 3632SOL    HW111795   4.511   3.754   1.573
 3632SOL    HW211796   4.618   3.817   1.466
 3633SOL     OW11797   3.916   4.204   6.806
 3633SOL    HW111798   4.015   4.210   6.818
 3633SOL    HW211799   3.876   4.295   6.803
 3634SOL     OW11800   3.394   5.678   6.478
 3634SOL    HW111801   3.477   5.715   6.435
 3634SOL    HW211802   3.316   5.693   6.418
 3635SOL     OW11803   1.378   5.854   1.916
 3635SOL    HW111804   1.398   5.951   1.932
 3635SOL    HW211805   1.464   5.804   1.907
 3636SOL     OW11806   0.370   4.976   6.616
 3636SOL    HW111807   0.399   4.880   6.613
 3636SOL    HW211808   0.428   5.030   6.556
 3637SOL     OW11809   6.044   3.358   0.032
 3637SOL    HW111810   5.983   3.384   0.107
 3637SOL    HW211811   5.996   3.370   6.960
 3638SOL     OW11812   6.577   3.542   3.153
 3638SOL    HW111813   6.546   3.577   3.242
 3638SOL    HW211814   6.653   3.599   3.120
 3639SOL     OW11815   3.573   2.857   3.912
 3639SOL    HW111816   3.632   2.914   3.969
 3639SOL    HW211817   3.600   2.866   3.816
 3640SOL     OW11818   4.189   2.106   1.496
 3640SOL    HW111819   4.210   2.008   1.503
 3640SOL    HW211820   4.274   2.158   1.491
 3641SOL     OW11821   5.864   3.922   2.602
 3641SOL    HW111822   5.876   4.010   2.647
 3641SOL    HW211823   5.953   3.888   2.572
 3642SOL     OW11824   5.315   3.336   6.371
 3642SOL    HW111825   5.243   3.351   6.438
 3642SOL    HW211826   5.288   3.262   6.309
 3643SOL     OW11827   4.195   5.604   5.079
 3643SOL    HW111828   4.256   5.554   5.139
 3643SOL    HW211829   4.248   5.660   5.015
 3644SOL     OW11830   2.655   0.945   1.404
 3644SOL    HW111831   2.681   0.990   1.319
 3644SOL    HW211832   2.569   0.895   1.392
 3645SOL     OW11833   1.468   4.197   2.896
 3645SOL    HW111834   1.467   4.147   2.983
 3645SOL    HW211835   1.434   4.137   2.823
 3646SOL     OW11836   1.556   4.564   5.602
 3646SOL    HW111837   1.612   4.539   5.680
 3646SOL    HW211838   1.607   4.551   5.517
 3647SOL     OW11839   2.820   0.365   6.441
 3647SOL    HW111840   2.865   0.291   6.391
 3647SOL    HW211841   2.782   0.431   6.376
 3648SOL     OW11842   4.490   5.111   3.312
 3648SOL    HW111843   4.497   5.111   3.213
 3648SOL    HW211844   4.559   5.049   3.350
 3649SOL     OW11845   5.915   2.863   6.969
 3649SOL    HW111846   5.913   2.879   0.052
 3649SOL    HW211847   5.850   2.790   6.946
 3650SOL     OW11848   5.503   5.936   6.947
 3650SOL    HW111849   5.537   5.899   6.860
 3650SOL    HW211850   5.574   5.926   0.002
 3651SOL     OW11851   0.759   1.844   5.630
 3651SOL    HW111852   0.855   1.864   5.649
 3651SOL    HW211853   0.740   1.865   5.534
 3652SOL     OW11854   4.262   1.286   1.664
 3652SOL    HW111855   4.221   1.374   1.637
 3652SOL    HW211856   4.318   1.252   1.589
 3653SOL     OW11857   0.935   1.653   1.093
 3653SOL    HW111858   0.853   1.596   1.103
 3653SOL    HW211859   0.917   1.744   1.129
 3654SOL     OW11860   4.864   6.533   1.636
 3654SOL    HW111861   4.837   6.507   1.728
 3654SOL    HW211862   4.783   6.559   1.583
 3655SOL     OW11863   1.650   1.329   4.004
 3655SOL    HW111864   1.579   1.328   4.074
 3655SOL    HW211865   1.613   1.295   3.918
 3656SOL     OW11866   0.078   0.131   1.532
 3656SOL    HW111867   0.008   0.160   1.466
 3656SOL    HW211868   0.165   0.173   1.509
 3657SOL     OW11869   6.077   5.618   5.631
 3657SOL    HW111870   6.117   5.615   5.540
 3657SOL    HW211871   6.010   5.544   5.641
 3658SOL     OW11872   1.927   5.063   5.551
 3658SOL    HW111873   1.990   5.100   5.483
 3658SOL    HW211874   1.959   5.088   5.642
 3659SOL     OW11875   6.889   2.020   5.979
 3659SOL    HW111876   6.971   1.970   6.007
 3659SOL    HW211877   6.904   2.058   5.887
 3660SOL     OW11878   5.295   5.803   6.406
 3660SOL    HW111879   5.388   5.806   6.369
 3660SOL    HW211880   5.232   5.772   6.335
 3661SOL     OW11881   0.257   1.397   4.872
 3661SOL    HW111882   0.320   1.423   4.945
 3661SOL    HW211883   0.309   1.377   4.789
 3662SOL     OW11884   2.912   1.813   5.491
 3662SOL    HW111885   2.842   1.813   5.562
 3662SOL    HW211886   2.906   1.898   5.438
 3663SOL     OW11887   2.518   2.483   6.684
 3663SOL    HW111888   2.522   2.384   6.699
 3663SOL    HW211889   2.610   2.518   6.669
 3664SOL     OW11890   3.734   1.499   1.551
 3664SOL    HW111891   3.675   1.579   1.544
 3664SOL    HW211892   3.764   1.488   1.646
 3665SOL     OW11893   0.979   5.860   5.998
 3665SOL    HW111894   0.926   5.861   6.083
 3665SOL    HW211895   0.972   5.949   5.953
 3666SOL     OW11896   2.279   2.793   4.511
 3666SOL    HW111897   2.279   2.772   4.609
 3666SOL    HW211898   2.321   2.716   4.461
 3667SOL     OW11899   1.748   6.885   1.195
 3667SOL    HW111900   1.715   6.949   1.264
 3667SOL    HW211901   1.712   6.911   1.105
 3668SOL     OW11902   6.466   0.701   0.898
 3668SOL    HW111903   6.412   0.781   0.869
 3668SOL    HW211904   6.543   0.688   0.836
 3669SOL     OW11905   0.849   1.227   3.768
 3669SOL    HW111906   0.797   1.241   3.852
 3669SOL    HW211907   0.910   1.305   3.753
 3670SOL     OW11908   2.650   6.893   1.792
 3670SOL    HW111909   2.640   6.882   1.891
 3670SOL    HW211910   2.670   6.989   1.772
 3671SOL     OW11911   6.855   0.624   4.222
 3671SOL    HW111912   6.838   0.639   4.320
 3671SOL    HW211913   6.846   0.526   4.202
 3672SOL     OW11914   3.588   6.581   3.755
 3672SOL    HW111915   3.631   6.654   3.702
 3672SOL    HW211916   3.507   6.547   3.707
 3673SOL     OW11917   3.187   6.906   0.975
 3673SOL    HW111918   3.145   6.916   1.065
 3673SOL    HW211919   3.286   6.920   0.983
 3674SOL     OW11920   0.938   4.656   6.658
 3674SOL    HW111921   0.986   4.719   6.596
 3674SOL    HW211922   0.940   4.692   6.751
 3675SOL     OW11923   1.298   0.398   3.964
 3675SOL    HW111924   1.212   0.348   3.978
 3675SOL    HW211925   1.373   0.349   4.008
 3676SOL     OW11926   3.647   1.410   4.431
 3676SOL    HW111927   3.616   1.316   4.422
 3676SOL    HW211928   3.669   1.429   4.527
 3677SOL     OW11929   1.663   1.178   4.618
 3677SOL    HW111930   1.600   1.104   4.597
 3677SOL    HW211931   1.699   1.217   4.533
 3678SOL     OW11932   1.128   0.812   3.930
 3678SOL    HW111933   1.078   0.747   3.987
 3678SOL    HW211934   1.157   0.766   3.846
 3679SOL     OW11935   4.257   0.319   2.236
 3679SOL    HW111936   4.301   0.258   2.302
 3679SOL    HW211937   4.247   0.273   2.148
 3680SOL     OW11938   3.262   1.822   4.358
 3680SOL    HW111939   3.193   1.832   4.429
 3680SOL    HW211940   3.353   1.822   4.400
 3681SOL     OW11941   1.144   6.633   3.921
 3681SOL    HW111942   1.155   6.542   3.881
 3681SOL    HW211943   1.160   6.702   3.851
 3682SOL     OW11944   5.308   2.060   1.346
 3682SOL    HW111945   5.345   2.006   1.271
 3682SOL    HW211946   5.366   2.049   1.427
 3683SOL     OW11947   5.854   1.456   6.835
 3683SOL    HW111948   5.931   1.515   6.810
 3683SOL    HW211949   5.784   1.510   6.883
 3684SOL     OW11950   2.411   6.365   5.257
 3684SOL    HW111951   2.355   6.283   5.270
 3684SOL    HW211952   2.408   6.421   5.341
 3685SOL     OW11953   1.905   6.040   4.635
 3685SOL    HW111954   1.919   6.138   4.649
 3685SOL    HW211955   1.905   6.020   4.537
 3686SOL     OW11956   0.382   3.847   1.264
 3686SOL    HW111957   0.426   3.842   1.175
 3686SOL    HW211958   0.416   3.773   1.322
 3687SOL     OW11959   6.008   4.425   4.982
 3687SOL    HW111960   5.986   4.405   4.887
 3687SOL    HW211961   5.932   4.398   5.041
 3688SOL     OW11962   6.234   2.375   0.943
 3688SOL    HW111963   6.321   2.326   0.939
 3688SOL    HW211964   6.245   2.466   0.904
 3689SOL     OW11965   1.029   0.116   5.884
 3689SOL    HW111966   0.969   0.048   5.841
 3689SOL    HW211967   0.976   0.196   5.911
 3690SOL     OW11968   5.208   5.539   1.697
 3690SOL    HW111969   5.294   5.490   1.717
 3690SOL    HW211970   5.139   5.513   1.765
 3691SOL     OW11971   2.113   2.893   0.674
 3691SOL    HW111972   2.067   2.804   0.664
 3691SOL    HW211973   2.045   2.963   0.693
 3692SOL     OW11974   1.193   2.978   5.310
 3692SOL    HW111975   1.239   3.051   5.260
 3692SOL    HW211976   1.170   2.903   5.247
 3693SOL     OW11977   6.955   1.749   2.219
 3693SOL    HW111978   0.026   1.801   2.219
 3693SOL    HW211979   6.931   1.725   2.313
 3694SOL     OW11980   6.713   0.138   2.690
 3694SOL    HW111981   6.682   0.081   2.613
 3694SOL    HW211982   6.813   0.138   2.692
 3695SOL     OW11983   5.591   3.409   2.995
 3695SOL    HW111984   5.565   3.352   3.073
 3695SOL    HW211985   5.597   3.353   2.913
 3696SOL     OW11986   4.233   0.759   4.270
 3696SOL    HW111987   4.183   0.724   4.349
 3696SOL    HW211988   4.310   0.698   4.250
 3697SOL     OW11989   6.655   6.388   3.338
 3697SOL    HW111990   6.601   6.423   3.261
 3697SOL    HW211991   6.719   6.458   3.369
 3698SOL     OW11992   1.607   0.513   2.943
 3698SOL    HW111993   1.626   0.585   3.008
 3698SOL    HW211994   1.511   0.485   2.951
 3699SOL     OW11995   2.203   2.509   3.330
 3699SOL    HW111996   2.215   2.509   3.429
 3699SOL    HW211997   2.210   2.415   3.295
 3700SOL     OW11998   0.751   5.389   4.840
 3700SOL    HW111999   0.761   5.337   4.756
 3700SOL    HW212000   0.674   5.354   4.893
 3701SOL     OW12001   0.837   0.845   2.134
 3701SOL    HW112002   0.909   0.821   2.069
 3701SOL    HW212003   0.802   0.762   2.177
 3702SOL     OW12004   6.100   3.820   3.449
 3702SOL    HW112005   6.181   3.806   3.393
 3702SOL    HW212006   6.041   3.739   3.443
 3703SOL     OW12007   1.331   1.764   3.431
 3703SOL    HW112008   1.418   1.717   3.446
 3703SOL    HW212009   1.309   1.819   3.511
 3704SOL     OW12010   6.469   1.068   0.436
 3704SOL    HW112011   6.498   1.075   0.341
 3704SOL    HW212012   6.482   0.975   0.469
 3705SOL     OW12013   5.723   4.571   3.997
 3705SOL    HW112014   5.752   4.597   3.905
 3705SOL    HW212015   5.623   4.565   4.000
 3706SOL     OW12016   1.509   4.161   6.198
 3706SOL    HW112017   1.461   4.076   6.177
 3706SOL    HW212018   1.505   4.222   6.118
 3707SOL     OW12019   1.032   5.019   3.328
 3707SOL    HW112020   1.061   4.975   3.243
 3707SOL    HW212021   1.059   4.962   3.405
 3708SOL     OW12022   2.165   6.213   1.184
 3708SOL    HW112023   2.183   6.115   1.178
 3708SOL    HW212024   2.066   6.228   1.190
 3709SOL     OW12025   1.383   1.247   1.513
 3709SOL    HW112026   1.445   1.311   1.467
 3709SOL    HW212027   1.436   1.172   1.553
 3710SOL     OW12028   0.957   4.049   5.269
 3710SOL    HW112029   0.935   3.978   5.203
 3710SOL    HW212030   1.057   4.058   5.277
 3711SOL     OW12031   1.045   5.869   4.423
 3711SOL    HW112032   0.971   5.858   4.488
 3711SOL    HW212033   1.078   5.963   4.425
 3712SOL     OW12034   1.797   5.698   4.291
 3712SOL    HW112035   1.896   5.689   4.282
 3712SOL    HW212036   1.760   5.617   4.335
 3713SOL     OW12037   6.092   0.583   4.353
 3713SOL    HW112038   6.179   0.616   4.316
 3713SOL    HW212039   6.108   0.502   4.410
 3714SOL     OW12040   0.848   4.082   0.415
 3714SOL    HW112041   0.903   4.018   0.360
 3714SOL    HW212042   0.776   4.031   0.463
 3715SOL     OW12043   5.891   4.881   3.807
 3715SOL    HW112044   5.840   4.818   3.748
 3715SOL    HW212045   5.975   4.909   3.760
 3716SOL     OW12046   5.256   5.640   4.939
 3716SOL    HW112047   5.336   5.585   4.965
 3716SOL    HW212048   5.183   5.580   4.906
 3717SOL     OW12049   4.793   1.020   0.820
 3717SOL    HW112050   4.720   0.986   0.879
 3717SOL    HW212051   4.877   1.030   0.873
 3718SOL     OW12052   5.936   6.750   6.461
 3718SOL    HW112053   6.035   6.735   6.457
 3718SOL    HW212054   5.906   6.745   6.556
 3719SOL     OW12055   3.450   3.834   7.001
 3719SOL    HW112056   3.352   3.825   6.983
 3719SOL    HW212057   3.465   3.911   0.048
 3720SOL     OW12058   0.216   3.217   0.873
 3720SOL    HW112059   0.118   3.201   0.869
 3720SOL    HW212060   0.242   3.281   0.801
 3721SOL     OW12061   6.456   0.350   5.573
 3721SOL    HW112062   6.499   0.305   5.495
 3721SOL    HW212063   6.356   0.345   5.564
 3722SOL     OW12064   5.640   6.986   2.643
 3722SOL    HW112065   5.693   0.041   2.596
 3722SOL    HW212066   5.556   6.968   2.592
 3723SOL     OW12067   4.271   3.853   6.956
 3723SOL    HW112068   4.271   3.787   0.015
 3723SOL    HW212069   4.219   3.817   6.879
 3724SOL     OW12070   0.287   4.892   4.365
 3724SOL    HW112071   0.249   4.961   4.304
 3724SOL    HW212072   0.350   4.834   4.314
 3725SOL     OW12073   1.465   6.174   0.155
 3725SOL    HW112074   1.454   6.218   0.244
 3725SOL    HW212075   1.453   6.242   0.082
 3726SOL     OW12076   6.140   3.660   5.454
 3726SOL    HW112077   6.144   3.760   5.462
 3726SOL    HW212078   6.229   3.626   5.425
 3727SOL     OW12079   6.680   2.888   3.769
 3727SOL    HW112080   6.606   2.827   3.797
 3727SOL    HW212081   6.679   2.970   3.824
 3728SOL     OW12082   2.551   3.589   0.694
 3728SOL    HW112083   2.482   3.616   0.762
 3728SOL    HW212084   2.621   3.533   0.739
 3729SOL     OW12085   0.098   0.729   5.881
 3729SOL    HW112086   0.186   0.713   5.926
 3729SOL    HW212087   0.114   0.773   5.793
 3730SOL     OW12088   5.098   5.446   4.825
 3730SOL    HW112089   5.023   5.490   4.776
 3730SOL    HW212090   5.154   5.394   4.761
 3731SOL     OW12091   6.952   2.135   0.116
 3731SOL    HW112092   6.917   2.218   0.073
 3731SOL    HW212093   6.900   2.116   0.199
 3732SOL     OW12094   3.618   2.778   6.832
 3732SOL    HW112095   3.715   2.786   6.858
 3732SOL    HW212096   3.584   2.867   6.803
 3733SOL     OW12097   1.513   0.137   3.571
 3733SOL    HW112098   1.611   0.136   3.589
 3733SOL    HW212099   1.464   0.106   3.653
 3734SOL     OW12100   3.979   0.392   0.862
 3734SOL    HW112101   4.001   0.476   0.912
 3734SOL    HW212102   3.987   0.314   0.924
 3735SOL     OW12103   4.720   6.625   2.949
 3735SOL    HW112104   4.671   6.684   2.885
 3735SOL    HW212105   4.751   6.543   2.901
 3736SOL     OW12106   6.735   1.018   6.909
 3736SOL    HW112107   6.736   0.918   6.903
 3736SOL    HW212108   6.660   1.054   6.852
 3737SOL     OW12109   6.001   1.872   2.928
 3737SOL    HW112110   5.962   1.927   2.855
 3737SOL    HW212111   6.023   1.781   2.893
 3738SOL     OW12112   6.708   0.029   1.483
 3738SOL    HW112113   6.686   0.121   1.449
 3738SOL    HW212114   6.631   7.011   1.538
 3739SOL     OW12115   3.270   3.508   6.954
 3739SOL    HW112116   3.201   3.444   6.920
 3739SOL    HW212117   3.331   3.461   0.002
 3740SOL     OW12118   4.558   5.786   6.810
 3740SOL    HW112119   4.484   5.827   6.864
 3740SOL    HW212120   4.566   5.689   6.833
 3741SOL     OW12121   5.251   3.104   0.332
 3741SOL    HW112122   5.189   3.174   0.368
 3741SOL    HW212123   5.321   3.083   0.401
 3742SOL     OW12124   4.068   5.927   1.215
 3742SOL    HW112125   4.086   5.969   1.126
 3742SOL    HW212126   4.010   5.847   1.203
 3743SOL     OW12127   3.648   3.732   1.182
 3743SOL    HW112128   3.582   3.790   1.229
 3743SOL    HW212129   3.733   3.783   1.167
 3744SOL     OW12130   0.075   6.709   2.380
 3744SOL    HW112131   7.012   6.770   2.394
 3744SOL    HW212132   0.103   6.670   2.467
 3745SOL     OW12133   4.837   2.796   2.471
 3745SOL    HW112134   4.936   2.812   2.470
 3745SOL    HW212135   4.805   2.784   2.377
 3746SOL     OW12136   6.337   0.736   4.264
 3746SOL    HW112137   6.395   0.736   4.346
 3746SOL    HW212138   6.343   0.825   4.219
 3747SOL     OW12139   3.781   6.121   5.394
 3747SOL    HW112140   3.740   6.073   5.316
 3747SOL    HW212141   3.730   6.205   5.413
 3748SOL     OW12142   5.037   2.293   3.373
 3748SOL    HW112143   5.035   2.343   3.459
 3748SOL    HW212144   4.957   2.316   3.319
 3749SOL     OW12145   6.701   6.535   2.466
 3749SOL    HW112146   6.704   6.504   2.371
 3749SOL    HW212147   6.606   6.549   2.494
 3750SOL     OW12148   5.440   4.183   0.919
 3750SOL    HW112149   5.516   4.172   0.984
 3750SOL    HW212150   5.470   4.156   0.828
 3751SOL     OW12151   1.371   3.930   1.871
 3751SOL    HW112152   1.329   4.016   1.843
 3751SOL    HW212153   1.300   3.860   1.883
 3752SOL     OW12154   0.688   6.628   5.994
 3752SOL    HW112155   0.630   6.699   6.034
 3752SOL    HW212156   0.751   6.669   5.929
 3753SOL     OW12157   6.979   0.819   4.581
 3753SOL    HW112158   6.980   0.910   4.540
 3753SOL    HW212159   0.004   0.823   4.672
 3754SOL     OW12160   6.560   6.299   2.086
 3754SOL    HW112161   6.467   6.321   2.058
 3754SOL    HW212162   6.603   6.380   2.126
 3755SOL     OW12163   4.928   2.660   2.919
 3755SOL    HW112164   4.876   2.744   2.934
 3755SOL    HW212165   4.866   2.582   2.923
 3756SOL     OW12166   3.035   0.499   6.879
 3756SOL    HW112167   3.106   0.440   6.916
 3756SOL    HW212168   3.041   0.501   6.779
 3757SOL     OW12169   3.324   4.632   6.839
 3757SOL    HW112170   3.320   4.612   6.937
 3757SOL    HW212171   3.364   4.722   6.825
 3758SOL     OW12172   0.279   0.748   3.411
 3758SOL    HW112173   0.311   0.843   3.411
 3758SOL    HW212174   0.226   0.731   3.494
 3759SOL     OW12175   5.149   5.124   0.259
 3759SOL    HW112176   5.169   5.217   0.288
 3759SOL    HW212177   5.232   5.084   0.218
 3760SOL     OW12178   2.203   2.320   5.373
 3760SOL    HW112179   2.211   2.404   5.426
 3760SOL    HW212180   2.204   2.241   5.434
 3761SOL     OW12181   0.254   6.640   3.875
 3761SOL    HW112182   0.214   6.726   3.909
 3761SOL    HW212183   0.213   6.617   3.787
 3762SOL     OW12184   1.000   3.879   6.511
 3762SOL    HW112185   0.922   3.941   6.502
 3762SOL    HW212186   0.968   3.784   6.511
 3763SOL     OW12187   6.559   3.512   5.806
 3763SOL    HW112188   6.527   3.545   5.895
 3763SOL    HW212189   6.658   3.498   5.809
 3764SOL     OW12190   2.205   6.818   3.748
 3764SOL    HW112191   2.280   6.819   3.814
 3764SOL    HW212192   2.175   6.724   3.733
 3765SOL     OW12193   6.096   1.131   3.746
 3765SOL    HW112194   6.115   1.116   3.843
 3765SOL    HW212195   6.181   1.142   3.696
 3766SOL     OW12196   1.400   0.201   4.870
 3766SOL    HW112197   1.495   0.169   4.874
 3766SOL    HW212198   1.343   0.130   4.829
 3767SOL     OW12199   1.511   4.271   0.883
 3767SOL    HW112200   1.510   4.371   0.872
 3767SOL    HW212201   1.429   4.243   0.932
 3768SOL     OW12202   4.615   6.382   0.795
 3768SOL    HW112203   4.655   6.302   0.840
 3768SOL    HW212204   4.688   6.436   0.753
 3769SOL     OW12205   4.394   6.500   5.034
 3769SOL    HW112206   4.316   6.437   5.038
 3769SOL    HW212207   4.434   6.497   4.943
 3770SOL     OW12208   2.137   1.390   0.368
 3770SOL    HW112209   2.153   1.416   0.272
 3770SOL    HW212210   2.221   1.404   0.420
 3771SOL     OW12211   4.922   1.197   5.453
 3771SOL    HW112212   4.847   1.175   5.515
 3771SOL    HW212213   4.908   1.289   5.416
 3772SOL     OW12214   4.879   1.066   2.670
 3772SOL    HW112215   4.837   1.154   2.651
 3772SOL    HW212216   4.815   0.993   2.647
 3773SOL     OW12217   6.606   2.534   6.679
 3773SOL    HW112218   6.622   2.556   6.583
 3773SOL    HW212219   6.640   2.442   6.698
 3774SOL     OW12220   1.146   1.563   2.238
 3774SOL    HW112221   1.083   1.486   2.250
 3774SOL    HW212222   1.240   1.528   2.238
 3775SOL     OW12223   5.861   3.008   3.727
 3775SOL    HW112224   5.833   3.096   3.763
 3775SOL    HW212225   5.793   2.938   3.750
 3776SOL     OW12226   3.114   2.896   6.572
 3776SOL    HW112227   3.030   2.849   6.544
 3776SOL    HW212228   3.115   2.908   6.671
 3777SOL     OW12229   1.492   4.233   3.278
 3777SOL    HW112230   1.564   4.300   3.261
 3777SOL    HW212231   1.518   4.173   3.354
 3778SOL     OW12232   2.503   6.775   2.079
 3778SOL    HW112233   2.428   6.841   2.081
 3778SOL    HW212234   2.474   6.694   2.027
 3779SOL     OW12235   3.301   5.067   6.471
 3779SOL    HW112236   3.219   5.100   6.425
 3779SOL    HW212237   3.312   5.115   6.558
 3780SOL     OW12238   2.834   6.932   4.736
 3780SOL    HW112239   2.790   6.946   4.825
 3780SOL    HW212240   2.889   6.849   4.739
 3781SOL     OW12241   2.872   5.293   4.758
 3781SOL    HW112242   2.912   5.383   4.777
 3781SOL    HW212243   2.909   5.258   4.672
 3782SOL     OW12244   2.141   1.776   3.111
 3782SOL    HW112245   2.046   1.771   3.081
 3782SOL    HW212246   2.170   1.686   3.144
 3783SOL     OW12247   5.004   5.515   5.941
 3783SOL    HW112248   4.965   5.606   5.928
 3783SOL    HW212249   5.037   5.481   5.852
 3784SOL     OW12250   4.704   1.292   3.745
 3784SOL    HW112251   4.740   1.204   3.712
 3784SOL    HW212252   4.724   1.363   3.677
 3785SOL     OW12253   1.510   1.562   1.659
 3785SOL    HW112254   1.456   1.637   1.697
 3785SOL    HW212255   1.489   1.477   1.707
 3786SOL     OW12256   3.422   5.220   2.736
 3786SOL    HW112257   3.377   5.302   2.701
 3786SOL    HW212258   3.503   5.201   2.681
 3787SOL     OW12259   4.074   1.281   4.141
 3787SOL    HW112260   4.006   1.246   4.205
 3787SOL    HW212261   4.164   1.283   4.186
 3788SOL     OW12262   5.958   3.884   1.980
 3788SOL    HW112263   5.918   3.954   2.039
 3788SOL    HW212264   5.892   3.861   1.908
 3789SOL     OW12265   1.050   4.995   2.555
 3789SOL    HW112266   0.956   5.027   2.569
 3789SOL    HW212267   1.115   5.067   2.580
 3790SOL     OW12268   1.919   3.218   3.897
 3790SOL    HW112269   1.878   3.239   3.985
 3790SOL    HW212270   2.016   3.196   3.908
 3791SOL     OW12271   5.108   0.434   2.152
 3791SOL    HW112272   5.040   0.505   2.132
 3791SOL    HW212273   5.079   0.383   2.233
 3792SOL     OW12274   0.156   6.922   5.828
 3792SOL    HW112275   0.188   6.831   5.853
 3792SOL    HW212276   0.075   6.944   5.882
 3793SOL     OW12277   2.124   6.629   2.724
 3793SOL    HW112278   2.147   6.722   2.750
 3793SOL    HW212279   2.196   6.567   2.754
 3794SOL     OW12280   4.087   6.215   2.308
 3794SOL    HW112281   4.028   6.195   2.386
 3794SOL    HW212282   4.034   6.266   2.240
 3795SOL     OW12283   4.938   0.206   0.402
 3795SOL    HW112284   4.923   0.127   0.342
 3795SOL    HW212285   4.984   0.278   0.351
 3796SOL     OW12286   1.761   2.474   1.436
 3796SOL    HW112287   1.713   2.421   1.505
 3796SOL    HW212288   1.791   2.561   1.475
 3797SOL     OW12289   0.224   5.349   2.823
 3797SOL    HW112290   0.198   5.439   2.790
 3797SOL    HW212291   0.204   5.280   2.752
 3798SOL     OW12292   1.261   4.369   1.723
 3798SOL    HW112293   1.349   4.354   1.769
 3798SOL    HW212294   1.276   4.387   1.626
 3799SOL     OW12295   1.604   0.743   5.251
 3799SOL    HW112296   1.551   0.801   5.313
 3799SOL    HW212297   1.572   0.648   5.259
 3800SOL     OW12298   4.544   2.624   4.847
 3800SOL    HW112299   4.497   2.677   4.918
 3800SOL    HW212300   4.643   2.639   4.855
 3801SOL     OW12301   7.005   0.410   6.651
 3801SOL    HW112302   0.024   0.503   6.637
 3801SOL    HW212303   6.932   0.411   6.719
 3802SOL     OW12304   1.865   2.292   5.252
 3802SOL    HW112305   1.822   2.222   5.310
 3802SOL    HW212306   1.858   2.381   5.297
 3803SOL     OW12307   3.762   1.553   1.111
 3803SOL    HW112308   3.720   1.484   1.051
 3803SOL    HW212309   3.811   1.508   1.185
 3804SOL     OW12310   4.951   2.647   5.638
 3804SOL    HW112311   4.997   2.575   5.586
 3804SOL    HW212312   4.927   2.723   5.578
 3805SOL     OW12313   1.953   3.977   0.999
 3805SOL    HW112314   1.881   4.045   0.985
 3805SOL    HW212315   1.961   3.921   0.916
 3806SOL     OW12316   3.042   1.525   0.426
 3806SOL    HW112317   2.965   1.575   0.388
 3806SOL    HW212318   3.040   1.430   0.395
 3807SOL     OW12319   1.327   6.810   3.090
 3807SOL    HW112320   1.400   6.850   3.036
 3807SOL    HW212321   1.239   6.826   3.045
 3808SOL     OW12322   3.259   0.831   0.774
 3808SOL    HW112323   3.289   0.755   0.717
 3808SOL    HW212324   3.338   0.876   0.815
 3809SOL     OW12325   4.469   0.305   6.822
 3809SOL    HW112326   4.370   0.296   6.835
 3809SOL    HW212327   4.514   0.311   6.911
 3810SOL     OW12328   2.943   3.219   5.478
 3810SOL    HW112329   2.877   3.291   5.457
 3810SOL    HW212330   2.980   3.233   5.570
 3811SOL     OW12331   0.240   0.275   6.272
 3811SOL    HW112332   0.156   0.238   6.231
 3811SOL    HW212333   0.243   0.374   6.259
 3812SOL     OW12334   5.496   1.338   6.004
 3812SOL    HW112335   5.485   1.426   6.051
 3812SOL    HW212336   5.439   1.269   6.049
 3813SOL     OW12337   3.630   4.983   1.812
 3813SOL    HW112338   3.729   4.970   1.812
 3813SOL    HW212339   3.585   4.900   1.843
 3814SOL     OW12340   1.414   6.540   2.611
 3814SOL    HW112341   1.486   6.595   2.653
 3814SOL    HW212342   1.345   6.518   2.679
 3815SOL     OW12343   5.666   2.001   1.801
 3815SOL    HW112344   5.616   2.062   1.863
 3815SOL    HW212345   5.726   1.941   1.855
 3816SOL     OW12346   0.323   6.493   1.762
 3816SOL    HW112347   0.388   6.470   1.690
 3816SOL    HW212348   0.245   6.541   1.722
 3817SOL     OW12349   5.239   1.652   5.255
 3817SOL    HW112350   5.216   1.602   5.339
 3817SOL    HW212351   5.334   1.635   5.231
 3818SOL     OW12352   5.138   4.973   2.768
 3818SOL    HW112353   5.139   4.878   2.736
 3818SOL    HW212354   5.233   5.005   2.777
 3819SOL     OW12355   5.481   4.247   6.096
 3819SOL    HW112356   5.411   4.222   6.029
 3819SOL    HW212357   5.556   4.294   6.048
 3820SOL     OW12358   5.588   6.367   4.149
 3820SOL    HW112359   5.510   6.349   4.209
 3820SOL    HW212360   5.670   6.383   4.205
 3821SOL     OW12361   0.948   4.027   1.653
 3821SOL    HW112362   0.868   4.045   1.711
 3821SOL    HW212363   0.918   4.013   1.558
 3822SOL     OW12364   1.952   5.050   1.991
 3822SOL    HW112365   1.930   4.955   1.969
 3822SOL    HW212366   1.892   5.082   2.064
 3823SOL     OW12367   3.162   2.939   5.488
 3823SOL    HW112368   3.216   3.019   5.513
 3823SOL    HW212369   3.127   2.949   5.395
 3824SOL     OW12370   6.946   2.331   6.609
 3824SOL    HW112371   6.853   2.326   6.646
 3824SOL    HW212372   6.943   2.322   6.510
 3825SOL     OW12373   6.661   0.241   6.309
 3825SOL    HW112374   6.594   0.313   6.290
 3825SOL    HW212375   6.701   0.209   6.223
 3826SOL     OW12376   6.828   2.257   1.043
 3826SOL    HW112377   6.850   2.343   0.998
 3826SOL    HW212378   6.913   2.208   1.065
 3827SOL     OW12379   4.923   3.282   1.021
 3827SOL    HW112380   5.016   3.246   1.008
 3827SOL    HW212381   4.929   3.379   1.042
 3828SOL     OW12382   3.962   0.919   1.784
 3828SOL    HW112383   4.041   0.860   1.768
 3828SOL    HW212384   3.990   1.015   1.782
 3829SOL     OW12385   1.030   5.383   3.580
 3829SOL    HW112386   1.094   5.456   3.556
 3829SOL    HW212387   0.950   5.422   3.624
 3830SOL     OW12388   3.042   0.291   4.651
 3830SOL    HW112389   3.029   0.375   4.703
 3830SOL    HW212390   3.123   0.301   4.592
 3831SOL     OW12391   4.170   1.691   2.118
 3831SOL    HW112392   4.113   1.678   2.199
 3831SOL    HW212393   4.266   1.674   2.143
 3832SOL     OW12394   5.280   6.842   2.619
 3832SOL    HW112395   5.304   6.820   2.524
 3832SOL    HW212396   5.335   6.785   2.681
 3833SOL     OW12397   1.518   5.407   6.901
 3833SOL    HW112398   1.454   5.480   6.879
 3833SOL    HW212399   1.605   5.424   6.854
 3834SOL     OW12400   2.415   2.178   0.820
 3834SOL    HW112401   2.443   2.250   0.884
 3834SOL    HW212402   2.354   2.217   0.751
 3835SOL     OW12403   3.581   6.032   4.416
 3835SOL    HW112404   3.633   6.050   4.332
 3835SOL    HW212405   3.583   5.934   4.435
 3836SOL     OW12406   1.787   3.169   5.141
 3836SOL    HW112407   1.760   3.129   5.053
 3836SOL    HW212408   1.829   3.099   5.198
 3837SOL     OW12409   3.594   3.609   0.043
 3837SOL    HW112410   3.544   3.526   0.066
 3837SOL    HW212411   3.531   3.687   0.038
 3838SOL     OW12412   5.738   3.406   5.260
 3838SOL    HW112413   5.837   3.409   5.269
 3838SOL    HW212414   5.698   3.364   5.341
 3839SOL     OW12415   6.276   6.387   6.275
 3839SOL    HW112416   6.238   6.367   6.184
 3839SOL    HW212417   6.203   6.382   6.343
 3840SOL     OW12418   2.683   0.276   3.881
 3840SOL    HW112419   2.690   0.290   3.782
 3840SOL    HW212420   2.745   0.339   3.928
 3841SOL     OW12421   0.267   4.069   4.774
 3841SOL    HW112422   0.255   4.048   4.677
 3841SOL    HW212423   0.332   4.005   4.815
 3842SOL     OW12424   1.649   4.958   6.400
 3842SOL    HW112425   1.584   5.016   6.448
 3842SOL    HW212426   1.662   4.873   6.452
 3843SOL     OW12427   6.139   4.125   0.734
 3843SOL    HW112428   6.128   4.221   0.709
 3843SOL    HW212429   6.230   4.093   0.706
 3844SOL     OW12430   2.590   4.294   6.277
 3844SOL    HW112431   2.503   4.299   6.228
 3844SOL    HW212432   2.635   4.207   6.257
 3845SOL     OW12433   3.076   3.616   3.781
 3845SOL    HW112434   3.042   3.709   3.774
 3845SOL    HW212435   2.999   3.554   3.799
 3846SOL     OW12436   0.000   4.281   3.543
 3846SOL    HW112437   0.002   4.379   3.558
 3846SOL    HW212438   0.086   4.252   3.501
 3847SOL     OW12439   0.741   0.108   0.725
 3847SOL    HW112440   0.803   0.096   0.802
 3847SOL    HW212441   0.788   0.159   0.653
 3848SOL     OW12442   3.020   5.207   0.663
 3848SOL    HW112443   3.056   5.182   0.573
 3848SOL    HW212444   2.920   5.201   0.661
 3849SOL     OW12445   2.353   1.991   6.071
 3849SOL    HW112446   2.294   2.043   6.132
 3849SOL    HW212447   2.442   1.976   6.116
 3850SOL     OW12448   2.491   3.472   1.318
 3850SOL    HW112449   2.516   3.403   1.250
 3850SOL    HW212450   2.533   3.559   1.295
 3851SOL     OW12451   1.998   3.067   1.429
 3851SOL    HW112452   2.006   3.093   1.526
 3851SOL    HW212453   2.015   3.148   1.372
 3852SOL     OW12454   4.765   0.864   6.044
 3852SOL    HW112455   4.668   0.887   6.049
 3852SOL    HW212456   4.808   0.881   6.132
 3853SOL     OW12457   1.433   2.574   2.058
 3853SOL    HW112458   1.443   2.487   2.011
 3853SOL    HW212459   1.389   2.640   1.997
 3854SOL     OW12460   1.466   3.234   4.680
 3854SOL    HW112461   1.503   3.316   4.636
 3854SOL    HW212462   1.489   3.235   4.777
 3855SOL     OW12463   0.098   1.636   5.070
 3855SOL    HW112464   0.183   1.620   5.020
 3855SOL    HW212465   0.040   1.699   5.018
 3856SOL     OW12466   0.818   6.870   5.485
 3856SOL    HW112467   0.864   6.781   5.487
 3856SOL    HW212468   0.888   6.943   5.488
 3857SOL     OW12469   1.221   6.734   6.881
 3857SOL    HW112470   1.131   6.717   6.841
 3857SOL    HW212471   1.237   6.833   6.888
 3858SOL     OW12472   2.442   5.173   6.838
 3858SOL    HW112473   2.355   5.126   6.823
 3858SOL    HW212474   2.506   5.150   6.765
 3859SOL     OW12475   6.719   2.703   1.596
 3859SOL    HW112476   6.786   2.675   1.665
 3859SOL    HW212477   6.631   2.720   1.641
 3860SOL     OW12478   1.991   6.504   5.106
 3860SOL    HW112479   1.893   6.489   5.115
 3860SOL    HW212480   2.029   6.438   5.042
 3861SOL     OW12481   4.219   4.338   0.180
 3861SOL    HW112482   4.241   4.434   0.201
 3861SOL    HW212483   4.267   4.311   0.096
 3862SOL     OW12484   0.731   5.121   6.067
 3862SOL    HW112485   0.788   5.198   6.039
 3862SOL    HW212486   0.754   5.041   6.011
 3863SOL     OW12487   3.407   3.431   0.427
 3863SOL    HW112488   3.313   3.457   0.448
 3863SOL    HW212489   3.430   3.347   0.475
 3864SOL     OW12490   2.977   1.647   0.082
 3864SOL    HW112491   2.906   1.661   0.013
 3864SOL    HW212492   2.973   1.554   0.116
 3865SOL     OW12493   4.326   0.710   2.353
 3865SOL    HW112494   4.233   0.742   2.333
 3865SOL    HW212495   4.326   0.663   2.441
 3866SOL     OW12496   3.735   6.487   6.076
 3866SOL    HW112497   3.738   6.579   6.116
 3866SOL    HW212498   3.641   6.452   6.078
 3867SOL     OW12499   2.021   4.247   3.449
 3867SOL    HW112500   1.943   4.203   3.404
 3867SOL    HW212501   2.003   4.256   3.547
 3868SOL     OW12502   1.592   5.370   2.491
 3868SOL    HW112503   1.667   5.364   2.425
 3868SOL    HW212504   1.597   5.293   2.554
 3869SOL     OW12505   1.545   1.621   3.812
 3869SOL    HW112506   1.630   1.582   3.847
 3869SOL    HW212507   1.527   1.709   3.855
 3870SOL     OW12508   4.098   3.869   0.658
 3870SOL    HW112509   4.121   3.800   0.590
 3870SOL    HW212510   4.054   3.947   0.612
 3871SOL     OW12511   2.935   1.472   4.573
 3871SOL    HW112512   2.899   1.561   4.603
 3871SOL    HW212513   2.881   1.440   4.495
 3872SOL     OW12514   4.187   3.681   0.488
 3872SOL    HW112515   4.150   3.638   0.405
 3872SOL    HW212516   4.254   3.620   0.530
 3873SOL     OW12517   5.281   4.681   1.859
 3873SOL    HW112518   5.342   4.693   1.780
 3873SOL    HW212519   5.227   4.763   1.872
 3874SOL     OW12520   5.032   6.148   6.328
 3874SOL    HW112521   5.078   6.100   6.403
 3874SOL    HW212522   5.036   6.091   6.245
 3875SOL     OW12523   2.288   4.100   0.376
 3875SOL    HW112524   2.318   4.062   0.463
 3875SOL    HW212525   2.363   4.092   0.309
 3876SOL     OW12526   5.551   3.940   2.150
 3876SOL    HW112527   5.621   3.936   2.220
 3876SOL    HW212528   5.477   4.000   2.180
 3877SOL     OW12529   5.541   1.543   1.800
 3877SOL    HW112530   5.549   1.446   1.820
 3877SOL    HW212531   5.497   1.555   1.711
 3878SOL     OW12532   4.354   6.085   4.369
 3878SOL    HW112533   4.297   6.154   4.414
 3878SOL    HW212534   4.356   6.002   4.425
 3879SOL     OW12535   2.900   5.541   1.378
 3879SOL    HW112536   2.987   5.529   1.425
 3879SOL    HW212537   2.860   5.451   1.360
 3880SOL     OW12538   5.772   2.322   3.852
 3880SOL    HW112539   5.680   2.353   3.877
 3880SOL    HW212540   5.792   2.235   3.897
 3881SOL     OW12541   1.251   5.314   0.852
 3881SOL    HW112542   1.212   5.373   0.782
 3881SOL    HW212543   1.194   5.317   0.934
 3882SOL     OW12544   1.080   5.913   6.521
 3882SOL    HW112545   1.164   5.965   6.509
 3882SOL    HW212546   1.011   5.970   6.565
 3883SOL     OW12547   3.022   2.163   6.351
 3883SOL    HW112548   3.085   2.181   6.276
 3883SOL    HW212549   3.073   2.151   6.436
 3884SOL     OW12550   2.014   4.787   5.472
 3884SOL    HW112551   2.112   4.770   5.476
 3884SOL    HW212552   1.994   4.881   5.500
 3885SOL     OW12553   0.400   1.801   5.323
 3885SOL    HW112554   0.342   1.724   5.347
 3885SOL    HW212555   0.431   1.846   5.407
 3886SOL     OW12556   0.270   6.435   5.503
 3886SOL    HW112557   0.220   6.414   5.587
 3886SOL    HW212558   0.272   6.533   5.489
 3887SOL     OW12559   5.478   3.148   4.610
 3887SOL    HW112560   5.426   3.176   4.530
 3887SOL    HW212561   5.523   3.060   4.591
 3888SOL     OW12562   6.043   2.153   2.052
 3888SOL    HW112563   5.961   2.116   2.096
 3888SOL    HW212564   6.026   2.167   1.955
 3889SOL     OW12565   6.686   5.789   0.055
 3889SOL    HW112566   6.690   5.887   0.073
 3889SOL    HW212567   6.719   5.770   6.977
 3890SOL     OW12568   6.592   3.015   2.442
 3890SOL    HW112569   6.573   3.057   2.353
 3890SOL    HW212570   6.633   2.925   2.428
 3891SOL     OW12571   5.636   5.501   6.122
 3891SOL    HW112572   5.642   5.541   6.030
 3891SOL    HW212573   5.559   5.438   6.126
 3892SOL     OW12574   5.589   5.595   4.305
 3892SOL    HW112575   5.672   5.651   4.305
 3892SOL    HW212576   5.513   5.649   4.271
 3893SOL     OW12577   3.023   5.880   4.135
 3893SOL    HW112578   2.947   5.828   4.175
 3893SOL    HW212579   3.016   5.976   4.162
 3894SOL     OW12580   5.159   5.640   6.892
 3894SOL    HW112581   5.066   5.630   6.858
 3894SOL    HW212582   5.222   5.653   6.816
 3895SOL     OW12583   2.203   2.004   5.830
 3895SOL    HW112584   2.252   1.981   5.914
 3895SOL    HW212585   2.107   1.979   5.839
 3896SOL     OW12586   6.723   2.551   6.384
 3896SOL    HW112587   6.761   2.541   6.292
 3896SOL    HW212588   6.793   2.588   6.445
 3897SOL     OW12589   3.293   6.915   3.087
 3897SOL    HW112590   3.220   6.855   3.055
 3897SOL    HW212591   3.366   6.861   3.128
 3898SOL     OW12592   2.892   3.672   4.560
 3898SOL    HW112593   2.797   3.695   4.580
 3898SOL    HW212594   2.899   3.573   4.544
 3899SOL     OW12595   4.382   1.596   5.180
 3899SOL    HW112596   4.337   1.507   5.172
 3899SOL    HW212597   4.342   1.648   5.255
 3900SOL     OW12598   0.042   2.638   3.954
 3900SOL    HW112599   0.140   2.659   3.943
 3900SOL    HW212600   0.017   2.645   4.051
 3901SOL     OW12601   2.472   5.459   5.118
 3901SOL    HW112602   2.551   5.423   5.069
 3901SOL    HW212603   2.388   5.434   5.070
 3902SOL     OW12604   4.357   4.600   2.903
 3902SOL    HW112605   4.318   4.592   2.994
 3902SOL    HW212606   4.430   4.533   2.891
 3903SOL     OW12607   4.657   3.318   5.618
 3903SOL    HW112608   4.643   3.293   5.522
 3903SOL    HW212609   4.681   3.235   5.670
 3904SOL     OW12610   2.272   6.508   0.172
 3904SOL    HW112611   2.327   6.518   0.089
 3904SOL    HW212612   2.306   6.432   0.227
 3905SOL     OW12613   5.753   0.589   6.236
 3905SOL    HW112614   5.747   0.554   6.143
 3905SOL    HW212615   5.662   0.606   6.272
 3906SOL     OW12616   0.109   6.292   4.806
 3906SOL    HW112617   0.088   6.287   4.904
 3906SOL    HW212618   0.208   6.302   4.795
 3907SOL     OW12619   0.800   1.757   5.030
 3907SOL    HW112620   0.703   1.755   5.053
 3907SOL    HW212621   0.847   1.826   5.086
 3908SOL     OW12622   2.517   1.196   4.293
 3908SOL    HW112623   2.503   1.263   4.221
 3908SOL    HW212624   2.429   1.163   4.326
 3909SOL     OW12625   5.049   3.342   1.553
 3909SOL    HW112626   5.131   3.350   1.497
 3909SOL    HW212627   5.018   3.247   1.553
 3910SOL     OW12628   2.728   2.461   0.902
 3910SOL    HW112629   2.648   2.420   0.946
 3910SOL    HW212630   2.811   2.434   0.951
 3911SOL     OW12631   0.178   0.720   1.276
 3911SOL    HW112632   0.161   0.641   1.335
 3911SOL    HW212633   0.273   0.717   1.245
 3912SOL     OW12634   4.320   4.161   6.983
 3912SOL    HW112635   4.275   4.078   0.002
 3912SOL    HW212636   4.417   4.159   7.007
 3913SOL     OW12637   4.148   5.796   1.440
 3913SOL    HW112638   4.109   5.853   1.367
 3913SOL    HW212639   4.217   5.849   1.490
 3914SOL     OW12640   6.519   2.260   0.007
 3914SOL    HW112641   6.562   2.193   6.962
 3914SOL    HW212642   6.551   2.245   0.101
 3915SOL     OW12643   5.040   0.366   5.372
 3915SOL    HW112644   5.042   0.383   5.274
 3915SOL    HW212645   5.033   0.453   5.421
 3916SOL     OW12646   1.931   2.788   2.132
 3916SOL    HW112647   2.031   2.789   2.128
 3916SOL    HW212648   1.898   2.694   2.126
 3917SOL     OW12649   4.049   4.836   2.266
 3917SOL    HW112650   3.976   4.872   2.207
 3917SOL    HW212651   4.012   4.764   2.325
 3918SOL     OW12652   5.218   6.876   0.515
 3918SOL    HW112653   5.305   6.905   0.553
 3918SOL    HW212654   5.145   6.936   0.549
 3919SOL     OW12655   4.835   5.687   3.637
 3919SOL    HW112656   4.745   5.675   3.680
 3919SOL    HW212657   4.857   5.606   3.583
 3920SOL     OW12658   3.184   1.764   5.478
 3920SOL    HW112659   3.089   1.794   5.485
 3920SOL    HW212660   3.239   1.834   5.432
 3921SOL     OW12661   1.615   3.581   5.987
 3921SOL    HW112662   1.629   3.672   5.946
 3921SOL    HW212663   1.575   3.592   6.078
 3922SOL     OW12664   4.809   3.139   3.430
 3922SOL    HW112665   4.837   3.231   3.458
 3922SOL    HW212666   4.817   3.131   3.331
 3923SOL     OW12667   6.073   1.754   1.853
 3923SOL    HW112668   6.105   1.663   1.825
 3923SOL    HW212669   5.987   1.775   1.807
 3924SOL     OW12670   4.604   4.789   4.497
 3924SOL    HW112671   4.569   4.705   4.456
 3924SOL    HW212672   4.636   4.770   4.590
 3925SOL     OW12673   4.278   5.977   1.612
 3925SOL    HW112674   4.370   6.016   1.610
 3925SOL    HW212675   4.211   6.050   1.605
 3926SOL     OW12676   0.856   5.975   4.973
 3926SOL    HW112677   0.924   5.982   4.900
 3926SOL    HW212678   0.805   5.889   4.962
 3927SOL     OW12679   5.800   1.227   5.107
 3927SOL    HW112680   5.821   1.322   5.084
 3927SOL    HW212681   5.875   1.187   5.159
 3928SOL     OW12682   3.793   5.628   2.324
 3928SOL    HW112683   3.841   5.640   2.411
 3928SOL    HW212684   3.858   5.600   2.253
 3929SOL     OW12685   0.778   1.576   5.732
 3929SOL    HW112686   0.747   1.508   5.665
 3929SOL    HW212687   0.785   1.665   5.687
 3930SOL     OW12688   1.370   5.424   3.547
 3930SOL    HW112689   1.409   5.457   3.633
 3930SOL    HW212690   1.307   5.493   3.511
 3931SOL     OW12691   0.905   2.501   0.249
 3931SOL    HW112692   0.816   2.456   0.251
 3931SOL    HW212693   0.960   2.470   0.327
 3932SOL     OW12694   2.511   4.521   2.796
 3932SOL    HW112695   2.579   4.546   2.726
 3932SOL    HW212696   2.483   4.426   2.782
 3933SOL     OW12697   2.234   5.942   1.194
 3933SOL    HW112698   2.188   5.872   1.139
 3933SOL    HW212699   2.228   5.918   1.291
 3934SOL     OW12700   2.052   6.337   1.640
 3934SOL    HW112701   1.985   6.367   1.572
 3934SOL    HW212702   2.054   6.403   1.715
 3935SOL     OW12703   6.947   2.771   4.877
 3935SOL    HW112704   6.972   2.855   4.829
 3935SOL    HW212705   6.868   2.787   4.936
 3936SOL     OW12706   0.272   4.391   4.595
 3936SOL    HW112707   0.371   4.398   4.600
 3936SOL    HW212708   0.245   4.342   4.512
 3937SOL     OW12709   0.943   6.096   0.281
 3937SOL    HW112710   1.034   6.076   0.242
 3937SOL    HW212711   0.943   6.071   0.378
 3938SOL     OW12712   0.511   3.061   0.510
 3938SOL    HW112713   0.439   3.006   0.552
 3938SOL    HW212714   0.576   3.089   0.581
 3939SOL     OW12715   1.719   6.229   3.596
 3939SOL    HW112716   1.675   6.144   3.567
 3939SOL    HW212717   1.649   6.297   3.618
 3940SOL     OW12718   2.494   5.603   6.532
 3940SOL    HW112719   2.552   5.555   6.466
 3940SOL    HW212720   2.481   5.697   6.502
 3941SOL     OW12721   5.052   5.693   2.305
 3941SOL    HW112722   5.073   5.611   2.359
 3941SOL    HW212723   4.976   5.674   2.244
 3942SOL     OW12724   6.591   6.405   6.561
 3942SOL    HW112725   6.550   6.364   6.479
 3942SOL    HW212726   6.564   6.353   6.642
 3943SOL     OW12727   1.971   3.512   6.516
 3943SOL    HW112728   2.066   3.483   6.525
 3943SOL    HW212729   1.967   3.611   6.503
 3944SOL     OW12730   4.564   3.116   6.903
 3944SOL    HW112731   4.659   3.139   6.882
 3944SOL    HW212732   4.541   3.149   6.994
 3945SOL     OW12733   5.810   0.415   3.300
 3945SOL    HW112734   5.763   0.326   3.295
 3945SOL    HW212735   5.861   0.422   3.386
 3946SOL     OW12736   0.251   3.100   0.329
 3946SOL    HW112737   0.251   3.005   0.297
 3946SOL    HW212738   0.244   3.101   0.429
 3947SOL     OW12739   5.312   6.680   2.058
 3947SOL    HW112740   5.410   6.683   2.042
 3947SOL    HW212741   5.293   6.684   2.156
 3948SOL     OW12742   2.095   1.758   5.067
 3948SOL    HW112743   2.050   1.809   5.141
 3948SOL    HW212744   2.162   1.817   5.022
 3949SOL     OW12745   6.438   6.795   2.515
 3949SOL    HW112746   6.407   6.733   2.588
 3949SOL    HW212747   6.474   6.741   2.439
 3950SOL     OW12748   3.033   4.324   1.700
 3950SOL    HW112749   3.124   4.359   1.676
 3950SOL    HW212750   2.980   4.398   1.741
 3951SOL     OW12751   0.669   2.489   4.039
 3951SOL    HW112752   0.659   2.398   4.000
 3951SOL    HW212753   0.582   2.516   4.082
 3952SOL     OW12754   5.739   4.099   0.119
 3952SOL    HW112755   5.817   4.110   0.057
 3952SOL    HW212756   5.767   4.044   0.198
 3953SOL     OW12757   2.966   4.024   5.926
 3953SOL    HW112758   2.866   4.033   5.934
 3953SOL    HW212759   2.992   3.930   5.949
 3954SOL     OW12760   0.252   3.179   4.882
 3954SOL    HW112761   0.160   3.194   4.846
 3954SOL    HW212762   0.248   3.114   4.957
 3955SOL     OW12763   5.916   3.731   0.071
 3955SOL    HW112764   5.930   3.702   0.166
 3955SOL    HW212765   5.825   3.703   0.041
 3956SOL     OW12766   6.366   2.724   5.589
 3956SOL    HW112767   6.328   2.633   5.574
 3956SOL    HW212768   6.465   2.717   5.601
 3957SOL     OW12769   0.866   1.724   1.927
 3957SOL    HW112770   0.882   1.800   1.991
 3957SOL    HW212771   0.859   1.638   1.978
 3958SOL     OW12772   5.252   6.173   0.847
 3958SOL    HW112773   5.196   6.161   0.765
 3958SOL    HW212774   5.349   6.171   0.821
 3959SOL     OW12775   2.018   5.607   1.951
 3959SOL    HW112776   2.081   5.666   1.901
 3959SOL    HW212777   1.980   5.539   1.889
 3960SOL     OW12778   5.164   3.247   0.847
 3960SOL    HW112779   5.186   3.344   0.852
 3960SOL    HW212780   5.194   3.211   0.758
 3961SOL     OW12781   6.729   0.448   1.845
 3961SOL    HW112782   6.667   0.526   1.857
 3961SOL    HW212783   6.751   0.438   1.748
 3962SOL     OW12784   6.987   0.162   6.267
 3962SOL    HW112785   6.897   0.152   6.308
 3962SOL    HW212786   0.025   0.079   6.283
 3963SOL     OW12787   5.059   4.420   3.910
 3963SOL    HW112788   5.008   4.505   3.900
 3963SOL    HW212789   5.033   4.356   3.837
 3964SOL     OW12790   5.934   5.715   0.471
 3964SOL    HW112791   5.913   5.761   0.557
 3964SOL    HW212792   5.955   5.783   0.401
 3965SOL     OW12793   3.720   3.478   1.246
 3965SOL    HW112794   3.699   3.564   1.200
 3965SOL    HW212795   3.636   3.434   1.275
 3966SOL     OW12796   6.859   4.312   6.015
 3966SOL    HW112797   6.939   4.322   5.957
 3966SOL    HW212798   6.806   4.397   6.014
 3967SOL     OW12799   1.920   6.442   0.278
 3967SOL    HW112800   1.984   6.368   0.257
 3967SOL    HW212801   1.930   6.468   0.374
 3968SOL     OW12802   4.819   1.958   1.110
 3968SOL    HW112803   4.729   1.918   1.127
 3968SOL    HW212804   4.883   1.925   1.180
 3969SOL     OW12805   0.119   6.558   1.086
 3969SOL    HW112806   0.213   6.583   1.064
 3969SOL    HW212807   0.082   6.500   1.013
 3970SOL     OW12808   5.140   4.286   4.167
 3970SOL    HW112809   5.079   4.334   4.230
 3970SOL    HW212810   5.134   4.329   4.076
 3971SOL     OW12811   6.999   6.507   3.902
 3971SOL    HW112812   6.940   6.545   3.831
 3971SOL    HW212813   0.040   6.434   3.863
 3972SOL     OW12814   1.176   6.976   6.331
 3972SOL    HW112815   1.092   6.979   6.277
 3972SOL    HW212816   1.219   0.051   6.331
 3973SOL     OW12817   3.221   2.928   3.070
 3973SOL    HW112818   3.206   2.988   3.148
 3973SOL    HW212819   3.234   2.982   2.987
 3974SOL     OW12820   5.407   1.061   6.814
 3974SOL    HW112821   5.440   1.131   6.751
 3974SOL    HW212822   5.439   0.971   6.784
 3975SOL     OW12823   0.259   6.703   5.468
 3975SOL    HW112824   0.309   6.784   5.437
 3975SOL    HW212825   0.160   6.723   5.464
 3976SOL     OW12826   0.531   2.900   6.393
 3976SOL    HW112827   0.450   2.919   6.448
 3976SOL    HW212828   0.596   2.974   6.402
 3977SOL     OW12829   2.966   5.549   4.840
 3977SOL    HW112830   3.032   5.549   4.915
 3977SOL    HW212831   2.971   5.636   4.791
 3978SOL     OW12832   6.259   3.747   6.768
 3978SOL    HW112833   6.242   3.841   6.799
 3978SOL    HW212834   6.172   3.703   6.747
 3979SOL     OW12835   1.029   6.616   3.038
 3979SOL    HW112836   1.014   6.603   2.940
 3979SOL    HW212837   1.099   6.552   3.070
 3980SOL     OW12838   4.814   4.278   4.027
 3980SOL    HW112839   4.748   4.320   3.964
 3980SOL    HW212840   4.905   4.315   4.009
 3981SOL     OW12841   6.854   1.493   6.148
 3981SOL    HW112842   6.813   1.405   6.173
 3981SOL    HW212843   6.935   1.509   6.205
 3982SOL     OW12844   1.948   2.833   3.921
 3982SOL    HW112845   1.955   2.733   3.929
 3982SOL    HW212846   1.960   2.874   4.012
 3983SOL     OW12847   2.978   6.583   4.064
 3983SOL    HW112848   2.888   6.558   4.028
 3983SOL    HW212849   3.035   6.616   3.989
 3984SOL     OW12850   2.033   5.940   2.095
 3984SOL    HW112851   2.048   5.958   1.998
 3984SOL    HW212852   2.095   5.995   2.150
 3985SOL     OW12853   1.664   2.962   1.703
 3985SOL    HW112854   1.736   2.931   1.765
 3985SOL    HW212855   1.704   2.983   1.613
 3986SOL     OW12856   1.103   2.236   2.358
 3986SOL    HW112857   1.121   2.313   2.420
 3986SOL    HW212858   1.165   2.243   2.279
 3987SOL     OW12859   1.663   3.984   5.278
 3987SOL    HW112860   1.734   3.968   5.346
 3987SOL    HW212861   1.628   3.896   5.246
 3988SOL     OW12862   5.271   6.799   1.411
 3988SOL    HW112863   5.300   6.746   1.332
 3988SOL    HW212864   5.200   6.748   1.461
 3989SOL     OW12865   4.058   0.495   5.801
 3989SOL    HW112866   3.998   0.575   5.795
 3989SOL    HW212867   4.050   0.442   5.717
 3990SOL     OW12868   0.139   2.103   3.659
 3990SOL    HW112869   0.081   2.021   3.653
 3990SOL    HW212870   0.227   2.078   3.701
 3991SOL     OW12871   1.006   2.027   3.507
 3991SOL    HW112872   0.988   1.932   3.531
 3991SOL    HW212873   1.089   2.033   3.452
 3992SOL     OW12874   5.882   3.464   6.389
 3992SOL    HW112875   5.819   3.410   6.332
 3992SOL    HW212876   5.933   3.527   6.330
 3993SOL     OW12877   2.103   0.445   4.445
 3993SOL    HW112878   2.185   0.440   4.503
 3993SOL    HW212879   2.027   0.484   4.498
 3994SOL     OW12880   3.086   2.034   3.463
 3994SOL    HW112881   3.050   1.961   3.521
 3994SOL    HW212882   3.051   2.022   3.370
 3995SOL     OW12883   1.520   2.975   1.973
 3995SOL    HW112884   1.566   2.889   1.991
 3995SOL    HW212885   1.578   3.051   2.002
 3996SOL     OW12886   5.884   6.377   5.363
 3996SOL    HW112887   5.824   6.379   5.444
 3996SOL    HW212888   5.842   6.430   5.289
 3997SOL     OW12889   5.231   3.531   2.965
 3997SOL    HW112890   5.310   3.555   2.908
 3997SOL    HW212891   5.251   3.447   3.015
 3998SOL     OW12892   4.526   1.754   3.409
 3998SOL    HW112893   4.467   1.807   3.471
 3998SOL    HW212894   4.538   1.805   3.324
 3999SOL     OW12895   4.099   3.406   1.159
 3999SOL    HW112896   4.173   3.368   1.216
 3999SOL    HW212897   4.139   3.448   1.077
 4000SOL     OW12898   2.269   5.239   2.516
 4000SOL    HW112899   2.229   5.262   2.427
 4000SOL    HW212900   2.358   5.196   2.502
 4001SOL     OW12901   6.784   5.882   4.924
 4001SOL    HW112902   6.856   5.911   4.988
 4001SOL    HW212903   6.708   5.947   4.927
 4002SOL     OW12904   3.936   3.559   4.325
 4002SOL    HW112905   3.967   3.486   4.263
 4002SOL    HW212906   3.847   3.593   4.294
 4003SOL     OW12907   2.180   0.989   4.758
 4003SOL    HW112908   2.115   1.065   4.753
 4003SOL    HW212909   2.258   1.008   4.699
 4004SOL     OW12910   1.543   4.326   4.196
 4004SOL    HW112911   1.488   4.401   4.233
 4004SOL    HW212912   1.589   4.278   4.271
 4005SOL     OW12913   4.902   3.400   6.992
 4005SOL    HW112914   4.813   3.401   0.022
 4005SOL    HW212915   4.956   3.323   0.011
 4006SOL     OW12916   6.738   5.605   2.336
 4006SOL    HW112917   6.647   5.645   2.332
 4006SOL    HW212918   6.769   5.598   2.431
 4007SOL     OW12919   0.041   0.546   2.221
 4007SOL    HW112920   0.098   0.464   2.208
 4007SOL    HW212921   7.003   0.536   2.305
 4008SOL     OW12922   2.967   1.133   1.369
 4008SOL    HW112923   2.881   1.179   1.351
 4008SOL    HW212924   3.011   1.108   1.282
 4009SOL     OW12925   4.544   2.367   0.617
 4009SOL    HW112926   4.465   2.422   0.647
 4009SOL    HW212927   4.572   2.307   0.692
 4010SOL     OW12928   1.530   4.205   1.225
 4010SOL    HW112929   1.626   4.200   1.252
 4010SOL    HW212930   1.503   4.301   1.214
 4011SOL     OW12931   6.396   6.151   6.002
 4011SOL    HW112932   6.403   6.093   5.921
 4011SOL    HW212933   6.479   6.142   6.057
 4012SOL     OW12934   5.530   6.224   2.729
 4012SOL    HW112935   5.528   6.311   2.778
 4012SOL    HW212936   5.581   6.157   2.782
 4013SOL     OW12937   6.945   1.537   6.522
 4013SOL    HW112938   7.013   1.477   6.566
 4013SOL    HW212939   6.986   1.627   6.506
 4014SOL     OW12940   3.076   5.160   1.993
 4014SOL    HW112941   3.100   5.063   1.996
 4014SOL    HW212942   3.054   5.186   1.899
 4015SOL     OW12943   4.270   5.096   6.402
 4015SOL    HW112944   4.370   5.087   6.396
 4015SOL    HW212945   4.245   5.190   6.378
 4016SOL     OW12946   5.267   4.892   4.891
 4016SOL    HW112947   5.240   4.890   4.795
 4016SOL    HW212948   5.210   4.827   4.943
 4017SOL     OW12949   1.192   4.838   5.759
 4017SOL    HW112950   1.170   4.882   5.846
 4017SOL    HW212951   1.107   4.809   5.714
 4018SOL     OW12952   3.832   5.937   0.627
 4018SOL    HW112953   3.854   5.942   0.529
 4018SOL    HW212954   3.916   5.918   0.678
 4019SOL     OW12955   6.095   3.813   2.201
 4019SOL    HW112956   6.046   3.817   2.115
 4019SOL    HW212957   6.191   3.837   2.185
 4020SOL     OW12958   6.421   5.398   4.997
 4020SOL    HW112959   6.394   5.403   4.900
 4020SOL    HW212960   6.516   5.427   5.006
 4021SOL     OW12961   4.695   4.667   6.312
 4021SOL    HW112962   4.603   4.637   6.289
 4021SOL    HW212963   4.745   4.591   6.355
 4022SOL     OW12964   2.931   6.370   1.454
 4022SOL    HW112965   2.934   6.394   1.357
 4022SOL    HW212966   2.892   6.445   1.506
 4023SOL     OW12967   0.868   1.462   4.291
 4023SOL    HW112968   0.825   1.373   4.305
 4023SOL    HW212969   0.816   1.514   4.224
 4024SOL     OW12970   0.534   6.629   5.008
 4024SOL    HW112971   0.511   6.707   4.949
 4024SOL    HW212972   0.547   6.548   4.952
 4025SOL     OW12973   6.650   5.634   4.200
 4025SOL    HW112974   6.627   5.578   4.121
 4025SOL    HW212975   6.615   5.590   4.283
 4026SOL     OW12976   0.443   6.732   4.526
 4026SOL    HW112977   0.417   6.638   4.505
 4026SOL    HW212978   0.361   6.788   4.536
 4027SOL     OW12979   3.478   5.019   5.006
 4027SOL    HW112980   3.487   5.097   5.067
 4027SOL    HW212981   3.401   4.962   5.036
 4028SOL     OW12982   4.651   0.603   3.283
 4028SOL    HW112983   4.667   0.520   3.337
 4028SOL    HW212984   4.725   0.669   3.299
 4029SOL     OW12985   1.830   6.254   0.542
 4029SOL    HW112986   1.800   6.213   0.628
 4029SOL    HW212987   1.899   6.195   0.500
 4030SOL     OW12988   1.024   1.830   2.204
 4030SOL    HW112989   1.020   1.731   2.195
 4030SOL    HW212990   0.931   1.866   2.215
 4031SOL     OW12991   5.897   6.264   0.684
 4031SOL    HW112992   5.985   6.219   0.669
 4031SOL    HW212993   5.900   6.357   0.647
 4032SOL     OW12994   4.938   0.573   2.657
 4032SOL    HW112995   4.967   0.661   2.622
 4032SOL    HW212996   4.934   0.507   2.582
 4033SOL     OW12997   1.944   2.364   2.326
 4033SOL    HW112998   1.973   2.411   2.410
 4033SOL    HW212999   2.017   2.302   2.296
 4034SOL     OW13000   1.280   2.901   4.921
 4034SOL    HW113001   1.203   2.883   4.860
 4034SOL    HW213002   1.260   2.980   4.978
 4035SOL     OW13003   4.449   2.140   1.741
 4035SOL    HW113004   4.427   2.042   1.739
 4035SOL    HW213005   4.395   2.184   1.812
 4036SOL     OW13006   2.790   5.505   3.262
 4036SOL    HW113007   2.741   5.566   3.324
 4036SOL    HW213008   2.835   5.560   3.191
 4037SOL     OW13009   2.678   1.611   5.909
 4037SOL    HW113010   2.728   1.630   5.993
 4037SOL    HW213011   2.581   1.629   5.923
 4038SOL     OW13012   3.211   4.653   5.562
 4038SOL    HW113013   3.123   4.622   5.600
 4038SOL    HW213014   3.258   4.575   5.520
 4039SOL     OW13015   5.317   5.200   1.384
 4039SOL    HW113016   5.255   5.278   1.378
 4039SOL    HW213017   5.304   5.153   1.472
 4040SOL     OW13018   3.042   6.864   5.073
 4040SOL    HW113019   3.041   6.962   5.055
 4040SOL    HW213020   3.134   6.835   5.098
 4041SOL     OW13021   1.611   6.424   1.651
 4041SOL    HW113022   1.615   6.397   1.748
 4041SOL    HW213023   1.553   6.359   1.601
 4042SOL     OW13024   0.259   1.309   2.613
 4042SOL    HW113025   0.305   1.346   2.694
 4042SOL    HW213026   0.274   1.371   2.536
 4043SOL     OW13027   5.087   3.136   6.130
 4043SOL    HW113028   5.034   3.057   6.159
 4043SOL    HW213029   5.166   3.106   6.077
 4044SOL     OW13030   4.781   3.951   2.838
 4044SOL    HW113031   4.816   3.857   2.837
 4044SOL    HW213032   4.751   3.974   2.931
 4045SOL     OW13033   4.733   0.751   5.278
 4045SOL    HW113034   4.788   0.751   5.362
 4045SOL    HW213035   4.776   0.813   5.211
 4046SOL     OW13036   5.158   1.661   3.238
 4046SOL    HW113037   5.075   1.604   3.234
 4046SOL    HW213038   5.207   1.653   3.151
 4047SOL     OW13039   3.016   2.889   6.229
 4047SOL    HW113040   3.080   2.962   6.250
 4047SOL    HW213041   3.053   2.802   6.263
 4048SOL     OW13042   5.042   1.726   2.875
 4048SOL    HW113043   4.954   1.737   2.828
 4048SOL    HW213044   5.027   1.728   2.974
 4049SOL     OW13045   4.422   3.822   0.740
 4049SOL    HW113046   4.398   3.883   0.664
 4049SOL    HW213047   4.338   3.786   0.781
 4050SOL     OW13048   0.977   5.517   2.167
 4050SOL    HW113049   0.921   5.530   2.248
 4050SOL    HW213050   1.072   5.541   2.188
 4051SOL     OW13051   5.671   1.092   4.916
 4051SOL    HW113052   5.633   1.007   4.954
 4051SOL    HW213053   5.711   1.146   4.990
 4052SOL     OW13054   5.500   1.931   3.468
 4052SOL    HW113055   5.516   1.891   3.378
 4052SOL    HW213056   5.560   1.887   3.535
 4053SOL     OW13057   0.881   5.311   4.281
 4053SOL    HW113058   0.946   5.325   4.356
 4053SOL    HW213059   0.890   5.386   4.216
 4054SOL     OW13060   3.991   3.610   1.319
 4054SOL    HW113061   3.897   3.575   1.317
 4054SOL    HW213062   4.053   3.544   1.276
 4055SOL     OW13063   0.492   3.849   6.997
 4055SOL    HW113064   0.437   3.913   6.944
 4055SOL    HW213065   0.531   3.896   0.061
 4056SOL     OW13066   4.584   3.735   6.988
 4056SOL    HW113067   4.494   3.768   0.002
 4056SOL    HW213068   4.577   3.701   6.894
 4057SOL     OW13069   0.102   3.532   0.469
 4057SOL    HW113070   0.077   3.563   0.377
 4057SOL    HW213071   0.198   3.555   0.487
 4058SOL     OW13072   2.555   0.293   5.256
 4058SOL    HW113073   2.604   0.380   5.256
 4058SOL    HW213074   2.619   0.218   5.240
 4059SOL     OW13075   0.651   1.410   3.674
 4059SOL    HW113076   0.693   1.397   3.764
 4059SOL    HW213077   0.723   1.430   3.607
 4060SOL     OW13078   6.888   6.456   5.278
 4060SOL    HW113079   6.794   6.451   5.244
 4060SOL    HW213080   6.908   6.373   5.330
 4061SOL     OW13081   0.841   5.321   1.000
 4061SOL    HW113082   0.747   5.288   1.009
 4061SOL    HW213083   0.840   5.420   0.983
 4062SOL     OW13084   2.241   3.458   1.132
 4062SOL    HW113085   2.258   3.364   1.161
 4062SOL    HW213086   2.176   3.501   1.194
 4063SOL     OW13087   4.613   0.337   0.091
 4063SOL    HW113088   4.623   0.269   0.163
 4063SOL    HW213089   4.587   0.425   0.130
 4064SOL     OW13090   1.712   1.177   5.872
 4064SOL    HW113091   1.640   1.108   5.858
 4064SOL    HW213092   1.693   1.227   5.957
 4065SOL     OW13093   2.431   6.692   0.750
 4065SOL    HW113094   2.525   6.663   0.730
 4065SOL    HW213095   2.390   6.627   0.814
 4066SOL     OW13096   1.062   3.741   3.580
 4066SOL    HW113097   1.105   3.661   3.538
 4066SOL    HW213098   1.083   3.742   3.678
 4067SOL     OW13099   5.244   4.926   0.556
 4067SOL    HW113100   5.241   4.859   0.482
 4067SOL    HW213101   5.202   5.012   0.525
 4068SOL     OW13102   2.150   2.858   5.004
 4068SOL    HW113103   2.190   2.945   5.033
 4068SOL    HW213104   2.224   2.794   4.982
 4069SOL     OW13105   4.316   6.919   6.252
 4069SOL    HW113106   4.350   6.999   6.203
 4069SOL    HW213107   4.268   6.859   6.188
 4070SOL     OW13108   1.411   3.467   3.380
 4070SOL    HW113109   1.440   3.392   3.320
 4070SOL    HW213110   1.402   3.551   3.327
 4071SOL     OW13111   1.681   0.668   4.348
 4071SOL    HW113112   1.620   0.666   4.269
 4071SOL    HW213113   1.714   0.576   4.367
 4072SOL     OW13114   2.652   5.321   3.049
 4072SOL    HW113115   2.721   5.267   3.096
 4072SOL    HW213116   2.674   5.418   3.058
 4073SOL     OW13117   4.187   4.694   6.931
 4073SOL    HW113118   4.242   4.659   7.007
 4073SOL    HW213119   4.247   4.717   6.854
 4074SOL     OW13120   1.292   5.812   3.026
 4074SOL    HW113121   1.376   5.848   2.987
 4074SOL    HW213122   1.296   5.817   3.125
 4075SOL     OW13123   6.856   0.993   0.991
 4075SOL    HW113124   6.794   1.057   0.946
 4075SOL    HW213125   6.892   0.929   0.923
 4076SOL     OW13126   2.165   4.311   4.943
 4076SOL    HW113127   2.106   4.304   4.863
 4076SOL    HW213128   2.174   4.221   4.986
 4077SOL     OW13129   3.301   0.477   1.379
 4077SOL    HW113130   3.348   0.466   1.291
 4077SOL    HW213131   3.353   0.429   1.450
 4078SOL     OW13132   2.985   4.988   2.370
 4078SOL    HW113133   2.937   4.923   2.311
 4078SOL    HW213134   3.030   4.937   2.444
 4079SOL     OW13135   0.720   1.626   4.091
 4079SOL    HW113136   0.620   1.620   4.093
 4079SOL    HW213137   0.748   1.718   4.063
 4080SOL     OW13138   6.516   1.780   5.053
 4080SOL    HW113139   6.504   1.720   4.974
 4080SOL    HW213140   6.523   1.725   5.136
 4081SOL     OW13141   1.925   3.642   3.613
 4081SOL    HW113142   1.967   3.621   3.525
 4081SOL    HW213143   1.919   3.558   3.667
 4082SOL     OW13144   0.929   3.245   1.174
 4082SOL    HW113145   0.928   3.345   1.182
 4082SOL    HW213146   0.836   3.212   1.158
 4083SOL     OW13147   5.577   2.903   4.336
 4083SOL    HW113148   5.607   2.951   4.254
 4083SOL    HW213149   5.647   2.912   4.407
 4084SOL     OW13150   0.436   1.565   4.010
 4084SOL    HW113151   0.383   1.629   4.067
 4084SOL    HW213152   0.374   1.513   3.952
 4085SOL     OW13153   2.588   6.235   0.331
 4085SOL    HW113154   2.647   6.296   0.383
 4085SOL    HW213155   2.635   6.148   0.316
 4086SOL     OW13156   0.896   4.975   0.489
 4086SOL    HW113157   0.938   5.061   0.459
 4086SOL    HW213158   0.930   4.900   0.433
 4087SOL     OW13159   1.573   1.770   2.606
 4087SOL    HW113160   1.509   1.695   2.623
 4087SOL    HW213161   1.584   1.824   2.690
 4088SOL     OW13162   6.686   2.006   0.913
 4088SOL    HW113163   6.721   2.068   0.984
 4088SOL    HW213164   6.600   2.042   0.878
 4089SOL     OW13165   1.098   1.647   5.532
 4089SOL    HW113166   1.145   1.561   5.510
 4089SOL    HW213167   1.074   1.648   5.629
 4090SOL     OW13168   1.853   4.943   5.788
 4090SOL    HW113169   1.811   4.961   5.699
 4090SOL    HW213170   1.887   4.849   5.790
 4091SOL     OW13171   4.570   5.828   0.316
 4091SOL    HW113172   4.617   5.788   0.237
 4091SOL    HW213173   4.523   5.756   0.366
 4092SOL     OW13174   0.437   2.377   4.539
 4092SOL    HW113175   0.362   2.403   4.600
 4092SOL    HW213176   0.411   2.296   4.487
 4093SOL     OW13177   5.805   0.671   5.110
 4093SOL    HW113178   5.844   0.584   5.138
 4093SOL    HW213179   5.833   0.743   5.174
 4094SOL     OW13180   2.759   4.474   5.382
 4094SOL    HW113181   2.825   4.492   5.309
 4094SOL    HW213182   2.773   4.382   5.418
 4095SOL     OW13183   1.939   4.122   6.121
 4095SOL    HW113184   1.885   4.126   6.206
 4095SOL    HW213185   1.893   4.064   6.054
 4096SOL     OW13186   4.107   4.815   1.969
 4096SOL    HW113187   4.199   4.803   1.932
 4096SOL    HW213188   4.109   4.801   2.068
 4097SOL     OW13189   3.481   3.633   4.641
 4097SOL    HW113190   3.509   3.724   4.610
 4097SOL    HW213191   3.558   3.569   4.632
 4098SOL     OW13192   0.247   2.097   2.496
 4098SOL    HW113193   0.207   2.186   2.479
 4098SOL    HW213194   0.214   2.061   2.583
 4099SOL     OW13195   3.803   6.423   1.701
 4099SOL    HW113196   3.758   6.511   1.684
 4099SOL    HW213197   3.845   6.425   1.792
 4100SOL     OW13198   3.752   5.976   3.242
 4100SOL    HW113199   3.692   5.927   3.178
 4100SOL    HW213200   3.843   5.936   3.239
 4101SOL     OW13201   4.874   1.015   6.267
 4101SOL    HW113202   4.963   1.039   6.228
 4101SOL    HW213203   4.867   0.915   6.273
 4102SOL     OW13204   5.795   1.250   0.582
 4102SOL    HW113205   5.801   1.271   0.680
 4102SOL    HW213206   5.710   1.288   0.546
 4103SOL     OW13207   0.606   0.337   2.355
 4103SOL    HW113208   0.678   0.295   2.299
 4103SOL    HW213209   0.557   0.404   2.299
 4104SOL     OW13210   1.750   4.593   2.715
 4104SOL    HW113211   1.847   4.596   2.688
 4104SOL    HW213212   1.719   4.498   2.715
 4105SOL     OW13213   5.133   4.985   6.961
 4105SOL    HW113214   5.099   5.079   6.974
 4105SOL    HW213215   5.100   4.951   6.873
 4106SOL     OW13216   6.709   3.809   4.826
 4106SOL    HW113217   6.740   3.876   4.894
 4106SOL    HW213218   6.623   3.839   4.786
 4107SOL     OW13219   6.804   0.628   1.161
 4107SOL    HW113220   6.838   0.673   1.078
 4107SOL    HW213221   6.730   0.565   1.137
 4108SOL     OW13222   6.484   3.252   5.619
 4108SOL    HW113223   6.535   3.334   5.593
 4108SOL    HW213224   6.522   3.214   5.704
 4109SOL     OW13225   3.474   6.503   3.381
 4109SOL    HW113226   3.547   6.435   3.384
 4109SOL    HW213227   3.412   6.488   3.458
 4110SOL     OW13228   5.038   3.239   5.535
 4110SOL    HW113229   4.965   3.213   5.471
 4110SOL    HW213230   5.012   3.322   5.584
 4111SOL     OW13231   4.602   3.072   0.231
 4111SOL    HW113232   4.565   3.006   0.165
 4111SOL    HW213233   4.534   3.143   0.248
 4112SOL     OW13234   3.917   0.775   4.426
 4112SOL    HW113235   3.968   0.839   4.483
 4112SOL    HW213236   3.871   0.825   4.353
 4113SOL     OW13237   3.580   5.306   4.294
 4113SOL    HW113238   3.659   5.251   4.321
 4113SOL    HW213239   3.519   5.251   4.236
 4114SOL     OW13240   2.613   2.193   2.594
 4114SOL    HW113241   2.702   2.189   2.640
 4114SOL    HW213242   2.617   2.260   2.519
 4115SOL     OW13243   5.115   4.884   1.844
 4115SOL    HW113244   5.134   4.976   1.877
 4115SOL    HW213245   5.016   4.871   1.834
 4116SOL     OW13246   2.888   1.010   1.752
 4116SOL    HW113247   2.888   0.946   1.675
 4116SOL    HW213248   2.977   1.054   1.759
 4117SOL     OW13249   1.174   5.777   2.163
 4117SOL    HW113250   1.076   5.792   2.148
 4117SOL    HW213251   1.219   5.762   2.075
 4118SOL     OW13252   2.464   6.746   0.047
 4118SOL    HW113253   2.511   6.723   6.978
 4118SOL    HW213254   2.501   6.691   0.122
 4119SOL     OW13255   4.278   1.160   3.176
 4119SOL    HW113256   4.345   1.152   3.250
 4119SOL    HW213257   4.247   1.069   3.149
 4120SOL     OW13258   3.886   0.956   1.444
 4120SOL    HW113259   3.840   0.885   1.497
 4120SOL    HW213260   3.906   1.035   1.503
 4121SOL     OW13261   6.416   2.649   4.956
 4121SOL    HW113262   6.369   2.735   4.975
 4121SOL    HW213263   6.439   2.644   4.859
 4122SOL     OW13264   1.674   5.864   6.142
 4122SOL    HW113265   1.592   5.919   6.123
 4122SOL    HW213266   1.650   5.790   6.204
 4123SOL     OW13267   5.375   3.741   6.475
 4123SOL    HW113268   5.427   3.782   6.550
 4123SOL    HW213269   5.313   3.672   6.512
 4124SOL     OW13270   5.297   6.470   3.780
 4124SOL    HW113271   5.364   6.524   3.833
 4124SOL    HW213272   5.345   6.406   3.721
 4125SOL     OW13273   5.343   1.413   1.361
 4125SOL    HW113274   5.288   1.349   1.414
 4125SOL    HW213275   5.309   1.419   1.268
 4126SOL     OW13276   2.191   4.578   4.138
 4126SOL    HW113277   2.221   4.672   4.154
 4126SOL    HW213278   2.103   4.579   4.091
 4127SOL     OW13279   6.772   3.602   5.515
 4127SOL    HW113280   6.790   3.699   5.534
 4127SOL    HW213281   6.800   3.547   5.593
 4128SOL     OW13282   0.972   2.212   2.707
 4128SOL    HW113283   0.918   2.207   2.623
 4128SOL    HW213284   0.929   2.156   2.778
 4129SOL     OW13285   5.836   2.123   5.980
 4129SOL    HW113286   5.849   2.123   5.880
 4129SOL    HW213287   5.836   2.217   6.013
 4130SOL     OW13288   5.775   3.717   1.086
 4130SOL    HW113289   5.701   3.739   1.149
 4130SOL    HW213290   5.831   3.799   1.071
 4131SOL     OW13291   6.266   4.248   3.509
 4131SOL    HW113292   6.221   4.303   3.579
 4131SOL    HW213293   6.336   4.191   3.551
 4132SOL     OW13294   4.840   1.901   4.015
 4132SOL    HW113295   4.807   1.962   4.087
 4132SOL    HW213296   4.764   1.870   3.959
 4133SOL     OW13297   2.611   1.823   1.233
 4133SOL    HW113298   2.700   1.786   1.206
 4133SOL    HW213299   2.588   1.790   1.324
 4134SOL     OW13300   0.855   1.841   6.968
 4134SOL    HW113301   0.801   1.881   6.895
 4134SOL    HW213302   0.933   1.900   6.989
 4135SOL     OW13303   1.270   0.556   1.244
 4135SOL    HW113304   1.287   0.599   1.155
 4135SOL    HW213305   1.295   0.460   1.240
 4136SOL     OW13306   1.294   2.018   3.383
 4136SOL    HW113307   1.292   2.083   3.307
 4136SOL    HW213308   1.305   1.925   3.348
 4137SOL     OW13309   3.225   4.269   6.288
 4137SOL    HW113310   3.248   4.291   6.194
 4137SOL    HW213311   3.133   4.303   6.309
 4138SOL     OW13312   4.195   4.700   3.127
 4138SOL    HW113313   4.124   4.722   3.060
 4138SOL    HW213314   4.258   4.778   3.135
 4139SOL     OW13315   2.070   1.271   6.908
 4139SOL    HW113316   2.140   1.261   6.837
 4139SOL    HW213317   2.080   1.197   6.975
 4140SOL     OW13318   4.602   1.401   5.119
 4140SOL    HW113319   4.688   1.443   5.090
 4140SOL    HW213320   4.537   1.473   5.145
 4141SOL     OW13321   5.439   5.573   0.421
 4141SOL    HW113322   5.511   5.637   0.447
 4141SOL    HW213323   5.473   5.479   0.429
 4142SOL     OW13324   6.211   3.591   1.523
 4142SOL    HW113325   6.251   3.517   1.578
 4142SOL    HW213326   6.113   3.594   1.540
 4143SOL     OW13327   0.563   2.743   1.175
 4143SOL    HW113328   0.584   2.765   1.270
 4143SOL    HW213329   0.496   2.669   1.172
 4144SOL     OW13330   4.342   0.170   2.453
 4144SOL    HW113331   4.246   0.183   2.481
 4144SOL    HW213332   4.402   0.203   2.525
 4145SOL     OW13333   2.849   0.232   2.698
 4145SOL    HW113334   2.844   0.332   2.697
 4145SOL    HW213335   2.838   0.198   2.605
 4146SOL     OW13336   5.109   5.563   0.502
 4146SOL    HW113337   5.072   5.646   0.541
 4146SOL    HW213338   5.209   5.570   0.496
 4147SOL     OW13339   3.361   2.476   5.703
 4147SOL    HW113340   3.457   2.467   5.677
 4147SOL    HW213341   3.317   2.387   5.701
 4148SOL     OW13342   6.130   0.363   3.045
 4148SOL    HW113343   6.119   0.455   3.082
 4148SOL    HW213344   6.221   0.354   3.004
 4149SOL     OW13345   5.346   3.852   1.834
 4149SOL    HW113346   5.274   3.895   1.889
 4149SOL    HW213347   5.425   3.912   1.830
 4150SOL     OW13348   5.063   0.242   6.067
 4150SOL    HW113349   4.983   0.197   6.108
 4150SOL    HW213350   5.032   0.313   6.003
 4151SOL     OW13351   0.168   5.572   1.015
 4151SOL    HW113352   0.162   5.542   0.920
 4151SOL    HW213353   0.106   5.516   1.071
 4152SOL     OW13354   3.759   4.254   1.338
 4152SOL    HW113355   3.746   4.266   1.437
 4152SOL    HW213356   3.678   4.287   1.290
 4153SOL     OW13357   6.638   5.189   6.068
 4153SOL    HW113358   6.544   5.220   6.056
 4153SOL    HW213359   6.644   5.135   6.152
 4154SOL     OW13360   5.042   3.001   5.725
 4154SOL    HW113361   5.045   3.084   5.669
 4154SOL    HW213362   5.104   3.011   5.803
 4155SOL     OW13363   1.075   3.308   1.848
 4155SOL    HW113364   1.083   3.238   1.919
 4155SOL    HW213365   1.109   3.272   1.761
 4156SOL     OW13366   5.988   0.141   5.683
 4156SOL    HW113367   5.949   0.053   5.653
 4156SOL    HW213368   5.978   0.149   5.782
 4157SOL     OW13369   3.291   0.784   5.071
 4157SOL    HW113370   3.340   0.861   5.112
 4157SOL    HW213371   3.248   0.813   4.986
 4158SOL     OW13372   1.340   6.546   4.121
 4158SOL    HW113373   1.339   6.446   4.127
 4158SOL    HW213374   1.280   6.575   4.047
 4159SOL     OW13375   0.745   3.154   5.003
 4159SOL    HW113376   0.719   3.089   5.075
 4159SOL    HW213377   0.812   3.219   5.039
 4160SOL     OW13378   1.259   1.591   0.423
 4160SOL    HW113379   1.293   1.685   0.419
 4160SOL    HW213380   1.250   1.563   0.518
 4161SOL     OW13381   6.602   2.070   0.534
 4161SOL    HW113382   6.676   2.105   0.592
 4161SOL    HW213383   6.589   1.972   0.553
 4162SOL     OW13384   6.546   0.411   5.230
 4162SOL    HW113385   6.580   0.317   5.225
 4162SOL    HW213386   6.481   0.427   5.155
 4163SOL     OW13387   5.747   1.567   3.932
 4163SOL    HW113388   5.800   1.549   3.849
 4163SOL    HW213389   5.786   1.515   4.008
 4164SOL     OW13390   2.517   0.077   5.882
 4164SOL    HW113391   2.596   0.102   5.938
 4164SOL    HW213392   2.521   0.126   5.795
 4165SOL     OW13393   3.578   6.296   2.223
 4165SOL    HW113394   3.502   6.327   2.165
 4165SOL    HW213395   3.652   6.262   2.165
 4166SOL     OW13396   5.761   2.904   0.854
 4166SOL    HW113397   5.755   2.852   0.939
 4166SOL    HW213398   5.670   2.909   0.812
 4167SOL     OW13399   2.010   2.811   1.270
 4167SOL    HW113400   2.087   2.864   1.234
 4167SOL    HW213401   1.978   2.852   1.355
 4168SOL     OW13402   1.492   4.565   0.860
 4168SOL    HW113403   1.435   4.572   0.778
 4168SOL    HW213404   1.585   4.594   0.840
 4169SOL     OW13405   6.119   3.516   4.539
 4169SOL    HW113406   6.156   3.427   4.566
 4169SOL    HW213407   6.046   3.542   4.602
 4170SOL     OW13408   4.491   2.502   5.592
 4170SOL    HW113409   4.485   2.599   5.615
 4170SOL    HW213410   4.552   2.489   5.514
 4171SOL     OW13411   5.598   3.696   1.905
 4171SOL    HW113412   5.518   3.755   1.897
 4171SOL    HW213413   5.673   3.734   1.850
 4172SOL     OW13414   1.852   1.753   0.534
 4172SOL    HW113415   1.831   1.720   0.442
 4172SOL    HW213416   1.835   1.851   0.538
 4173SOL     OW13417   5.342   3.679   5.604
 4173SOL    HW113418   5.432   3.719   5.620
 4173SOL    HW213419   5.351   3.602   5.541
 4174SOL     OW13420   5.128   0.830   4.501
 4174SOL    HW113421   5.184   0.807   4.581
 4174SOL    HW213422   5.049   0.769   4.497
 4175SOL     OW13423   3.525   1.310   3.376
 4175SOL    HW113424   3.614   1.327   3.335
 4175SOL    HW213425   3.512   1.212   3.389
 4176SOL     OW13426   5.997   6.098   2.968
 4176SOL    HW113427   6.080   6.090   2.913
 4176SOL    HW213428   5.987   6.192   3.000
 4177SOL     OW13429   6.842   5.487   2.574
 4177SOL    HW113430   6.762   5.484   2.634
 4177SOL    HW213431   6.911   5.423   2.607
 4178SOL     OW13432   4.236   2.407   5.636
 4178SOL    HW113433   4.200   2.321   5.672
 4178SOL    HW213434   4.336   2.403   5.635
 4179SOL     OW13435   5.687   3.086   6.015
 4179SOL    HW113436   5.775   3.086   6.063
 4179SOL    HW213437   5.696   3.135   5.929
 4180SOL     OW13438   4.247   3.823   1.509
 4180SOL    HW113439   4.240   3.838   1.607
 4180SOL    HW213440   4.344   3.815   1.483
 4181SOL     OW13441   0.170   1.456   0.304
 4181SOL    HW113442   0.088   1.508   0.329
 4181SOL    HW213443   0.250   1.496   0.349
 4182SOL     OW13444   5.763   1.216   3.663
 4182SOL    HW113445   5.803   1.292   3.611
 4182SOL    HW213446   5.808   1.209   3.752
 4183SOL     OW13447   1.316   1.810   1.260
 4183SOL    HW113448   1.236   1.751   1.269
 4183SOL    HW213449   1.312   1.859   1.173
 4184SOL     OW13450   4.419   5.300   0.246
 4184SOL    HW113451   4.481   5.242   0.298
 4184SOL    HW213452   4.326   5.290   0.281
 4185SOL     OW13453   0.399   6.963   4.197
 4185SOL    HW113454   0.480   6.937   4.145
 4185SOL    HW213455   0.388   0.047   4.193
 4186SOL     OW13456   3.322   4.163   1.365
 4186SOL    HW113457   3.332   4.080   1.419
 4186SOL    HW213458   3.225   4.179   1.346
 4187SOL     OW13459   4.493   4.348   6.581
 4187SOL    HW113460   4.463   4.284   6.511
 4187SOL    HW213461   4.413   4.392   6.622
 4188SOL     OW13462   5.149   6.475   4.825
 4188SOL    HW113463   5.146   6.376   4.840
 4188SOL    HW213464   5.061   6.506   4.789
 4189SOL     OW13465   2.211   2.874   3.564
 4189SOL    HW113466   2.301   2.833   3.549
 4189SOL    HW213467   2.212   2.927   3.649
 4190SOL     OW13468   2.958   0.140   1.462
 4190SOL    HW113469   2.861   0.138   1.441
 4190SOL    HW213470   3.009   0.173   1.382
 4191SOL     OW13471   6.613   2.203   2.551
 4191SOL    HW113472   6.709   2.175   2.549
 4191SOL    HW213473   6.559   2.142   2.494
 4192SOL     OW13474   6.129   1.372   3.203
 4192SOL    HW113475   6.106   1.351   3.108
 4192SOL    HW213476   6.123   1.470   3.218
 4193SOL     OW13477   2.171   6.833   2.391
 4193SOL    HW113478   2.234   6.757   2.407
 4193SOL    HW213479   2.204   6.888   2.314
 4194SOL     OW13480   0.261   0.955   4.070
 4194SOL    HW113481   0.252   0.856   4.057
 4194SOL    HW213482   0.277   0.975   4.166
 4195SOL     OW13483   5.155   1.048   2.313
 4195SOL    HW113484   5.232   1.108   2.290
 4195SOL    HW213485   5.149   1.039   2.412
 4196SOL     OW13486   4.441   2.417   3.272
 4196SOL    HW113487   4.414   2.324   3.249
 4196SOL    HW213488   4.369   2.480   3.242
 4197SOL     OW13489   4.437   4.649   4.092
 4197SOL    HW113490   4.402   4.693   4.174
 4197SOL    HW213491   4.378   4.673   4.014
 4198SOL     OW13492   5.674   3.819   5.810
 4198SOL    HW113493   5.699   3.727   5.782
 4198SOL    HW213494   5.679   3.827   5.910
 4199SOL     OW13495   3.084   4.052   5.206
 4199SOL    HW113496   3.055   4.021   5.115
 4199SOL    HW213497   3.090   3.974   5.268
 4200SOL     OW13498   2.704   0.356   6.049
 4200SOL    HW113499   2.722   0.266   6.089
 4200SOL    HW213500   2.625   0.397   6.095
 4201SOL     OW13501   6.416   6.639   4.492
 4201SOL    HW113502   6.421   6.688   4.404
 4201SOL    HW213503   6.321   6.616   4.511
 4202SOL     OW13504   5.456   4.140   4.814
 4202SOL    HW113505   5.380   4.130   4.879
 4202SOL    HW213506   5.425   4.190   4.734
 4203SOL     OW13507   5.167   5.093   3.921
 4203SOL    HW113508   5.255   5.133   3.946
 4203SOL    HW213509   5.173   5.054   3.829
 4204SOL     OW13510   2.976   4.004   1.011
 4204SOL    HW113511   3.054   3.944   0.991
 4204SOL    HW213512   2.909   3.954   1.066
 4205SOL     OW13513   2.794   5.083   2.942
 4205SOL    HW113514   2.698   5.104   2.961
 4205SOL    HW213515   2.827   5.142   2.868
 4206SOL     OW13516   5.727   0.103   4.616
 4206SOL    HW113517   5.817   0.112   4.575
 4206SOL    HW213518   5.729   0.138   4.709
 4207SOL     OW13519   1.031   0.941   1.077
 4207SOL    HW113520   0.974   1.023   1.076
 4207SOL    HW213521   1.127   0.966   1.065
 4208SOL     OW13522   0.845   3.021   1.338
 4208SOL    HW113523   0.763   3.030   1.280
 4208SOL    HW213524   0.920   2.984   1.283
 4209SOL     OW13525   2.868   0.118   4.555
 4209SOL    HW113526   2.865   0.055   4.633
 4209SOL    HW213527   2.936   0.189   4.572
 4210SOL     OW13528   5.218   2.295   0.662
 4210SOL    HW113529   5.183   2.371   0.716
 4210SOL    HW213530   5.231   2.324   0.567
 4211SOL     OW13531   5.007   3.884   3.563
 4211SOL    HW113532   5.013   3.791   3.527
 4211SOL    HW213533   4.933   3.889   3.631
 4212SOL     OW13534   6.292   6.763   2.967
 4212SOL    HW113535   6.227   6.782   2.893
 4212SOL    HW213536   6.242   6.758   3.054
 4213SOL     OW13537   0.767   0.634   2.286
 4213SOL    HW113538   0.670   0.615   2.307
 4213SOL    HW213539   0.819   0.638   2.372
 4214SOL     OW13540   2.239   4.242   4.480
 4214SOL    HW113541   2.299   4.189   4.420
 4214SOL    HW213542   2.230   4.194   4.567
 4215SOL     OW13543   0.621   5.141   5.164
 4215SOL    HW113544   0.714   5.137   5.200
 4215SOL    HW213545   0.568   5.065   5.202
 4216SOL     OW13546   2.379   3.476   5.438
 4216SOL    HW113547   2.410   3.383   5.461
 4216SOL    HW213548   2.457   3.532   5.412
 4217SOL     OW13549   0.004   0.866   3.304
 4217SOL    HW113550   6.938   0.922   3.291
 4217SOL    HW213551   6.991   0.772   3.327
 4218SOL     OW13552   2.851   7.008   2.854
 4218SOL    HW113553   2.848   0.078   2.802
 4218SOL    HW213554   2.882   0.011   2.947
 4219SOL     OW13555   4.851   6.451   3.399
 4219SOL    HW113556   4.855   6.445   3.498
 4219SOL    HW213557   4.781   6.388   3.364
 4220SOL     OW13558   0.697   3.735   3.559
 4220SOL    HW113559   0.669   3.732   3.655
 4220SOL    HW213560   0.633   3.682   3.504
 4221SOL     OW13561   5.325   5.986   6.054
 4221SOL    HW113562   5.349   6.057   5.988
 4221SOL    HW213563   5.379   5.999   6.137
 4222SOL     OW13564   4.137   2.582   0.283
 4222SOL    HW113565   4.039   2.560   0.284
 4222SOL    HW213566   4.190   2.499   0.302
 4223SOL     OW13567   3.131   3.951   2.453
 4223SOL    HW113568   3.056   3.885   2.456
 4223SOL    HW213569   3.193   3.934   2.529
 4224SOL     OW13570   4.080   2.054   5.352
 4224SOL    HW113571   4.173   2.038   5.385
 4224SOL    HW213572   4.014   2.017   5.417
 4225SOL     OW13573   5.566   0.892   5.051
 4225SOL    HW113574   5.478   0.849   5.035
 4225SOL    HW213575   5.631   0.825   5.088
 4226SOL     OW13576   1.618   0.722   3.404
 4226SOL    HW113577   1.704   0.725   3.352
 4226SOL    HW213578   1.563   0.645   3.372
 4227SOL     OW13579   6.274   4.172   0.445
 4227SOL    HW113580   6.329   4.114   0.384
 4227SOL    HW213581   6.290   4.268   0.423
 4228SOL     OW13582   6.062   5.537   2.655
 4228SOL    HW113583   6.003   5.539   2.736
 4228SOL    HW213584   6.017   5.486   2.582
 4229SOL     OW13585   4.917   4.902   5.954
 4229SOL    HW113586   4.947   4.851   6.035
 4229SOL    HW213587   4.845   4.966   5.980
 4230SOL     OW13588   3.514   0.433   4.485
 4230SOL    HW113589   3.563   0.517   4.506
 4230SOL    HW213590   3.577   0.366   4.446
 4231SOL     OW13591   4.186   6.103   5.095
 4231SOL    HW113592   4.150   6.021   5.051
 4231SOL    HW213593   4.166   6.099   5.193
 4232SOL     OW13594   2.231   3.885   1.945
 4232SOL    HW113595   2.243   3.807   1.883
 4232SOL    HW213596   2.196   3.852   2.033
 4233SOL     OW13597   5.563   6.876   1.244
 4233SOL    HW113598   5.580   6.889   1.146
 4233SOL    HW213599   5.491   6.807   1.256
 4234SOL     OW13600   3.331   4.049   5.483
 4234SOL    HW113601   3.401   4.073   5.416
 4234SOL    HW213602   3.255   4.003   5.437
 4235SOL     OW13603   0.334   3.637   5.344
 4235SOL    HW113604   0.344   3.736   5.353
 4235SOL    HW213605   0.413   3.592   5.384
 4236SOL     OW13606   1.209   4.202   4.884
 4236SOL    HW113607   1.217   4.298   4.909
 4236SOL    HW213608   1.216   4.193   4.785
 4237SOL     OW13609   5.360   4.232   4.563
 4237SOL    HW113610   5.408   4.311   4.525
 4237SOL    HW213611   5.263   4.252   4.571
 4238SOL     OW13612   4.152   4.972   3.836
 4238SOL    HW113613   4.200   5.018   3.911
 4238SOL    HW213614   4.124   5.041   3.768
 4239SOL     OW13615   5.292   5.441   5.938
 4239SOL    HW113616   5.200   5.467   5.968
 4239SOL    HW213617   5.343   5.403   6.015
 4240SOL     OW13618   2.921   4.739   6.039
 4240SOL    HW113619   2.882   4.673   6.103
 4240SOL    HW213620   2.901   4.831   6.071
 4241SOL     OW13621   3.937   1.196   0.161
 4241SOL    HW113622   3.979   1.283   0.185
 4241SOL    HW213623   3.953   1.176   0.065
 4242SOL     OW13624   1.597   0.119   2.536
 4242SOL    HW113625   1.541   0.174   2.598
 4242SOL    HW213626   1.640   0.178   2.468
 4243SOL     OW13627   1.697   3.052   2.994
 4243SOL    HW113628   1.712   3.040   3.092
 4243SOL    HW213629   1.609   3.012   2.968
 4244SOL     OW13630   3.166   6.461   1.151
 4244SOL    HW113631   3.200   6.369   1.169
 4244SOL    HW213632   3.209   6.526   1.213
 4245SOL     OW13633   6.329   3.088   1.684
 4245SOL    HW113634   6.386   3.104   1.603
 4245SOL    HW213635   6.388   3.077   1.764
 4246SOL     OW13636   4.382   1.805   4.076
 4246SOL    HW113637   4.382   1.827   4.173
 4246SOL    HW213638   4.429   1.718   4.061
 4247SOL     OW13639   2.223   4.189   6.475
 4247SOL    HW113640   2.180   4.276   6.449
 4247SOL    HW213641   2.280   4.203   6.556
 4248SOL     OW13642   1.884   0.436   2.955
 4248SOL    HW113643   1.785   0.427   2.965
 4248SOL    HW213644   1.926   0.346   2.953
 4249SOL     OW13645   6.399   0.500   5.924
 4249SOL    HW113646   6.370   0.409   5.955
 4249SOL    HW213647   6.479   0.491   5.864
 4250SOL     OW13648   6.481   5.562   4.694
 4250SOL    HW113649   6.557   5.496   4.701
 4250SOL    HW213650   6.443   5.558   4.602
 4251SOL     OW13651   5.484   2.482   5.484
 4251SOL    HW113652   5.409   2.435   5.438
 4251SOL    HW213653   5.565   2.482   5.426
 4252SOL     OW13654   6.947   6.712   0.292
 4252SOL    HW113655   6.919   6.790   0.347
 4252SOL    HW213656   6.899   6.715   0.204
 4253SOL     OW13657   4.724   5.545   2.821
 4253SOL    HW113658   4.643   5.500   2.784
 4253SOL    HW213659   4.709   5.568   2.917
 4254SOL     OW13660   2.350   2.432   5.888
 4254SOL    HW113661   2.266   2.485   5.895
 4254SOL    HW213662   2.382   2.407   5.979
 4255SOL     OW13663   1.343   2.971   3.135
 4255SOL    HW113664   1.355   2.950   3.038
 4255SOL    HW213665   1.430   3.001   3.173
 4256SOL     OW13666   0.438   6.022   1.082
 4256SOL    HW113667   0.406   5.928   1.067
 4256SOL    HW213668   0.382   6.064   1.154
 4257SOL     OW13669   6.686   0.777   3.639
 4257SOL    HW113670   6.739   0.694   3.622
 4257SOL    HW213671   6.748   0.853   3.658
 4258SOL     OW13672   3.042   5.118   0.933
 4258SOL    HW113673   3.090   5.170   1.004
 4258SOL    HW213674   3.063   5.157   0.843
 4259SOL     OW13675   0.902   0.255   0.565
 4259SOL    HW113676   0.921   0.223   0.472
 4259SOL    HW213677   0.974   0.221   0.626
 4260SOL     OW13678   5.748   0.866   4.648
 4260SOL    HW113679   5.808   0.891   4.724
 4260SOL    HW213680   5.803   0.843   4.568
 4261SOL     OW13681   2.661   6.233   4.406
 4261SOL    HW113682   2.569   6.231   4.447
 4261SOL    HW213683   2.652   6.229   4.306
 4262SOL     OW13684   2.858   4.780   5.781
 4262SOL    HW113685   2.889   4.738   5.867
 4262SOL    HW213686   2.856   4.879   5.792
 4263SOL     OW13687   2.114   1.845   3.526
 4263SOL    HW113688   2.042   1.776   3.522
 4263SOL    HW213689   2.075   1.933   3.555
 4264SOL     OW13690   4.770   2.180   5.667
 4264SOL    HW113691   4.767   2.140   5.758
 4264SOL    HW213692   4.778   2.279   5.674
 4265SOL     OW13693   2.425   6.821   5.812
 4265SOL    HW113694   2.462   6.909   5.838
 4265SOL    HW213695   2.328   6.831   5.787
 4266SOL     OW13696   1.195   4.973   1.498
 4266SOL    HW113697   1.270   4.949   1.436
 4266SOL    HW213698   1.108   4.946   1.458
 4267SOL     OW13699   1.173   4.588   4.404
 4267SOL    HW113700   1.149   4.683   4.425
 4267SOL    HW213701   1.223   4.548   4.480
 4268SOL     OW13702   1.107   4.176   6.127
 4268SOL    HW113703   1.205   4.156   6.136
 4268SOL    HW213704   1.056   4.091   6.123
 4269SOL     OW13705   2.590   1.406   4.587
 4269SOL    HW113706   2.540   1.324   4.615
 4269SOL    HW213707   2.651   1.383   4.512
 4270SOL     OW13708   3.723   2.978   0.046
 4270SOL    HW113709   3.778   3.052   0.008
 4270SOL    HW213710   3.765   2.890   0.025
 4271SOL     OW13711   6.627   0.463   1.025
 4271SOL    HW113712   6.575   0.408   1.091
 4271SOL    HW213713   6.565   0.527   0.980
 4272SOL     OW13714   6.527   0.853   5.804
 4272SOL    HW113715   6.524   0.816   5.896
 4272SOL    HW213716   6.601   0.920   5.797
 4273SOL     OW13717   2.835   5.735   4.243
 4273SOL    HW113718   2.742   5.734   4.206
 4273SOL    HW213719   2.831   5.733   4.343
 4274SOL     OW13720   0.058   1.520   2.344
 4274SOL    HW113721   0.156   1.501   2.349
 4274SOL    HW213722   0.038   1.567   2.258
 4275SOL     OW13723   0.449   2.448   3.548
 4275SOL    HW113724   0.443   2.445   3.449
 4275SOL    HW213725   0.471   2.541   3.578
 4276SOL     OW13726   2.134   5.932   2.969
 4276SOL    HW113727   2.047   5.964   3.004
 4276SOL    HW213728   2.119   5.881   2.884
 4277SOL     OW13729   6.977   5.495   2.926
 4277SOL    HW113730   0.023   5.551   2.870
 4277SOL    HW213731   6.970   5.404   2.886
 4278SOL     OW13732   1.205   6.650   1.438
 4278SOL    HW113733   1.105   6.648   1.429
 4278SOL    HW213734   1.242   6.719   1.376
 4279SOL     OW13735   1.304   2.380   3.543
 4279SOL    HW113736   1.299   2.384   3.443
 4279SOL    HW213737   1.218   2.344   3.580
 4280SOL     OW13738   2.121   6.484   6.035
 4280SOL    HW113739   2.193   6.417   6.051
 4280SOL    HW213740   2.126   6.556   6.105
 4281SOL     OW13741   5.777   5.951   3.112
 4281SOL    HW113742   5.702   5.998   3.066
 4281SOL    HW213743   5.862   6.002   3.098
 4282SOL     OW13744   5.087   5.159   2.162
 4282SOL    HW113745   5.041   5.074   2.189
 4282SOL    HW213746   5.124   5.148   2.070
 4283SOL     OW13747   5.319   1.360   4.571
 4283SOL    HW113748   5.388   1.323   4.634
 4283SOL    HW213749   5.308   1.458   4.588
 4284SOL     OW13750   4.525   5.605   6.338
 4284SOL    HW113751   4.550   5.554   6.420
 4284SOL    HW213752   4.425   5.606   6.329
 4285SOL     OW13753   3.494   1.048   6.515
 4285SOL    HW113754   3.477   1.130   6.460
 4285SOL    HW213755   3.565   0.992   6.472
 4286SOL     OW13756   5.547   0.575   6.470
 4286SOL    HW113757   5.531   0.485   6.429
 4286SOL    HW213758   5.616   0.567   6.542
 4287SOL     OW13759   3.486   1.103   0.910
 4287SOL    HW113760   3.539   1.089   0.826
 4287SOL    HW213761   3.511   1.191   0.951
 4288SOL     OW13762   6.899   6.042   1.857
 4288SOL    HW113763   6.992   6.077   1.871
 4288SOL    HW213764   6.836   6.090   1.918
 4289SOL     OW13765   0.464   4.664   4.948
 4289SOL    HW113766   0.438   4.658   4.851
 4289SOL    HW213767   0.414   4.739   4.991
 4290SOL     OW13768   0.201   1.657   2.969
 4290SOL    HW113769   0.237   1.609   3.049
 4290SOL    HW213770   0.134   1.599   2.923
 4291SOL     OW13771   3.813   4.560   6.692
 4291SOL    HW113772   3.721   4.531   6.717
 4291SOL    HW213773   3.878   4.527   6.761
 4292SOL     OW13774   6.658   1.370   1.669
 4292SOL    HW113775   6.744   1.383   1.619
 4292SOL    HW213776   6.643   1.273   1.686
 4293SOL     OW13777   3.859   2.522   0.230
 4293SOL    HW113778   3.893   2.429   0.224
 4293SOL    HW213779   3.767   2.522   0.268
 4294SOL     OW13780   2.712   2.071   6.532
 4294SOL    HW113781   2.640   2.110   6.590
 4294SOL    HW213782   2.703   1.972   6.528
 4295SOL     OW13783   4.603   5.851   2.979
 4295SOL    HW113784   4.509   5.816   2.986
 4295SOL    HW213785   4.602   5.950   2.983
 4296SOL     OW13786   2.673   6.641   2.316
 4296SOL    HW113787   2.587   6.663   2.271
 4296SOL    HW213788   2.747   6.639   2.249
 4297SOL     OW13789   5.211   5.359   0.347
 4297SOL    HW113790   5.233   5.388   0.254
 4297SOL    HW213791   5.192   5.440   0.403
 4298SOL     OW13792   1.579   0.229   0.683
 4298SOL    HW113793   1.530   0.229   0.596
 4298SOL    HW213794   1.527   0.280   0.751
 4299SOL     OW13795   0.920   3.212   6.886
 4299SOL    HW113796   0.891   3.166   6.802
 4299SOL    HW213797   0.876   3.302   6.892
 4300SOL     OW13798   3.321   0.819   1.729
 4300SOL    HW113799   3.247   0.808   1.663
 4300SOL    HW213800   3.409   0.809   1.683
 4301SOL     OW13801   2.447   5.895   6.548
 4301SOL    HW113802   2.396   5.971   6.508
 4301SOL    HW213803   2.543   5.902   6.522
 4302SOL     OW13804   3.523   4.891   5.860
 4302SOL    HW113805   3.550   4.799   5.835
 4302SOL    HW213806   3.435   4.913   5.817
 4303SOL     OW13807   4.860   5.050   3.309
 4303SOL    HW113808   4.952   5.059   3.272
 4303SOL    HW213809   4.860   4.987   3.386
 4304SOL     OW13810   3.293   4.005   1.608
 4304SOL    HW113811   3.265   3.985   1.702
 4304SOL    HW213812   3.391   3.986   1.599
 4305SOL     OW13813   0.831   6.046   6.185
 4305SOL    HW113814   0.886   5.971   6.219
 4305SOL    HW213815   0.887   6.128   6.177
 4306SOL     OW13816   5.940   3.963   5.440
 4306SOL    HW113817   6.033   3.931   5.422
 4306SOL    HW213818   5.878   3.923   5.373
 4307SOL     OW13819   0.442   0.713   6.003
 4307SOL    HW113820   0.515   0.651   6.032
 4307SOL    HW213821   0.451   0.732   5.905
 4308SOL     OW13822   4.584   6.059   6.381
 4308SOL    HW113823   4.620   5.966   6.379
 4308SOL    HW213824   4.564   6.085   6.475
 4309SOL     OW13825   1.339   1.239   6.857
 4309SOL    HW113826   1.251   1.273   6.824
 4309SOL    HW213827   1.390   1.313   6.900
 4310SOL     OW13828   6.268   1.786   2.926
 4310SOL    HW113829   6.182   1.838   2.930
 4310SOL    HW213830   6.342   1.842   2.963
 4311SOL     OW13831   0.824   0.719   1.587
 4311SOL    HW113832   0.892   0.646   1.579
 4311SOL    HW213833   0.794   0.725   1.682
 4312SOL     OW13834   6.853   4.057   2.458
 4312SOL    HW113835   6.866   4.145   2.411
 4312SOL    HW213836   6.798   3.997   2.400
 4313SOL     OW13837   0.626   3.173   6.475
 4313SOL    HW113838   0.547   3.211   6.524
 4313SOL    HW213839   0.615   3.188   6.377
 4314SOL     OW13840   0.778   1.342   6.251
 4314SOL    HW113841   0.732   1.277   6.311
 4314SOL    HW213842   0.809   1.295   6.169
 4315SOL     OW13843   2.837   1.320   5.445
 4315SOL    HW113844   2.749   1.349   5.483
 4315SOL    HW213845   2.847   1.357   5.352
 4316SOL     OW13846   4.277   5.819   1.836
 4316SOL    HW113847   4.269   5.856   1.744
 4316SOL    HW213848   4.354   5.864   1.883
 4317SOL     OW13849   5.035   0.829   5.118
 4317SOL    HW113850   4.994   0.824   5.027
 4317SOL    HW213851   4.985   0.896   5.173
 4318SOL     OW13852   1.433   6.284   4.553
 4318SOL    HW113853   1.527   6.280   4.588
 4318SOL    HW213854   1.399   6.377   4.560
 4319SOL     OW13855   0.848   4.092   2.694
 4319SOL    HW113856   0.914   4.152   2.740
 4319SOL    HW213857   0.856   4.000   2.731
 4320SOL     OW13858   3.131   0.158   0.937
 4320SOL    HW113859   3.157   0.063   0.957
 4320SOL    HW213860   3.160   0.182   0.844
 4321SOL     OW13861   6.915   6.527   3.405
 4321SOL    HW113862   6.960   6.527   3.315
 4321SOL    HW213863   6.875   6.617   3.422
 4322SOL     OW13864   2.189   1.924   4.575
 4322SOL    HW113865   2.150   1.832   4.563
 4322SOL    HW213866   2.267   1.936   4.514
 4323SOL     OW13867   4.749   5.018   0.020
 4323SOL    HW113868   4.789   5.105   0.050
 4323SOL    HW213869   4.649   5.025   0.019
 4324SOL     OW13870   0.936   4.803   5.616
 4324SOL    HW113871   0.926   4.710   5.580
 4324SOL    HW213872   0.926   4.868   5.542
 4325SOL     OW13873   2.143   6.310   2.133
 4325SOL    HW113874   2.150   6.393   2.077
 4325SOL    HW213875   2.187   6.234   2.085
 4326SOL     OW13876   5.101   2.238   2.284
 4326SOL    HW113877   5.062   2.259   2.374
 4326SOL    HW213878   5.150   2.151   2.288
 4327SOL     OW13879   2.448   5.491   3.494
 4327SOL    HW113880   2.419   5.405   3.451
 4327SOL    HW213881   2.433   5.486   3.592
 4328SOL     OW13882   6.614   0.779   3.346
 4328SOL    HW113883   6.589   0.862   3.296
 4328SOL    HW213884   6.614   0.798   3.444
 4329SOL     OW13885   6.886   2.730   6.541
 4329SOL    HW113886   6.934   2.663   6.596
 4329SOL    HW213887   6.852   2.804   6.600
 4330SOL     OW13888   2.371   5.338   4.412
 4330SOL    HW113889   2.470   5.329   4.424
 4330SOL    HW213890   2.352   5.400   4.336
 4331SOL     OW13891   6.048   1.970   2.520
 4331SOL    HW113892   6.005   2.033   2.584
 4331SOL    HW213893   6.147   1.968   2.537
 4332SOL     OW13894   0.799   5.697   1.764
 4332SOL    HW113895   0.747   5.698   1.678
 4332SOL    HW213896   0.767   5.770   1.824
 4333SOL     OW13897   3.899   2.444   6.148
 4333SOL    HW113898   3.861   2.360   6.109
 4333SOL    HW213899   3.982   2.423   6.199
 4334SOL     OW13900   0.348   2.673   3.983
 4334SOL    HW113901   0.421   2.725   3.940
 4334SOL    HW213902   0.323   2.715   4.070
 4335SOL     OW13903   2.404   4.053   1.517
 4335SOL    HW113904   2.432   4.083   1.426
 4335SOL    HW213905   2.480   4.066   1.581
 4336SOL     OW13906   2.453   5.663   5.493
 4336SOL    HW113907   2.512   5.631   5.566
 4336SOL    HW213908   2.427   5.758   5.510
 4337SOL     OW13909   0.222   4.720   3.716
 4337SOL    HW113910   0.258   4.767   3.797
 4337SOL    HW213911   0.288   4.727   3.641
 4338SOL     OW13912   3.002   2.412   5.850
 4338SOL    HW113913   2.983   2.419   5.948
 4338SOL    HW213914   3.068   2.482   5.824
 4339SOL     OW13915   4.076   5.119   5.248
 4339SOL    HW113916   4.154   5.133   5.308
 4339SOL    HW213917   4.087   5.034   5.197
 4340SOL     OW13918   6.657   4.393   1.403
 4340SOL    HW113919   6.724   4.461   1.374
 4340SOL    HW213920   6.695   4.301   1.389
 4341SOL     OW13921   5.412   6.096   1.263
 4341SOL    HW113922   5.314   6.077   1.267
 4341SOL    HW213923   5.434   6.174   1.321
 4342SOL     OW13924   5.472   2.777   2.473
 4342SOL    HW113925   5.551   2.791   2.533
 4342SOL    HW213926   5.403   2.723   2.521
 4343SOL     OW13927   3.528   0.232   6.478
 4343SOL    HW113928   3.443   0.256   6.431
 4343SOL    HW213929   3.569   0.152   6.435
 4344SOL     OW13930   0.452   3.795   3.011
 4344SOL    HW113931   0.389   3.728   2.969
 4344SOL    HW213932   0.425   3.810   3.106
 4345SOL     OW13933   3.777   3.186   2.363
 4345SOL    HW113934   3.709   3.259   2.360
 4345SOL    HW213935   3.868   3.226   2.371
 4346SOL     OW13936   0.416   2.993   2.899
 4346SOL    HW113937   0.460   3.082   2.912
 4346SOL    HW213938   0.456   2.927   2.963
 4347SOL     OW13939   6.363   5.883   0.828
 4347SOL    HW113940   6.463   5.886   0.834
 4347SOL    HW213941   6.333   5.787   0.822
 4348SOL     OW13942   5.749   4.963   5.684
 4348SOL    HW113943   5.841   4.925   5.694
 4348SOL    HW213944   5.734   4.989   5.589
 4349SOL     OW13945   0.304   3.114   3.916
 4349SOL    HW113946   0.263   3.062   3.842
 4349SOL    HW213947   0.395   3.077   3.937
 4350SOL     OW13948   3.859   0.959   3.773
 4350SOL    HW113949   3.831   0.893   3.842
 4350SOL    HW213950   3.888   1.044   3.817
 4351SOL     OW13951   0.761   5.714   0.590
 4351SOL    HW113952   0.860   5.725   0.596
 4351SOL    HW213953   0.736   5.620   0.614
 4352SOL     OW13954   3.517   5.132   1.602
 4352SOL    HW113955   3.563   5.068   1.663
 4352SOL    HW213956   3.569   5.140   1.517
 4353SOL     OW13957   3.091   2.974   1.202
 4353SOL    HW113958   3.084   2.876   1.184
 4353SOL    HW213959   3.136   3.020   1.125
 4354SOL     OW13960   5.835   6.389   2.795
 4354SOL    HW113961   5.860   6.294   2.775
 4354SOL    HW213962   5.885   6.450   2.734
 4355SOL     OW13963   1.890   4.805   2.427
 4355SOL    HW113964   1.807   4.795   2.483
 4355SOL    HW213965   1.971   4.801   2.486
 4356SOL     OW13966   6.109   2.899   5.120
 4356SOL    HW113967   6.166   2.890   5.201
 4356SOL    HW213968   6.138   2.979   5.067
 4357SOL     OW13969   5.946   0.151   1.996
 4357SOL    HW113970   5.985   0.236   2.031
 4357SOL    HW213971   5.981   0.074   2.050
 4358SOL     OW13972   2.734   0.015   0.387
 4358SOL    HW113973   2.716   0.102   0.341
 4358SOL    HW213974   2.794   6.975   0.331
 4359SOL     OW13975   2.742   2.127   1.201
 4359SOL    HW113976   2.769   2.111   1.296
 4359SOL    HW213977   2.681   2.053   1.171
 4360SOL     OW13978   1.990   5.256   3.896
 4360SOL    HW113979   1.940   5.219   3.817
 4360SOL    HW213980   1.927   5.307   3.954
 4361SOL     OW13981   0.070   2.088   6.899
 4361SOL    HW113982   0.012   2.079   6.980
 4361SOL    HW213983   0.165   2.069   6.924
 4362SOL     OW13984   1.004   5.314   3.303
 4362SOL    HW113985   0.989   5.217   3.282
 4362SOL    HW213986   0.998   5.328   3.402
 4363SOL     OW13987   3.759   1.143   1.915
 4363SOL    HW113988   3.854   1.163   1.939
 4363SOL    HW213989   3.743   1.169   1.819
 4364SOL     OW13990   4.117   3.571   2.751
 4364SOL    HW113991   4.075   3.581   2.842
 4364SOL    HW213992   4.203   3.622   2.749
 4365SOL     OW13993   2.108   1.151   1.306
 4365SOL    HW113994   2.186   1.174   1.364
 4365SOL    HW213995   2.097   1.220   1.235
 4366SOL     OW13996   5.096   0.052   4.789
 4366SOL    HW113997   5.072   7.000   4.719
 4366SOL    HW213998   5.195   0.064   4.791
 4367SOL     OW13999   2.553   6.484   2.732
 4367SOL    HW114000   2.616   6.514   2.804
 4367SOL    HW214001   2.598   6.490   2.643
 4368SOL     OW14002   4.807   3.928   3.770
 4368SOL    HW114003   4.730   3.970   3.817
 4368SOL    HW214004   4.864   3.879   3.837
 4369SOL     OW14005   5.208   4.090   3.925
 4369SOL    HW114006   5.117   4.125   3.902
 4369SOL    HW214007   5.225   4.102   4.022
 4370SOL     OW14008   3.885   4.531   1.415
 4370SOL    HW114009   3.973   4.520   1.370
 4370SOL    HW214010   3.881   4.472   1.496
 4371SOL     OW14011   2.439   1.145   2.228
 4371SOL    HW114012   2.382   1.197   2.291
 4371SOL    HW214013   2.451   1.197   2.143
 4372SOL     OW14014   1.800   3.829   3.966
 4372SOL    HW114015   1.784   3.906   4.028
 4372SOL    HW214016   1.803   3.862   3.871
 4373SOL     OW14017   3.779   0.870   6.679
 4373SOL    HW114018   3.698   0.906   6.726
 4373SOL    HW214019   3.836   0.821   6.745
 4374SOL     OW14020   2.650   6.632   0.243
 4374SOL    HW114021   2.729   6.692   0.227
 4374SOL    HW214022   2.658   6.590   0.333
 4375SOL     OW14023   4.778   1.543   5.523
 4375SOL    HW114024   4.809   1.518   5.615
 4375SOL    HW214025   4.678   1.532   5.518
 4376SOL     OW14026   2.187   6.078   6.518
 4376SOL    HW114027   2.115   6.142   6.545
 4376SOL    HW214028   2.171   6.047   6.424
 4377SOL     OW14029   5.011   6.715   6.906
 4377SOL    HW114030   5.097   6.664   6.898
 4377SOL    HW214031   4.935   6.651   6.919
 4378SOL     OW14032   2.524   5.154   2.439
 4378SOL    HW114033   2.529   5.183   2.343
 4378SOL    HW214034   2.557   5.061   2.447
 4379SOL     OW14035   0.958   0.234   1.706
 4379SOL    HW114036   0.907   0.256   1.623
 4379SOL    HW214037   1.036   0.176   1.683
 4380SOL     OW14038   1.438   5.389   3.995
 4380SOL    HW114039   1.391   5.343   3.920
 4380SOL    HW214040   1.380   5.388   4.077
 4381SOL     OW14041   4.862   5.711   5.281
 4381SOL    HW114042   4.961   5.697   5.291
 4381SOL    HW214043   4.833   5.783   5.345
 4382SOL     OW14044   4.877   3.090   3.169
 4382SOL    HW114045   4.864   3.122   3.075
 4382SOL    HW214046   4.902   2.993   3.169
 4383SOL     OW14047   1.027   2.319   0.042
 4383SOL    HW114048   0.997   2.382   0.113
 4383SOL    HW214049   0.972   2.331   6.975
 4384SOL     OW14050   3.930   6.632   0.762
 4384SOL    HW114051   3.859   6.655   0.828
 4384SOL    HW214052   3.991   6.711   0.748
 4385SOL     OW14053   6.444   2.039   2.387
 4385SOL    HW114054   6.388   1.993   2.457
 4385SOL    HW214055   6.388   2.106   2.338
 4386SOL     OW14056   1.130   3.533   6.725
 4386SOL    HW114057   1.136   3.452   6.667
 4386SOL    HW214058   1.106   3.612   6.669
 4387SOL     OW14059   6.500   2.720   1.753
 4387SOL    HW114060   6.408   2.757   1.770
 4387SOL    HW214061   6.522   2.652   1.823
 4388SOL     OW14062   2.988   1.574   5.612
 4388SOL    HW114063   2.943   1.624   5.538
 4388SOL    HW214064   3.086   1.567   5.593
 4389SOL     OW14065   6.225   2.173   2.294
 4389SOL    HW114066   6.146   2.159   2.234
 4389SOL    HW214067   6.197   2.222   2.376
 4390SOL     OW14068   4.358   2.441   1.900
 4390SOL    HW114069   4.396   2.514   1.958
 4390SOL    HW214070   4.332   2.480   1.812
 4391SOL     OW14071   0.536   6.340   0.801
 4391SOL    HW114072   0.564   6.267   0.738
 4391SOL    HW214073   0.532   6.304   0.894
 4392SOL     OW14074   5.560   3.640   4.622
 4392SOL    HW114075   5.465   3.611   4.613
 4392SOL    HW214076   5.567   3.709   4.694
 4393SOL     OW14077   5.390   5.899   3.839
 4393SOL    HW114078   5.341   5.819   3.874
 4393SOL    HW214079   5.406   5.963   3.914
 4394SOL     OW14080   4.393   0.551   2.561
 4394SOL    HW114081   4.429   0.491   2.489
 4394SOL    HW214082   4.346   0.495   2.629
 4395SOL     OW14083   4.890   2.132   1.643
 4395SOL    HW114084   4.977   2.163   1.683
 4395SOL    HW214085   4.815   2.186   1.680
 4396SOL     OW14086   1.740   0.845   3.985
 4396SOL    HW114087   1.659   0.905   3.981
 4396SOL    HW214088   1.722   0.768   4.046
 4397SOL     OW14089   5.879   0.401   6.417
 4397SOL    HW114090   5.839   0.453   6.342
 4397SOL    HW214091   5.840   0.433   6.504
 4398SOL     OW14092   6.838   5.344   3.705
 4398SOL    HW114093   6.821   5.379   3.612
 4398SOL    HW214094   6.779   5.264   3.721
 4399SOL     OW14095   2.648   1.445   1.827
 4399SOL    HW114096   2.551   1.457   1.807
 4399SOL    HW214097   2.677   1.512   1.896
 4400SOL     OW14098   3.475   5.665   3.511
 4400SOL    HW114099   3.493   5.760   3.483
 4400SOL    HW214100   3.387   5.660   3.557
 4401SOL     OW14101   6.160   6.445   4.755
 4401SOL    HW114102   6.182   6.542   4.747
 4401SOL    HW214103   6.074   6.435   4.804
 4402SOL     OW14104   6.319   0.402   3.385
 4402SOL    HW114105   6.238   0.430   3.334
 4402SOL    HW214106   6.320   0.302   3.393
 4403SOL     OW14107   0.548   0.180   3.203
 4403SOL    HW114108   0.610   0.185   3.125
 4403SOL    HW214109   0.561   0.260   3.261
 4404SOL     OW14110   1.701   4.443   3.327
 4404SOL    HW114111   1.739   4.448   3.419
 4404SOL    HW214112   1.629   4.511   3.317
 4405SOL     OW14113   3.187   3.989   6.285
 4405SOL    HW114114   3.243   3.940   6.352
 4405SOL    HW214115   3.216   4.085   6.281
 4406SOL     OW14116   5.488   3.552   2.137
 4406SOL    HW114117   5.534   3.553   2.226
 4406SOL    HW214118   5.550   3.588   2.068
 4407SOL     OW14119   6.995   0.162   0.220
 4407SOL    HW114120   0.035   0.102   0.161
 4407SOL    HW214121   0.010   0.257   0.208
 4408SOL     OW14122   4.378   6.154   0.311
 4408SOL    HW114123   4.460   6.146   0.367
 4408SOL    HW214124   4.328   6.237   0.337
 4409SOL     OW14125   1.749   1.333   2.912
 4409SOL    HW114126   1.718   1.420   2.876
 4409SOL    HW214127   1.763   1.269   2.836
 4410SOL     OW14128   2.202   5.876   1.478
 4410SOL    HW114129   2.296   5.880   1.510
 4410SOL    HW214130   2.171   5.781   1.477
 4411SOL     OW14131   3.533   3.132   2.978
 4411SOL    HW114132   3.608   3.146   2.914
 4411SOL    HW214133   3.541   3.041   3.019
 4412SOL     OW14134   3.573   1.754   5.955
 4412SOL    HW114135   3.552   1.669   6.003
 4412SOL    HW214136   3.502   1.774   5.888
 4413SOL     OW14137   4.523   5.348   4.287
 4413SOL    HW114138   4.535   5.377   4.192
 4413SOL    HW214139   4.519   5.248   4.291
 4414SOL     OW14140   3.377   5.346   1.507
 4414SOL    HW114141   3.412   5.256   1.529
 4414SOL    HW214142   3.381   5.361   1.408
 4415SOL     OW14143   4.291   1.582   0.851
 4415SOL    HW114144   4.237   1.589   0.935
 4415SOL    HW214145   4.382   1.620   0.867
 4416SOL     OW14146   3.018   1.856   4.196
 4416SOL    HW114147   3.036   1.946   4.236
 4416SOL    HW214148   3.081   1.789   4.237
 4417SOL     OW14149   6.770   0.661   0.489
 4417SOL    HW114150   6.728   0.592   0.430
 4417SOL    HW214151   6.867   0.670   0.466
 4418SOL     OW14152   5.044   0.851   3.917
 4418SOL    HW114153   4.997   0.830   4.003
 4418SOL    HW214154   5.110   0.924   3.932
 4419SOL     OW14155   6.549   5.698   0.438
 4419SOL    HW114156   6.539   5.797   0.442
 4419SOL    HW214157   6.459   5.655   0.441
 4420SOL     OW14158   4.457   0.888   6.904
 4420SOL    HW114159   4.482   0.882   6.808
 4420SOL    HW214160   4.522   0.835   6.959
 4421SOL     OW14161   1.572   1.633   3.555
 4421SOL    HW114162   1.553   1.632   3.653
 4421SOL    HW214163   1.663   1.670   3.539
 4422SOL     OW14164   1.990   4.093   5.556
 4422SOL    HW114165   2.067   4.157   5.556
 4422SOL    HW214166   1.915   4.131   5.610
 4423SOL     OW14167   6.600   1.656   6.350
 4423SOL    HW114168   6.679   1.707   6.317
 4423SOL    HW214169   6.624   1.606   6.433
 4424SOL     OW14170   0.414   6.554   4.067
 4424SOL    HW114171   0.397   6.464   4.108
 4424SOL    HW214172   0.373   6.558   3.976
 4425SOL     OW14173   5.016   4.249   0.150
 4425SOL    HW114174   5.095   4.189   0.138
 4425SOL    HW214175   4.933   4.198   0.129
 4426SOL     OW14176   0.743   0.176   5.545
 4426SOL    HW114177   0.832   0.131   5.536
 4426SOL    HW214178   0.740   0.226   5.631
 4427SOL     OW14179   0.862   6.281   3.712
 4427SOL    HW114180   0.886   6.333   3.630
 4427SOL    HW214181   0.928   6.300   3.784
 4428SOL     OW14182   2.131   6.577   3.027
 4428SOL    HW114183   2.186   6.552   2.948
 4428SOL    HW214184   2.191   6.588   3.107
 4429SOL     OW14185   3.573   0.488   3.171
 4429SOL    HW114186   3.624   0.410   3.207
 4429SOL    HW214187   3.476   0.466   3.167
 4430SOL     OW14188   1.230   0.489   1.542
 4430SOL    HW114189   1.249   0.544   1.461
 4430SOL    HW214190   1.315   0.468   1.589
 4431SOL     OW14191   1.824   1.757   3.522
 4431SOL    HW114192   1.884   1.692   3.570
 4431SOL    HW214193   1.788   1.824   3.587
 4432SOL     OW14194   2.903   3.338   3.598
 4432SOL    HW114195   2.840   3.270   3.635
 4432SOL    HW214196   2.986   3.341   3.654
 4433SOL     OW14197   6.561   0.503   3.264
 4433SOL    HW114198   6.473   0.484   3.309
 4433SOL    HW214199   6.604   0.581   3.309
 4434SOL     OW14200   4.824   2.301   4.599
 4434SOL    HW114201   4.858   2.229   4.660
 4434SOL    HW214202   4.724   2.301   4.600
 4435SOL     OW14203   4.029   3.323   2.394
 4435SOL    HW114204   4.010   3.324   2.492
 4435SOL    HW214205   4.103   3.258   2.375
 4436SOL     OW14206   5.101   0.357   0.971
 4436SOL    HW114207   5.096   0.336   1.069
 4436SOL    HW214208   5.195   0.380   0.946
 4437SOL     OW14209   3.681   0.215   4.846
 4437SOL    HW114210   3.662   0.187   4.751
 4437SOL    HW214211   3.757   0.160   4.881
 4438SOL     OW14212   3.861   3.981   6.712
 4438SOL    HW114213   3.895   4.059   6.764
 4438SOL    HW214214   3.791   3.933   6.765
 4439SOL     OW14215   2.245   5.075   2.052
 4439SOL    HW114216   2.215   5.065   2.147
 4439SOL    HW214217   2.165   5.075   1.992
 4440SOL     OW14218   6.713   0.752   6.887
 4440SOL    HW114219   6.701   0.728   6.983
 4440SOL    HW214220   6.660   0.689   6.830
 4441SOL     OW14221   5.952   2.042   3.513
 4441SOL    HW114222   5.931   2.070   3.419
 4441SOL    HW214223   5.998   1.953   3.511
 4442SOL     OW14224   2.068   6.671   2.128
 4442SOL    HW114225   2.116   6.700   2.045
 4442SOL    HW214226   2.091   6.733   2.203
 4443SOL     OW14227   2.829   1.390   5.796
 4443SOL    HW114228   2.744   1.439   5.817
 4443SOL    HW214229   2.863   1.419   5.706
 4444SOL     OW14230   5.274   0.487   2.800
 4444SOL    HW114231   5.270   0.553   2.724
 4444SOL    HW214232   5.185   0.482   2.845
 4445SOL     OW14233   1.170   1.183   6.420
 4445SOL    HW114234   1.240   1.169   6.490
 4445SOL    HW214235   1.213   1.185   6.330
 4446SOL     OW14236   5.561   5.170   3.790
 4446SOL    HW114237   5.503   5.213   3.859
 4446SOL    HW214238   5.631   5.234   3.760
 4447SOL     OW14239   4.929   3.292   4.709
 4447SOL    HW114240   4.831   3.295   4.731
 4447SOL    HW214241   4.981   3.339   4.780
 4448SOL     OW14242   1.962   2.766   6.516
 4448SOL    HW114243   2.035   2.818   6.472
 4448SOL    HW214244   1.999   2.721   6.598
 4449SOL     OW14245   0.719   1.439   5.490
 4449SOL    HW114246   0.705   1.460   5.394
 4449SOL    HW214247   0.631   1.437   5.537
 4450SOL     OW14248   3.852   3.913   3.276
 4450SOL    HW114249   3.813   3.964   3.199
 4450SOL    HW214250   3.838   3.965   3.361
 4451SOL     OW14251   0.103   4.514   1.583
 4451SOL    HW114252   0.165   4.445   1.548
 4451SOL    HW214253   0.086   4.497   1.681
 4452SOL     OW14254   6.425   3.942   6.316
 4452SOL    HW114255   6.474   3.994   6.246
 4452SOL    HW214256   6.359   4.001   6.362
 4453SOL     OW14257   5.202   1.884   1.677
 4453SOL    HW114258   5.257   1.841   1.749
 4453SOL    HW214259   5.148   1.814   1.630
 4454SOL     OW14260   5.266   2.886   1.467
 4454SOL    HW114261   5.313   2.957   1.519
 4454SOL    HW214262   5.327   2.808   1.454
 4455SOL     OW14263   4.653   1.852   1.921
 4455SOL    HW114264   4.648   1.857   1.821
 4455SOL    HW214265   4.626   1.940   1.960
 4456SOL     OW14266   0.990   5.833   2.869
 4456SOL    HW114267   1.007   5.918   2.819
 4456SOL    HW214268   1.074   5.779   2.873
 4457SOL     OW14269   5.120   1.859   6.224
 4457SOL    HW114270   5.168   1.790   6.278
 4457SOL    HW214271   5.162   1.865   6.133
 4458SOL     OW14272   3.788   1.971   0.301
 4458SOL    HW114273   3.765   1.888   0.250
 4458SOL    HW214274   3.704   2.014   0.334
 4459SOL     OW14275   4.952   6.137   5.509
 4459SOL    HW114276   4.968   6.231   5.540
 4459SOL    HW214277   5.028   6.078   5.540
 4460SOL     OW14278   1.055   1.640   6.313
 4460SOL    HW114279   1.063   1.577   6.236
 4460SOL    HW214280   1.146   1.669   6.343
 4461SOL     OW14281   1.759   6.977   2.257
 4461SOL    HW114282   1.666   6.971   2.291
 4461SOL    HW214283   1.759   6.979   2.157
 4462SOL     OW14284   6.788   5.592   0.976
 4462SOL    HW114285   6.697   5.632   0.990
 4462SOL    HW214286   6.856   5.665   0.970
 4463SOL     OW14287   1.631   3.534   5.462
 4463SOL    HW114288   1.607   3.447   5.420
 4463SOL    HW214289   1.720   3.564   5.428
 4464SOL     OW14290   5.942   3.274   6.736
 4464SOL    HW114291   5.877   3.338   6.777
 4464SOL    HW214292   5.900   3.184   6.728
 4465SOL     OW14293   0.783   6.140   2.033
 4465SOL    HW114294   0.691   6.145   2.072
 4465SOL    HW214295   0.788   6.063   1.969
 4466SOL     OW14296   0.774   2.779   3.437
 4466SOL    HW114297   0.675   2.786   3.430
 4466SOL    HW214298   0.804   2.820   3.523
 4467SOL     OW14299   1.761   7.009   3.355
 4467SOL    HW114300   1.680   0.028   3.308
 4467SOL    HW214301   1.776   0.047   3.438
 4468SOL     OW14302   1.663   2.324   0.652
 4468SOL    HW114303   1.694   2.309   0.746
 4468SOL    HW214304   1.563   2.319   0.649
 4469SOL     OW14305   4.728   6.984   0.573
 4469SOL    HW114306   4.661   0.029   0.615
 4469SOL    HW214307   4.819   7.003   0.611
 4470SOL     OW14308   4.751   5.534   1.282
 4470SOL    HW114309   4.758   5.583   1.369
 4470SOL    HW214310   4.686   5.459   1.291
 4471SOL     OW14311   6.490   2.992   0.717
 4471SOL    HW114312   6.505   2.952   0.807
 4471SOL    HW214313   6.530   3.083   0.714
 4472SOL     OW14314   2.008   4.677   1.520
 4472SOL    HW114315   2.030   4.681   1.422
 4472SOL    HW214316   2.093   4.669   1.572
 4473SOL     OW14317   0.998   0.446   6.173
 4473SOL    HW114318   0.968   0.395   6.253
 4473SOL    HW214319   0.982   0.544   6.187
 4474SOL     OW14320   6.290   0.288   4.249
 4474SOL    HW114321   6.250   0.327   4.331
 4474SOL    HW214322   6.281   0.353   4.173
 4475SOL     OW14323   1.577   3.359   0.336
 4475SOL    HW114324   1.647   3.395   0.398
 4475SOL    HW214325   1.621   3.322   0.254
 4476SOL     OW14326   5.110   6.528   1.945
 4476SOL    HW114327   5.134   6.469   1.868
 4476SOL    HW214328   5.192   6.574   1.979
 4477SOL     OW14329   1.365   1.087   0.225
 4477SOL    HW114330   1.449   1.075   0.172
 4477SOL    HW214331   1.356   1.183   0.253
 4478SOL     OW14332   1.700   5.325   2.009
 4478SOL    HW114333   1.662   5.253   2.068
 4478SOL    HW214334   1.628   5.388   1.982
 4479SOL     OW14335   0.647   0.339   5.732
 4479SOL    HW114336   0.652   0.430   5.692
 4479SOL    HW214337   0.710   0.333   5.809
 4480SOL     OW14338   0.587   4.719   3.737
 4480SOL    HW114339   0.619   4.721   3.831
 4480SOL    HW214340   0.631   4.791   3.685
 4481SOL     OW14341   1.123   0.149   3.815
 4481SOL    HW114342   1.069   0.224   3.775
 4481SOL    HW214343   1.067   0.097   3.879
 4482SOL     OW14344   0.581   4.514   3.560
 4482SOL    HW114345   0.675   4.490   3.534
 4482SOL    HW214346   0.582   4.598   3.615
 4483SOL     OW14347   4.932   3.071   1.595
 4483SOL    HW114348   4.931   3.020   1.682
 4483SOL    HW214349   4.970   3.014   1.523
 4484SOL     OW14350   4.132   3.497   6.228
 4484SOL    HW114351   4.111   3.410   6.182
 4484SOL    HW214352   4.051   3.528   6.278
 4485SOL     OW14353   4.636   0.692   0.014
 4485SOL    HW114354   4.692   0.636   6.968
 4485SOL    HW214355   4.640   0.654   0.106
 4486SOL     OW14356   6.329   2.519   3.830
 4486SOL    HW114357   6.399   2.475   3.886
 4486SOL    HW214358   6.361   2.610   3.802
 4487SOL     OW14359   2.707   3.390   5.803
 4487SOL    HW114360   2.750   3.467   5.756
 4487SOL    HW214361   2.672   3.421   5.892
 4488SOL     OW14362   0.081   1.568   6.204
 4488SOL    HW114363   0.118   1.475   6.203
 4488SOL    HW214364   0.143   1.628   6.255
 4489SOL     OW14365   6.573   0.639   2.991
 4489SOL    HW114366   6.652   0.684   3.033
 4489SOL    HW214367   6.531   0.576   3.056
 4490SOL     OW14368   6.805   2.502   3.358
 4490SOL    HW114369   6.846   2.495   3.449
 4490SOL    HW214370   6.723   2.560   3.362
 4491SOL     OW14371   1.737   3.379   3.085
 4491SOL    HW114372   1.780   3.468   3.073
 4491SOL    HW214373   1.782   3.329   3.158
 4492SOL     OW14374   4.490   4.053   6.443
 4492SOL    HW114375   4.459   4.017   6.355
 4492SOL    HW214376   4.584   4.021   6.460
 4493SOL     OW14377   5.730   5.068   3.356
 4493SOL    HW114378   5.744   5.130   3.279
 4493SOL    HW214379   5.634   5.071   3.384
 4494SOL     OW14380   6.262   2.876   3.566
 4494SOL    HW114381   6.297   2.961   3.527
 4494SOL    HW214382   6.283   2.800   3.505
 4495SOL     OW14383   4.004   6.743   2.232
 4495SOL    HW114384   3.956   6.657   2.250
 4495SOL    HW214385   3.965   6.787   2.151
 4496SOL     OW14386   5.254   4.224   5.924
 4496SOL    HW114387   5.276   4.220   5.827
 4496SOL    HW214388   5.227   4.317   5.948
 4497SOL     OW14389   5.905   5.799   1.229
 4497SOL    HW114390   5.940   5.710   1.258
 4497SOL    HW214391   5.805   5.799   1.234
 4498SOL     OW14392   0.662   3.723   6.824
 4498SOL    HW114393   0.736   3.789   6.833
 4498SOL    HW214394   0.586   3.750   6.885
 4499SOL     OW14395   5.669   3.082   6.811
 4499SOL    HW114396   5.674   3.090   6.712
 4499SOL    HW214397   5.652   3.172   6.851
 4500SOL     OW14398   3.215   3.887   4.215
 4500SOL    HW114399   3.206   3.801   4.265
 4500SOL    HW214400   3.208   3.964   4.280
 4501SOL     OW14401   1.597   4.673   4.501
 4501SOL    HW114402   1.544   4.694   4.419
 4501SOL    HW214403   1.695   4.679   4.480
 4502SOL     OW14404   6.262   3.142   0.111
 4502SOL    HW114405   6.263   3.090   0.026
 4502SOL    HW214406   6.188   3.208   0.109
 4503SOL     OW14407   1.785   2.294   3.058
 4503SOL    HW114408   1.728   2.316   2.978
 4503SOL    HW214409   1.880   2.285   3.030
 4504SOL     OW14410   4.302   2.389   4.549
 4504SOL    HW114411   4.267   2.334   4.625
 4504SOL    HW214412   4.290   2.486   4.570
 4505SOL     OW14413   1.294   5.140   6.175
 4505SOL    HW114414   1.235   5.148   6.255
 4505SOL    HW214415   1.342   5.227   6.159
 4506SOL     OW14416   4.447   0.169   4.743
 4506SOL    HW114417   4.439   0.069   4.735
 4506SOL    HW214418   4.492   0.205   4.661
 4507SOL     OW14419   6.568   4.217   1.647
 4507SOL    HW114420   6.626   4.242   1.570
 4507SOL    HW214421   6.624   4.176   1.719
 4508SOL     OW14422   1.350   4.064   0.325
 4508SOL    HW114423   1.373   4.025   0.414
 4508SOL    HW214424   1.368   3.997   0.253
 4509SOL     OW14425   1.071   1.878   3.922
 4509SOL    HW114426   1.151   1.934   3.902
 4509SOL    HW214427   0.988   1.932   3.910
 4510SOL     OW14428   3.435   6.463   5.153
 4510SOL    HW114429   3.360   6.485   5.214
 4510SOL    HW214430   3.488   6.545   5.133
 4511SOL     OW14431   6.384   3.085   6.118
 4511SOL    HW114432   6.473   3.071   6.161
 4511SOL    HW214433   6.381   3.175   6.075
 4512SOL     OW14434   2.786   4.961   0.584
 4512SOL    HW114435   2.781   4.998   0.677
 4512SOL    HW214436   2.733   5.019   0.522
 4513SOL     OW14437   5.622   1.108   2.161
 4513SOL    HW114438   5.643   1.204   2.142
 4513SOL    HW214439   5.693   1.050   2.121
 4514SOL     OW14440   3.396   1.067   5.127
 4514SOL    HW114441   3.352   1.123   5.197
 4514SOL    HW214442   3.479   1.026   5.164
 4515SOL     OW14443   6.472   5.467   1.222
 4515SOL    HW114444   6.441   5.382   1.178
 4515SOL    HW214445   6.533   5.445   1.298
 4516SOL     OW14446   1.276   0.007   4.713
 4516SOL    HW114447   1.193   0.035   4.665
 4516SOL    HW214448   1.259   6.938   4.765
 4517SOL     OW14449   3.759   6.748   6.202
 4517SOL    HW114450   3.798   6.782   6.287
 4517SOL    HW214451   3.680   6.803   6.177
 4518SOL     OW14452   1.416   1.257   4.128
 4518SOL    HW114453   1.374   1.188   4.187
 4518SOL    HW214454   1.354   1.335   4.119
 4519SOL     OW14455   6.110   2.464   4.576
 4519SOL    HW114456   6.150   2.395   4.637
 4519SOL    HW214457   6.016   2.483   4.604
 4520SOL     OW14458   0.430   4.184   3.040
 4520SOL    HW114459   0.354   4.144   2.989
 4520SOL    HW214460   0.516   4.143   3.010
 4521SOL     OW14461   5.276   1.905   5.978
 4521SOL    HW114462   5.193   1.918   5.924
 4521SOL    HW214463   5.347   1.967   5.943
 4522SOL     OW14464   5.805   0.534   3.048
 4522SOL    HW114465   5.810   0.496   3.140
 4522SOL    HW214466   5.741   0.610   3.047
 4523SOL     OW14467   4.303   3.116   6.786
 4523SOL    HW114468   4.279   3.180   6.713
 4523SOL    HW214469   4.394   3.138   6.821
 4524SOL     OW14470   6.375   0.412   5.002
 4524SOL    HW114471   6.435   0.382   4.927
 4524SOL    HW214472   6.298   0.350   5.011
 4525SOL     OW14473   6.680   1.735   5.667
 4525SOL    HW114474   6.779   1.746   5.678
 4525SOL    HW214475   6.633   1.804   5.721
 4526SOL     OW14476   3.789   1.338   0.479
 4526SOL    HW114477   3.836   1.317   0.565
 4526SOL    HW214478   3.849   1.394   0.422
 4527SOL     OW14479   3.858   0.903   4.163
 4527SOL    HW114480   3.809   0.975   4.114
 4527SOL    HW214481   3.852   0.818   4.111
 4528SOL     OW14482   5.595   7.008   6.411
 4528SOL    HW114483   5.606   0.084   6.451
 4528SOL    HW214484   5.498   6.988   6.399
 4529SOL     OW14485   4.054   0.173   3.509
 4529SOL    HW114486   4.111   0.114   3.451
 4529SOL    HW214487   4.110   0.215   3.579
 4530SOL     OW14488   0.780   2.646   4.743
 4530SOL    HW114489   0.805   2.611   4.653
 4530SOL    HW214490   0.681   2.657   4.748
 4531SOL     OW14491   0.333   3.653   3.591
 4531SOL    HW114492   0.279   3.569   3.589
 4531SOL    HW214493   0.414   3.641   3.534
 4532SOL     OW14494   6.597   1.747   0.588
 4532SOL    HW114495   6.542   1.669   0.560
 4532SOL    HW214496   6.625   1.735   0.684
 4533SOL     OW14497   3.268   5.613   2.434
 4533SOL    HW114498   3.329   5.596   2.356
 4533SOL    HW214499   3.279   5.707   2.465
 4534SOL     OW14500   0.120   4.207   5.596
 4534SOL    HW114501   0.187   4.218   5.522
 4534SOL    HW214502   0.030   4.190   5.557
 4535SOL     OW14503   4.906   2.044   2.795
 4535SOL    HW114504   4.908   2.090   2.706
 4535SOL    HW214505   4.872   1.951   2.784
 4536SOL     OW14506   6.694   0.740   3.953
 4536SOL    HW114507   6.767   0.772   4.013
 4536SOL    HW214508   6.720   0.653   3.912
 4537SOL     OW14509   3.844   2.898   6.201
 4537SOL    HW114510   3.919   2.907   6.266
 4537SOL    HW214511   3.797   2.811   6.217
 4538SOL     OW14512   3.557   1.313   1.991
 4538SOL    HW114513   3.609   1.253   1.931
 4538SOL    HW214514   3.460   1.309   1.967
 4539SOL     OW14515   1.571   1.651   2.310
 4539SOL    HW114516   1.631   1.725   2.342
 4539SOL    HW214517   1.571   1.650   2.210
 4540SOL     OW14518   3.215   3.010   4.635
 4540SOL    HW114519   3.265   2.993   4.550
 4540SOL    HW214520   3.274   2.993   4.714
 4541SOL     OW14521   6.306   1.209   1.048
 4541SOL    HW114522   6.255   1.290   1.020
 4541SOL    HW214523   6.241   1.137   1.075
 4542SOL     OW14524   4.745   0.123   3.465
 4542SOL    HW114525   4.733   0.030   3.501
 4542SOL    HW214526   4.841   0.149   3.473
 4543SOL     OW14527   5.493   2.100   1.989
 4543SOL    HW114528   5.405   2.052   1.990
 4543SOL    HW214529   5.485   2.183   2.044
 4544SOL     OW14530   3.918   4.929   6.284
 4544SOL    HW114531   3.851   4.855   6.284
 4544SOL    HW214532   3.969   4.927   6.198
 4545SOL     OW14533   4.257   3.112   6.110
 4545SOL    HW114534   4.294   3.046   6.176
 4545SOL    HW214535   4.313   3.112   6.027
 4546SOL     OW14536   0.286   6.910   6.856
 4546SOL    HW114537   0.366   6.969   6.841
 4546SOL    HW214538   0.231   6.947   6.930
 4547SOL     OW14539   4.071   1.621   1.341
 4547SOL    HW114540   4.016   1.703   1.352
 4547SOL    HW214541   4.091   1.581   1.431
 4548SOL     OW14542   1.555   3.484   3.634
 4548SOL    HW114543   1.518   3.496   3.542
 4548SOL    HW214544   1.571   3.387   3.651
 4549SOL     OW14545   4.943   1.534   3.109
 4549SOL    HW114546   4.857   1.508   3.154
 4549SOL    HW214547   4.924   1.559   3.014
 4550SOL     OW14548   1.653   6.295   4.899
 4550SOL    HW114549   1.680   6.377   4.950
 4550SOL    HW214550   1.561   6.268   4.926
 4551SOL     OW14551   0.343   2.530   5.901
 4551SOL    HW114552   0.373   2.543   5.996
 4551SOL    HW214553   0.417   2.488   5.849
 4552SOL     OW14554   6.962   2.763   3.707
 4552SOL    HW114555   7.011   2.719   3.781
 4552SOL    HW214556   6.883   2.813   3.743
 4553SOL     OW14557   4.931   4.605   0.629
 4553SOL    HW114558   4.931   4.660   0.546
 4553SOL    HW214559   4.865   4.643   0.694
 4554SOL     OW14560   5.568   0.032   3.356
 4554SOL    HW114561   5.549   6.983   3.430
 4554SOL    HW214562   5.489   0.092   3.342
 4555SOL     OW14563   5.166   1.890   0.014
 4555SOL    HW114564   5.071   1.860   0.022
 4555SOL    HW214565   5.209   1.888   0.104
 4556SOL     OW14566   5.227   1.210   4.888
 4556SOL    HW114567   5.324   1.233   4.878
 4556SOL    HW214568   5.204   1.132   4.830
 4557SOL     OW14569   5.078   0.129   5.506
 4557SOL    HW114570   5.086   0.210   5.448
 4557SOL    HW214571   5.011   0.147   5.579
 4558SOL     OW14572   6.380   3.721   5.634
 4558SOL    HW114573   6.299   3.703   5.690
 4558SOL    HW214574   6.454   3.661   5.661
 4559SOL     OW14575   0.475   6.191   1.890
 4559SOL    HW114576   0.497   6.191   1.988
 4559SOL    HW214577   0.380   6.221   1.877
 4560SOL     OW14578   5.134   2.964   3.477
 4560SOL    HW114579   5.037   2.981   3.498
 4560SOL    HW214580   5.148   2.867   3.461
 4561SOL     OW14581   3.292   0.722   6.747
 4561SOL    HW114582   3.197   0.711   6.716
 4561SOL    HW214583   3.323   0.637   6.790
 4562SOL     OW14584   3.224   5.255   5.493
 4562SOL    HW114585   3.208   5.299   5.404
 4562SOL    HW214586   3.216   5.156   5.482
 4563SOL     OW14587   5.318   2.733   6.210
 4563SOL    HW114588   5.393   2.687   6.165
 4563SOL    HW214589   5.234   2.721   6.157
 4564SOL     OW14590   1.583   5.664   6.727
 4564SOL    HW114591   1.596   5.720   6.808
 4564SOL    HW214592   1.501   5.695   6.678
 4565SOL     OW14593   3.317   0.728   4.033
 4565SOL    HW114594   3.263   0.809   4.056
 4565SOL    HW214595   3.313   0.663   4.109
 4566SOL     OW14596   0.663   2.042   0.597
 4566SOL    HW114597   0.589   2.033   0.530
 4566SOL    HW214598   0.624   2.043   0.689
 4567SOL     OW14599   6.770   0.893   0.636
 4567SOL    HW114600   6.698   0.938   0.688
 4567SOL    HW214601   6.746   0.796   0.623
 4568SOL     OW14602   3.117   4.944   4.593
 4568SOL    HW114603   3.042   4.891   4.554
 4568SOL    HW214604   3.113   4.939   4.692
 4569SOL     OW14605   0.194   2.337   3.190
 4569SOL    HW114606   0.152   2.397   3.258
 4569SOL    HW214607   0.233   2.257   3.236
 4570SOL     OW14608   6.688   5.025   4.231
 4570SOL    HW114609   6.609   4.984   4.186
 4570SOL    HW214610   6.694   5.122   4.207
 4571SOL     OW14611   3.714   3.289   3.866
 4571SOL    HW114612   3.728   3.243   3.778
 4571SOL    HW214613   3.646   3.361   3.857
 4572SOL     OW14614   2.337   5.970   2.199
 4572SOL    HW114615   2.428   5.928   2.191
 4572SOL    HW214616   2.328   6.011   2.290
 4573SOL     OW14617   5.669   6.554   0.545
 4573SOL    HW114618   5.721   6.592   0.468
 4573SOL    HW214619   5.649   6.458   0.527
 4574SOL     OW14620   0.435   4.853   1.384
 4574SOL    HW114621   0.500   4.885   1.453
 4574SOL    HW214622   0.354   4.817   1.430
 4575SOL     OW14623   6.366   6.467   2.281
 4575SOL    HW114624   6.428   6.545   2.286
 4575SOL    HW214625   6.318   6.468   2.194
 4576SOL     OW14626   3.149   5.720   4.317
 4576SOL    HW114627   3.136   5.624   4.293
 4576SOL    HW214628   3.100   5.778   4.252
 4577SOL     OW14629   0.961   2.024   4.219
 4577SOL    HW114630   1.000   2.105   4.263
 4577SOL    HW214631   1.033   1.976   4.169
 4578SOL     OW14632   0.150   4.335   4.172
 4578SOL    HW114633   0.239   4.294   4.193
 4578SOL    HW214634   0.160   4.396   4.093
 4579SOL     OW14635   5.206   2.367   4.370
 4579SOL    HW114636   5.266   2.322   4.437
 4579SOL    HW214637   5.115   2.377   4.409
 4580SOL     OW14638   6.697   5.574   0.216
 4580SOL    HW114639   6.646   5.587   0.300
 4580SOL    HW214640   6.717   5.663   0.174
 4581SOL     OW14641   3.305   5.993   3.495
 4581SOL    HW114642   3.391   6.034   3.466
 4581SOL    HW214643   3.256   5.958   3.414
 4582SOL     OW14644   4.675   6.871   3.481
 4582SOL    HW114645   4.579   6.892   3.465
 4582SOL    HW214646   4.725   6.873   3.394
 4583SOL     OW14647   4.503   1.487   5.603
 4583SOL    HW114648   4.489   1.529   5.692
 4583SOL    HW214649   4.462   1.396   5.602
 4584SOL     OW14650   0.703   4.772   5.406
 4584SOL    HW114651   0.643   4.741   5.332
 4584SOL    HW214652   0.666   4.856   5.446
 4585SOL     OW14653   3.639   6.803   2.827
 4585SOL    HW114654   3.559   6.744   2.830
 4585SOL    HW214655   3.629   6.870   2.753
 4586SOL     OW14656   3.072   6.309   2.054
 4586SOL    HW114657   3.128   6.245   2.001
 4586SOL    HW214658   3.042   6.383   1.995
 4587SOL     OW14659   2.124   4.547   1.041
 4587SOL    HW114660   2.058   4.538   0.967
 4587SOL    HW214661   2.083   4.513   1.126
 4588SOL     OW14662   4.015   3.764   5.371
 4588SOL    HW114663   4.068   3.751   5.455
 4588SOL    HW214664   4.068   3.819   5.306
 4589SOL     OW14665   1.201   1.690   3.778
 4589SOL    HW114666   1.278   1.743   3.743
 4589SOL    HW214667   1.139   1.750   3.829
 4590SOL     OW14668   4.490   5.665   2.603
 4590SOL    HW114669   4.426   5.740   2.590
 4590SOL    HW214670   4.583   5.697   2.588
 4591SOL     OW14671   6.393   6.473   5.513
 4591SOL    HW114672   6.342   6.427   5.586
 4591SOL    HW214673   6.442   6.406   5.458
 4592SOL     OW14674   3.023   1.759   5.832
 4592SOL    HW114675   2.975   1.756   5.920
 4592SOL    HW214676   2.981   1.694   5.769
 4593SOL     OW14677   4.101   6.690   1.195
 4593SOL    HW114678   4.060   6.775   1.161
 4593SOL    HW214679   4.035   6.615   1.185
 4594SOL     OW14680   3.088   1.534   2.963
 4594SOL    HW114681   3.063   1.498   2.873
 4594SOL    HW214682   3.044   1.623   2.977
 4595SOL     OW14683   4.139   2.753   5.859
 4595SOL    HW114684   4.069   2.822   5.839
 4595SOL    HW214685   4.095   2.666   5.881
 4596SOL     OW14686   6.383   0.044   2.443
 4596SOL    HW114687   6.404   6.965   2.469
 4596SOL    HW214688   6.299   0.073   2.489
 4597SOL     OW14689   0.105   4.906   6.693
 4597SOL    HW114690   0.097   4.834   6.624
 4597SOL    HW214691   0.197   4.945   6.691
 4598SOL     OW14692   3.178   4.520   0.240
 4598SOL    HW114693   3.127   4.473   0.313
 4598SOL    HW214694   3.239   4.587   0.281
 4599SOL     OW14695   1.880   5.221   0.292
 4599SOL    HW114696   1.822   5.259   0.221
 4599SOL    HW214697   1.833   5.226   0.380
 4600SOL     OW14698   3.793   5.285   1.634
 4600SOL    HW114699   3.766   5.251   1.544
 4600SOL    HW214700   3.717   5.337   1.673
 4601SOL     OW14701   1.673   6.041   4.757
 4601SOL    HW114702   1.666   6.109   4.830
 4601SOL    HW214703   1.766   6.040   4.721
 4602SOL     OW14704   1.667   1.285   0.915
 4602SOL    HW114705   1.613   1.205   0.940
 4602SOL    HW214706   1.690   1.281   0.817
 4603SOL     OW14707   3.024   1.142   2.026
 4603SOL    HW114708   2.929   1.144   1.995
 4603SOL    HW214709   3.037   1.066   2.089
 4604SOL     OW14710   2.405   0.832   2.669
 4604SOL    HW114711   2.367   0.869   2.584
 4604SOL    HW214712   2.446   0.743   2.650
 4605SOL     OW14713   5.046   6.857   5.660
 4605SOL    HW114714   5.067   6.923   5.732
 4605SOL    HW214715   4.971   6.798   5.689
 4606SOL     OW14716   6.838   6.473   5.837
 4606SOL    HW114717   6.739   6.487   5.836
 4606SOL    HW214718   6.859   6.378   5.814
 4607SOL     OW14719   2.531   2.013   1.429
 4607SOL    HW114720   2.520   2.112   1.421
 4607SOL    HW214721   2.535   1.974   1.337
 4608SOL     OW14722   1.963   3.349   4.973
 4608SOL    HW114723   2.036   3.293   4.932
 4608SOL    HW214724   1.916   3.296   5.043
 4609SOL     OW14725   3.379   6.507   6.732
 4609SOL    HW114726   3.304   6.490   6.669
 4609SOL    HW214727   3.403   6.604   6.729
 4610SOL     OW14728   0.468   3.412   6.854
 4610SOL    HW114729   0.448   3.504   6.887
 4610SOL    HW214730   0.407   3.347   6.898
 4611SOL     OW14731   0.853   3.337   0.133
 4611SOL    HW114732   0.802   3.295   0.207
 4611SOL    HW214733   0.934   3.282   0.112
 4612SOL     OW14734   2.644   0.774   6.314
 4612SOL    HW114735   2.672   0.685   6.350
 4612SOL    HW214736   2.724   0.821   6.277
 4613SOL     OW14737   2.872   5.498   1.865
 4613SOL    HW114738   2.857   5.402   1.841
 4613SOL    HW214739   2.896   5.505   1.962
 4614SOL     OW14740   2.312   5.158   0.669
 4614SOL    HW114741   2.315   5.227   0.596
 4614SOL    HW214742   2.219   5.123   0.678
 4615SOL     OW14743   6.785   3.085   0.564
 4615SOL    HW114744   6.716   3.041   0.506
 4615SOL    HW214745   6.853   3.130   0.506
 4616SOL     OW14746   6.124   0.568   0.153
 4616SOL    HW114747   6.088   0.661   0.163
 4616SOL    HW214748   6.101   0.533   0.063
 4617SOL     OW14749   0.101   3.417   1.948
 4617SOL    HW114750   0.153   3.474   2.012
 4617SOL    HW214751   0.062   3.339   1.996
 4618SOL     OW14752   1.354   2.108   6.099
 4618SOL    HW114753   1.423   2.173   6.068
 4618SOL    HW214754   1.277   2.157   6.139
 4619SOL     OW14755   3.222   0.263   3.777
 4619SOL    HW114756   3.295   0.239   3.841
 4619SOL    HW214757   3.256   0.256   3.683
 4620SOL     OW14758   2.490   4.625   6.279
 4620SOL    HW114759   2.397   4.632   6.242
 4620SOL    HW214760   2.514   4.528   6.290
 4621SOL     OW14761   0.376   6.648   6.931
 4621SOL    HW114762   0.324   6.731   6.916
 4621SOL    HW214763   0.453   6.644   6.866
 4622SOL     OW14764   2.013   3.244   1.171
 4622SOL    HW114765   2.058   3.329   1.143
 4622SOL    HW214766   2.038   3.170   1.108
 4623SOL     OW14767   6.179   4.576   2.827
 4623SOL    HW114768   6.254   4.590   2.763
 4623SOL    HW214769   6.173   4.654   2.890
 4624SOL     OW14770   4.588   6.544   5.657
 4624SOL    HW114771   4.510   6.604   5.644
 4624SOL    HW214772   4.606   6.494   5.572
 4625SOL     OW14773   1.222   3.345   6.217
 4625SOL    HW114774   1.141   3.401   6.232
 4625SOL    HW214775   1.277   3.385   6.142
 4626SOL     OW14776   5.520   5.790   2.115
 4626SOL    HW114777   5.533   5.799   2.017
 4626SOL    HW214778   5.423   5.796   2.137
 4627SOL     OW14779   2.266   0.500   5.890
 4627SOL    HW114780   2.209   0.568   5.845
 4627SOL    HW214781   2.362   0.524   5.877
 4628SOL     OW14782   0.124   3.782   1.348
 4628SOL    HW114783   0.140   3.767   1.445
 4628SOL    HW214784   0.212   3.793   1.301
 4629SOL     OW14785   3.808   5.001   4.974
 4629SOL    HW114786   3.818   5.100   4.983
 4629SOL    HW214787   3.712   4.976   4.978
 4630SOL     OW14788   2.367   0.293   2.494
 4630SOL    HW114789   2.338   0.213   2.548
 4630SOL    HW214790   2.297   0.315   2.427
 4631SOL     OW14791   2.435   1.109   2.682
 4631SOL    HW114792   2.464   1.134   2.590
 4631SOL    HW214793   2.442   1.009   2.693
 4632SOL     OW14794   5.685   5.373   4.070
 4632SOL    HW114795   5.767   5.427   4.087
 4632SOL    HW214796   5.705   5.276   4.082
 4633SOL     OW14797   5.607   2.557   5.717
 4633SOL    HW114798   5.673   2.630   5.699
 4633SOL    HW214799   5.566   2.528   5.631
 4634SOL     OW14800   3.680   4.730   1.025
 4634SOL    HW114801   3.706   4.652   0.969
 4634SOL    HW214802   3.585   4.718   1.057
 4635SOL     OW14803   5.065   4.231   1.130
 4635SOL    HW114804   5.101   4.208   1.221
 4635SOL    HW214805   5.049   4.147   1.079
 4636SOL     OW14806   1.224   5.039   0.852
 4636SOL    HW114807   1.213   5.137   0.834
 4636SOL    HW214808   1.218   5.022   0.950
 4637SOL     OW14809   1.868   0.493   5.120
 4637SOL    HW114810   1.845   0.516   5.215
 4637SOL    HW214811   1.811   0.548   5.058
 4638SOL     OW14812   4.921   3.601   6.385
 4638SOL    HW114813   4.840   3.612   6.327
 4638SOL    HW214814   4.948   3.690   6.422
 4639SOL     OW14815   6.762   2.827   5.055
 4639SOL    HW114816   6.738   2.840   5.151
 4639SOL    HW214817   6.713   2.893   4.999
 4640SOL     OW14818   6.268   4.175   2.598
 4640SOL    HW114819   6.331   4.133   2.663
 4640SOL    HW214820   6.231   4.105   2.537
 4641SOL     OW14821   2.713   4.695   5.566
 4641SOL    HW114822   2.769   4.644   5.501
 4641SOL    HW214823   2.762   4.705   5.652
 4642SOL     OW14824   5.810   5.736   4.321
 4642SOL    HW114825   5.783   5.767   4.412
 4642SOL    HW214826   5.810   5.814   4.258
 4643SOL     OW14827   4.130   2.559   1.060
 4643SOL    HW114828   4.035   2.565   1.028
 4643SOL    HW214829   4.192   2.576   0.983
 4644SOL     OW14830   2.585   5.108   4.681
 4644SOL    HW114831   2.626   5.063   4.761
 4644SOL    HW214832   2.510   5.051   4.647
 4645SOL     OW14833   1.992   6.054   5.078
 4645SOL    HW114834   1.908   6.000   5.084
 4645SOL    HW214835   2.070   5.994   5.060
 4646SOL     OW14836   3.930   0.283   1.763
 4646SOL    HW114837   4.026   0.300   1.740
 4646SOL    HW214838   3.894   0.358   1.818
 4647SOL     OW14839   0.047   0.846   4.252
 4647SOL    HW114840   0.131   0.865   4.301
 4647SOL    HW214841   0.012   0.756   4.279
 4648SOL     OW14842   1.600   4.733   2.542
 4648SOL    HW114843   1.579   4.697   2.451
 4648SOL    HW214844   1.624   4.658   2.604
 4649SOL     OW14845   5.489   6.152   6.420
 4649SOL    HW114846   5.458   6.162   6.514
 4649SOL    HW214847   5.518   6.241   6.385
 4650SOL     OW14848   6.888   5.066   1.933
 4650SOL    HW114849   6.914   4.989   1.875
 4650SOL    HW214850   6.887   5.038   2.029
 4651SOL     OW14851   7.009   1.718   1.693
 4651SOL    HW114852   6.977   1.687   1.604
 4651SOL    HW214853   0.025   1.640   1.746
 4652SOL     OW14854   0.646   6.106   5.651
 4652SOL    HW114855   0.566   6.065   5.696
 4652SOL    HW214856   0.629   6.203   5.635
 4653SOL     OW14857   1.194   5.745   6.795
 4653SOL    HW114858   1.142   5.661   6.783
 4653SOL    HW214859   1.244   5.766   6.711
 4654SOL     OW14860   0.665   1.570   6.187
 4654SOL    HW114861   0.639   1.613   6.273
 4654SOL    HW214862   0.723   1.491   6.205
 4655SOL     OW14863   0.157   5.550   3.366
 4655SOL    HW114864   0.136   5.583   3.274
 4655SOL    HW214865   0.124   5.615   3.434
 4656SOL     OW14866   2.420   0.397   3.342
 4656SOL    HW114867   2.457   0.449   3.419
 4656SOL    HW214868   2.419   0.299   3.365
 4657SOL     OW14869   6.019   7.008   6.669
 4657SOL    HW114870   6.002   0.088   6.696
 4657SOL    HW214871   6.036   7.004   6.570
 4658SOL     OW14872   5.162   0.577   3.355
 4658SOL    HW114873   5.243   0.608   3.405
 4658SOL    HW214874   5.094   0.542   3.420
 4659SOL     OW14875   2.502   2.601   4.432
 4659SOL    HW114876   2.580   2.661   4.453
 4659SOL    HW214877   2.505   2.576   4.335
 4660SOL     OW14878   6.685   1.262   5.868
 4660SOL    HW114879   6.618   1.315   5.921
 4660SOL    HW214880   6.719   1.318   5.793
 4661SOL     OW14881   4.113   3.444   3.401
 4661SOL    HW114882   4.139   3.400   3.315
 4661SOL    HW214883   4.090   3.540   3.384
 4662SOL     OW14884   5.639   0.397   4.236
 4662SOL    HW114885   5.683   0.487   4.227
 4662SOL    HW214886   5.704   0.326   4.209
 4663SOL     OW14887   0.677   1.571   2.245
 4663SOL    HW114888   0.647   1.663   2.274
 4663SOL    HW214889   0.706   1.575   2.149
 4664SOL     OW14890   3.071   3.217   0.569
 4664SOL    HW114891   3.031   3.252   0.654
 4664SOL    HW214892   3.034   3.268   0.492
 4665SOL     OW14893   5.483   0.831   6.725
 4665SOL    HW114894   5.460   0.807   6.631
 4665SOL    HW214895   5.476   0.749   6.783
 4666SOL     OW14896   2.893   1.280   0.406
 4666SOL    HW114897   2.825   1.352   0.417
 4666SOL    HW214898   2.868   1.222   0.329
 4667SOL     OW14899   0.696   5.958   5.439
 4667SOL    HW114900   0.716   5.865   5.471
 4667SOL    HW214901   0.693   6.020   5.518
 4668SOL     OW14902   5.476   1.558   5.219
 4668SOL    HW114903   5.484   1.528   5.125
 4668SOL    HW214904   5.487   1.480   5.281
 4669SOL     OW14905   2.302   0.638   1.356
 4669SOL    HW114906   2.309   0.539   1.342
 4669SOL    HW214907   2.360   0.686   1.289
 4670SOL     OW14908   1.998   1.262   4.448
 4670SOL    HW114909   1.983   1.214   4.535
 4670SOL    HW214910   1.911   1.303   4.418
 4671SOL     OW14911   5.515   2.940   0.696
 4671SOL    HW114912   5.452   2.928   0.773
 4671SOL    HW214913   5.483   2.886   0.618
 4672SOL     OW14914   2.769   3.427   5.433
 4672SOL    HW114915   2.674   3.435   5.462
 4672SOL    HW214916   2.806   3.517   5.411
 4673SOL     OW14917   3.650   0.267   2.712
 4673SOL    HW114918   3.730   0.228   2.757
 4673SOL    HW214919   3.656   0.367   2.713
 4674SOL     OW14920   3.893   6.403   5.865
 4674SOL    HW114921   3.900   6.481   5.802
 4674SOL    HW214922   3.835   6.429   5.942
 4675SOL     OW14923   1.271   3.869   5.973
 4675SOL    HW114924   1.224   3.956   5.965
 4675SOL    HW214925   1.307   3.858   6.066
 4676SOL     OW14926   0.269   5.472   3.731
 4676SOL    HW114927   0.294   5.429   3.644
 4676SOL    HW214928   0.182   5.435   3.762
 4677SOL     OW14929   1.059   3.472   0.436
 4677SOL    HW114930   1.147   3.501   0.399
 4677SOL    HW214931   0.996   3.550   0.437
 4678SOL     OW14932   1.947   4.002   2.139
 4678SOL    HW114933   1.962   3.957   2.051
 4678SOL    HW214934   1.866   3.963   2.183
 4679SOL     OW14935   4.289   0.334   1.405
 4679SOL    HW114936   4.340   0.256   1.367
 4679SOL    HW214937   4.344   0.379   1.475
 4680SOL     OW14938   1.683   0.671   0.248
 4680SOL    HW114939   1.602   0.644   0.302
 4680SOL    HW214940   1.764   0.628   0.287
 4681SOL     OW14941   4.823   5.583   2.118
 4681SOL    HW114942   4.801   5.486   2.108
 4681SOL    HW214943   4.743   5.631   2.154
 4682SOL     OW14944   3.126   4.033   6.971
 4682SOL    HW114945   3.078   4.059   0.040
 4682SOL    HW214946   3.160   3.939   6.980
 4683SOL     OW14947   5.978   4.172   4.008
 4683SOL    HW114948   6.073   4.197   3.989
 4683SOL    HW214949   5.928   4.251   4.043
 4684SOL     OW14950   5.755   6.227   0.186
 4684SOL    HW114951   5.733   6.224   0.089
 4684SOL    HW214952   5.739   6.319   0.221
 4685SOL     OW14953   3.558   4.162   4.523
 4685SOL    HW114954   3.643   4.115   4.545
 4685SOL    HW214955   3.501   4.168   4.605
 4686SOL     OW14956   2.692   5.754   0.116
 4686SOL    HW114957   2.614   5.760   0.178
 4686SOL    HW214958   2.664   5.709   0.031
 4687SOL     OW14959   2.783   0.511   2.726
 4687SOL    HW114960   2.741   0.549   2.643
 4687SOL    HW214961   2.737   0.549   2.806
 4688SOL     OW14962   6.086   2.807   5.592
 4688SOL    HW114963   6.043   2.885   5.638
 4688SOL    HW214964   6.184   2.825   5.580
 4689SOL     OW14965   6.364   0.790   2.317
 4689SOL    HW114966   6.296   0.834   2.376
 4689SOL    HW214967   6.455   0.803   2.356
 4690SOL     OW14968   2.473   1.719   0.573
 4690SOL    HW114969   2.471   1.724   0.473
 4690SOL    HW214970   2.388   1.756   0.609
 4691SOL     OW14971   6.849   4.317   2.323
 4691SOL    HW114972   6.931   4.356   2.282
 4691SOL    HW214973   6.796   4.270   2.253
 4692SOL     OW14974   5.084   3.248   2.382
 4692SOL    HW114975   5.005   3.286   2.335
 4692SOL    HW214976   5.122   3.173   2.328
 4693SOL     OW14977   1.539   0.113   3.277
 4693SOL    HW114978   1.509   0.117   3.372
 4693SOL    HW214979   1.464   0.138   3.216
 4694SOL     OW14980   1.514   0.737   6.629
 4694SOL    HW114981   1.549   0.649   6.596
 4694SOL    HW214982   1.495   0.797   6.552
 4695SOL     OW14983   1.604   5.733   1.810
 4695SOL    HW114984   1.661   5.756   1.889
 4695SOL    HW214985   1.581   5.636   1.814
 4696SOL     OW14986   2.022   5.207   5.824
 4696SOL    HW114987   2.022   5.147   5.904
 4696SOL    HW214988   1.936   5.259   5.822
 4697SOL     OW14989   4.248   5.563   1.592
 4697SOL    HW114990   4.163   5.543   1.641
 4697SOL    HW214991   4.230   5.630   1.521
 4698SOL     OW14992   5.252   1.015   4.704
 4698SOL    HW114993   5.346   1.028   4.672
 4698SOL    HW214994   5.191   1.010   4.625
 4699SOL     OW14995   1.553   0.207   2.070
 4699SOL    HW114996   1.550   0.289   2.127
 4699SOL    HW214997   1.531   0.127   2.126
 4700SOL     OW14998   6.561   2.507   1.910
 4700SOL    HW114999   6.537   2.447   1.834
 4700SOL    HW215000   6.622   2.458   1.972
 4701SOL     OW15001   3.102   2.454   1.707
 4701SOL    HW115002   3.176   2.393   1.736
 4701SOL    HW215003   3.021   2.436   1.763
 4702SOL     OW15004   5.469   4.967   6.519
 4702SOL    HW115005   5.535   4.892   6.510
 4702SOL    HW215006   5.517   5.049   6.551
 4703SOL     OW15007   0.773   5.576   3.439
 4703SOL    HW115008   0.764   5.476   3.437
 4703SOL    HW215009   0.704   5.617   3.380
 4704SOL     OW15010   1.386   4.942   4.417
 4704SOL    HW115011   1.447   4.927   4.495
 4704SOL    HW215012   1.419   5.019   4.363
 4705SOL     OW15013   3.559   1.852   1.633
 4705SOL    HW115014   3.493   1.822   1.702
 4705SOL    HW215015   3.585   1.947   1.651
 4706SOL     OW15016   2.161   0.108   0.976
 4706SOL    HW115017   2.207   0.026   0.942
 4706SOL    HW215018   2.198   0.133   1.065
 4707SOL     OW15019   1.801   5.788   2.017
 4707SOL    HW115020   1.859   5.855   2.063
 4707SOL    HW215021   1.849   5.700   2.011
 4708SOL     OW15022   1.783   3.155   4.609
 4708SOL    HW115023   1.703   3.154   4.549
 4708SOL    HW215024   1.847   3.225   4.577
 4709SOL     OW15025   4.899   4.011   5.593
 4709SOL    HW115026   4.885   4.107   5.616
 4709SOL    HW215027   4.889   3.955   5.675
 4710SOL     OW15028   5.997   5.858   5.566
 4710SOL    HW115029   6.043   5.773   5.593
 4710SOL    HW215030   5.938   5.841   5.488
 4711SOL     OW15031   5.511   3.703   2.361
 4711SOL    HW115032   5.487   3.770   2.291
 4711SOL    HW215033   5.542   3.751   2.444
 4712SOL     OW15034   4.691   4.324   5.777
 4712SOL    HW115035   4.649   4.236   5.755
 4712SOL    HW215036   4.624   4.383   5.822
 4713SOL     OW15037   6.201   4.224   1.057
 4713SOL    HW115038   6.194   4.143   1.000
 4713SOL    HW215039   6.234   4.301   1.002
 4714SOL     OW15040   4.316   1.500   6.832
 4714SOL    HW115041   4.336   1.587   6.787
 4714SOL    HW215042   4.237   1.511   6.893
 4715SOL     OW15043   6.588   1.723   2.072
 4715SOL    HW115044   6.663   1.785   2.048
 4715SOL    HW215045   6.596   1.639   2.020
 4716SOL     OW15046   4.031   4.601   5.781
 4716SOL    HW115047   4.093   4.576   5.856
 4716SOL    HW215048   3.981   4.520   5.750
 4717SOL     OW15049   2.582   5.042   5.022
 4717SOL    HW115050   2.652   4.982   5.061
 4717SOL    HW215051   2.497   4.991   5.009
 4718SOL     OW15052   4.647   4.744   0.418
 4718SOL    HW115053   4.632   4.647   0.435
 4718SOL    HW215054   4.724   4.777   0.472
 4719SOL     OW15055   0.194   4.450   3.908
 4719SOL    HW115056   0.256   4.527   3.896
 4719SOL    HW215057   0.210   4.383   3.836
 4720SOL     OW15058   2.185   3.124   0.126
 4720SOL    HW115059   2.214   3.218   0.142
 4720SOL    HW215060   2.214   3.066   0.202
 4721SOL     OW15061   0.119   3.037   2.657
 4721SOL    HW115062   0.218   3.034   2.644
 4721SOL    HW215063   0.099   3.056   2.753
 4722SOL     OW15064   1.377   6.224   6.712
 4722SOL    HW115065   1.470   6.255   6.731
 4722SOL    HW215066   1.320   6.236   6.794
 4723SOL     OW15067   3.878   4.399   0.083
 4723SOL    HW115068   3.847   4.483   0.125
 4723SOL    HW215069   3.857   4.321   0.142
 4724SOL     OW15070   0.486   6.817   4.795
 4724SOL    HW115071   0.448   6.756   4.725
 4724SOL    HW215072   0.426   6.896   4.807
 4725SOL     OW15073   4.695   5.961   1.266
 4725SOL    HW115074   4.750   5.928   1.190
 4725SOL    HW215075   4.674   6.057   1.252
 4726SOL     OW15076   1.552   3.259   5.388
 4726SOL    HW115077   1.608   3.177   5.388
 4726SOL    HW215078   1.473   3.246   5.329
 4727SOL     OW15079   6.831   4.927   1.331
 4727SOL    HW115080   6.929   4.916   1.348
 4727SOL    HW215081   6.787   4.837   1.329
 4728SOL     OW15082   6.107   1.454   4.323
 4728SOL    HW115083   6.180   1.518   4.300
 4728SOL    HW215084   6.112   1.431   4.420
 4729SOL     OW15085   6.494   1.978   1.969
 4729SOL    HW115086   6.552   1.909   2.012
 4729SOL    HW215087   6.402   1.972   2.006
 4730SOL     OW15088   2.961   6.583   4.349
 4730SOL    HW115089   2.987   6.496   4.393
 4730SOL    HW215090   2.963   6.572   4.250
 4731SOL     OW15091   2.972   6.502   0.266
 4731SOL    HW115092   2.912   6.488   0.188
 4731SOL    HW215093   3.051   6.440   0.259
 4732SOL     OW15094   0.055   5.199   4.462
 4732SOL    HW115095   0.137   5.255   4.472
 4732SOL    HW215096   0.063   5.116   4.516
 4733SOL     OW15097   2.356   4.288   2.735
 4733SOL    HW115098   2.284   4.352   2.761
 4733SOL    HW215099   2.369   4.290   2.636
 4734SOL     OW15100   5.181   3.760   6.785
 4734SOL    HW115101   5.214   3.680   6.734
 4734SOL    HW215102   5.142   3.826   6.721
 4735SOL     OW15103   0.415   0.920   4.786
 4735SOL    HW115104   0.448   0.995   4.843
 4735SOL    HW215105   0.427   0.834   4.835
 4736SOL     OW15106   6.253   2.114   3.318
 4736SOL    HW115107   6.221   2.198   3.361
 4736SOL    HW215108   6.185   2.042   3.332
 4737SOL     OW15109   2.376   4.901   6.846
 4737SOL    HW115110   2.388   4.823   6.784
 4737SOL    HW215111   2.302   4.960   6.812
 4738SOL     OW15112   0.948   6.453   3.527
 4738SOL    HW115113   0.921   6.549   3.517
 4738SOL    HW215114   1.042   6.441   3.495
 4739SOL     OW15115   6.351   3.026   2.825
 4739SOL    HW115116   6.330   2.991   2.734
 4739SOL    HW215117   6.360   2.950   2.889
 4740SOL     OW15118   1.342   0.967   1.149
 4740SOL    HW115119   1.304   1.007   1.232
 4740SOL    HW215120   1.442   0.963   1.156
 4741SOL     OW15121   5.040   4.568   1.489
 4741SOL    HW115122   4.959   4.509   1.491
 4741SOL    HW215123   5.017   4.655   1.444
 4742SOL     OW15124   2.834   5.729   2.328
 4742SOL    HW115125   2.860   5.651   2.386
 4742SOL    HW215126   2.916   5.773   2.292
 4743SOL     OW15127   2.680   3.119   0.167
 4743SOL    HW115128   2.688   3.075   0.256
 4743SOL    HW215129   2.770   3.151   0.137
 4744SOL     OW15130   2.009   2.351   4.754
 4744SOL    HW115131   1.912   2.328   4.764
 4744SOL    HW215132   2.065   2.277   4.792
 4745SOL     OW15133   3.357   5.365   4.918
 4745SOL    HW115134   3.405   5.318   4.992
 4745SOL    HW215135   3.270   5.399   4.952
 4746SOL     OW15136   6.067   0.726   0.971
 4746SOL    HW115137   6.099   0.821   0.975
 4746SOL    HW215138   6.140   0.665   1.002
 4747SOL     OW15139   6.484   2.641   1.103
 4747SOL    HW115140   6.397   2.615   1.144
 4747SOL    HW215141   6.555   2.640   1.174
 4748SOL     OW15142   1.679   0.475   1.466
 4748SOL    HW115143   1.685   0.561   1.417
 4748SOL    HW215144   1.618   0.413   1.417
 4749SOL     OW15145   2.541   0.567   5.907
 4749SOL    HW115146   2.505   0.579   6.000
 4749SOL    HW215147   2.598   0.486   5.904
 4750SOL     OW15148   0.407   1.652   4.656
 4750SOL    HW115149   0.501   1.685   4.655
 4750SOL    HW215150   0.398   1.575   4.593
 4751SOL     OW15151   0.937   3.375   5.535
 4751SOL    HW115152   0.956   3.335   5.445
 4751SOL    HW215153   0.935   3.302   5.604
 4752SOL     OW15154   2.259   6.124   1.976
 4752SOL    HW115155   2.310   6.064   2.038
 4752SOL    HW215156   2.197   6.070   1.921
 4753SOL     OW15157   0.099   6.926   5.094
 4753SOL    HW115158   0.193   6.944   5.064
 4753SOL    HW215159   0.098   6.844   5.152
 4754SOL     OW15160   0.568   0.277   6.175
 4754SOL    HW115161   0.534   0.202   6.118
 4754SOL    HW215162   0.491   0.317   6.226
 4755SOL     OW15163   2.240   1.027   0.664
 4755SOL    HW115164   2.255   0.928   0.656
 4755SOL    HW215165   2.177   1.056   0.592
 4756SOL     OW15166   4.544   3.147   1.388
 4756SOL    HW115167   4.624   3.117   1.334
 4756SOL    HW215168   4.566   3.143   1.485
 4757SOL     OW15169   2.159   1.676   1.759
 4757SOL    HW115170   2.155   1.698   1.856
 4757SOL    HW215171   2.216   1.596   1.745
 4758SOL     OW15172   5.143   4.187   5.338
 4758SOL    HW115173   5.050   4.159   5.315
 4758SOL    HW215174   5.141   4.256   5.411
 4759SOL     OW15175   5.985   4.443   6.122
 4759SOL    HW115176   5.917   4.509   6.154
 4759SOL    HW215177   5.989   4.366   6.186
 4760SOL     OW15178   2.003   2.171   0.832
 4760SOL    HW115179   2.053   2.191   0.748
 4760SOL    HW215180   1.969   2.256   0.872
 4761SOL     OW15181   1.179   5.560   5.670
 4761SOL    HW115182   1.203   5.516   5.583
 4761SOL    HW215183   1.157   5.490   5.737
 4762SOL     OW15184   3.650   6.942   2.597
 4762SOL    HW115185   3.596   0.003   2.560
 4762SOL    HW215186   3.700   6.898   2.523
 4763SOL     OW15187   6.115   5.532   4.781
 4763SOL    HW115188   6.151   5.621   4.754
 4763SOL    HW215189   6.062   5.542   4.865
 4764SOL     OW15190   4.006   3.798   4.868
 4764SOL    HW115191   3.923   3.811   4.813
 4764SOL    HW215192   4.086   3.804   4.808
 4765SOL     OW15193   6.934   4.546   5.325
 4765SOL    HW115194   6.946   4.493   5.409
 4765SOL    HW215195   6.839   4.576   5.318
 4766SOL     OW15196   3.383   0.240   3.559
 4766SOL    HW115197   3.417   0.332   3.542
 4766SOL    HW215198   3.446   0.173   3.518
 4767SOL     OW15199   4.175   6.207   6.614
 4767SOL    HW115200   4.221   6.120   6.593
 4767SOL    HW215201   4.233   6.283   6.583
 4768SOL     OW15202   0.240   1.118   4.976
 4768SOL    HW115203   0.266   1.045   5.039
 4768SOL    HW215204   0.292   1.201   4.996
 4769SOL     OW15205   3.444   0.440   1.621
 4769SOL    HW115206   3.348   0.418   1.640
 4769SOL    HW215207   3.502   0.369   1.659
 4770SOL     OW15208   2.862   0.456   4.036
 4770SOL    HW115209   2.962   0.467   4.034
 4770SOL    HW215210   2.838   0.382   4.098
 4771SOL     OW15211   3.887   4.381   5.282
 4771SOL    HW115212   3.840   4.314   5.225
 4771SOL    HW215213   3.985   4.360   5.283
 4772SOL     OW15214   2.464   2.397   1.012
 4772SOL    HW115215   2.420   2.487   1.009
 4772SOL    HW215216   2.513   2.386   1.099
 4773SOL     OW15217   6.542   5.586   3.945
 4773SOL    HW115218   6.555   5.657   3.875
 4773SOL    HW215219   6.448   5.591   3.980
 4774SOL     OW15220   1.034   4.139   0.592
 4774SOL    HW115221   1.104   4.067   0.590
 4774SOL    HW215222   0.969   4.123   0.519
 4775SOL     OW15223   2.596   1.515   2.423
 4775SOL    HW115224   2.650   1.599   2.422
 4775SOL    HW215225   2.598   1.473   2.332
 4776SOL     OW15226   3.974   5.094   1.638
 4776SOL    HW115227   3.910   5.170   1.649
 4776SOL    HW215228   3.941   5.015   1.689
 4777SOL     OW15229   2.651   4.481   1.708
 4777SOL    HW115230   2.733   4.515   1.756
 4777SOL    HW215231   2.573   4.485   1.770
 4778SOL     OW15232   4.935   3.488   2.001
 4778SOL    HW115233   5.020   3.538   1.985
 4778SOL    HW215234   4.902   3.450   1.915
 4779SOL     OW15235   4.702   0.562   3.025
 4779SOL    HW115236   4.758   0.624   2.971
 4779SOL    HW215237   4.653   0.614   3.095
 4780SOL     OW15238   1.931   6.994   5.659
 4780SOL    HW115239   1.954   6.972   5.564
 4780SOL    HW215240   1.838   6.966   5.679
 4781SOL     OW15241   2.039   5.738   2.346
 4781SOL    HW115242   2.115   5.773   2.402
 4781SOL    HW215243   2.007   5.812   2.285
 4782SOL     OW15244   5.700   5.855   0.152
 4782SOL    HW115245   5.793   5.883   0.178
 4782SOL    HW215246   5.702   5.762   0.117
 4783SOL     OW15247   6.352   3.885   2.179
 4783SOL    HW115248   6.339   3.954   2.108
 4783SOL    HW215249   6.408   3.923   2.253
 4784SOL     OW15250   6.479   4.675   5.579
 4784SOL    HW115251   6.428   4.637   5.502
 4784SOL    HW215252   6.516   4.600   5.635
 4785SOL     OW15253   6.426   6.735   0.979
 4785SOL    HW115254   6.374   6.661   0.936
 4785SOL    HW215255   6.510   6.751   0.928
 4786SOL     OW15256   1.562   3.189   2.222
 4786SOL    HW115257   1.575   3.285   2.201
 4786SOL    HW215258   1.637   3.135   2.184
 4787SOL     OW15259   3.898   2.096   2.197
 4787SOL    HW115260   3.848   2.047   2.269
 4787SOL    HW215261   3.848   2.180   2.175
 4788SOL     OW15262   1.264   6.128   5.472
 4788SOL    HW115263   1.199   6.156   5.402
 4788SOL    HW215264   1.256   6.029   5.486
 4789SOL     OW15265   6.293   0.218   0.766
 4789SOL    HW115266   6.323   0.138   0.714
 4789SOL    HW215267   6.240   0.279   0.707
 4790SOL     OW15268   5.028   1.469   7.008
 4790SOL    HW115269   5.120   1.507   7.012
 4790SOL    HW215270   4.996   1.467   6.913
 4791SOL     OW15271   5.014   0.457   2.884
 4791SOL    HW115272   4.991   0.522   2.812
 4791SOL    HW215273   5.039   0.507   2.967
 4792SOL     OW15274   2.798   2.287   1.679
 4792SOL    HW115275   2.835   2.343   1.753
 4792SOL    HW215276   2.724   2.229   1.714
 4793SOL     OW15277   0.469   0.019   6.017
 4793SOL    HW115278   0.408   0.082   5.969
 4793SOL    HW215279   0.415   6.969   6.070
 4794SOL     OW15280   3.729   0.814   1.697
 4794SOL    HW115281   3.814   0.847   1.738
 4794SOL    HW215282   3.675   0.765   1.766
 4795SOL     OW15283   5.963   2.795   4.728
 4795SOL    HW115284   5.927   2.701   4.726
 4795SOL    HW215285   5.923   2.844   4.806
 4796SOL     OW15286   6.174   3.654   0.717
 4796SOL    HW115287   6.213   3.666   0.808
 4796SOL    HW215288   6.135   3.562   0.709
 4797SOL     OW15289   0.312   4.876   5.081
 4797SOL    HW115290   0.223   4.845   5.116
 4797SOL    HW215291   0.360   4.925   5.154
 4798SOL     OW15292   6.751   4.385   5.527
 4798SOL    HW115293   6.793   4.306   5.482
 4798SOL    HW215294   6.819   4.429   5.586
 4799SOL     OW15295   3.989   1.228   5.090
 4799SOL    HW115296   3.946   1.253   5.176
 4799SOL    HW215297   4.031   1.309   5.048
 4800SOL     OW15298   2.010   2.068   4.064
 4800SOL    HW115299   1.944   2.103   4.131
 4800SOL    HW215300   2.083   2.020   4.112
 4801SOL     OW15301   1.303   2.575   0.740
 4801SOL    HW115302   1.322   2.635   0.663
 4801SOL    HW215303   1.384   2.571   0.800
 4802SOL     OW15304   1.822   0.550   2.246
 4802SOL    HW115305   1.785   0.586   2.332
 4802SOL    HW215306   1.921   0.563   2.244
 4803SOL     OW15307   0.956   6.892   1.580
 4803SOL    HW115308   1.005   6.807   1.558
 4803SOL    HW215309   1.007   6.970   1.542
 4804SOL     OW15310   3.916   5.587   0.174
 4804SOL    HW115311   3.873   5.564   0.261
 4804SOL    HW215312   4.009   5.551   0.172
 4805SOL     OW15313   0.825   1.550   0.580
 4805SOL    HW115314   0.766   1.482   0.537
 4805SOL    HW215315   0.827   1.633   0.524
 4806SOL     OW15316   0.891   2.998   3.199
 4806SOL    HW115317   0.910   2.969   3.105
 4806SOL    HW215318   0.851   2.922   3.250
 4807SOL     OW15319   0.465   6.790   1.616
 4807SOL    HW115320   0.480   6.831   1.706
 4807SOL    HW215321   0.491   6.694   1.618
 4808SOL     OW15322   5.274   3.366   1.403
 4808SOL    HW115323   5.282   3.366   1.304
 4808SOL    HW215324   5.352   3.414   1.443
 4809SOL     OW15325   4.586   6.129   6.653
 4809SOL    HW115326   4.576   6.209   6.713
 4809SOL    HW215327   4.677   6.090   6.663
 4810SOL     OW15328   0.808   0.374   1.259
 4810SOL    HW115329   0.799   0.469   1.227
 4810SOL    HW215330   0.745   0.316   1.209
 4811SOL     OW15331   5.330   5.864   2.863
 4811SOL    HW115332   5.308   5.876   2.766
 4811SOL    HW215333   5.414   5.810   2.872
 4812SOL     OW15334   6.584   4.737   4.556
 4812SOL    HW115335   6.542   4.728   4.465
 4812SOL    HW215336   6.671   4.785   4.547
 4813SOL     OW15337   5.755   2.257   2.634
 4813SOL    HW115338   5.847   2.249   2.673
 4813SOL    HW215339   5.746   2.346   2.587
 4814SOL     OW15340   6.869   3.667   1.534
 4814SOL    HW115341   6.836   3.573   1.542
 4814SOL    HW215342   6.793   3.731   1.543
 4815SOL     OW15343   3.942   6.235   2.795
 4815SOL    HW115344   3.875   6.161   2.782
 4815SOL    HW215345   4.025   6.215   2.743
 4816SOL     OW15346   5.210   5.384   2.977
 4816SOL    HW115347   5.140   5.407   2.909
 4816SOL    HW215348   5.166   5.340   3.056
 4817SOL     OW15349   6.830   2.026   6.445
 4817SOL    HW115350   6.765   2.100   6.427
 4817SOL    HW215351   6.869   2.038   6.537
 4818SOL     OW15352   6.975   6.181   3.981
 4818SOL    HW115353   0.005   6.201   3.894
 4818SOL    HW215354   6.972   6.264   4.037
 4819SOL     OW15355   1.721   2.647   0.931
 4819SOL    HW115356   1.686   2.560   0.898
 4819SOL    HW215357   1.649   2.717   0.924
 4820SOL     OW15358   0.606   3.138   2.553
 4820SOL    HW115359   0.706   3.128   2.554
 4820SOL    HW215360   0.576   3.167   2.463
 4821SOL     OW15361   6.725   5.860   4.048
 4821SOL    HW115362   6.704   5.786   4.112
 4821SOL    HW215363   6.799   5.916   4.085
 4822SOL     OW15364   2.090   4.230   4.179
 4822SOL    HW115365   2.092   4.311   4.236
 4822SOL    HW215366   2.120   4.151   4.233
 4823SOL     OW15367   1.830   2.841   1.885
 4823SOL    HW115368   1.901   2.794   1.833
 4823SOL    HW215369   1.838   2.818   1.982
 4824SOL     OW15370   6.279   1.772   6.683
 4824SOL    HW115371   6.360   1.816   6.645
 4824SOL    HW215372   6.201   1.835   6.678
 4825SOL     OW15373   1.205   6.749   3.674
 4825SOL    HW115374   1.111   6.744   3.641
 4825SOL    HW215375   1.263   6.788   3.602
 4826SOL     OW15376   3.950   0.674   0.935
 4826SOL    HW115377   3.940   0.756   0.991
 4826SOL    HW215378   3.861   0.649   0.896
 4827SOL     OW15379   6.896   2.058   0.428
 4827SOL    HW115380   6.935   2.143   0.392
 4827SOL    HW215381   6.890   2.064   0.528
 4828SOL     OW15382   5.511   1.042   4.615
 4828SOL    HW115383   5.543   1.090   4.533
 4828SOL    HW215384   5.585   0.986   4.652
 4829SOL     OW15385   4.175   6.379   5.003
 4829SOL    HW115386   4.127   6.398   4.918
 4829SOL    HW215387   4.166   6.283   5.026
 4830SOL     OW15388   1.945   6.409   3.072
 4830SOL    HW115389   1.983   6.317   3.067
 4830SOL    HW215390   2.014   6.476   3.047
 4831SOL     OW15391   2.974   4.760   5.354
 4831SOL    HW115392   2.975   4.703   5.272
 4831SOL    HW215393   3.022   4.713   5.428
 4832SOL     OW15394   3.669   3.617   4.274
 4832SOL    HW115395   3.632   3.548   4.337
 4832SOL    HW215396   3.615   3.701   4.281
 4833SOL     OW15397   6.213   3.744   5.117
 4833SOL    HW115398   6.188   3.667   5.058
 4833SOL    HW215399   6.313   3.751   5.122
 4834SOL     OW15400   1.097   4.776   1.003
 4834SOL    HW115401   1.194   4.777   1.023
 4834SOL    HW215402   1.080   4.827   0.918
 4835SOL     OW15403   6.861   2.912   5.919
 4835SOL    HW115404   6.889   2.841   5.984
 4835SOL    HW215405   6.942   2.946   5.871
 4836SOL     OW15406   4.633   1.767   6.113
 4836SOL    HW115407   4.644   1.818   6.027
 4836SOL    HW215408   4.545   1.719   6.112
 4837SOL     OW15409   0.179   3.578   3.854
 4837SOL    HW115410   0.247   3.651   3.864
 4837SOL    HW215411   0.087   3.618   3.858
 4838SOL     OW15412   1.925   3.557   6.040
 4838SOL    HW115413   1.893   3.490   6.107
 4838SOL    HW215414   1.977   3.510   5.968
 4839SOL     OW15415   2.476   1.208   0.611
 4839SOL    HW115416   2.395   1.155   0.634
 4839SOL    HW215417   2.455   1.269   0.534
 4840SOL     OW15418   6.126   3.499   4.961
 4840SOL    HW115419   6.061   3.426   4.939
 4840SOL    HW215420   6.219   3.460   4.965
 4841SOL     OW15421   2.899   6.630   3.166
 4841SOL    HW115422   2.861   6.706   3.219
 4841SOL    HW215423   2.826   6.583   3.117
 4842SOL     OW15424   3.866   5.627   3.155
 4842SOL    HW115425   3.788   5.614   3.217
 4842SOL    HW215426   3.934   5.686   3.199
 4843SOL     OW15427   6.844   1.492   7.002
 4843SOL    HW115428   6.940   1.505   0.011
 4843SOL    HW215429   6.791   1.571   0.019
 4844SOL     OW15430   1.227   5.717   6.078
 4844SOL    HW115431   1.258   5.707   5.983
 4844SOL    HW215432   1.145   5.774   6.080
 4845SOL     OW15433   5.050   3.589   5.061
 4845SOL    HW115434   5.051   3.643   5.145
 4845SOL    HW215435   4.956   3.562   5.039
 4846SOL     OW15436   6.250   3.289   4.663
 4846SOL    HW115437   6.298   3.310   4.748
 4846SOL    HW215438   6.233   3.191   4.658
 4847SOL     OW15439   2.460   6.566   6.280
 4847SOL    HW115440   2.443   6.575   6.182
 4847SOL    HW215441   2.414   6.640   6.329
 4848SOL     OW15442   4.729   1.215   4.024
 4848SOL    HW115443   4.705   1.312   4.028
 4848SOL    HW215444   4.752   1.191   3.930
 4849SOL     OW15445   2.644   6.257   1.256
 4849SOL    HW115446   2.565   6.317   1.245
 4849SOL    HW215447   2.728   6.310   1.242
 4850SOL     OW15448   3.615   0.156   0.947
 4850SOL    HW115449   3.548   0.229   0.956
 4850SOL    HW215450   3.570   0.067   0.957
 4851SOL     OW15451   3.861   4.821   6.638
 4851SOL    HW115452   3.871   4.722   6.642
 4851SOL    HW215453   3.770   4.847   6.670
 4852SOL     OW15454   5.696   4.755   5.881
 4852SOL    HW115455   5.774   4.743   5.941
 4852SOL    HW215456   5.720   4.821   5.809
 4853SOL     OW15457   4.541   6.762   2.762
 4853SOL    HW115458   4.501   6.818   2.835
 4853SOL    HW215459   4.542   6.814   2.677
 4854SOL     OW15460   4.188   6.591   2.444
 4854SOL    HW115461   4.266   6.546   2.486
 4854SOL    HW215462   4.204   6.690   2.441
 4855SOL     OW15463   5.254   5.160   5.798
 4855SOL    HW115464   5.199   5.190   5.876
 4855SOL    HW215465   5.349   5.190   5.810
 4856SOL     OW15466   0.421   3.986   2.588
 4856SOL    HW115467   0.324   4.002   2.609
 4856SOL    HW215468   0.429   3.927   2.508
 4857SOL     OW15469   2.332   2.344   4.934
 4857SOL    HW115470   2.308   2.259   4.887
 4857SOL    HW215471   2.359   2.323   5.028
 4858SOL     OW15472   1.876   6.431   4.492
 4858SOL    HW115473   1.964   6.478   4.504
 4858SOL    HW215474   1.866   6.361   4.562
 4859SOL     OW15475   6.725   5.777   2.911
 4859SOL    HW115476   6.777   5.754   2.993
 4859SOL    HW215477   6.628   5.760   2.928
 4860SOL     OW15478   4.045   5.327   2.348
 4860SOL    HW115479   4.022   5.238   2.308
 4860SOL    HW215480   4.054   5.395   2.276
 4861SOL     OW15481   0.091   4.339   5.824
 4861SOL    HW115482   0.178   4.385   5.845
 4861SOL    HW215483   0.105   4.275   5.748
 4862SOL     OW15484   2.212   6.211   3.951
 4862SOL    HW115485   2.125   6.189   3.908
 4862SOL    HW215486   2.196   6.244   4.044
 4863SOL     OW15487   5.231   2.097   2.652
 4863SOL    HW115488   5.294   2.106   2.575
 4863SOL    HW215489   5.152   2.157   2.638
 4864SOL     OW15490   2.267   1.594   1.217
 4864SOL    HW115491   2.285   1.688   1.246
 4864SOL    HW215492   2.173   1.570   1.239
 4865SOL     OW15493   4.188   5.754   4.705
 4865SOL    HW115494   4.221   5.777   4.797
 4865SOL    HW215495   4.124   5.677   4.712
 4866SOL     OW15496   0.542   5.004   2.024
 4866SOL    HW115497   0.586   5.042   1.943
 4866SOL    HW215498   0.453   4.967   1.999
 4867SOL     OW15499   4.959   4.620   4.204
 4867SOL    HW115500   4.871   4.629   4.158
 4867SOL    HW215501   5.006   4.708   4.205
 4868SOL     OW15502   1.686   6.066   1.211
 4868SOL    HW115503   1.608   6.128   1.205
 4868SOL    HW215504   1.670   6.000   1.285
 4869SOL     OW15505   6.311   1.745   0.959
 4869SOL    HW115506   6.245   1.687   1.007
 4869SOL    HW215507   6.393   1.756   1.015
 4870SOL     OW15508   6.467   0.302   1.183
 4870SOL    HW115509   6.486   0.234   1.112
 4870SOL    HW215510   6.391   0.270   1.240
 4871SOL     OW15511   1.881   3.995   4.444
 4871SOL    HW115512   1.888   3.950   4.533
 4871SOL    HW215513   1.964   3.976   4.391
 4872SOL     OW15514   1.023   0.556   4.089
 4872SOL    HW115515   0.946   0.544   4.028
 4872SOL    HW215516   1.062   0.467   4.113
 4873SOL     OW15517   1.116   6.719   5.292
 4873SOL    HW115518   1.025   6.748   5.262
 4873SOL    HW215519   1.181   6.794   5.280
 4874SOL     OW15520   5.778   3.141   3.431
 4874SOL    HW115521   5.857   3.083   3.410
 4874SOL    HW215522   5.799   3.200   3.509
 4875SOL     OW15523   6.642   2.454   6.110
 4875SOL    HW115524   6.592   2.486   6.030
 4875SOL    HW215525   6.736   2.431   6.085
 4876SOL     OW15526   0.075   1.831   0.083
 4876SOL    HW115527   0.083   1.909   0.021
 4876SOL    HW215528   0.143   1.838   0.155
 4877SOL     OW15529   6.303   1.187   1.856
 4877SOL    HW115530   6.284   1.180   1.758
 4877SOL    HW215531   6.371   1.118   1.881
 4878SOL     OW15532   0.197   2.894   1.965
 4878SOL    HW115533   0.111   2.886   1.914
 4878SOL    HW215534   0.272   2.907   1.900
 4879SOL     OW15535   4.509   5.596   3.313
 4879SOL    HW115536   4.502   5.637   3.404
 4879SOL    HW215537   4.509   5.497   3.320
 4880SOL     OW15538   5.758   1.661   5.902
 4880SOL    HW115539   5.850   1.700   5.893
 4880SOL    HW215540   5.690   1.729   5.873
 4881SOL     OW15541   2.752   5.410   6.728
 4881SOL    HW115542   2.692   5.489   6.736
 4881SOL    HW215543   2.811   5.420   6.647
 4882SOL     OW15544   4.683   6.698   6.787
 4882SOL    HW115545   4.699   6.687   6.688
 4882SOL    HW215546   4.656   6.793   6.805
 4883SOL     OW15547   6.033   5.332   0.092
 4883SOL    HW115548   5.978   5.390   0.152
 4883SOL    HW215549   6.069   5.254   0.144
 4884SOL     OW15550   4.093   6.557   1.445
 4884SOL    HW115551   4.103   6.645   1.399
 4884SOL    HW215552   4.008   6.514   1.417
 4885SOL     OW15553   2.269   0.097   3.017
 4885SOL    HW115554   2.358   0.114   2.976
 4885SOL    HW215555   2.247   0.171   3.081
 4886SOL     OW15556   6.040   0.828   6.128
 4886SOL    HW115557   6.001   0.797   6.215
 4886SOL    HW215558   6.134   0.857   6.143
 4887SOL     OW15559   0.131   1.992   5.840
 4887SOL    HW115560   0.177   2.080   5.833
 4887SOL    HW215561   0.156   1.947   5.925
 4888SOL     OW15562   3.492   5.980   1.745
 4888SOL    HW115563   3.525   5.905   1.687
 4888SOL    HW215564   3.549   6.060   1.731
 4889SOL     OW15565   1.436   2.875   6.107
 4889SOL    HW115566   1.395   2.965   6.092
 4889SOL    HW215567   1.380   2.823   6.171
 4890SOL     OW15568   0.911   0.169   4.449
 4890SOL    HW115569   0.816   0.189   4.473
 4890SOL    HW215570   0.967   0.249   4.466
 4891SOL     OW15571   1.559   3.691   0.482
 4891SOL    HW115572   1.580   3.697   0.385
 4891SOL    HW215573   1.582   3.600   0.516
 4892SOL     OW15574   1.349   5.371   2.075
 4892SOL    HW115575   1.371   5.415   2.162
 4892SOL    HW215576   1.313   5.279   2.092
 4893SOL     OW15577   0.809   3.668   6.550
 4893SOL    HW115578   0.773   3.679   6.643
 4893SOL    HW215579   0.849   3.577   6.541
 4894SOL     OW15580   1.861   0.757   3.233
 4894SOL    HW115581   1.901   0.666   3.244
 4894SOL    HW215582   1.907   0.821   3.295
 4895SOL     OW15583   5.989   4.189   0.458
 4895SOL    HW115584   6.088   4.183   0.451
 4895SOL    HW215585   5.953   4.244   0.382
 4896SOL     OW15586   4.223   5.668   3.333
 4896SOL    HW115587   4.228   5.743   3.400
 4896SOL    HW215588   4.314   5.652   3.295
 4897SOL     OW15589   2.700   5.909   6.450
 4897SOL    HW115590   2.744   5.972   6.386
 4897SOL    HW215591   2.683   5.822   6.405
 4898SOL     OW15592   6.155   2.018   4.721
 4898SOL    HW115593   6.178   1.971   4.806
 4898SOL    HW215594   6.210   1.980   4.647
 4899SOL     OW15595   5.288   4.391   5.080
 4899SOL    HW115596   5.298   4.292   5.072
 4899SOL    HW215597   5.325   4.435   4.997
 4900SOL     OW15598   0.498   6.662   5.664
 4900SOL    HW115599   0.412   6.691   5.622
 4900SOL    HW215600   0.566   6.735   5.654
 4901SOL     OW15601   0.226   6.789   3.310
 4901SOL    HW115602   0.140   6.800   3.259
 4901SOL    HW215603   0.284   6.723   3.262
 4902SOL     OW15604   3.310   4.796   1.748
 4902SOL    HW115605   3.271   4.734   1.680
 4902SOL    HW215606   3.393   4.755   1.787
 4903SOL     OW15607   5.425   5.955   5.750
 4903SOL    HW115608   5.425   6.054   5.765
 4903SOL    HW215609   5.450   5.908   5.835
 4904SOL     OW15610   2.966   6.419   3.326
 4904SOL    HW115611   2.967   6.503   3.272
 4904SOL    HW215612   3.026   6.351   3.283
 4905SOL     OW15613   6.228   3.427   3.224
 4905SOL    HW115614   6.303   3.474   3.270
 4905SOL    HW215615   6.148   3.487   3.222
 4906SOL     OW15616   5.554   0.925   1.253
 4906SOL    HW115617   5.495   0.851   1.286
 4906SOL    HW215618   5.600   0.969   1.330
 4907SOL     OW15619   2.289   2.020   2.406
 4907SOL    HW115620   2.197   1.990   2.382
 4907SOL    HW215621   2.344   1.941   2.434
 4908SOL     OW15622   3.885   5.268   0.331
 4908SOL    HW115623   3.842   5.264   0.421
 4908SOL    HW215624   3.818   5.301   0.264
 4909SOL     OW15625   5.560   0.393   5.404
 4909SOL    HW115626   5.554   0.419   5.501
 4909SOL    HW215627   5.655   0.375   5.380
 4910SOL     OW15628   5.659   6.711   6.437
 4910SOL    HW115629   5.759   6.718   6.429
 4910SOL    HW215630   5.618   6.798   6.409
 4911SOL     OW15631   1.221   2.983   5.849
 4911SOL    HW115632   1.228   3.043   5.770
 4911SOL    HW215633   1.264   3.026   5.928
 4912SOL     OW15634   2.602   2.371   2.144
 4912SOL    HW115635   2.529   2.381   2.077
 4912SOL    HW215636   2.687   2.349   2.097
 4913SOL     OW15637   2.885   3.460   1.997
 4913SOL    HW115638   2.979   3.470   1.964
 4913SOL    HW215639   2.821   3.484   1.924
 4914SOL     OW15640   1.630   6.474   2.338
 4914SOL    HW115641   1.602   6.397   2.395
 4914SOL    HW215642   1.725   6.461   2.309
 4915SOL     OW15643   2.642   6.140   3.194
 4915SOL    HW115644   2.581   6.069   3.228
 4915SOL    HW215645   2.655   6.209   3.264
 4916SOL     OW15646   2.008   2.024   2.360
 4916SOL    HW115647   1.959   2.003   2.276
 4916SOL    HW215648   1.948   2.074   2.422
 4917SOL     OW15649   2.239   4.858   6.261
 4917SOL    HW115650   2.259   4.948   6.222
 4917SOL    HW215651   2.309   4.793   6.233
 4918SOL     OW15652   2.297   0.504   3.963
 4918SOL    HW115653   2.322   0.408   3.946
 4918SOL    HW215654   2.264   0.514   4.057
 4919SOL     OW15655   2.347   3.138   1.668
 4919SOL    HW115656   2.345   3.230   1.629
 4919SOL    HW215657   2.309   3.140   1.761
 4920SOL     OW15658   4.308   0.667   0.223
 4920SOL    HW115659   4.314   0.726   0.304
 4920SOL    HW215660   4.256   0.713   0.151
 4921SOL     OW15661   1.023   4.647   1.685
 4921SOL    HW115662   1.122   4.633   1.673
 4921SOL    HW215663   0.992   4.594   1.763
 4922SOL     OW15664   0.794   2.763   5.526
 4922SOL    HW115665   0.756   2.787   5.437
 4922SOL    HW215666   0.888   2.796   5.533
 4923SOL     OW15667   3.086   2.382   0.335
 4923SOL    HW115668   3.058   2.287   0.320
 4923SOL    HW215669   3.173   2.383   0.385
 4924SOL     OW15670   6.912   3.487   4.445
 4924SOL    HW115671   6.988   3.423   4.461
 4924SOL    HW215672   6.922   3.528   4.354
 4925SOL     OW15673   4.635   5.813   6.505
 4925SOL    HW115674   4.589   5.742   6.452
 4925SOL    HW215675   4.589   5.823   6.594
 4926SOL     OW15676   4.291   2.927   0.657
 4926SOL    HW115677   4.203   2.967   0.630
 4926SOL    HW215678   4.354   2.929   0.580
 4927SOL     OW15679   3.530   4.088   2.694
 4927SOL    HW115680   3.436   4.054   2.699
 4927SOL    HW215681   3.559   4.092   2.598
 4928SOL     OW15682   1.077   6.621   0.823
 4928SOL    HW115683   1.091   6.581   0.733
 4928SOL    HW215684   0.988   6.667   0.826
 4929SOL     OW15685   0.830   4.967   4.532
 4929SOL    HW115686   0.827   4.920   4.444
 4929SOL    HW215687   0.781   4.912   4.600
 4930SOL     OW15688   0.288   2.944   0.587
 4930SOL    HW115689   0.254   2.889   0.663
 4930SOL    HW215690   0.231   2.929   0.506
 4931SOL     OW15691   6.811   6.649   1.081
 4931SOL    HW115692   6.751   6.606   1.148
 4931SOL    HW215693   6.900   6.603   1.082
 4932SOL     OW15694   3.879   2.027   1.089
 4932SOL    HW115695   3.784   2.037   1.118
 4932SOL    HW215696   3.940   2.057   1.162
 4933SOL     OW15697   2.832   0.281   5.046
 4933SOL    HW115698   2.825   0.236   5.135
 4933SOL    HW215699   2.867   0.374   5.060
 4934SOL     OW15700   1.644   5.628   5.455
 4934SOL    HW115701   1.631   5.721   5.420
 4934SOL    HW215702   1.559   5.595   5.495
 4935SOL     OW15703   1.688   1.222   0.639
 4935SOL    HW115704   1.595   1.252   0.659
 4935SOL    HW215705   1.685   1.140   0.582
 4936SOL     OW15706   4.713   6.220   1.140
 4936SOL    HW115707   4.718   6.311   1.182
 4936SOL    HW215708   4.757   6.223   1.050
 4937SOL     OW15709   1.004   2.813   5.014
 4937SOL    HW115710   1.023   2.834   4.918
 4937SOL    HW215711   1.007   2.714   5.028
 4938SOL     OW15712   3.275   5.048   1.697
 4938SOL    HW115713   3.353   5.091   1.651
 4938SOL    HW215714   3.297   4.953   1.719
 4939SOL     OW15715   1.113   1.566   1.550
 4939SOL    HW115716   1.120   1.634   1.623
 4939SOL    HW215717   1.149   1.478   1.582
 4940SOL     OW15718   0.505   1.949   5.686
 4940SOL    HW115719   0.498   2.046   5.662
 4940SOL    HW215720   0.600   1.920   5.683
 4941SOL     OW15721   4.272   2.710   5.332
 4941SOL    HW115722   4.275   2.696   5.430
 4941SOL    HW215723   4.263   2.622   5.286
 4942SOL     OW15724   0.471   1.529   3.097
 4942SOL    HW115725   0.440   1.611   3.145
 4942SOL    HW215726   0.460   1.450   3.157
 4943SOL     OW15727   5.428   2.688   6.698
 4943SOL    HW115728   5.515   2.719   6.660
 4943SOL    HW215729   5.353   2.712   6.636
 4944SOL     OW15730   0.802   5.271   0.082
 4944SOL    HW115731   0.753   5.320   0.155
 4944SOL    HW215732   0.837   5.337   0.016
 4945SOL     OW15733   2.352   0.236   5.459
 4945SOL    HW115734   2.291   0.306   5.496
 4945SOL    HW215735   2.412   0.276   5.390
 4946SOL     OW15736   2.806   5.193   6.879
 4946SOL    HW115737   2.778   5.276   6.832
 4946SOL    HW215738   2.899   5.205   6.915
 4947SOL     OW15739   1.013   0.410   1.022
 4947SOL    HW115740   0.934   0.353   1.039
 4947SOL    HW215741   0.990   0.506   1.040
 4948SOL     OW15742   1.922   2.019   2.081
 4948SOL    HW115743   1.977   2.089   2.035
 4948SOL    HW215744   1.833   2.056   2.105
 4949SOL     OW15745   6.884   4.060   6.526
 4949SOL    HW115746   6.882   4.022   6.618
 4949SOL    HW215747   6.875   3.986   6.459
 4950SOL     OW15748   3.684   4.744   5.676
 4950SOL    HW115749   3.773   4.786   5.696
 4950SOL    HW215750   3.694   4.644   5.679
 4951SOL     OW15751   5.086   5.510   3.316
 4951SOL    HW115752   5.026   5.516   3.236
 4951SOL    HW215753   5.092   5.600   3.359
 4952SOL     OW15754   0.560   0.343   6.551
 4952SOL    HW115755   0.514   0.256   6.572
 4952SOL    HW215756   0.497   0.419   6.568
 4953SOL     OW15757   1.541   2.354   4.856
 4953SOL    HW115758   1.489   2.367   4.940
 4953SOL    HW215759   1.621   2.414   4.855
 4954SOL     OW15760   3.082   3.778   4.749
 4954SOL    HW115761   3.023   3.735   4.681
 4954SOL    HW215762   3.155   3.715   4.774
 4955SOL     OW15763   4.083   6.010   5.793
 4955SOL    HW115764   4.073   5.920   5.751
 4955SOL    HW215765   4.004   6.067   5.771
 4956SOL     OW15766   3.194   6.973   4.768
 4956SOL    HW115767   3.112   6.996   4.820
 4956SOL    HW215768   3.264   0.028   4.784
 4957SOL     OW15769   5.874   4.435   0.378
 4957SOL    HW115770   5.924   4.516   0.409
 4957SOL    HW215771   5.776   4.454   0.379
 4958SOL     OW15772   3.781   5.548   0.564
 4958SOL    HW115773   3.753   5.459   0.599
 4958SOL    HW215774   3.872   5.542   0.524
 4959SOL     OW15775   0.084   2.260   2.777
 4959SOL    HW115776   0.113   2.164   2.779
 4959SOL    HW215777   0.009   2.273   2.842
 4960SOL     OW15778   5.349   4.546   3.924
 4960SOL    HW115779   5.402   4.475   3.877
 4960SOL    HW215780   5.277   4.502   3.978
 4961SOL     OW15781   3.156   2.146   1.566
 4961SOL    HW115782   3.160   2.051   1.534
 4961SOL    HW215783   3.161   2.147   1.666
 4962SOL     OW15784   0.879   3.294   0.522
 4962SOL    HW115785   0.923   3.226   0.580
 4962SOL    HW215786   0.947   3.335   0.460
 4963SOL     OW15787   0.937   3.531   6.020
 4963SOL    HW115788   0.864   3.587   5.980
 4963SOL    HW215789   1.020   3.541   5.966
 4964SOL     OW15790   2.474   6.176   4.660
 4964SOL    HW115791   2.426   6.143   4.578
 4964SOL    HW215792   2.515   6.099   4.707
 4965SOL     OW15793   1.557   6.288   2.963
 4965SOL    HW115794   1.648   6.248   2.951
 4965SOL    HW215795   1.566   6.388   2.971
 4966SOL     OW15796   2.969   6.141   4.197
 4966SOL    HW115797   2.875   6.161   4.224
 4966SOL    HW215798   3.030   6.214   4.229
 4967SOL     OW15799   4.238   4.759   4.834
 4967SOL    HW115800   4.270   4.693   4.902
 4967SOL    HW215801   4.250   4.851   4.870
 4968SOL     OW15802   0.040   2.632   2.927
 4968SOL    HW115803   0.091   2.714   2.902
 4968SOL    HW215804   0.086   2.551   2.890
 4969SOL     OW15805   6.933   5.598   4.124
 4969SOL    HW115806   6.839   5.616   4.150
 4969SOL    HW215807   6.993   5.666   4.167
 4970SOL     OW15808   1.848   1.971   1.102
 4970SOL    HW115809   1.773   1.908   1.123
 4970SOL    HW215810   1.830   2.059   1.146
 4971SOL     OW15811   0.385   6.048   2.593
 4971SOL    HW115812   0.442   6.046   2.511
 4971SOL    HW215813   0.304   5.991   2.579
 4972SOL     OW15814   0.589   4.525   1.013
 4972SOL    HW115815   0.656   4.579   0.963
 4972SOL    HW215816   0.562   4.574   1.096
 4973SOL     OW15817   6.127   1.378   0.441
 4973SOL    HW115818   6.059   1.407   0.373
 4973SOL    HW215819   6.100   1.412   0.531
 4974SOL     OW15820   3.129   6.488   4.752
 4974SOL    HW115821   3.035   6.456   4.741
 4974SOL    HW215822   3.136   6.581   4.718
 4975SOL     OW15823   5.217   4.905   0.992
 4975SOL    HW115824   5.123   4.894   1.023
 4975SOL    HW215825   5.279   4.900   1.070
 4976SOL     OW15826   1.585   6.808   3.716
 4976SOL    HW115827   1.495   6.849   3.725
 4976SOL    HW215828   1.590   6.757   3.630
 4977SOL     OW15829   1.542   3.805   5.887
 4977SOL    HW115830   1.568   3.807   5.791
 4977SOL    HW215831   1.444   3.787   5.895
 4978SOL     OW15832   6.039   4.476   4.699
 4978SOL    HW115833   6.076   4.492   4.608
 4978SOL    HW215834   5.942   4.451   4.692
 4979SOL     OW15835   2.673   0.112   6.195
 4979SOL    HW115836   2.731   0.087   6.272
 4979SOL    HW215837   2.577   0.102   6.221
 4980SOL     OW15838   5.334   3.038   4.055
 4980SOL    HW115839   5.307   3.134   4.050
 4980SOL    HW215840   5.299   2.997   4.139
 4981SOL     OW15841   3.040   4.838   2.582
 4981SOL    HW115842   2.982   4.775   2.634
 4981SOL    HW215843   3.120   4.862   2.637
 4982SOL     OW15844   3.856   2.520   5.696
 4982SOL    HW115845   3.909   2.516   5.781
 4982SOL    HW215846   3.838   2.427   5.664
 4983SOL     OW15847   5.899   4.737   3.045
 4983SOL    HW115848   5.986   4.787   3.052
 4983SOL    HW215849   5.834   4.791   2.992
 4984SOL     OW15850   4.902   3.354   3.918
 4984SOL    HW115851   4.839   3.406   3.860
 4984SOL    HW215852   4.884   3.374   4.014
 4985SOL     OW15853   5.610   0.729   2.197
 4985SOL    HW115854   5.546   0.759   2.127
 4985SOL    HW215855   5.578   0.758   2.287
 4986SOL     OW15856   0.722   4.912   1.218
 4986SOL    HW115857   0.665   4.991   1.240
 4986SOL    HW215858   0.754   4.919   1.123
 4987SOL     OW15859   1.015   1.309   2.270
 4987SOL    HW115860   0.995   1.285   2.175
 4987SOL    HW215861   0.970   1.244   2.331
 4988SOL     OW15862   6.270   5.737   4.252
 4988SOL    HW115863   6.187   5.792   4.251
 4988SOL    HW215864   6.336   5.776   4.187
 4989SOL     OW15865   5.476   0.211   3.919
 4989SOL    HW115866   5.423   0.131   3.889
 4989SOL    HW215867   5.416   0.273   3.970
 4990SOL     OW15868   4.614   1.987   5.540
 4990SOL    HW115869   4.656   1.942   5.462
 4990SOL    HW215870   4.685   2.028   5.598
 4991SOL     OW15871   1.185   4.925   6.015
 4991SOL    HW115872   1.202   5.003   6.076
 4991SOL    HW215873   1.099   4.880   6.039
 4992SOL     OW15874   1.056   3.622   4.203
 4992SOL    HW115875   1.091   3.671   4.123
 4992SOL    HW215876   1.041   3.688   4.277
 4993SOL     OW15877   2.609   5.997   3.913
 4993SOL    HW115878   2.592   6.082   3.863
 4993SOL    HW215879   2.702   5.998   3.948
 4994SOL     OW15880   3.766   5.130   5.622
 4994SOL    HW115881   3.816   5.197   5.567
 4994SOL    HW215882   3.797   5.037   5.598
 4995SOL     OW15883   6.880   0.589   5.842
 4995SOL    HW115884   6.946   0.643   5.893
 4995SOL    HW215885   6.921   0.558   5.756
 4996SOL     OW15886   0.168   1.509   3.849
 4996SOL    HW115887   0.123   1.420   3.851
 4996SOL    HW215888   0.152   1.552   3.760
 4997SOL     OW15889   3.907   1.751   0.981
 4997SOL    HW115890   3.857   1.694   1.047
 4997SOL    HW215891   3.893   1.847   1.003
 4998SOL     OW15892   0.926   3.481   3.438
 4998SOL    HW115893   1.009   3.507   3.488
 4998SOL    HW215894   0.883   3.403   3.482
 4999SOL     OW15895   0.817   2.583   4.246
 4999SOL    HW115896   0.772   2.533   4.172
 4999SOL    HW215897   0.915   2.591   4.227
 5000SOL     OW15898   2.966   5.963   2.564
 5000SOL    HW115899   2.921   5.924   2.645
 5000SOL    HW215900   3.059   5.927   2.557
 5001SOL     OW15901   0.713   6.337   3.418
 5001SOL    HW115902   0.662   6.263   3.461
 5001SOL    HW215903   0.754   6.395   3.489
 5002SOL     OW15904   1.725   4.618   4.058
 5002SOL    HW115905   1.674   4.550   4.005
 5002SOL    HW215906   1.664   4.661   4.124
 5003SOL     OW15907   4.110   0.460   3.462
 5003SOL    HW115908   4.043   0.523   3.423
 5003SOL    HW215909   4.078   0.366   3.450
 5004SOL     OW15910   3.391   5.253   6.918
 5004SOL    HW115911   3.360   5.348   6.910
 5004SOL    HW215912   3.357   5.200   6.841
 5005SOL     OW15913   2.690   2.794   6.695
 5005SOL    HW115914   2.626   2.857   6.651
 5005SOL    HW215915   2.654   2.766   6.784
 5006SOL     OW15916   5.087   1.694   2.099
 5006SOL    HW115917   5.011   1.669   2.039
 5006SOL    HW215918   5.113   1.789   2.082
 5007SOL     OW15919   5.721   6.163   1.699
 5007SOL    HW115920   5.636   6.192   1.655
 5007SOL    HW215921   5.699   6.100   1.773
 5008SOL     OW15922   5.548   0.537   2.705
 5008SOL    HW115923   5.475   0.502   2.764
 5008SOL    HW215924   5.563   0.634   2.724
 5009SOL     OW15925   6.616   2.147   0.267
 5009SOL    HW115926   6.541   2.091   0.233
 5009SOL    HW215927   6.636   2.122   0.362
 5010SOL     OW15928   3.542   3.854   0.869
 5010SOL    HW115929   3.549   3.782   0.938
 5010SOL    HW215930   3.629   3.904   0.864
 5011SOL     OW15931   1.897   3.056   6.553
 5011SOL    HW115932   1.803   3.083   6.532
 5011SOL    HW215933   1.904   2.956   6.550
 5012SOL     OW15934   6.125   1.589   6.188
 5012SOL    HW115935   6.165   1.578   6.279
 5012SOL    HW215936   6.048   1.526   6.177
 5013SOL     OW15937   5.999   0.040   5.946
 5013SOL    HW115938   6.000   0.127   5.996
 5013SOL    HW215939   5.960   6.984   6.005
 5014SOL     OW15940   6.082   3.235   2.016
 5014SOL    HW115941   6.015   3.310   2.012
 5014SOL    HW215942   6.035   3.149   1.995
 5015SOL     OW15943   5.880   6.526   4.056
 5015SOL    HW115944   5.872   6.625   4.066
 5015SOL    HW215945   5.876   6.483   4.146
 5016SOL     OW15946   1.936   3.509   5.393
 5016SOL    HW115947   2.019   3.458   5.372
 5016SOL    HW215948   1.956   3.580   5.460
 5017SOL     OW15949   0.458   3.242   1.992
 5017SOL    HW115950   0.386   3.220   2.057
 5017SOL    HW215951   0.537   3.183   2.007
 5018SOL     OW15952   1.049   0.205   0.114
 5018SOL    HW115953   1.126   0.263   0.141
 5018SOL    HW215954   0.970   0.263   0.092
 5019SOL     OW15955   1.099   5.052   4.627
 5019SOL    HW115956   1.172   4.987   4.648
 5019SOL    HW215957   1.020   5.003   4.589
 5020SOL     OW15958   2.639   0.268   4.843
 5020SOL    HW115959   2.716   0.302   4.898
 5020SOL    HW215960   2.571   0.229   4.904
 5021SOL     OW15961   1.907   0.769   0.465
 5021SOL    HW115962   1.913   0.786   0.563
 5021SOL    HW215963   1.983   0.816   0.419
 5022SOL     OW15964   6.815   2.942   1.492
 5022SOL    HW115965   6.795   2.844   1.493
 5022SOL    HW215966   6.821   2.976   1.586
 5023SOL     OW15967   0.237   4.290   2.466
 5023SOL    HW115968   0.205   4.385   2.469
 5023SOL    HW215969   0.330   4.288   2.430
 5024SOL     OW15970   4.413   3.968   1.211
 5024SOL    HW115971   4.328   3.967   1.264
 5024SOL    HW215972   4.455   4.059   1.216
 5025SOL     OW15973   4.705   1.503   4.504
 5025SOL    HW115974   4.656   1.425   4.464
 5025SOL    HW215975   4.774   1.535   4.439
 5026SOL     OW15976   4.543   6.701   4.603
 5026SOL    HW115977   4.602   6.778   4.626
 5026SOL    HW215978   4.596   6.633   4.551
 5027SOL     OW15979   4.896   6.393   0.903
 5027SOL    HW115980   4.992   6.365   0.909
 5027SOL    HW215981   4.870   6.404   0.807
 5028SOL     OW15982   6.220   1.681   2.511
 5028SOL    HW115983   6.237   1.586   2.487
 5028SOL    HW215984   6.257   1.741   2.440
 5029SOL     OW15985   5.792   1.684   2.811
 5029SOL    HW115986   5.813   1.780   2.796
 5029SOL    HW215987   5.874   1.629   2.794
 5030SOL     OW15988   6.896   4.298   6.759
 5030SOL    HW115989   6.941   4.371   6.811
 5030SOL    HW215990   6.879   4.329   6.666
 5031SOL     OW15991   6.519   7.003   6.313
 5031SOL    HW115992   6.551   0.082   6.307
 5031SOL    HW215993   6.420   7.002   6.328
 5032SOL     OW15994   3.090   3.356   5.666
 5032SOL    HW115995   3.137   3.361   5.578
 5032SOL    HW215996   3.029   3.434   5.676
 5033SOL     OW15997   2.093   0.435   6.579
 5033SOL    HW115998   2.074   0.394   6.489
 5033SOL    HW215999   2.060   0.529   6.579
 5034SOL     OW16000   4.907   6.536   4.744
 5034SOL    HW116001   4.917   6.624   4.790
 5034SOL    HW216002   4.846   6.546   4.666
 5035SOL     OW16003   2.166   3.565   3.944
 5035SOL    HW116004   2.242   3.504   3.921
 5035SOL    HW216005   2.159   3.636   3.874
 5036SOL     OW16006   0.334   1.951   4.939
 5036SOL    HW116007   0.386   1.982   5.018
 5036SOL    HW216008   0.276   2.026   4.905
 5037SOL     OW16009   4.165   4.002   1.321
 5037SOL    HW116010   4.126   4.086   1.359
 5037SOL    HW216011   4.165   3.931   1.392
 5038SOL     OW16012   4.056   3.829   3.739
 5038SOL    HW116013   4.110   3.752   3.773
 5038SOL    HW216014   4.000   3.798   3.662
 5039SOL     OW16015   1.008   3.514   6.311
 5039SOL    HW116016   0.956   3.477   6.387
 5039SOL    HW216017   0.947   3.528   6.233
 5040SOL     OW16018   0.231   0.802   5.627
 5040SOL    HW116019   0.225   0.900   5.606
 5040SOL    HW216020   0.233   0.750   5.541
 5041SOL     OW16021   6.961   2.861   1.883
 5041SOL    HW116022   6.933   2.768   1.858
 5041SOL    HW216023   6.910   2.926   1.828
 5042SOL     OW16024   0.700   2.615   6.179
 5042SOL    HW116025   0.706   2.622   6.278
 5042SOL    HW216026   0.615   2.656   6.147
 5043SOL     OW16027   4.388   6.675   1.541
 5043SOL    HW116028   4.305   6.723   1.513
 5043SOL    HW216029   4.463   6.698   1.478
 5044SOL     OW16030   6.733   4.492   0.597
 5044SOL    HW116031   6.795   4.494   0.675
 5044SOL    HW216032   6.654   4.434   0.619
 5045SOL     OW16033   6.507   3.302   6.724
 5045SOL    HW116034   6.554   3.335   6.642
 5045SOL    HW216035   6.418   3.264   6.698
 5046SOL     OW16036   3.427   3.429   2.975
 5046SOL    HW116037   3.355   3.490   3.007
 5046SOL    HW216038   3.437   3.353   3.038
 5047SOL     OW16039   1.163   3.998   3.761
 5047SOL    HW116040   1.104   3.927   3.800
 5047SOL    HW216041   1.106   4.070   3.720
 5048SOL     OW16042   1.926   1.127   6.238
 5048SOL    HW116043   2.008   1.184   6.247
 5048SOL    HW216044   1.902   1.117   6.142
 5049SOL     OW16045   4.907   1.818   0.064
 5049SOL    HW116046   4.902   1.723   0.094
 5049SOL    HW216047   4.847   1.874   0.121
 5050SOL     OW16048   1.527   0.051   1.056
 5050SOL    HW116049   1.603   0.111   1.082
 5050SOL    HW216050   1.553   7.014   0.974
 5051SOL     OW16051   4.541   5.354   1.264
 5051SOL    HW116052   4.484   5.376   1.343
 5051SOL    HW216053   4.601   5.278   1.287
 5052SOL     OW16054   2.676   1.332   5.187
 5052SOL    HW116055   2.599   1.388   5.217
 5052SOL    HW216056   2.642   1.256   5.132
 5053SOL     OW16057   0.305   0.451   1.967
 5053SOL    HW116058   0.296   0.518   1.894
 5053SOL    HW216059   0.348   0.368   1.931
 5054SOL     OW16060   4.050   5.241   4.004
 5054SOL    HW116061   3.991   5.314   3.970
 5054SOL    HW216062   4.035   5.230   4.102
 5055SOL     OW16063   0.107   3.662   6.400
 5055SOL    HW116064   0.113   3.718   6.483
 5055SOL    HW216065   0.144   3.571   6.419
 5056SOL     OW16066   5.405   4.142   4.156
 5056SOL    HW116067   5.454   4.185   4.080
 5056SOL    HW216068   5.318   4.190   4.170
 5057SOL     OW16069   0.966   6.025   2.231
 5057SOL    HW116070   0.939   5.933   2.256
 5057SOL    HW216071   0.931   6.047   2.140
 5058SOL     OW16072   2.771   5.703   5.463
 5058SOL    HW116073   2.719   5.620   5.486
 5058SOL    HW216074   2.869   5.680   5.458
 5059SOL     OW16075   0.252   0.330   2.242
 5059SOL    HW116076   0.286   0.379   2.161
 5059SOL    HW216077   0.196   0.252   2.212
 5060SOL     OW16078   6.423   1.898   5.780
 5060SOL    HW116079   6.344   1.899   5.842
 5060SOL    HW216080   6.412   1.971   5.712
 5061SOL     OW16081   5.626   4.554   0.355
 5061SOL    HW116082   5.560   4.555   0.280
 5061SOL    HW216083   5.580   4.579   0.440
 5062SOL     OW16084   0.151   0.328   1.253
 5062SOL    HW116085   0.052   0.324   1.261
 5062SOL    HW216086   0.192   0.311   1.343
 5063SOL     OW16087   1.425   6.173   1.221
 5063SOL    HW116088   1.408   6.081   1.256
 5063SOL    HW216089   1.403   6.240   1.291
 5064SOL     OW16090   4.983   3.721   0.217
 5064SOL    HW116091   4.912   3.781   0.253
 5064SOL    HW216092   4.985   3.729   0.118
 5065SOL     OW16093   2.450   5.956   5.438
 5065SOL    HW116094   2.472   5.941   5.342
 5065SOL    HW216095   2.535   5.968   5.490
 5066SOL     OW16096   4.710   5.142   1.311
 5066SOL    HW116097   4.746   5.061   1.265
 5066SOL    HW216098   4.771   5.168   1.385
 5067SOL     OW16099   4.970   1.163   6.781
 5067SOL    HW116100   4.965   1.139   6.684
 5067SOL    HW216101   5.024   1.095   6.830
 5068SOL     OW16102   2.791   5.244   1.796
 5068SOL    HW116103   2.709   5.241   1.739
 5068SOL    HW216104   2.870   5.212   1.743
 5069SOL     OW16105   0.247   4.875   3.034
 5069SOL    HW116106   0.190   4.920   3.102
 5069SOL    HW216107   0.296   4.799   3.077
 5070SOL     OW16108   4.988   3.225   4.257
 5070SOL    HW116109   5.024   3.191   4.344
 5070SOL    HW216110   4.978   3.150   4.193
 5071SOL     OW16111   4.202   0.895   6.607
 5071SOL    HW116112   4.280   0.957   6.591
 5071SOL    HW216113   4.232   0.800   6.595
 5072SOL     OW16114   1.286   3.988   0.842
 5072SOL    HW116115   1.200   4.012   0.798
 5072SOL    HW216116   1.310   4.059   0.908
 5073SOL     OW16117   4.210   1.643   3.704
 5073SOL    HW116118   4.128   1.591   3.730
 5073SOL    HW216119   4.213   1.729   3.756
 5074SOL     OW16120   2.941   4.180   5.712
 5074SOL    HW116121   2.963   4.271   5.748
 5074SOL    HW216122   2.935   4.115   5.788
 5075SOL     OW16123   6.685   6.173   4.170
 5075SOL    HW116124   6.620   6.209   4.103
 5075SOL    HW216125   6.696   6.238   4.245
 5076SOL     OW16126   3.333   0.141   1.164
 5076SOL    HW116127   3.348   0.192   1.080
 5076SOL    HW216128   3.411   0.080   1.180
 5077SOL     OW16129   0.644   2.292   2.226
 5077SOL    HW116130   0.573   2.282   2.296
 5077SOL    HW216131   0.711   2.360   2.257
 5078SOL     OW16132   1.207   1.059   3.870
 5078SOL    HW116133   1.162   0.976   3.903
 5078SOL    HW216134   1.220   1.123   3.946
 5079SOL     OW16135   4.226   5.013   4.948
 5079SOL    HW116136   4.189   5.104   4.934
 5079SOL    HW216137   4.165   4.960   5.007
 5080SOL     OW16138   5.973   6.621   6.154
 5080SOL    HW116139   5.937   6.543   6.207
 5080SOL    HW216140   5.977   6.596   6.058
 5081SOL     OW16141   3.210   3.537   3.120
 5081SOL    HW116142   3.243   3.630   3.104
 5081SOL    HW216143   3.118   3.528   3.082
 5082SOL     OW16144   6.451   6.690   5.361
 5082SOL    HW116145   6.429   6.611   5.418
 5082SOL    HW216146   6.387   6.694   5.284
 5083SOL     OW16147   1.537   5.871   1.565
 5083SOL    HW116148   1.623   5.866   1.513
 5083SOL    HW216149   1.549   5.827   1.654
 5084SOL     OW16150   2.225   6.206   2.931
 5084SOL    HW116151   2.215   6.115   2.972
 5084SOL    HW216152   2.204   6.200   2.833
 5085SOL     OW16153   6.379   3.332   5.887
 5085SOL    HW116154   6.304   3.296   5.831
 5085SOL    HW216155   6.425   3.405   5.836
 5086SOL     OW16156   6.587   5.241   3.556
 5086SOL    HW116157   6.502   5.290   3.578
 5086SOL    HW216158   6.612   5.259   3.461
 5087SOL     OW16159   0.395   5.979   5.389
 5087SOL    HW116160   0.493   5.966   5.405
 5087SOL    HW216161   0.366   5.924   5.310
 5088SOL     OW16162   5.847   0.233   6.882
 5088SOL    HW116163   5.831   0.160   6.948
 5088SOL    HW216164   5.762   0.255   6.835
 5089SOL     OW16165   5.039   2.630   3.797
 5089SOL    HW116166   4.953   2.667   3.763
 5089SOL    HW216167   5.077   2.692   3.866
 5090SOL     OW16168   1.347   4.629   0.617
 5090SOL    HW116169   1.305   4.538   0.608
 5090SOL    HW216170   1.329   4.682   0.534
 5091SOL     OW16171   1.471   6.010   2.952
 5091SOL    HW116172   1.536   6.065   2.899
 5091SOL    HW216173   1.410   6.070   3.003
 5092SOL     OW16174   3.768   2.709   1.652
 5092SOL    HW116175   3.712   2.777   1.604
 5092SOL    HW216176   3.824   2.754   1.721
 5093SOL     OW16177   0.843   2.235   0.933
 5093SOL    HW116178   0.864   2.165   0.864
 5093SOL    HW216179   0.884   2.210   1.020
 5094SOL     OW16180   6.507   0.422   6.513
 5094SOL    HW116181   6.434   0.354   6.515
 5094SOL    HW216182   6.520   0.454   6.419
 5095SOL     OW16183   3.179   0.212   5.124
 5095SOL    HW116184   3.096   0.191   5.073
 5095SOL    HW216185   3.258   0.174   5.076
 5096SOL     OW16186   4.371   5.192   2.534
 5096SOL    HW116187   4.431   5.224   2.460
 5096SOL    HW216188   4.301   5.132   2.496
 5097SOL     OW16189   0.670   0.797   6.854
 5097SOL    HW116190   0.675   0.771   6.951
 5097SOL    HW216191   0.722   0.732   6.799
 5098SOL     OW16192   6.698   2.733   2.476
 5098SOL    HW116193   6.694   2.703   2.381
 5098SOL    HW216194   6.776   2.690   2.522
 5099SOL     OW16195   0.992   6.600   4.573
 5099SOL    HW116196   1.067   6.633   4.630
 5099SOL    HW216197   0.998   6.641   4.482
 5100SOL     OW16198   5.235   6.328   6.546
 5100SOL    HW116199   5.219   6.246   6.491
 5100SOL    HW216200   5.147   6.367   6.574
 5101SOL     OW16201   3.951   5.975   0.354
 5101SOL    HW116202   4.007   6.037   0.300
 5101SOL    HW216203   3.865   5.957   0.307
 5102SOL     OW16204   3.649   5.935   4.766
 5102SOL    HW116205   3.713   5.879   4.818
 5102SOL    HW216206   3.556   5.898   4.775
 5103SOL     OW16207   1.279   0.599   4.449
 5103SOL    HW116208   1.341   0.566   4.378
 5103SOL    HW216209   1.258   0.696   4.432
 5104SOL     OW16210   1.280   6.687   0.972
 5104SOL    HW116211   1.220   6.704   1.050
 5104SOL    HW216212   1.224   6.671   0.890
 5105SOL     OW16213   2.366   3.148   6.466
 5105SOL    HW116214   2.404   3.184   6.381
 5105SOL    HW216215   2.382   3.213   6.540
 5106SOL     OW16216   3.257   0.474   2.267
 5106SOL    HW116217   3.161   0.497   2.250
 5106SOL    HW216218   3.270   0.457   2.365
 5107SOL     OW16219   1.278   0.138   6.050
 5107SOL    HW116220   1.354   0.073   6.052
 5107SOL    HW216221   1.214   0.112   5.978
 5108SOL     OW16222   2.920   3.669   3.499
 5108SOL    HW116223   2.896   3.573   3.517
 5108SOL    HW216224   2.890   3.694   3.407
 5109SOL     OW16225   0.202   1.297   0.878
 5109SOL    HW116226   0.182   1.228   0.947
 5109SOL    HW216227   0.118   1.348   0.856
 5110SOL     OW16228   1.695   6.079   5.579
 5110SOL    HW116229   1.704   6.013   5.504
 5110SOL    HW216230   1.786   6.108   5.608
 5111SOL     OW16231   1.766   1.222   6.986
 5111SOL    HW116232   1.860   1.238   6.956
 5111SOL    HW216233   1.707   1.214   6.906
 5112SOL     OW16234   0.558   0.026   3.515
 5112SOL    HW116235   0.554   6.952   3.469
 5112SOL    HW216236   0.494   0.089   3.471
 5113SOL     OW16237   0.726   0.038   6.740
 5113SOL    HW116238   0.800   0.068   6.680
 5113SOL    HW216239   0.764   6.996   6.813
 5114SOL     OW16240   3.746   5.358   6.923
 5114SOL    HW116241   3.702   5.405   7.000
 5114SOL    HW216242   3.769   5.424   6.852
 5115SOL     OW16243   2.026   4.102   5.072
 5115SOL    HW116244   1.955   4.032   5.067
 5115SOL    HW216245   2.110   4.068   5.031
 5116SOL     OW16246   6.851   3.398   1.305
 5116SOL    HW116247   6.865   3.398   1.404
 5116SOL    HW216248   6.939   3.384   1.259
 5117SOL     OW16249   2.338   4.633   3.856
 5117SOL    HW116250   2.347   4.553   3.796
 5117SOL    HW216251   2.295   4.604   3.942
 5118SOL     OW16252   4.653   6.825   1.543
 5118SOL    HW116253   4.557   6.844   1.522
 5118SOL    HW216254   4.709   6.904   1.518
 5119SOL     OW16255   6.448   0.003   2.766
 5119SOL    HW116256   6.468   6.976   2.854
 5119SOL    HW216257   6.533   0.039   2.726
 5120SOL     OW16258   4.122   1.324   2.846
 5120SOL    HW116259   4.093   1.275   2.928
 5120SOL    HW216260   4.080   1.283   2.765
 5121SOL     OW16261   1.234   3.630   4.529
 5121SOL    HW116262   1.198   3.658   4.618
 5121SOL    HW216263   1.192   3.544   4.502
 5122SOL     OW16264   2.254   5.802   3.217
 5122SOL    HW116265   2.196   5.727   3.248
 5122SOL    HW216266   2.199   5.884   3.206
 5123SOL     OW16267   6.126   4.255   1.839
 5123SOL    HW116268   6.190   4.204   1.783
 5123SOL    HW216269   6.034   4.218   1.826
 5124SOL     OW16270   2.950   6.011   0.482
 5124SOL    HW116271   2.959   5.924   0.531
 5124SOL    HW216272   2.858   6.019   0.445
 5125SOL     OW16273   6.642   2.175   5.792
 5125SOL    HW116274   6.618   2.165   5.888
 5125SOL    HW216275   6.728   2.128   5.773
 5126SOL     OW16276   4.492   2.751   6.438
 5126SOL    HW116277   4.411   2.776   6.492
 5126SOL    HW216278   4.568   2.732   6.500
 5127SOL     OW16279   5.345   3.139   6.735
 5127SOL    HW116280   5.371   3.236   6.742
 5127SOL    HW216281   5.308   3.108   6.823
 5128SOL     OW16282   0.297   0.097   0.134
 5128SOL    HW116283   0.388   0.082   0.097
 5128SOL    HW216284   0.241   0.015   0.119
 5129SOL     OW16285   4.285   2.320   2.404
 5129SOL    HW116286   4.294   2.293   2.500
 5129SOL    HW216287   4.365   2.373   2.377
 5130SOL     OW16288   0.865   6.597   5.228
 5130SOL    HW116289   0.901   6.553   5.311
 5130SOL    HW216290   0.765   6.589   5.228
 5131SOL     OW16291   3.716   4.882   3.659
 5131SOL    HW116292   3.721   4.936   3.743
 5131SOL    HW216293   3.802   4.832   3.646
 5132SOL     OW16294   3.855   1.557   6.769
 5132SOL    HW116295   3.890   1.581   6.679
 5132SOL    HW216296   3.841   1.458   6.775
 5133SOL     OW16297   5.031   4.726   0.072
 5133SOL    HW116298   5.079   4.793   0.016
 5133SOL    HW216299   4.936   4.755   0.084
 5134SOL     OW16300   5.825   6.028   0.528
 5134SOL    HW116301   5.734   6.020   0.486
 5134SOL    HW216302   5.842   6.123   0.553
 5135SOL     OW16303   0.036   2.781   2.567
 5135SOL    HW116304   6.974   2.744   2.619
 5135SOL    HW216305   0.059   2.872   2.602
 5136SOL     OW16306   1.025   1.448   5.790
 5136SOL    HW116307   1.025   1.357   5.750
 5136SOL    HW216308   0.951   1.502   5.751
 5137SOL     OW16309   5.478   0.313   3.410
 5137SOL    HW116310   5.445   0.369   3.486
 5137SOL    HW216311   5.401   0.279   3.357
 5138SOL     OW16312   3.021   3.117   2.741
 5138SOL    HW116313   3.110   3.075   2.760
 5138SOL    HW216314   2.989   3.089   2.650
 5139SOL     OW16315   2.917   0.497   5.954
 5139SOL    HW116316   2.824   0.484   5.987
 5139SOL    HW216317   2.918   0.571   5.887
 5140SOL     OW16318   3.343   3.137   6.223
 5140SOL    HW116319   3.323   3.169   6.316
 5140SOL    HW216320   3.365   3.040   6.225
 5141SOL     OW16321   0.020   3.006   1.339
 5141SOL    HW116322   0.022   2.962   1.249
 5141SOL    HW216323   6.954   2.976   1.389
 5142SOL     OW16324   0.518   7.013   2.371
 5142SOL    HW116325   0.526   0.043   2.282
 5142SOL    HW216326   0.460   6.932   2.363
 5143SOL     OW16327   0.176   6.414   2.926
 5143SOL    HW116328   0.267   6.453   2.918
 5143SOL    HW216329   0.180   6.331   2.982
 5144SOL     OW16330   2.282   2.879   5.273
 5144SOL    HW116331   2.280   2.811   5.199
 5144SOL    HW216332   2.334   2.959   5.243
 5145SOL     OW16333   2.562   5.494   6.037
 5145SOL    HW116334   2.501   5.572   6.048
 5145SOL    HW216335   2.551   5.455   5.945
 5146SOL     OW16336   5.688   6.179   6.722
 5146SOL    HW116337   5.708   6.242   6.797
 5146SOL    HW216338   5.589   6.163   6.718
 5147SOL     OW16339   4.804   2.068   3.470
 5147SOL    HW116340   4.780   2.127   3.547
 5147SOL    HW216341   4.780   1.973   3.491
 5148SOL     OW16342   0.336   0.564   6.694
 5148SOL    HW116343   0.379   0.634   6.636
 5148SOL    HW216344   0.245   0.596   6.723
 5149SOL     OW16345   3.892   5.582   4.189
 5149SOL    HW116346   3.820   5.649   4.206
 5149SOL    HW216347   3.980   5.619   4.218
 5150SOL     OW16348   6.202   6.814   3.501
 5150SOL    HW116349   6.162   6.876   3.569
 5150SOL    HW216350   6.302   6.827   3.500
 5151SOL     OW16351   5.564   6.086   2.148
 5151SOL    HW116352   5.501   6.016   2.180
 5151SOL    HW216353   5.652   6.075   2.194
 5152SOL     OW16354   2.185   1.717   0.189
 5152SOL    HW116355   2.177   1.620   0.164
 5152SOL    HW216356   2.097   1.762   0.174
 5153SOL     OW16357   1.072   1.898   0.601
 5153SOL    HW116358   1.023   1.907   0.514
 5153SOL    HW216359   1.149   1.835   0.589
 5154SOL     OW16360   0.343   2.883   1.089
 5154SOL    HW116361   0.438   2.850   1.086
 5154SOL    HW216362   0.301   2.858   1.176
 5155SOL     OW16363   1.809   1.494   0.043
 5155SOL    HW116364   1.751   1.519   0.121
 5155SOL    HW216365   1.787   1.401   0.013
 5156SOL     OW16366   6.124   6.106   5.601
 5156SOL    HW116367   6.144   6.149   5.513
 5156SOL    HW216368   6.086   6.015   5.586
 5157SOL     OW16369   3.354   0.198   1.439
 5157SOL    HW116370   3.295   0.187   1.359
 5157SOL    HW216371   3.301   0.233   1.515
 5158SOL     OW16372   1.432   2.280   2.203
 5158SOL    HW116373   1.502   2.313   2.266
 5158SOL    HW216374   1.458   2.304   2.109
 5159SOL     OW16375   5.976   3.240   5.822
 5159SOL    HW116376   5.974   3.168   5.753
 5159SOL    HW216377   6.017   3.322   5.784
 5160SOL     OW16378   6.351   6.585   3.259
 5160SOL    HW116379   6.279   6.545   3.316
 5160SOL    HW216380   6.403   6.511   3.216
 5161SOL     OW16381   1.256   2.724   6.920
 5161SOL    HW116382   1.298   2.709   7.009
 5161SOL    HW216383   1.156   2.725   6.929
 5162SOL     OW16384   7.007   0.123   4.775
 5162SOL    HW116385   0.042   0.177   4.707
 5162SOL    HW216386   0.001   0.165   4.865
 5163SOL     OW16387   3.402   0.468   2.003
 5163SOL    HW116388   3.342   0.477   2.082
 5163SOL    HW216389   3.429   0.558   1.971
 5164SOL     OW16390   2.959   3.900   0.559
 5164SOL    HW116391   3.053   3.923   0.532
 5164SOL    HW216392   2.934   3.952   0.640
 5165SOL     OW16393   1.424   4.266   5.679
 5165SOL    HW116394   1.433   4.356   5.637
 5165SOL    HW216395   1.475   4.199   5.625
 5166SOL     OW16396   0.817   4.375   0.530
 5166SOL    HW116397   0.815   4.334   0.622
 5166SOL    HW216398   0.837   4.304   0.463
 5167SOL     OW16399   5.583   3.051   5.358
 5167SOL    HW116400   5.559   2.988   5.433
 5167SOL    HW216401   5.504   3.063   5.299
 5168SOL     OW16402   4.283   2.192   2.954
 5168SOL    HW116403   4.307   2.189   3.051
 5168SOL    HW216404   4.328   2.117   2.906
 5169SOL     OW16405   5.020   5.716   4.483
 5169SOL    HW116406   4.979   5.656   4.552
 5169SOL    HW216407   4.978   5.696   4.394
 5170SOL     OW16408   2.178   4.022   6.255
 5170SOL    HW116409   2.112   4.080   6.206
 5170SOL    HW216410   2.200   4.065   6.343
 5171SOL     OW16411   1.901   6.691   5.938
 5171SOL    HW116412   1.997   6.695   5.909
 5171SOL    HW216413   1.897   6.661   6.033
 5172SOL     OW16414   5.735   5.734   5.452
 5172SOL    HW116415   5.693   5.736   5.362
 5172SOL    HW216416   5.664   5.732   5.522
 5173SOL     OW16417   4.415   5.436   5.417
 5173SOL    HW116418   4.316   5.429   5.432
 5173SOL    HW216419   4.436   5.414   5.322
 5174SOL     OW16420   2.335   6.890   3.332
 5174SOL    HW116421   2.354   6.822   3.261
 5174SOL    HW216422   2.251   6.865   3.380
 5175SOL     OW16423   2.889   3.052   6.715
 5175SOL    HW116424   2.851   3.144   6.702
 5175SOL    HW216425   2.818   2.984   6.701
 5176SOL     OW16426   6.490   5.845   6.778
 5176SOL    HW116427   6.412   5.793   6.813
 5176SOL    HW216428   6.485   5.939   6.813
 5177SOL     OW16429   6.259   6.834   0.569
 5177SOL    HW116430   6.252   6.750   0.623
 5177SOL    HW216431   6.356   6.856   0.554
 5178SOL     OW16432   0.812   4.482   1.376
 5178SOL    HW116433   0.907   4.461   1.397
 5178SOL    HW216434   0.808   4.551   1.304
 5179SOL     OW16435   4.761   5.842   3.358
 5179SOL    HW116436   4.730   5.775   3.427
 5179SOL    HW216437   4.691   5.852   3.288
 5180SOL     OW16438   1.753   4.429   2.335
 5180SOL    HW116439   1.794   4.500   2.392
 5180SOL    HW216440   1.818   4.354   2.324
 5181SOL     OW16441   6.260   1.034   5.403
 5181SOL    HW116442   6.232   0.961   5.341
 5181SOL    HW216443   6.295   0.993   5.488
 5182SOL     OW16444   2.302   6.463   2.817
 5182SOL    HW116445   2.396   6.480   2.788
 5182SOL    HW216446   2.292   6.367   2.844
 5183SOL     OW16447   4.134   2.285   4.006
 5183SOL    HW116448   4.196   2.283   3.928
 5183SOL    HW216449   4.187   2.296   4.090
 5184SOL     OW16450   1.598   1.191   3.379
 5184SOL    HW116451   1.544   1.108   3.367
 5184SOL    HW216452   1.660   1.202   3.301
 5185SOL     OW16453   0.065   0.511   2.663
 5185SOL    HW116454   0.003   0.478   2.592
 5185SOL    HW216455   0.158   0.480   2.642
 5186SOL     OW16456   6.504   3.788   6.648
 5186SOL    HW116457   6.420   3.750   6.687
 5186SOL    HW216458   6.494   3.887   6.638
 5187SOL     OW16459   1.353   4.701   4.980
 5187SOL    HW116460   1.387   4.793   4.961
 5187SOL    HW216461   1.422   4.649   5.030
 5188SOL     OW16462   6.080   0.477   2.427
 5188SOL    HW116463   5.980   0.482   2.434
 5188SOL    HW216464   6.121   0.528   2.502
 5189SOL     OW16465   4.400   6.554   6.767
 5189SOL    HW116466   4.338   6.615   6.815
 5189SOL    HW216467   4.494   6.584   6.782
 5190SOL     OW16468   1.967   4.554   7.007
 5190SOL    HW116469   1.960   4.543   0.091
 5190SOL    HW216470   2.007   4.643   6.986
 5191SOL     OW16471   2.598   4.621   2.199
 5191SOL    HW116472   2.666   4.590   2.132
 5191SOL    HW216473   2.609   4.719   2.216
 5192SOL     OW16474   0.954   4.671   2.226
 5192SOL    HW116475   0.922   4.754   2.180
 5192SOL    HW216476   0.949   4.683   2.325
 5193SOL     OW16477   5.434   0.774   5.664
 5193SOL    HW116478   5.508   0.761   5.598
 5193SOL    HW216479   5.372   0.846   5.631
 5194SOL     OW16480   4.706   1.194   5.631
 5194SOL    HW116481   4.624   1.221   5.581
 5194SOL    HW216482   4.727   1.262   5.701
 5195SOL     OW16483   0.552   0.534   5.438
 5195SOL    HW116484   0.573   0.608   5.374
 5195SOL    HW216485   0.457   0.504   5.425
 5196SOL     OW16486   5.646   6.575   3.552
 5196SOL    HW116487   5.735   6.583   3.508
 5196SOL    HW216488   5.658   6.543   3.646
 5197SOL     OW16489   0.863   3.052   4.422
 5197SOL    HW116490   0.778   3.103   4.438
 5197SOL    HW216491   0.890   3.060   4.327
 5198SOL     OW16492   5.793   5.195   3.120
 5198SOL    HW116493   5.825   5.238   3.035
 5198SOL    HW216494   5.748   5.264   3.177
 5199SOL     OW16495   0.062   4.943   1.064
 5199SOL    HW116496   0.114   4.902   0.989
 5199SOL    HW216497   0.024   5.030   1.034
 5200SOL     OW16498   6.926   3.731   5.039
 5200SOL    HW116499   6.854   3.742   5.108
 5200SOL    HW216500   6.932   3.813   4.983
 5201SOL     OW16501   0.134   5.541   4.399
 5201SOL    HW116502   0.150   5.498   4.310
 5201SOL    HW216503   0.126   5.640   4.386
 5202SOL     OW16504   0.969   4.877   1.375
 5202SOL    HW116505   0.984   4.806   1.306
 5202SOL    HW216506   0.875   4.911   1.368
 5203SOL     OW16507   0.208   2.901   6.973
 5203SOL    HW116508   0.188   2.804   6.967
 5203SOL    HW216509   0.229   2.925   0.053
 5204SOL     OW16510   4.857   4.643   6.734
 5204SOL    HW116511   4.875   4.739   6.752
 5204SOL    HW216512   4.788   4.635   6.662
 5205SOL     OW16513   1.057   6.870   0.453
 5205SOL    HW116514   1.123   6.883   0.379
 5205SOL    HW216515   1.085   6.924   0.532
 5206SOL     OW16516   0.309   4.167   5.058
 5206SOL    HW116517   0.278   4.245   5.113
 5206SOL    HW216518   0.370   4.199   4.986
 5207SOL     OW16519   1.837   4.477   3.581
 5207SOL    HW116520   1.817   4.573   3.559
 5207SOL    HW216521   1.894   4.473   3.663
 5208SOL     OW16522   4.827   0.912   0.039
 5208SOL    HW116523   4.868   0.911   0.130
 5208SOL    HW216524   4.734   0.876   0.044
 5209SOL     OW16525   5.835   5.675   3.218
 5209SOL    HW116526   5.801   5.657   3.310
 5209SOL    HW216527   5.813   5.769   3.192
 5210SOL     OW16528   4.750   4.021   3.100
 5210SOL    HW116529   4.776   3.987   3.190
 5210SOL    HW216530   4.731   4.119   3.105
 5211SOL     OW16531   3.608   3.809   2.331
 5211SOL    HW116532   3.520   3.773   2.361
 5211SOL    HW216533   3.681   3.773   2.389
 5212SOL     OW16534   1.283   0.858   0.347
 5212SOL    HW116535   1.322   0.945   0.317
 5212SOL    HW216536   1.254   0.866   0.442
 5213SOL     OW16537   4.461   2.433   6.465
 5213SOL    HW116538   4.546   2.474   6.432
 5213SOL    HW216539   4.396   2.506   6.486
 5214SOL     OW16540   5.611   1.451   0.114
 5214SOL    HW116541   5.660   1.364   0.113
 5214SOL    HW216542   5.517   1.437   0.084
 5215SOL     OW16543   5.842   5.283   2.680
 5215SOL    HW116544   5.884   5.204   2.634
 5215SOL    HW216545   5.800   5.343   2.612
 5216SOL     OW16546   4.491   5.686   1.268
 5216SOL    HW116547   4.549   5.660   1.191
 5216SOL    HW216548   4.435   5.765   1.242
 5217SOL     OW16549   2.792   4.767   3.587
 5217SOL    HW116550   2.745   4.681   3.608
 5217SOL    HW216551   2.840   4.800   3.669
 5218SOL     OW16552   2.213   6.803   4.621
 5218SOL    HW116553   2.256   6.716   4.599
 5218SOL    HW216554   2.214   6.862   4.541
 5219SOL     OW16555   2.950   5.809   0.737
 5219SOL    HW116556   2.860   5.817   0.779
 5219SOL    HW216557   2.949   5.735   0.669
 5220SOL     OW16558   1.109   6.828   2.216
 5220SOL    HW116559   1.126   6.733   2.242
 5220SOL    HW216560   1.195   6.879   2.218
 5221SOL     OW16561   4.623   1.805   5.161
 5221SOL    HW116562   4.566   1.863   5.102
 5221SOL    HW216563   4.565   1.743   5.213
 5222SOL     OW16564   0.857   6.868   2.751
 5222SOL    HW116565   0.771   6.823   2.778
 5222SOL    HW216566   0.889   6.925   2.827
 5223SOL     OW16567   5.009   6.688   0.665
 5223SOL    HW116568   4.964   6.770   0.701
 5223SOL    HW216569   5.016   6.694   0.566
 5224SOL     OW16570   5.153   1.074   2.988
 5224SOL    HW116571   5.071   1.117   2.950
 5224SOL    HW216572   5.174   1.115   3.077
 5225SOL     OW16573   6.111   6.517   5.575
 5225SOL    HW116574   6.050   6.581   5.528
 5225SOL    HW216575   6.102   6.426   5.534
 5226SOL     OW16576   2.143   6.536   3.743
 5226SOL    HW116577   2.234   6.493   3.742
 5226SOL    HW216578   2.076   6.472   3.705
 5227SOL     OW16579   5.251   3.278   3.449
 5227SOL    HW116580   5.262   3.232   3.361
 5227SOL    HW216581   5.282   3.218   3.523
 5228SOL     OW16582   5.051   0.413   1.235
 5228SOL    HW116583   4.965   0.464   1.241
 5228SOL    HW216584   5.119   0.469   1.187
 5229SOL     OW16585   0.916   4.460   4.020
 5229SOL    HW116586   0.985   4.463   4.092
 5229SOL    HW216587   0.857   4.381   4.034
 5230SOL     OW16588   1.304   6.566   6.387
 5230SOL    HW116589   1.284   6.482   6.336
 5230SOL    HW216590   1.223   6.595   6.437
 5231SOL     OW16591   3.783   3.173   3.622
 5231SOL    HW116592   3.766   3.244   3.554
 5231SOL    HW216593   3.881   3.151   3.622
 5232SOL     OW16594   5.355   3.071   5.216
 5232SOL    HW116595   5.325   3.113   5.301
 5232SOL    HW216596   5.275   3.044   5.162
 5233SOL     OW16597   0.535   0.581   2.873
 5233SOL    HW116598   0.478   0.663   2.867
 5233SOL    HW216599   0.544   0.540   2.782
 5234SOL     OW16600   4.355   5.927   1.221
 5234SOL    HW116601   4.403   6.002   1.266
 5234SOL    HW216602   4.257   5.942   1.227
 5235SOL     OW16603   0.981   3.615   0.936
 5235SOL    HW116604   1.044   3.560   0.881
 5235SOL    HW216605   1.001   3.602   1.033
 5236SOL     OW16606   5.077   3.110   1.191
 5236SOL    HW116607   5.106   3.051   1.116
 5236SOL    HW216608   5.079   3.058   1.277
 5237SOL     OW16609   2.237   1.961   4.184
 5237SOL    HW116610   2.268   1.944   4.278
 5237SOL    HW216611   2.292   2.033   4.143
 5238SOL     OW16612   1.731   4.126   0.973
 5238SOL    HW116613   1.737   4.183   1.055
 5238SOL    HW216614   1.650   4.153   0.919
 5239SOL     OW16615   3.237   3.508   5.148
 5239SOL    HW116616   3.181   3.427   5.162
 5239SOL    HW216617   3.318   3.484   5.095
 5240SOL     OW16618   2.494   1.725   4.872
 5240SOL    HW116619   2.422   1.657   4.859
 5240SOL    HW216620   2.464   1.813   4.834
 5241SOL     OW16621   2.979   5.582   5.812
 5241SOL    HW116622   2.930   5.590   5.899
 5241SOL    HW216623   3.077   5.574   5.829
 5242SOL     OW16624   4.502   0.894   6.073
 5242SOL    HW116625   4.466   0.802   6.085
 5242SOL    HW216626   4.480   0.949   6.153
 5243SOL     OW16627   0.541   4.003   0.221
 5243SOL    HW116628   0.623   3.950   0.241
 5243SOL    HW216629   0.565   4.098   0.205
 5244SOL     OW16630   6.002   3.652   6.702
 5244SOL    HW116631   5.980   3.635   6.606
 5244SOL    HW216632   5.943   3.596   6.760
 5245SOL     OW16633   4.731   4.226   6.742
 5245SOL    HW116634   4.650   4.259   6.693
 5245SOL    HW216635   4.743   4.129   6.725
 5246SOL     OW16636   0.915   3.468   2.785
 5246SOL    HW116637   0.915   3.369   2.769
 5246SOL    HW216638   0.998   3.494   2.833
 5247SOL     OW16639   0.306   5.268   1.069
 5247SOL    HW116640   0.405   5.273   1.082
 5247SOL    HW216641   0.270   5.359   1.050
 5248SOL     OW16642   4.280   0.084   6.936
 5248SOL    HW116643   4.224   0.104   6.855
 5248SOL    HW216644   4.291   0.167   6.990
 5249SOL     OW16645   1.493   5.357   5.598
 5249SOL    HW116646   1.547   5.299   5.538
 5249SOL    HW216647   1.431   5.300   5.652
 5250SOL     OW16648   0.446   1.136   5.685
 5250SOL    HW116649   0.438   1.200   5.608
 5250SOL    HW216650   0.399   1.175   5.765
 5251SOL     OW16651   0.279   2.921   1.474
 5251SOL    HW116652   0.237   2.832   1.486
 5251SOL    HW216653   0.211   2.986   1.439
 5252SOL     OW16654   4.115   6.115   0.584
 5252SOL    HW116655   4.016   6.119   0.567
 5252SOL    HW216656   4.144   6.198   0.632
 5253SOL     OW16657   5.979   2.712   3.812
 5253SOL    HW116658   5.924   2.786   3.850
 5253SOL    HW216659   5.972   2.714   3.712
 5254SOL     OW16660   4.345   0.963   4.019
 5254SOL    HW116661   4.265   0.978   4.077
 5254SOL    HW216662   4.427   0.962   4.077
 5255SOL     OW16663   3.342   6.635   4.462
 5255SOL    HW116664   3.311   6.579   4.386
 5255SOL    HW216665   3.284   6.619   4.541
 5256SOL     OW16666   5.755   6.726   2.529
 5256SOL    HW116667   5.851   6.743   2.550
 5256SOL    HW216668   5.700   6.801   2.566
 5257SOL     OW16669   3.255   1.126   2.452
 5257SOL    HW116670   3.341   1.176   2.446
 5257SOL    HW216671   3.181   1.182   2.415
 5258SOL     OW16672   5.963   2.417   2.014
 5258SOL    HW116673   5.932   2.394   1.922
 5258SOL    HW216674   6.007   2.337   2.055
 5259SOL     OW16675   5.282   4.238   2.118
 5259SOL    HW116676   5.348   4.257   2.190
 5259SOL    HW216677   5.199   4.292   2.133
 5260SOL     OW16678   5.350   3.162   1.803
 5260SOL    HW116679   5.337   3.258   1.782
 5260SOL    HW216680   5.376   3.112   1.721
 5261SOL     OW16681   2.177   2.433   4.535
 5261SOL    HW116682   2.177   2.465   4.630
 5261SOL    HW216683   2.159   2.335   4.533
 5262SOL     OW16684   2.366   0.439   2.149
 5262SOL    HW116685   2.338   0.437   2.053
 5262SOL    HW216686   2.290   0.408   2.207
 5263SOL     OW16687   0.907   6.445   0.985
 5263SOL    HW116688   1.002   6.450   0.953
 5263SOL    HW216689   0.887   6.351   1.014
 5264SOL     OW16690   0.653   2.366   0.792
 5264SOL    HW116691   0.690   2.457   0.777
 5264SOL    HW216692   0.718   2.313   0.847
 5265SOL     OW16693   6.054   4.709   2.588
 5265SOL    HW116694   6.028   4.785   2.648
 5265SOL    HW216695   6.124   4.654   2.633
 5266SOL     OW16696   1.274   6.909   1.353
 5266SOL    HW116697   1.203   6.946   1.412
 5266SOL    HW216698   1.272   6.955   1.265
 5267SOL     OW16699   4.982   4.125   4.956
 5267SOL    HW116700   4.993   4.087   4.864
 5267SOL    HW216701   4.943   4.055   5.016
 5268SOL     OW16702   5.459   4.701   5.413
 5268SOL    HW116703   5.458   4.667   5.508
 5268SOL    HW216704   5.477   4.625   5.351
 5269SOL     OW16705   1.099   4.800   4.931
 5269SOL    HW116706   1.170   4.745   4.975
 5269SOL    HW216707   1.138   4.847   4.852
 5270SOL     OW16708   6.806   3.164   2.963
 5270SOL    HW116709   6.731   3.195   3.023
 5270SOL    HW216710   6.774   3.089   2.906
 5271SOL     OW16711   5.024   4.389   5.041
 5271SOL    HW116712   4.998   4.292   5.040
 5271SOL    HW216713   5.123   4.397   5.051
 5272SOL     OW16714   1.542   1.016   3.961
 5272SOL    HW116715   1.506   1.103   3.995
 5272SOL    HW216716   1.533   1.014   3.861
 5273SOL     OW16717   0.751   0.662   4.733
 5273SOL    HW116718   0.817   0.706   4.794
 5273SOL    HW216719   0.775   0.680   4.638
 5274SOL     OW16720   6.639   5.075   4.513
 5274SOL    HW116721   6.566   5.133   4.477
 5274SOL    HW216722   6.675   5.018   4.439
 5275SOL     OW16723   2.676   6.208   6.424
 5275SOL    HW116724   2.657   6.160   6.510
 5275SOL    HW216725   2.764   6.254   6.430
 5276SOL     OW16726   6.911   0.272   1.381
 5276SOL    HW116727   6.815   0.245   1.370
 5276SOL    HW216728   6.920   0.328   1.463
 5277SOL     OW16729   1.367   1.629   2.732
 5277SOL    HW116730   1.303   1.706   2.729
 5277SOL    HW216731   1.383   1.604   2.828
 5278SOL     OW16732   0.803   4.052   6.473
 5278SOL    HW116733   0.783   4.113   6.396
 5278SOL    HW216734   0.721   4.038   6.527
 5279SOL     OW16735   2.357   6.419   6.572
 5279SOL    HW116736   2.274   6.403   6.519
 5279SOL    HW216737   2.425   6.350   6.550
 5280SOL     OW16738   4.617   6.541   5.154
 5280SOL    HW116739   4.676   6.513   5.078
 5280SOL    HW216740   4.522   6.524   5.130
 5281SOL     OW16741   2.769   6.832   5.324
 5281SOL    HW116742   2.768   6.853   5.421
 5281SOL    HW216743   2.853   6.781   5.302
 5282SOL     OW16744   1.209   6.288   1.889
 5282SOL    HW116745   1.127   6.232   1.896
 5282SOL    HW216746   1.185   6.384   1.900
 5283SOL     OW16747   1.018   0.771   4.279
 5283SOL    HW116748   1.042   0.695   4.219
 5283SOL    HW216749   0.952   0.831   4.233
 5284SOL     OW16750   4.680   2.848   1.607
 5284SOL    HW116751   4.672   2.927   1.668
 5284SOL    HW216752   4.675   2.764   1.660
 5285SOL     OW16753   1.498   2.112   4.544
 5285SOL    HW116754   1.425   2.120   4.612
 5285SOL    HW216755   1.583   2.086   4.590
 5286SOL     OW16756   5.662   2.829   1.419
 5286SOL    HW116757   5.723   2.878   1.481
 5286SOL    HW216758   5.711   2.752   1.378
 5287SOL     OW16759   2.059   4.979   1.389
 5287SOL    HW116760   2.103   4.929   1.463
 5287SOL    HW216761   2.105   4.959   1.302
 5288SOL     OW16762   4.095   0.555   1.389
 5288SOL    HW116763   4.161   0.479   1.382
 5288SOL    HW216764   4.049   0.551   1.478
 5289SOL     OW16765   2.529   4.840   5.960
 5289SOL    HW116766   2.573   4.753   5.983
 5289SOL    HW216767   2.447   4.851   6.016
 5290SOL     OW16768   1.699   3.300   4.364
 5290SOL    HW116769   1.724   3.397   4.364
 5290SOL    HW216770   1.772   3.247   4.321
 5291SOL     OW16771   2.529   4.759   4.713
 5291SOL    HW116772   2.565   4.766   4.806
 5291SOL    HW216773   2.488   4.669   4.699
 5292SOL     OW16774   0.331   3.918   5.493
 5292SOL    HW116775   0.388   3.933   5.574
 5292SOL    HW216776   0.372   3.965   5.414
 5293SOL     OW16777   2.338   6.884   4.385
 5293SOL    HW116778   2.402   6.953   4.418
 5293SOL    HW216779   2.314   6.903   4.290
 5294SOL     OW16780   4.126   0.046   5.195
 5294SOL    HW116781   4.103   0.091   5.282
 5294SOL    HW216782   4.159   6.968   5.213
 5295SOL     OW16783   3.085   1.495   2.595
 5295SOL    HW116784   3.030   1.431   2.650
 5295SOL    HW216785   3.083   1.467   2.499
 5296SOL     OW16786   4.524   4.909   1.472
 5296SOL    HW116787   4.550   4.818   1.506
 5296SOL    HW216788   4.599   4.973   1.485
 5297SOL     OW16789   3.137   5.069   0.171
 5297SOL    HW116790   3.128   5.002   0.098
 5297SOL    HW216791   3.046   5.099   0.201
 5298SOL     OW16792   1.860   0.336   0.203
 5298SOL    HW116793   1.937   0.275   0.220
 5298SOL    HW216794   1.840   0.390   0.284
 5299SOL     OW16795   2.528   1.135   1.563
 5299SOL    HW116796   2.582   1.065   1.518
 5299SOL    HW216797   2.549   1.136   1.661
 5300SOL     OW16798   2.708   4.734   6.729
 5300SOL    HW116799   2.739   4.706   6.638
 5300SOL    HW216800   2.691   4.652   6.784
 5301SOL     OW16801   5.108   0.056   5.820
 5301SOL    HW116802   5.136   0.061   5.916
 5301SOL    HW216803   5.162   0.121   5.766
 5302SOL     OW16804   5.661   6.185   3.442
 5302SOL    HW116805   5.581   6.210   3.496
 5302SOL    HW216806   5.650   6.092   3.406
 5303SOL     OW16807   0.900   5.353   5.911
 5303SOL    HW116808   0.860   5.389   5.827
 5303SOL    HW216809   0.905   5.426   5.979
 5304SOL     OW16810   6.887   0.825   2.426
 5304SOL    HW116811   6.903   0.843   2.523
 5304SOL    HW216812   6.971   0.846   2.374
 5305SOL     OW16813   0.755   5.076   3.338
 5305SOL    HW116814   0.753   5.092   3.239
 5305SOL    HW216815   0.846   5.045   3.365
 5306SOL     OW16816   0.011   3.311   5.960
 5306SOL    HW116817   0.034   3.398   6.003
 5306SOL    HW216818   0.050   3.308   5.868
 5307SOL     OW16819   6.571   1.578   1.522
 5307SOL    HW116820   6.593   1.503   1.460
 5307SOL    HW216821   6.606   1.558   1.614
 5308SOL     OW16822   1.712   4.052   3.049
 5308SOL    HW116823   1.699   4.151   3.042
 5308SOL    HW216824   1.769   4.021   2.973
 5309SOL     OW16825   6.203   5.902   2.418
 5309SOL    HW116826   6.172   5.843   2.493
 5309SOL    HW216827   6.206   5.997   2.449
 5310SOL     OW16828   5.312   2.637   2.658
 5310SOL    HW116829   5.224   2.602   2.626
 5310SOL    HW216830   5.351   2.573   2.724
 5311SOL     OW16831   5.785   0.150   0.612
 5311SOL    HW116832   5.741   0.235   0.640
 5311SOL    HW216833   5.816   0.100   0.693
 5312SOL     OW16834   6.892   6.618   0.629
 5312SOL    HW116835   6.979   6.630   0.676
 5312SOL    HW216836   6.907   6.608   0.531
 5313SOL     OW16837   1.259   5.854   5.493
 5313SOL    HW116838   1.289   5.774   5.441
 5313SOL    HW216839   1.161   5.868   5.479
 5314SOL     OW16840   6.110   0.968   1.957
 5314SOL    HW116841   6.122   0.875   1.922
 5314SOL    HW216842   6.156   1.033   1.896
 5315SOL     OW16843   4.691   1.219   4.430
 5315SOL    HW116844   4.750   1.222   4.349
 5315SOL    HW216845   4.739   1.172   4.504
 5316SOL     OW16846   0.728   2.120   4.382
 5316SOL    HW116847   0.807   2.092   4.438
 5316SOL    HW216848   0.755   2.124   4.286
 5317SOL     OW16849   6.028   2.388   6.410
 5317SOL    HW116850   5.933   2.358   6.417
 5317SOL    HW216851   6.064   2.408   6.501
 5318SOL     OW16852   6.694   3.894   6.407
 5318SOL    HW116853   6.606   3.941   6.407
 5318SOL    HW216854   6.688   3.812   6.464
 5319SOL     OW16855   4.519   6.737   1.270
 5319SOL    HW116856   4.469   6.729   1.184
 5319SOL    HW216857   4.568   6.824   1.273
 5320SOL     OW16858   3.146   5.862   0.938
 5320SOL    HW116859   3.073   5.852   0.871
 5320SOL    HW216860   3.167   5.959   0.951
 5321SOL     OW16861   1.661   4.397   4.563
 5321SOL    HW116862   1.703   4.398   4.654
 5321SOL    HW216863   1.690   4.478   4.512
 5322SOL     OW16864   5.550   6.628   2.153
 5322SOL    HW116865   5.635   6.673   2.181
 5322SOL    HW216866   5.563   6.528   2.155
 5323SOL     OW16867   3.923   1.259   5.865
 5323SOL    HW116868   3.936   1.321   5.943
 5323SOL    HW216869   4.002   1.199   5.856
 5324SOL     OW16870   2.122   1.375   0.846
 5324SOL    HW116871   2.041   1.346   0.796
 5324SOL    HW216872   2.203   1.363   0.788
 5325SOL     OW16873   2.131   1.623   4.597
 5325SOL    HW116874   2.196   1.593   4.667
 5325SOL    HW216875   2.161   1.589   4.508
 5326SOL     OW16876   6.386   6.244   2.455
 5326SOL    HW116877   6.458   6.256   2.524
 5326SOL    HW216878   6.382   6.326   2.398
 5327SOL     OW16879   5.983   2.227   4.900
 5327SOL    HW116880   5.995   2.282   4.983
 5327SOL    HW216881   6.071   2.219   4.853
 5328SOL     OW16882   4.524   4.947   6.697
 5328SOL    HW116883   4.596   4.925   6.761
 5328SOL    HW216884   4.451   4.997   6.744
 5329SOL     OW16885   1.079   6.677   6.509
 5329SOL    HW116886   1.006   6.708   6.569
 5329SOL    HW216887   1.056   6.697   6.414
 5330SOL     OW16888   2.597   3.898   0.758
 5330SOL    HW116889   2.549   3.894   0.846
 5330SOL    HW216890   2.632   3.808   0.735
 5331SOL     OW16891   6.085   0.654   6.696
 5331SOL    HW116892   6.008   0.719   6.687
 5331SOL    HW216893   6.171   0.705   6.691
 5332SOL     OW16894   1.205   4.905   2.352
 5332SOL    HW116895   1.138   4.839   2.318
 5332SOL    HW216896   1.166   4.958   2.427
 5333SOL     OW16897   0.541   6.096   4.090
 5333SOL    HW116898   0.457   6.146   4.067
 5333SOL    HW216899   0.619   6.142   4.049
 5334SOL     OW16900   2.927   0.091   4.283
 5334SOL    HW116901   2.944   0.007   4.231
 5334SOL    HW216902   2.892   0.068   4.373
 5335SOL     OW16903   6.799   5.876   0.386
 5335SOL    HW116904   6.736   5.805   0.419
 5335SOL    HW216905   6.791   5.957   0.444
 5336SOL     OW16906   1.411   3.862   1.584
 5336SOL    HW116907   1.319   3.824   1.592
 5336SOL    HW216908   1.441   3.894   1.674
 5337SOL     OW16909   5.273   4.456   1.374
 5337SOL    HW116910   5.204   4.508   1.425
 5337SOL    HW216911   5.273   4.487   1.279
 5338SOL     OW16912   6.227   2.405   6.175
 5338SOL    HW116913   6.158   2.414   6.247
 5338SOL    HW216914   6.300   2.471   6.189
 5339SOL     OW16915   6.078   1.637   3.195
 5339SOL    HW116916   5.985   1.608   3.218
 5339SOL    HW216917   6.086   1.736   3.206
 5340SOL     OW16918   5.317   2.070   6.331
 5340SOL    HW116919   5.373   2.117   6.263
 5340SOL    HW216920   5.240   2.026   6.286
 5341SOL     OW16921   4.201   0.455   0.363
 5341SOL    HW116922   4.236   0.522   0.298
 5341SOL    HW216923   4.273   0.432   0.429
 5342SOL     OW16924   3.269   0.827   5.529
 5342SOL    HW116925   3.170   0.812   5.521
 5342SOL    HW216926   3.318   0.745   5.499
 5343SOL     OW16927   3.773   3.764   2.538
 5343SOL    HW116928   3.868   3.794   2.552
 5343SOL    HW216929   3.735   3.734   2.625
 5344SOL     OW16930   2.580   2.235   3.097
 5344SOL    HW116931   2.528   2.190   3.025
 5344SOL    HW216932   2.537   2.322   3.120
 5345SOL     OW16933   4.659   6.799   1.824
 5345SOL    HW116934   4.750   6.776   1.859
 5345SOL    HW216935   4.662   6.801   1.724
 5346SOL     OW16936   2.556   6.515   3.169
 5346SOL    HW116937   2.606   6.484   3.250
 5346SOL    HW216938   2.477   6.456   3.155
 5347SOL     OW16939   6.933   1.637   1.433
 5347SOL    HW116940   6.944   1.547   1.390
 5347SOL    HW216941   6.893   1.700   1.368
 5348SOL     OW16942   0.414   1.390   0.102
 5348SOL    HW116943   0.380   1.406   0.195
 5348SOL    HW216944   0.456   1.299   0.097
 5349SOL     OW16945   6.334   0.797   1.522
 5349SOL    HW116946   6.301   0.836   1.608
 5349SOL    HW216947   6.368   0.704   1.538
 5350SOL     OW16948   2.993   1.372   6.461
 5350SOL    HW116949   2.908   1.335   6.499
 5350SOL    HW216950   3.014   1.460   6.504
 5351SOL     OW16951   4.182   0.014   2.148
 5351SOL    HW116952   4.219   6.956   2.205
 5351SOL    HW216953   4.082   0.013   2.154
 5352SOL     OW16954   3.354   5.408   3.779
 5352SOL    HW116955   3.443   5.432   3.819
 5352SOL    HW216956   3.355   5.313   3.750
 5353SOL     OW16957   5.805   6.279   5.629
 5353SOL    HW116958   5.757   6.193   5.610
 5353SOL    HW216959   5.886   6.261   5.684
 5354SOL     OW16960   0.788   4.192   1.342
 5354SOL    HW116961   0.775   4.291   1.338
 5354SOL    HW216962   0.729   4.154   1.413
 5355SOL     OW16963   4.445   2.044   5.095
 5355SOL    HW116964   4.380   1.983   5.050
 5355SOL    HW216965   4.395   2.121   5.135
 5356SOL     OW16966   6.254   3.504   1.004
 5356SOL    HW116967   6.157   3.522   0.985
 5356SOL    HW216968   6.285   3.565   1.077
 5357SOL     OW16969   3.567   6.870   0.229
 5357SOL    HW116970   3.534   6.793   0.175
 5357SOL    HW216971   3.505   6.948   0.218
 5358SOL     OW16972   4.863   3.110   0.755
 5358SOL    HW116973   4.780   3.066   0.791
 5358SOL    HW216974   4.915   3.148   0.831
 5359SOL     OW16975   1.975   0.671   6.612
 5359SOL    HW116976   1.879   0.694   6.626
 5359SOL    HW216977   2.032   0.742   6.654
 5360SOL     OW16978   3.271   6.996   6.896
 5360SOL    HW116979   3.346   0.025   6.847
 5360SOL    HW216980   3.273   6.898   6.876
 5361SOL     OW16981   2.114   0.695   5.745
 5361SOL    HW116982   2.014   0.696   5.749
 5361SOL    HW216983   2.147   0.784   5.713
 5362SOL     OW16984   4.429   5.511   2.815
 5362SOL    HW116985   4.401   5.416   2.798
 5362SOL    HW216986   4.429   5.561   2.729
 5363SOL     OW16987   0.760   5.547   6.072
 5363SOL    HW116988   0.712   5.515   5.990
 5363SOL    HW216989   0.700   5.611   6.122
 5364SOL     OW16990   0.650   6.155   0.597
 5364SOL    HW116991   0.674   6.232   0.538
 5364SOL    HW216992   0.729   6.094   0.607
 5365SOL     OW16993   4.209   2.153   6.135
 5365SOL    HW116994   4.255   2.206   6.206
 5365SOL    HW216995   4.189   2.213   6.057
 5366SOL     OW16996   4.132   3.103   6.997
 5366SOL    HW116997   4.198   3.099   6.922
 5366SOL    HW216998   4.040   3.110   6.959
 5367SOL     OW16999   6.926   5.186   0.976
 5367SOL    HW117000   6.896   5.185   1.072
 5367SOL    HW217001   6.851   5.216   0.918
 5368SOL     OW17002   5.950   1.492   3.680
 5368SOL    HW117003   5.987   1.436   3.606
 5368SOL    HW217004   6.023   1.519   3.742
 5369SOL     OW17005   2.053   3.839   2.748
 5369SOL    HW117006   2.062   3.767   2.679
 5369SOL    HW217007   2.125   3.907   2.734
 5370SOL     OW17008   3.913   2.988   1.499
 5370SOL    HW117009   3.981   2.958   1.566
 5370SOL    HW217010   3.924   3.086   1.482
 5371SOL     OW17011   0.696   3.795   5.201
 5371SOL    HW117012   0.618   3.734   5.183
 5371SOL    HW217013   0.675   3.853   5.280
 5372SOL     OW17014   2.834   5.194   2.705
 5372SOL    HW117015   2.739   5.212   2.679
 5372SOL    HW217016   2.894   5.228   2.633
 5373SOL     OW17017   2.929   4.880   3.066
 5373SOL    HW117018   2.871   4.802   3.045
 5373SOL    HW217019   2.888   4.963   3.027
 5374SOL     OW17020   2.632   2.102   0.663
 5374SOL    HW117021   2.657   2.197   0.684
 5374SOL    HW217022   2.543   2.081   0.704
 5375SOL     OW17023   1.559   4.812   3.847
 5375SOL    HW117024   1.632   4.880   3.845
 5375SOL    HW217025   1.505   4.823   3.931
 5376SOL     OW17026   1.965   3.859   0.762
 5376SOL    HW117027   1.878   3.868   0.713
 5376SOL    HW217028   2.002   3.767   0.749
 5377SOL     OW17029   0.295   1.728   1.302
 5377SOL    HW117030   0.376   1.773   1.266
 5377SOL    HW217031   0.213   1.767   1.260
 5378SOL     OW17032   5.343   0.540   0.643
 5378SOL    HW117033   5.266   0.598   0.614
 5378SOL    HW217034   5.415   0.543   0.573
 5379SOL     OW17035   6.912   6.395   1.833
 5379SOL    HW117036   7.010   6.375   1.824
 5379SOL    HW217037   6.864   6.361   1.752
 5380SOL     OW17038   3.138   0.272   4.262
 5380SOL    HW117039   3.195   0.281   4.181
 5380SOL    HW217040   3.061   0.211   4.242
 5381SOL     OW17041   5.696   4.136   1.581
 5381SOL    HW117042   5.605   4.173   1.564
 5381SOL    HW217043   5.710   4.055   1.525
 5382SOL     OW17044   1.813   0.082   1.651
 5382SOL    HW117045   1.855   7.008   1.672
 5382SOL    HW217046   1.788   0.127   1.737
 5383SOL     OW17047   2.259   1.984   5.073
 5383SOL    HW117048   2.347   2.028   5.055
 5383SOL    HW217049   2.201   2.047   5.124
 5384SOL     OW17050   5.856   6.432   4.319
 5384SOL    HW117051   5.782   6.440   4.385
 5384SOL    HW217052   5.943   6.424   4.368
 5385SOL     OW17053   3.524   4.061   2.192
 5385SOL    HW117054   3.461   4.101   2.258
 5385SOL    HW217055   3.588   4.000   2.239
 5386SOL     OW17056   5.216   6.196   5.082
 5386SOL    HW117057   5.217   6.166   4.987
 5386SOL    HW217058   5.309   6.195   5.119
 5387SOL     OW17059   2.762   5.745   1.755
 5387SOL    HW117060   2.821   5.824   1.737
 5387SOL    HW217061   2.818   5.668   1.787
 5388SOL     OW17062   5.762   0.414   2.809
 5388SOL    HW117063   5.775   0.487   2.876
 5388SOL    HW217064   5.688   0.440   2.746
 5389SOL     OW17065   4.998   2.221   1.204
 5389SOL    HW117066   5.006   2.274   1.289
 5389SOL    HW217067   4.901   2.203   1.185
 5390SOL     OW17068   6.122   4.961   6.211
 5390SOL    HW117069   6.166   4.950   6.121
 5390SOL    HW217070   6.191   4.950   6.283
 5391SOL     OW17071   2.452   3.334   6.771
 5391SOL    HW117072   2.464   3.414   6.830
 5391SOL    HW217073   2.525   3.268   6.788
 5392SOL     OW17074   6.088   2.874   2.379
 5392SOL    HW117075   6.148   2.824   2.316
 5392SOL    HW217076   6.074   2.967   2.344
 5393SOL     OW17077   6.649   0.308   6.960
 5393SOL    HW117078   6.553   0.321   6.987
 5393SOL    HW217079   6.653   0.283   6.863
 5394SOL     OW17080   0.977   3.846   5.691
 5394SOL    HW117081   0.965   3.944   5.677
 5394SOL    HW217082   1.068   3.829   5.729
 5395SOL     OW17083   4.249   1.608   0.223
 5395SOL    HW117084   4.348   1.594   0.224
 5395SOL    HW217085   4.217   1.612   0.128
 5396SOL     OW17086   5.484   3.279   2.498
 5396SOL    HW117087   5.417   3.329   2.443
 5396SOL    HW217088   5.478   3.181   2.478
 5397SOL     OW17089   0.327   3.353   1.664
 5397SOL    HW117090   0.310   3.441   1.710
 5397SOL    HW217091   0.349   3.370   1.568
 5398SOL     OW17092   3.245   2.796   1.846
 5398SOL    HW117093   3.281   2.715   1.799
 5398SOL    HW217094   3.313   2.830   1.910
 5399SOL     OW17095   1.291   5.727   0.928
 5399SOL    HW117096   1.222   5.774   0.982
 5399SOL    HW217097   1.356   5.794   0.890
 5400SOL     OW17098   2.836   4.681   0.624
 5400SOL    HW117099   2.805   4.705   0.716
 5400SOL    HW217100   2.903   4.750   0.593
 5401SOL     OW17101   5.963   3.185   1.408
 5401SOL    HW117102   5.933   3.107   1.462
 5401SOL    HW217103   6.060   3.174   1.384
 5402SOL     OW17104   1.094   6.246   2.307
 5402SOL    HW117105   1.046   6.161   2.287
 5402SOL    HW217106   1.179   6.249   2.255
 5403SOL     OW17107   7.009   2.758   6.296
 5403SOL    HW117108   0.091   2.738   6.311
 5403SOL    HW217109   6.967   2.781   6.384
 5404SOL     OW17110   1.821   3.199   3.269
 5404SOL    HW117111   1.817   3.196   3.369
 5404SOL    HW217112   1.912   3.229   3.240
 5405SOL     OW17113   6.691   4.940   6.274
 5405SOL    HW117114   6.722   4.909   6.364
 5405SOL    HW217115   6.600   4.979   6.282
 5406SOL     OW17116   2.282   0.594   5.335
 5406SOL    HW117117   2.216   0.668   5.322
 5406SOL    HW217118   2.340   0.586   5.255
 5407SOL     OW17119   3.929   3.575   6.395
 5407SOL    HW117120   3.936   3.643   6.468
 5407SOL    HW217121   3.881   3.494   6.429
 5408SOL     OW17122   2.707   1.072   6.988
 5408SOL    HW117123   2.633   1.057   6.923
 5408SOL    HW217124   2.791   1.031   6.952
 5409SOL     OW17125   3.910   0.919   2.344
 5409SOL    HW117126   3.921   0.834   2.293
 5409SOL    HW217127   3.876   0.991   2.283
 5410SOL     OW17128   2.542   2.112   2.193
 5410SOL    HW117129   2.559   2.200   2.238
 5410SOL    HW217130   2.626   2.058   2.193
 5411SOL     OW17131   0.482   5.466   4.728
 5411SOL    HW117132   0.568   5.416   4.732
 5411SOL    HW217133   0.472   5.521   4.811
 5412SOL     OW17134   6.031   2.893   1.243
 5412SOL    HW117135   6.050   2.820   1.177
 5412SOL    HW217136   5.984   2.968   1.196
 5413SOL     OW17137   1.989   0.617   1.811
 5413SOL    HW117138   1.936   0.536   1.788
 5413SOL    HW217139   2.077   0.614   1.763
 5414SOL     OW17140   3.829   0.990   5.181
 5414SOL    HW117141   3.890   1.052   5.132
 5414SOL    HW217142   3.882   0.913   5.217
 5415SOL     OW17143   6.065   5.128   1.977
 5415SOL    HW117144   6.122   5.155   1.899
 5415SOL    HW217145   6.112   5.150   2.062
 5416SOL     OW17146   4.538   5.679   4.508
 5416SOL    HW117147   4.459   5.649   4.455
 5416SOL    HW217148   4.552   5.617   4.585
 5417SOL     OW17149   3.125   6.746   4.630
 5417SOL    HW117150   3.089   6.749   4.537
 5417SOL    HW217151   3.158   6.836   4.657
 5418SOL     OW17152   3.687   0.610   2.943
 5418SOL    HW117153   3.669   0.708   2.934
 5418SOL    HW217154   3.631   0.573   3.017
 5419SOL     OW17155   3.462   4.188   6.939
 5419SOL    HW117156   3.399   4.261   6.965
 5419SOL    HW217157   3.424   4.137   6.861
 5420SOL     OW17158   1.155   1.177   2.902
 5420SOL    HW117159   1.221   1.221   2.841
 5420SOL    HW217160   1.153   1.079   2.885
 5421SOL     OW17161   1.640   3.573   1.739
 5421SOL    HW117162   1.661   3.553   1.643
 5421SOL    HW217163   1.659   3.669   1.758
 5422SOL     OW17164   2.347   3.569   0.924
 5422SOL    HW117165   2.297   3.551   1.009
 5422SOL    HW217166   2.362   3.484   0.875
 5423SOL     OW17167   5.824   3.472   6.856
 5423SOL    HW117168   5.784   3.474   6.948
 5423SOL    HW217169   5.763   3.521   6.793
 5424SOL     OW17170   5.281   4.097   5.005
 5424SOL    HW117171   5.187   4.118   4.978
 5424SOL    HW217172   5.281   4.019   5.067
 5425SOL     OW17173   5.106   0.341   4.853
 5425SOL    HW117174   5.191   0.374   4.812
 5425SOL    HW217175   5.098   0.243   4.840
 5426SOL     OW17176   6.106   0.127   5.285
 5426SOL    HW117177   6.180   0.088   5.231
 5426SOL    HW217178   6.035   0.058   5.298
 5427SOL     OW17179   3.881   5.824   6.628
 5427SOL    HW117180   3.979   5.834   6.642
 5427SOL    HW217181   3.840   5.914   6.612
 5428SOL     OW17182   1.174   0.519   6.883
 5428SOL    HW117183   1.101   0.496   6.819
 5428SOL    HW217184   1.228   0.595   6.847
 5429SOL     OW17185   1.336   2.508   6.769
 5429SOL    HW117186   1.392   2.539   6.692
 5429SOL    HW217187   1.321   2.584   6.832
 5430SOL     OW17188   2.266   2.547   5.491
 5430SOL    HW117189   2.366   2.546   5.491
 5430SOL    HW217190   2.233   2.621   5.550
 5431SOL     OW17191   3.877   6.028   4.603
 5431SOL    HW117192   3.901   6.113   4.651
 5431SOL    HW217193   3.802   5.983   4.651
 5432SOL     OW17194   5.358   6.664   1.205
 5432SOL    HW117195   5.367   6.644   1.107
 5432SOL    HW217196   5.341   6.579   1.255
 5433SOL     OW17197   0.097   1.517   4.656
 5433SOL    HW117198   0.039   1.454   4.605
 5433SOL    HW217199   0.142   1.467   4.730
 5434SOL     OW17200   2.840   0.048   5.811
 5434SOL    HW117201   2.774   7.003   5.856
 5434SOL    HW217202   2.811   0.065   5.717
 5435SOL     OW17203   4.686   1.062   1.767
 5435SOL    HW117204   4.592   1.029   1.764
 5435SOL    HW217205   4.698   1.120   1.847
 5436SOL     OW17206   5.448   4.270   2.325
 5436SOL    HW117207   5.397   4.253   2.410
 5436SOL    HW217208   5.512   4.345   2.339
 5437SOL     OW17209   3.052   3.355   6.817
 5437SOL    HW117210   2.959   3.365   6.782
 5437SOL    HW217211   3.096   3.276   6.773
 5438SOL     OW17212   6.551   2.395   0.971
 5438SOL    HW117213   6.533   2.483   1.016
 5438SOL    HW217214   6.568   2.325   1.041
 5439SOL     OW17215   1.202   2.141   1.340
 5439SOL    HW117216   1.209   2.069   1.271
 5439SOL    HW217217   1.287   2.193   1.344
 5440SOL     OW17218   1.166   1.586   0.922
 5440SOL    HW117219   1.225   1.532   0.981
 5440SOL    HW217220   1.090   1.623   0.976
 5441SOL     OW17221   3.619   2.081   3.580
 5441SOL    HW117222   3.545   2.126   3.629
 5441SOL    HW217223   3.591   2.067   3.484
 5442SOL     OW17224   4.010   0.584   2.394
 5442SOL    HW117225   4.041   0.660   2.449
 5442SOL    HW217226   4.043   0.498   2.433
 5443SOL     OW17227   3.495   0.077   5.284
 5443SOL    HW117228   3.437   0.067   5.203
 5443SOL    HW217229   3.449   0.136   5.350
 5444SOL     OW17230   0.029   6.970   3.567
 5444SOL    HW117231   6.979   0.025   3.596
 5444SOL    HW217232   0.035   6.969   3.468
 5445SOL     OW17233   5.783   3.631   2.102
 5445SOL    HW117234   5.852   3.660   2.168
 5445SOL    HW217235   5.742   3.711   2.058
 5446SOL     OW17236   6.511   5.394   5.708
 5446SOL    HW117237   6.427   5.351   5.742
 5446SOL    HW217238   6.511   5.491   5.731
 5447SOL     OW17239   3.536   1.723   0.305
 5447SOL    HW117240   3.606   1.717   0.376
 5447SOL    HW217241   3.457   1.668   0.332
 5448SOL     OW17242   5.469   2.198   5.632
 5448SOL    HW117243   5.443   2.198   5.535
 5448SOL    HW217244   5.457   2.289   5.670
 5449SOL     OW17245   0.895   3.404   6.557
 5449SOL    HW117246   0.916   3.316   6.515
 5449SOL    HW217247   0.891   3.393   6.656
 5450SOL     OW17248   1.839   6.837   0.742
 5450SOL    HW117249   1.813   6.905   0.811
 5450SOL    HW217250   1.890   6.763   0.785
 5451SOL     OW17251   1.336   0.214   2.696
 5451SOL    HW117252   1.380   0.288   2.647
 5451SOL    HW217253   1.394   0.184   2.772
 5452SOL     OW17254   2.834   3.810   6.154
 5452SOL    HW117255   2.904   3.775   6.216
 5452SOL    HW217256   2.826   3.909   6.166
 5453SOL     OW17257   6.039   5.000   6.846
 5453SOL    HW117258   5.940   4.984   6.854
 5453SOL    HW217259   6.081   4.923   6.798
 5454SOL     OW17260   0.010   4.517   6.883
 5454SOL    HW117261   0.074   4.496   6.957
 5454SOL    HW217262   6.952   4.574   6.918
 5455SOL     OW17263   6.573   3.449   1.534
 5455SOL    HW117264   6.491   3.448   1.591
 5455SOL    HW217265   6.556   3.400   1.449
 5456SOL     OW17266   3.229   6.561   0.549
 5456SOL    HW117267   3.221   6.602   0.640
 5456SOL    HW217268   3.196   6.626   0.480
 5457SOL     OW17269   6.418   3.397   0.516
 5457SOL    HW117270   6.364   3.371   0.597
 5457SOL    HW217271   6.504   3.439   0.546
 5458SOL     OW17272   2.590   3.875   6.998
 5458SOL    HW117273   2.640   3.938   6.940
 5458SOL    HW217274   2.637   3.787   7.001
 5459SOL     OW17275   1.831   4.711   6.225
 5459SOL    HW117276   1.753   4.689   6.283
 5459SOL    HW217277   1.864   4.803   6.248
 5460SOL     OW17278   2.958   0.657   1.262
 5460SOL    HW117279   3.053   0.676   1.288
 5460SOL    HW217280   2.907   0.627   1.343
 5461SOL     OW17281   4.567   6.806   5.309
 5461SOL    HW117282   4.604   6.886   5.356
 5461SOL    HW217283   4.598   6.723   5.355
 5462SOL     OW17284   0.627   0.228   1.101
 5462SOL    HW117285   0.594   0.136   1.079
 5462SOL    HW217286   0.554   0.279   1.148
 5463SOL     OW17287   6.871   2.910   0.921
 5463SOL    HW117288   6.905   2.988   0.869
 5463SOL    HW217289   6.807   2.858   0.865
 5464SOL     OW17290   1.888   6.919   4.355
 5464SOL    HW117291   1.929   7.003   4.389
 5464SOL    HW217292   1.952   6.875   4.292
 5465SOL     OW17293   2.680   6.836   5.590
 5465SOL    HW117294   2.728   6.850   5.677
 5465SOL    HW217295   2.620   6.756   5.598
 5466SOL     OW17296   4.395   4.586   4.564
 5466SOL    HW117297   4.302   4.618   4.548
 5466SOL    HW217298   4.429   4.539   4.483
 5467SOL     OW17299   6.057   1.732   2.134
 5467SOL    HW117300   6.149   1.710   2.169
 5467SOL    HW217301   6.051   1.705   2.038
 5468SOL     OW17302   4.260   1.348   5.213
 5468SOL    HW117303   4.259   1.283   5.289
 5468SOL    HW217304   4.294   1.302   5.131
 5469SOL     OW17305   4.200   4.368   6.406
 5469SOL    HW117306   4.274   4.384   6.341
 5469SOL    HW217307   4.193   4.445   6.470
 5470SOL     OW17308   1.333   5.170   3.453
 5470SOL    HW117309   1.358   5.188   3.358
 5470SOL    HW217310   1.330   5.256   3.504
 5471SOL     OW17311   6.124   5.702   2.103
 5471SOL    HW117312   6.085   5.734   2.189
 5471SOL    HW217313   6.071   5.623   2.070
 5472SOL     OW17314   3.943   4.950   5.450
 5472SOL    HW117315   4.014   4.890   5.486
 5472SOL    HW217316   3.983   5.013   5.384
 5473SOL     OW17317   1.189   3.478   3.565
 5473SOL    HW117318   1.263   3.491   3.500
 5473SOL    HW217319   1.155   3.384   3.558
 5474SOL     OW17320   1.652   5.397   3.465
 5474SOL    HW117321   1.563   5.375   3.504
 5474SOL    HW217322   1.709   5.314   3.463
 5475SOL     OW17323   2.955   2.639   1.432
 5475SOL    HW117324   3.033   2.590   1.393
 5475SOL    HW217325   2.988   2.721   1.480
 5476SOL     OW17326   1.233   3.134   5.572
 5476SOL    HW117327   1.145   3.086   5.563
 5476SOL    HW217328   1.240   3.203   5.499
 5477SOL     OW17329   2.100   3.127   3.002
 5477SOL    HW117330   2.012   3.140   2.955
 5477SOL    HW217331   2.165   3.085   2.940
 5478SOL     OW17332   6.649   6.358   6.119
 5478SOL    HW117333   6.650   6.259   6.130
 5478SOL    HW217334   6.611   6.382   6.030
 5479SOL     OW17335   4.597   0.536   4.709
 5479SOL    HW117336   4.678   0.507   4.758
 5479SOL    HW217337   4.515   0.511   4.761
 5480SOL     OW17338   0.386   3.452   4.255
 5480SOL    HW117339   0.321   3.527   4.261
 5480SOL    HW217340   0.386   3.414   4.163
 5481SOL     OW17341   4.809   6.488   3.987
 5481SOL    HW117342   4.758   6.574   3.983
 5481SOL    HW217343   4.897   6.500   3.943
 5482SOL     OW17344   1.794   4.444   1.418
 5482SOL    HW117345   1.861   4.517   1.406
 5482SOL    HW217346   1.829   4.360   1.376
 5483SOL     OW17347   0.051   2.516   5.399
 5483SOL    HW117348   6.976   2.517   5.358
 5483SOL    HW217349   0.085   2.610   5.407
 5484SOL     OW17350   4.456   0.522   5.298
 5484SOL    HW117351   4.556   0.523   5.306
 5484SOL    HW217352   4.425   0.428   5.287
 5485SOL     OW17353   3.419   0.429   4.802
 5485SOL    HW117354   3.409   0.469   4.711
 5485SOL    HW217355   3.429   0.501   4.870
 5486SOL     OW17356   2.763   6.155   5.281
 5486SOL    HW117357   2.818   6.078   5.315
 5486SOL    HW217358   2.698   6.183   5.352
 5487SOL     OW17359   3.023   5.631   5.530
 5487SOL    HW117360   2.984   5.611   5.620
 5487SOL    HW217361   3.121   5.646   5.538
 5488SOL     OW17362   5.867   2.205   0.792
 5488SOL    HW117363   5.893   2.134   0.857
 5488SOL    HW217364   5.773   2.233   0.809
 5489SOL     OW17365   6.709   3.876   3.262
 5489SOL    HW117366   6.675   3.857   3.354
 5489SOL    HW217367   6.789   3.936   3.267
 5490SOL     OW17368   1.755   6.119   2.847
 5490SOL    HW117369   1.752   6.174   2.763
 5490SOL    HW217370   1.792   6.029   2.825
 5491SOL     OW17371   6.811   4.066   0.635
 5491SOL    HW117372   6.746   4.019   0.695
 5491SOL    HW217373   6.894   4.087   0.686
 5492SOL     OW17374   6.652   2.059   6.104
 5492SOL    HW117375   6.628   1.962   6.093
 5492SOL    HW217376   6.740   2.077   6.061
 5493SOL     OW17377   3.941   3.865   1.155
 5493SOL    HW117378   3.970   3.795   1.220
 5493SOL    HW217379   4.004   3.943   1.158
 5494SOL     OW17380   6.180   3.925   5.320
 5494SOL    HW117381   6.188   3.861   5.243
 5494SOL    HW217382   6.243   4.001   5.307
 5495SOL     OW17383   5.655   6.898   0.284
 5495SOL    HW117384   5.638   6.816   0.230
 5495SOL    HW217385   5.719   6.876   0.358
 5496SOL     OW17386   4.185   0.433   4.125
 5496SOL    HW117387   4.113   0.477   4.179
 5496SOL    HW217388   4.173   0.455   4.028
 5497SOL     OW17389   1.155   0.552   5.754
 5497SOL    HW117390   1.177   0.459   5.724
 5497SOL    HW217391   1.072   0.583   5.708
 5498SOL     OW17392   0.959   5.580   1.082
 5498SOL    HW117393   0.914   5.668   1.070
 5498SOL    HW217394   0.988   5.569   1.177
 5499SOL     OW17395   1.863   0.380   4.706
 5499SOL    HW117396   1.931   0.453   4.717
 5499SOL    HW217397   1.910   0.293   4.695
 5500SOL     OW17398   2.616   0.275   1.003
 5500SOL    HW117399   2.541   0.317   0.951
 5500SOL    HW217400   2.579   0.205   1.064
 5501SOL     OW17401   3.752   3.595   6.693
 5501SOL    HW117402   3.694   3.655   6.638
 5501SOL    HW217403   3.774   3.640   6.780
 5502SOL     OW17404   4.724   2.803   0.269
 5502SOL    HW117405   4.765   2.878   0.321
 5502SOL    HW217406   4.648   2.838   0.214
 5503SOL     OW17407   6.550   3.559   0.852
 5503SOL    HW117408   6.636   3.610   0.856
 5503SOL    HW217409   6.533   3.516   0.940
 5504SOL     OW17410   3.820   1.625   0.023
 5504SOL    HW117411   3.769   1.708   0.048
 5504SOL    HW217412   3.830   1.620   6.939
 5505SOL     OW17413   2.828   5.140   3.628
 5505SOL    HW117414   2.747   5.097   3.587
 5505SOL    HW217415   2.910   5.099   3.588
 5506SOL     OW17416   0.293   3.442   5.642
 5506SOL    HW117417   0.348   3.384   5.701
 5506SOL    HW217418   0.254   3.517   5.695
 5507SOL     OW17419   2.815   6.783   6.836
 5507SOL    HW117420   2.839   6.848   6.763
 5507SOL    HW217421   2.841   6.822   6.924
 5508SOL     OW17422   6.652   0.942   6.552
 5508SOL    HW117423   6.675   0.854   6.509
 5508SOL    HW217424   6.553   0.955   6.549
 5509SOL     OW17425   6.436   4.824   0.978
 5509SOL    HW117426   6.536   4.830   0.972
 5509SOL    HW217427   6.398   4.806   0.888
 5510SOL     OW17428   4.214   4.946   0.142
 5510SOL    HW117429   4.120   4.944   0.175
 5510SOL    HW217430   4.262   4.862   0.167
 5511SOL     OW17431   0.124   2.021   5.492
 5511SOL    HW117432   0.173   1.950   5.542
 5511SOL    HW217433   0.134   2.005   5.393
 5512SOL     OW17434   2.410   0.643   2.347
 5512SOL    HW117435   2.387   0.736   2.318
 5512SOL    HW217436   2.398   0.579   2.271
 5513SOL     OW17437   4.095   4.057   0.187
 5513SOL    HW117438   4.102   4.157   0.187
 5513SOL    HW217439   4.158   4.019   0.254
 5514SOL     OW17440   3.132   1.178   0.473
 5514SOL    HW117441   3.120   1.105   0.540
 5514SOL    HW217442   3.044   1.220   0.453
 5515SOL     OW17443   3.004   5.518   2.463
 5515SOL    HW117444   2.981   5.550   2.556
 5515SOL    HW217445   3.097   5.547   2.440
 5516SOL     OW17446   1.596   2.224   5.139
 5516SOL    HW117447   1.536   2.302   5.121
 5516SOL    HW217448   1.630   2.230   5.234
 5517SOL     OW17449   1.410   2.176   3.161
 5517SOL    HW117450   1.369   2.261   3.192
 5517SOL    HW217451   1.505   2.171   3.191
 5518SOL     OW17452   4.907   4.904   6.793
 5518SOL    HW117453   4.856   4.947   6.867
 5518SOL    HW217454   4.864   4.925   6.705
 5519SOL     OW17455   4.892   2.713   4.092
 5519SOL    HW117456   4.852   2.682   4.179
 5519SOL    HW217457   4.986   2.743   4.107
 5520SOL     OW17458   4.925   0.138   1.874
 5520SOL    HW117459   4.862   0.168   1.945
 5520SOL    HW217460   5.018   0.139   1.910
 5521SOL     OW17461   4.717   6.396   2.120
 5521SOL    HW117462   4.658   6.473   2.143
 5521SOL    HW217463   4.811   6.414   2.152
 5522SOL     OW17464   5.711   6.026   1.349
 5522SOL    HW117465   5.621   6.033   1.307
 5522SOL    HW217466   5.781   6.035   1.278
 5523SOL     OW17467   5.293   1.508   1.081
 5523SOL    HW117468   5.263   1.581   1.020
 5523SOL    HW217469   5.359   1.449   1.033
 5524SOL     OW17470   2.528   1.249   3.639
 5524SOL    HW117471   2.489   1.338   3.661
 5524SOL    HW217472   2.455   1.187   3.610
 5525SOL     OW17473   6.169   1.142   1.634
 5525SOL    HW117474   6.076   1.107   1.641
 5525SOL    HW217475   6.213   1.104   1.553
 5526SOL     OW17476   5.404   5.204   4.049
 5526SOL    HW117477   5.460   5.122   4.042
 5526SOL    HW217478   5.414   5.243   4.141
 5527SOL     OW17479   5.919   0.426   3.545
 5527SOL    HW117480   5.886   0.504   3.599
 5527SOL    HW217481   5.876   0.343   3.578
 5528SOL     OW17482   0.704   1.053   6.939
 5528SOL    HW117483   0.675   0.970   6.892
 5528SOL    HW217484   0.797   1.077   6.913
 5529SOL     OW17485   3.556   0.849   2.272
 5529SOL    HW117486   3.588   0.757   2.297
 5529SOL    HW217487   3.635   0.907   2.253
 5530SOL     OW17488   0.189   2.582   1.055
 5530SOL    HW117489   0.280   2.579   1.096
 5530SOL    HW217490   0.170   2.494   1.012
 5531SOL     OW17491   2.217   4.263   1.491
 5531SOL    HW117492   2.259   4.173   1.496
 5531SOL    HW217493   2.197   4.295   1.584
 5532SOL     OW17494   1.306   2.888   6.680
 5532SOL    HW117495   1.363   2.837   6.744
 5532SOL    HW217496   1.210   2.875   6.703
 5533SOL     OW17497   3.302   1.720   2.175
 5533SOL    HW117498   3.273   1.802   2.125
 5533SOL    HW217499   3.360   1.664   2.116
 5534SOL     OW17500   1.516   0.249   4.577
 5534SOL    HW117501   1.560   0.194   4.649
 5534SOL    HW217502   1.466   0.324   4.619
 5535SOL     OW17503   0.070   1.758   3.228
 5535SOL    HW117504   0.123   1.808   3.160
 5535SOL    HW217505   0.100   1.785   3.320
 5536SOL     OW17506   4.108   6.305   4.346
 5536SOL    HW117507   4.131   6.360   4.266
 5536SOL    HW217508   4.094   6.364   4.425
 5537SOL     OW17509   3.017   1.848   3.646
 5537SOL    HW117510   3.028   1.867   3.744
 5537SOL    HW217511   3.043   1.753   3.628
 5538SOL     OW17512   4.723   5.392   4.497
 5538SOL    HW117513   4.722   5.300   4.536
 5538SOL    HW217514   4.636   5.411   4.451
 5539SOL     OW17515   2.303   4.752   0.454
 5539SOL    HW117516   2.279   4.752   0.551
 5539SOL    HW217517   2.308   4.657   0.421
 5540SOL     OW17518   4.780   5.443   1.714
 5540SOL    HW117519   4.833   5.518   1.674
 5540SOL    HW217520   4.684   5.470   1.719
 5541SOL     OW17521   4.847   1.382   5.762
 5541SOL    HW117522   4.820   1.369   5.857
 5541SOL    HW217523   4.936   1.428   5.759
 5542SOL     OW17524   5.529   4.608   6.901
 5542SOL    HW117525   5.438   4.637   6.870
 5542SOL    HW217526   5.598   4.671   6.866
 5543SOL     OW17527   6.952   1.793   5.750
 5543SOL    HW117528   6.996   1.881   5.769
 5543SOL    HW217529   6.901   1.764   5.831
 5544SOL     OW17530   6.076   0.486   6.913
 5544SOL    HW117531   6.058   0.398   6.868
 5544SOL    HW217532   6.070   0.560   6.846
 5545SOL     OW17533   2.658   2.516   1.822
 5545SOL    HW117534   2.740   2.485   1.870
 5545SOL    HW217535   2.684   2.578   1.748
 5546SOL     OW17536   3.414   4.850   5.550
 5546SOL    HW117537   3.491   4.824   5.608
 5546SOL    HW217538   3.343   4.779   5.557
 5547SOL     OW17539   3.623   5.520   3.936
 5547SOL    HW117540   3.607   5.471   4.022
 5547SOL    HW217541   3.584   5.612   3.943
 5548SOL     OW17542   0.629   2.395   4.734
 5548SOL    HW117543   0.695   2.457   4.692
 5548SOL    HW217544   0.567   2.360   4.664
 5549SOL     OW17545   3.713   4.759   0.371
 5549SOL    HW117546   3.728   4.744   0.468
 5549SOL    HW217547   3.663   4.845   0.357
 5550SOL     OW17548   3.224   6.652   2.361
 5550SOL    HW117549   3.170   6.719   2.310
 5550SOL    HW217550   3.317   6.686   2.372
 5551SOL     OW17551   0.397   1.418   2.823
 5551SOL    HW117552   0.412   1.508   2.782
 5551SOL    HW217553   0.471   1.397   2.886
 5552SOL     OW17554   0.943   2.319   1.937
 5552SOL    HW117555   0.862   2.336   1.881
 5552SOL    HW217556   0.930   2.235   1.990
 5553SOL     OW17557   4.684   6.493   6.945
 5553SOL    HW117558   4.616   6.508   0.002
 5553SOL    HW217559   4.687   6.572   6.884
 5554SOL     OW17560   3.541   0.872   4.402
 5554SOL    HW117561   3.545   0.827   4.492
 5554SOL    HW217562   3.590   0.816   4.335
 5555SOL     OW17563   0.664   5.774   2.072
 5555SOL    HW117564   0.613   5.692   2.044
 5555SOL    HW217565   0.642   5.849   2.009
 5556SOL     OW17566   0.807   1.062   4.583
 5556SOL    HW117567   0.905   1.062   4.562
 5556SOL    HW217568   0.786   1.137   4.645
 5557SOL     OW17569   2.629   0.578   2.940
 5557SOL    HW117570   2.636   0.672   2.974
 5557SOL    HW217571   2.532   0.553   2.933
 5558SOL     OW17572   5.071   2.458   5.483
 5558SOL    HW117573   5.020   2.486   5.402
 5558SOL    HW217574   5.119   2.372   5.464
 5559SOL     OW17575   2.218   0.588   1.686
 5559SOL    HW117576   2.177   0.580   1.595
 5559SOL    HW217577   2.233   0.685   1.707
 5560SOL     OW17578   6.751   1.313   4.145
 5560SOL    HW117579   6.851   1.303   4.152
 5560SOL    HW217580   6.717   1.359   4.227
 5561SOL     OW17581   1.693   3.647   2.217
 5561SOL    HW117582   1.739   3.589   2.285
 5561SOL    HW217583   1.703   3.743   2.243
 5562SOL     OW17584   2.944   2.259   6.618
 5562SOL    HW117585   3.038   2.240   6.591
 5562SOL    HW217586   2.882   2.194   6.574
 5563SOL     OW17587   4.102   4.277   1.611
 5563SOL    HW117588   4.062   4.283   1.520
 5563SOL    HW217589   4.029   4.265   1.679
 5564SOL     OW17590   5.557   2.768   1.729
 5564SOL    HW117591   5.616   2.714   1.789
 5564SOL    HW217592   5.468   2.782   1.773
 5565SOL     OW17593   3.133   2.988   5.208
 5565SOL    HW117594   3.126   3.088   5.215
 5565SOL    HW217595   3.226   2.963   5.183
 5566SOL     OW17596   2.076   4.362   0.663
 5566SOL    HW117597   2.144   4.363   0.591
 5566SOL    HW217598   2.022   4.278   0.658
 5567SOL     OW17599   1.724   5.214   3.051
 5567SOL    HW117600   1.677   5.273   2.985
 5567SOL    HW217601   1.809   5.258   3.080
 5568SOL     OW17602   3.889   2.464   0.960
 5568SOL    HW117603   3.902   2.490   0.864
 5568SOL    HW217604   3.929   2.374   0.976
 5569SOL     OW17605   5.314   1.998   6.590
 5569SOL    HW117606   5.322   2.082   6.643
 5569SOL    HW217607   5.324   2.020   6.493
 5570SOL     OW17608   0.712   3.511   5.059
 5570SOL    HW117609   0.786   3.573   5.086
 5570SOL    HW217610   0.688   3.452   5.135
 5571SOL     OW17611   6.508   4.517   0.056
 5571SOL    HW117612   6.425   4.473   0.022
 5571SOL    HW217613   6.542   4.465   0.135
 5572SOL     OW17614   6.389   2.913   4.863
 5572SOL    HW117615   6.455   2.870   4.802
 5572SOL    HW217616   6.331   2.976   4.811
 5573SOL     OW17617   6.986   4.109   6.958
 5573SOL    HW117618   0.064   4.092   6.991
 5573SOL    HW217619   6.986   4.191   6.900
 5574SOL     OW17620   0.946   6.525   4.096
 5574SOL    HW117621   1.012   6.571   4.036
 5574SOL    HW217622   0.968   6.428   4.100
 5575SOL     OW17623   0.838   1.203   1.639
 5575SOL    HW117624   0.934   1.206   1.666
 5575SOL    HW217625   0.808   1.294   1.609
 5576SOL     OW17626   5.607   5.896   6.499
 5576SOL    HW117627   5.605   5.834   6.420
 5576SOL    HW217628   5.565   5.983   6.473
 5577SOL     OW17629   2.388   4.470   4.828
 5577SOL    HW117630   2.340   4.399   4.879
 5577SOL    HW217631   2.441   4.527   4.891
 5578SOL     OW17632   3.209   1.912   6.571
 5578SOL    HW117633   3.220   2.007   6.541
 5578SOL    HW217634   3.267   1.895   6.650
 5579SOL     OW17635   4.978   5.283   1.860
 5579SOL    HW117636   4.939   5.323   1.778
 5579SOL    HW217637   4.916   5.297   1.937
 5580SOL     OW17638   5.298   1.533   1.638
 5580SOL    HW117639   5.199   1.543   1.633
 5580SOL    HW217640   5.327   1.457   1.580
 5581SOL     OW17641   2.894   2.757   0.520
 5581SOL    HW117642   2.807   2.746   0.569
 5581SOL    HW217643   2.936   2.668   0.506
 5582SOL     OW17644   3.316   2.920   3.807
 5582SOL    HW117645   3.314   2.876   3.717
 5582SOL    HW217646   3.399   2.893   3.856
 5583SOL     OW17647   4.573   0.565   0.240
 5583SOL    HW117648   4.609   0.578   0.332
 5583SOL    HW217649   4.478   0.598   0.236
 5584SOL     OW17650   5.154   3.226   2.821
 5584SOL    HW117651   5.095   3.156   2.779
 5584SOL    HW217652   5.247   3.216   2.786
 5585SOL     OW17653   0.374   6.456   4.531
 5585SOL    HW117654   0.443   6.426   4.466
 5585SOL    HW217655   0.370   6.392   4.608
 5586SOL     OW17656   3.135   1.147   6.511
 5586SOL    HW117657   3.097   1.236   6.487
 5586SOL    HW217658   3.127   1.133   6.609
 5587SOL     OW17659   3.506   6.380   4.157
 5587SOL    HW117660   3.471   6.291   4.129
 5587SOL    HW217661   3.430   6.444   4.170
 5588SOL     OW17662   4.893   0.229   5.733
 5588SOL    HW117663   4.917   0.316   5.777
 5588SOL    HW217664   4.940   0.154   5.780
 5589SOL     OW17665   2.806   3.639   0.016
 5589SOL    HW117666   2.877   3.709   0.024
 5589SOL    HW217667   2.787   3.622   6.935
 5590SOL     OW17668   6.725   0.479   3.541
 5590SOL    HW117669   6.752   0.467   3.636
 5590SOL    HW217670   6.760   0.402   3.486
 5591SOL     OW17671   5.536   0.116   0.248
 5591SOL    HW117672   5.514   0.120   0.150
 5591SOL    HW217673   5.584   0.031   0.268
 5592SOL     OW17674   1.535   2.532   2.709
 5592SOL    HW117675   1.473   2.488   2.644
 5592SOL    HW217676   1.589   2.601   2.662
 5593SOL     OW17677   2.408   4.472   4.562
 5593SOL    HW117678   2.417   4.461   4.661
 5593SOL    HW217679   2.346   4.401   4.527
 5594SOL     OW17680   3.276   1.608   6.211
 5594SOL    HW117681   3.337   1.682   6.241
 5594SOL    HW217682   3.329   1.539   6.162
 5595SOL     OW17683   0.444   2.035   5.975
 5595SOL    HW117684   0.443   1.980   5.892
 5595SOL    HW217685   0.373   2.105   5.970
 5596SOL     OW17686   4.486   2.518   4.195
 5596SOL    HW117687   4.552   2.568   4.251
 5596SOL    HW217688   4.516   2.423   4.183
 5597SOL     OW17689   0.192   2.056   6.378
 5597SOL    HW117690   0.166   2.074   6.473
 5597SOL    HW217691   0.202   1.958   6.364
 5598SOL     OW17692   6.705   1.948   3.726
 5598SOL    HW117693   6.619   1.971   3.680
 5598SOL    HW217694   6.761   2.030   3.736
 5599SOL     OW17695   5.480   2.425   3.139
 5599SOL    HW117696   5.452   2.334   3.108
 5599SOL    HW217697   5.400   2.485   3.142
 5600SOL     OW17698   1.948   2.523   2.044
 5600SOL    HW117699   2.026   2.496   1.986
 5600SOL    HW217700   1.957   2.480   2.133
 5601SOL     OW17701   5.685   3.292   5.760
 5601SOL    HW117702   5.784   3.293   5.774
 5601SOL    HW217703   5.644   3.367   5.811
 5602SOL     OW17704   6.445   2.411   2.504
 5602SOL    HW117705   6.455   2.486   2.569
 5602SOL    HW217706   6.505   2.335   2.531
 5603SOL     OW17707   3.789   2.220   6.026
 5603SOL    HW117708   3.706   2.187   6.071
 5603SOL    HW217709   3.773   2.228   5.927
 5604SOL     OW17710   1.137   6.341   3.914
 5604SOL    HW117711   1.079   6.263   3.937
 5604SOL    HW217712   1.224   6.334   3.962
 5605SOL     OW17713   4.473   0.298   3.798
 5605SOL    HW117714   4.560   0.255   3.774
 5605SOL    HW217715   4.488   0.393   3.823
 5606SOL     OW17716   4.568   3.142   0.635
 5606SOL    HW117717   4.592   3.054   0.593
 5606SOL    HW217718   4.544   3.127   0.731
 5607SOL     OW17719   0.114   2.499   3.404
 5607SOL    HW117720   0.136   2.433   3.475
 5607SOL    HW217721   0.085   2.585   3.446
 5608SOL     OW17722   5.362   0.374   4.128
 5608SOL    HW117723   5.312   0.461   4.124
 5608SOL    HW217724   5.452   0.389   4.169
 5609SOL     OW17725   6.488   1.237   6.828
 5609SOL    HW117726   6.555   1.272   6.893
 5609SOL    HW217727   6.426   1.173   6.875
 5610SOL     OW17728   5.906   5.785   6.132
 5610SOL    HW117729   5.966   5.742   6.064
 5610SOL    HW217730   5.836   5.719   6.160
 5611SOL     OW17731   6.000   3.967   1.645
 5611SOL    HW117732   6.053   4.005   1.570
 5611SOL    HW217733   5.976   4.040   1.709
 5612SOL     OW17734   3.950   2.255   0.484
 5612SOL    HW117735   3.866   2.275   0.535
 5612SOL    HW217736   4.005   2.189   0.535
 5613SOL     OW17737   6.107   5.492   6.087
 5613SOL    HW117738   6.187   5.543   6.118
 5613SOL    HW217739   6.121   5.394   6.103
 5614SOL     OW17740   4.803   2.003   4.959
 5614SOL    HW117741   4.742   2.082   4.967
 5614SOL    HW217742   4.752   1.919   4.979
 5615SOL     OW17743   0.692   3.137   3.830
 5615SOL    HW117744   0.615   3.167   3.774
 5615SOL    HW217745   0.768   3.201   3.821
 5616SOL     OW17746   1.811   3.468   2.387
 5616SOL    HW117747   1.898   3.423   2.403
 5616SOL    HW217748   1.743   3.432   2.451
 5617SOL     OW17749   1.537   5.026   6.161
 5617SOL    HW117750   1.461   5.087   6.184
 5617SOL    HW217751   1.586   5.000   6.245
 5618SOL     OW17752   4.850   6.949   2.654
 5618SOL    HW117753   4.906   6.873   2.621
 5618SOL    HW217754   4.909   0.005   2.691
 5619SOL     OW17755   3.268   3.314   3.303
 5619SOL    HW117756   3.239   3.402   3.266
 5619SOL    HW217757   3.366   3.301   3.286
 5620SOL     OW17758   4.914   4.402   4.789
 5620SOL    HW117759   4.951   4.374   4.877
 5620SOL    HW217760   4.823   4.361   4.776
 5621SOL     OW17761   0.594   2.581   6.441
 5621SOL    HW117762   0.555   2.671   6.460
 5621SOL    HW217763   0.659   2.557   6.514
 5622SOL     OW17764   4.690   5.234   3.995
 5622SOL    HW117765   4.666   5.319   3.948
 5622SOL    HW217766   4.789   5.220   3.992
 5623SOL     OW17767   4.720   4.732   3.779
 5623SOL    HW117768   4.791   4.717   3.848
 5623SOL    HW217769   4.630   4.733   3.823
 5624SOL     OW17770   5.002   4.146   3.342
 5624SOL    HW117771   5.060   4.145   3.424
 5624SOL    HW217772   5.018   4.231   3.291
 5625SOL     OW17773   2.751   6.556   6.297
 5625SOL    HW117774   2.765   6.509   6.384
 5625SOL    HW217775   2.653   6.570   6.282
 5626SOL     OW17776   1.262   4.691   6.421
 5626SOL    HW117777   1.277   4.673   6.518
 5626SOL    HW217778   1.267   4.605   6.370
 5627SOL     OW17779   1.267   5.123   0.345
 5627SOL    HW117780   1.264   5.054   0.417
 5627SOL    HW217781   1.176   5.159   0.329
 5628SOL     OW17782   1.728   3.164   0.180
 5628SOL    HW117783   1.710   3.232   0.108
 5628SOL    HW217784   1.799   3.101   0.150
 5629SOL     OW17785   6.651   3.346   3.493
 5629SOL    HW117786   6.601   3.259   3.494
 5629SOL    HW217787   6.666   3.377   3.587
 5630SOL     OW17788   1.115   3.478   0.699
 5630SOL    HW117789   1.150   3.394   0.740
 5630SOL    HW217790   1.089   3.460   0.604
 5631SOL     OW17791   3.581   1.215   1.309
 5631SOL    HW117792   3.656   1.275   1.335
 5631SOL    HW217793   3.614   1.121   1.300
 5632SOL     OW17794   4.563   6.367   6.316
 5632SOL    HW117795   4.529   6.273   6.328
 5632SOL    HW217796   4.528   6.404   6.230
 5633SOL     OW17797   1.291   5.437   5.459
 5633SOL    HW117798   1.362   5.428   5.528
 5633SOL    HW217799   1.310   5.375   5.383
 5634SOL     OW17800   2.986   0.879   1.501
 5634SOL    HW117801   2.966   0.966   1.456
 5634SOL    HW217802   3.070   0.841   1.464
 5635SOL     OW17803   3.504   0.722   1.533
 5635SOL    HW117804   3.584   0.757   1.583
 5635SOL    HW217805   3.497   0.624   1.547
 5636SOL     OW17806   5.333   0.480   5.609
 5636SOL    HW117807   5.328   0.525   5.699
 5636SOL    HW217808   5.320   0.548   5.537
 5637SOL     OW17809   5.341   0.126   4.844
 5637SOL    HW117810   5.377   0.162   4.758
 5637SOL    HW217811   5.361   0.190   4.918
 5638SOL     OW17812   6.148   5.627   0.649
 5638SOL    HW117813   6.154   5.539   0.697
 5638SOL    HW217814   6.057   5.637   0.609
 5639SOL     OW17815   3.049   0.548   1.659
 5639SOL    HW117816   2.954   0.525   1.678
 5639SOL    HW217817   3.055   0.640   1.621
 5640SOL     OW17818   2.946   0.001   3.114
 5640SOL    HW117819   3.024   0.062   3.127
 5640SOL    HW217820   2.978   6.925   3.089
 5641SOL     OW17821   6.848   4.131   3.686
 5641SOL    HW117822   6.769   4.104   3.630
 5641SOL    HW217823   6.912   4.183   3.629
 5642SOL     OW17824   2.455   3.628   6.393
 5642SOL    HW117825   2.436   3.536   6.427
 5642SOL    HW217826   2.370   3.671   6.362
 5643SOL     OW17827   6.118   2.294   4.318
 5643SOL    HW117828   6.152   2.335   4.403
 5643SOL    HW217829   6.191   2.296   4.249
 5644SOL     OW17830   4.057   0.398   5.367
 5644SOL    HW117831   3.982   0.332   5.379
 5644SOL    HW217832   4.069   0.417   5.270
 5645SOL     OW17833   6.163   6.561   3.458
 5645SOL    HW117834   6.169   6.661   3.462
 5645SOL    HW217835   6.226   6.522   3.525
 5646SOL     OW17836   6.498   6.496   3.868
 5646SOL    HW117837   6.411   6.540   3.847
 5646SOL    HW217838   6.554   6.489   3.786
 5647SOL     OW17839   6.728   4.043   6.809
 5647SOL    HW117840   6.775   4.131   6.798
 5647SOL    HW217841   6.795   3.970   6.813
 5648SOL     OW17842   2.837   1.075   4.622
 5648SOL    HW117843   2.843   1.134   4.703
 5648SOL    HW217844   2.794   1.126   4.547
 5649SOL     OW17845   1.271   0.019   5.662
 5649SOL    HW117846   1.321   6.976   5.726
 5649SOL    HW217847   1.324   0.031   5.578
 5650SOL     OW17848   6.592   4.847   6.030
 5650SOL    HW117849   6.641   4.873   6.113
 5650SOL    HW217850   6.642   4.880   5.950
 5651SOL     OW17851   5.695   1.550   2.333
 5651SOL    HW117852   5.780   1.505   2.359
 5651SOL    HW217853   5.673   1.623   2.398
 5652SOL     OW17854   5.839   4.176   0.710
 5652SOL    HW117855   5.922   4.143   0.755
 5652SOL    HW217856   5.858   4.195   0.614
 5653SOL     OW17857   2.060   6.054   6.233
 5653SOL    HW117858   1.965   6.066   6.260
 5653SOL    HW217859   2.065   5.997   6.151
 5654SOL     OW17860   1.731   6.080   6.579
 5654SOL    HW117861   1.767   6.053   6.490
 5654SOL    HW217862   1.667   6.156   6.568
 5655SOL     OW17863   6.656   5.458   3.034
 5655SOL    HW117864   6.650   5.423   3.127
 5655SOL    HW217865   6.747   5.497   3.019
 5656SOL     OW17866   3.673   5.754   6.470
 5656SOL    HW117867   3.764   5.774   6.507
 5656SOL    HW217868   3.661   5.803   6.384
 5657SOL     OW17869   4.259   5.541   2.005
 5657SOL    HW117870   4.293   5.631   1.977
 5657SOL    HW217871   4.177   5.518   1.953
 5658SOL     OW17872   5.276   6.509   5.700
 5658SOL    HW117873   5.259   6.563   5.783
 5658SOL    HW217874   5.374   6.489   5.693
 5659SOL     OW17875   3.049   3.888   2.813
 5659SOL    HW117876   2.996   3.809   2.841
 5659SOL    HW217877   2.994   3.945   2.752
 5660SOL     OW17878   6.225   6.198   1.588
 5660SOL    HW117879   6.157   6.171   1.520
 5660SOL    HW217880   6.264   6.287   1.563
 5661SOL     OW17881   6.167   5.766   4.569
 5661SOL    HW117882   6.218   5.839   4.524
 5661SOL    HW217883   6.225   5.684   4.574
 5662SOL     OW17884   2.363   4.839   4.993
 5662SOL    HW117885   2.428   4.769   5.023
 5662SOL    HW217886   2.285   4.796   4.948
 5663SOL     OW17887   2.588   4.237   1.387
 5663SOL    HW117888   2.666   4.285   1.428
 5663SOL    HW217889   2.524   4.304   1.350
 5664SOL     OW17890   0.150   5.915   2.616
 5664SOL    HW117891   0.104   5.911   2.704
 5664SOL    HW217892   0.083   5.936   2.544
 5665SOL     OW17893   1.586   1.395   6.105
 5665SOL    HW117894   1.630   1.481   6.128
 5665SOL    HW217895   1.532   1.406   6.022
 5666SOL     OW17896   5.936   5.917   0.287
 5666SOL    HW117897   5.934   5.991   0.354
 5666SOL    HW217898   5.957   5.954   0.197
 5667SOL     OW17899   6.420   5.588   2.935
 5667SOL    HW117900   6.379   5.505   2.897
 5667SOL    HW217901   6.514   5.568   2.963
 5668SOL     OW17902   6.205   3.630   5.836
 5668SOL    HW117903   6.172   3.551   5.785
 5668SOL    HW217904   6.255   3.600   5.917
 5669SOL     OW17905   6.842   3.265   5.049
 5669SOL    HW117906   6.925   3.230   5.093
 5669SOL    HW217907   6.858   3.359   5.018
 5670SOL     OW17908   1.433   3.659   2.295
 5670SOL    HW117909   1.430   3.565   2.330
 5670SOL    HW217910   1.523   3.676   2.255
 5671SOL     OW17911   1.421   0.884   5.372
 5671SOL    HW117912   1.376   0.807   5.415
 5671SOL    HW217913   1.368   0.914   5.292
 5672SOL     OW17914   5.184   3.647   6.093
 5672SOL    HW117915   5.091   3.630   6.126
 5672SOL    HW217916   5.180   3.703   6.010
 5673SOL     OW17917   1.450   0.413   1.093
 5673SOL    HW117918   1.531   0.416   1.035
 5673SOL    HW217919   1.376   0.365   1.046
 5674SOL     OW17920   6.210   3.128   1.281
 5674SOL    HW117921   6.169   3.037   1.271
 5674SOL    HW217922   6.246   3.157   1.192
 5675SOL     OW17923   3.723   1.199   6.328
 5675SOL    HW117924   3.714   1.101   6.341
 5675SOL    HW217925   3.632   1.241   6.321
 5676SOL     OW17926   3.508   0.067   1.626
 5676SOL    HW117927   3.501   6.984   1.610
 5676SOL    HW217928   3.452   0.117   1.560
 5677SOL     OW17929   6.793   1.028   3.741
 5677SOL    HW117930   6.889   1.038   3.768
 5677SOL    HW217931   6.765   1.107   3.687
 5678SOL     OW17932   1.765   5.165   3.444
 5678SOL    HW117933   1.821   5.190   3.365
 5678SOL    HW217934   1.716   5.080   3.424
 5679SOL     OW17935   3.265   5.746   5.135
 5679SOL    HW117936   3.349   5.789   5.168
 5679SOL    HW217937   3.188   5.808   5.151
 5680SOL     OW17938   2.131   0.043   6.536
 5680SOL    HW117939   2.187   0.072   6.459
 5680SOL    HW217940   2.189   0.006   6.608
 5681SOL     OW17941   2.752   3.853   0.234
 5681SOL    HW117942   2.760   3.939   0.184
 5681SOL    HW217943   2.655   3.825   0.238
 5682SOL     OW17944   0.930   3.965   4.150
 5682SOL    HW117945   1.025   3.984   4.127
 5682SOL    HW217946   0.877   3.952   4.065
 5683SOL     OW17947   4.109   3.479   4.650
 5683SOL    HW117948   4.111   3.572   4.613
 5683SOL    HW217949   4.150   3.478   4.741
 5684SOL     OW17950   2.876   3.695   2.898
 5684SOL    HW117951   2.857   3.730   2.990
 5684SOL    HW217952   2.888   3.596   2.902
 5685SOL     OW17953   0.670   5.420   1.953
 5685SOL    HW117954   0.702   5.325   1.954
 5685SOL    HW217955   0.691   5.463   2.040
 5686SOL     OW17956   3.746   5.087   6.878
 5686SOL    HW117957   3.768   5.104   6.782
 5686SOL    HW217958   3.722   5.174   6.922
 5687SOL     OW17959   4.267   5.610   6.281
 5687SOL    HW117960   4.229   5.683   6.339
 5687SOL    HW217961   4.244   5.628   6.185
 5688SOL     OW17962   5.691   1.762   2.514
 5688SOL    HW117963   5.765   1.773   2.448
 5688SOL    HW217964   5.710   1.819   2.594
 5689SOL     OW17965   4.487   3.118   6.556
 5689SOL    HW117966   4.496   3.209   6.596
 5689SOL    HW217967   4.436   3.059   6.618
 5690SOL     OW17968   4.301   6.486   2.170
 5690SOL    HW117969   4.264   6.478   2.078
 5690SOL    HW217970   4.235   6.532   2.229
 5691SOL     OW17971   2.671   0.328   3.615
 5691SOL    HW117972   2.626   0.411   3.580
 5691SOL    HW217973   2.760   0.317   3.571
 5692SOL     OW17974   5.743   3.395   0.104
 5692SOL    HW117975   5.775   3.301   0.088
 5692SOL    HW217976   5.722   3.407   0.202
 5693SOL     OW17977   4.898   2.568   2.625
 5693SOL    HW117978   4.885   2.564   2.724
 5693SOL    HW217979   4.886   2.662   2.594
 5694SOL     OW17980   1.669   1.707   4.088
 5694SOL    HW117981   1.736   1.654   4.036
 5694SOL    HW217982   1.717   1.778   4.141
 5695SOL     OW17983   1.824   3.981   3.574
 5695SOL    HW117984   1.772   3.904   3.610
 5695SOL    HW217985   1.825   3.977   3.474
 5696SOL     OW17986   3.312   0.624   5.941
 5696SOL    HW117987   3.410   0.628   5.960
 5696SOL    HW217988   3.281   0.714   5.910
 5697SOL     OW17989   6.290   3.522   7.008
 5697SOL    HW117990   6.194   3.498   0.012
 5697SOL    HW217991   6.297   3.559   6.916
 5698SOL     OW17992   1.048   4.210   2.849
 5698SOL    HW117993   1.006   4.259   2.925
 5698SOL    HW217994   1.064   4.115   2.875
 5699SOL     OW17995   6.509   1.674   4.786
 5699SOL    HW117996   6.576   1.739   4.751
 5699SOL    HW217997   6.427   1.676   4.728
 5700SOL     OW17998   1.030   5.413   2.850
 5700SOL    HW117999   1.103   5.480   2.854
 5700SOL    HW218000   0.970   5.425   2.929
 5701SOL     OW18001   5.300   4.941   2.153
 5701SOL    HW118002   5.246   5.014   2.197
 5701SOL    HW218003   5.353   4.979   2.078
 5702SOL     OW18004   2.283   0.511   6.930
 5702SOL    HW118005   2.237   0.432   6.890
 5702SOL    HW218006   2.277   0.589   6.867
 5703SOL     OW18007   4.681   4.249   1.739
 5703SOL    HW118008   4.586   4.254   1.771
 5703SOL    HW218009   4.741   4.239   1.818
 5704SOL     OW18010   5.076   4.388   3.251
 5704SOL    HW118011   5.136   4.448   3.303
 5704SOL    HW218012   5.127   4.345   3.177
 5705SOL     OW18013   5.605   1.511   2.761
 5705SOL    HW118014   5.666   1.589   2.775
 5705SOL    HW218015   5.630   1.463   2.677
 5706SOL     OW18016   2.066   0.933   6.866
 5706SOL    HW118017   2.085   0.994   6.943
 5706SOL    HW218018   1.978   0.887   6.880
 5707SOL     OW18019   3.422   1.797   6.348
 5707SOL    HW118020   3.343   1.835   6.397
 5707SOL    HW218021   3.505   1.837   6.385
 5708SOL     OW18022   6.456   6.823   1.889
 5708SOL    HW118023   6.556   6.828   1.895
 5708SOL    HW218024   6.428   6.728   1.873
 5709SOL     OW18025   1.265   1.278   2.349
 5709SOL    HW118026   1.317   1.358   2.381
 5709SOL    HW218027   1.174   1.308   2.319
 5710SOL     OW18028   3.251   4.299   6.556
 5710SOL    HW118029   3.241   4.262   6.463
 5710SOL    HW218030   3.303   4.384   6.552
 5711SOL     OW18031   4.703   1.234   4.851
 5711SOL    HW118032   4.687   1.281   4.937
 5711SOL    HW218033   4.795   1.254   4.818
 5712SOL     OW18034   6.935   6.260   6.805
 5712SOL    HW118035   6.925   6.350   6.763
 5712SOL    HW218036   6.944   6.271   6.904
 5713SOL     OW18037   6.870   2.635   2.749
 5713SOL    HW118038   6.829   2.550   2.718
 5713SOL    HW218039   6.932   2.617   2.824
 5714SOL     OW18040   2.171   0.843   6.397
 5714SOL    HW118041   2.130   0.890   6.475
 5714SOL    HW218042   2.228   0.768   6.429
 5715SOL     OW18043   1.624   6.745   3.449
 5715SOL    HW118044   1.594   6.651   3.433
 5715SOL    HW218045   1.712   6.760   3.403
 5716SOL     OW18046   1.705   2.585   4.856
 5716SOL    HW118047   1.744   2.645   4.927
 5716SOL    HW218048   1.738   2.614   4.766
 5717SOL     OW18049   0.455   3.599   0.104
 5717SOL    HW118050   0.437   3.690   0.068
 5717SOL    HW218051   0.434   3.596   0.202
 5718SOL     OW18052   2.250   5.374   4.955
 5718SOL    HW118053   2.247   5.275   4.964
 5718SOL    HW218054   2.294   5.398   4.868
 5719SOL     OW18055   2.672   0.442   0.276
 5719SOL    HW118056   2.707   0.522   0.227
 5719SOL    HW218057   2.572   0.442   0.272
 5720SOL     OW18058   2.272   5.932   3.834
 5720SOL    HW118059   2.302   5.964   3.744
 5720SOL    HW218060   2.260   6.010   3.895
 5721SOL     OW18061   0.178   4.066   0.435
 5721SOL    HW118062   0.240   4.126   0.385
 5721SOL    HW218063   0.189   4.081   0.533
 5722SOL     OW18064   5.477   1.304   3.581
 5722SOL    HW118065   5.401   1.257   3.626
 5722SOL    HW218066   5.558   1.246   3.583
 5723SOL     OW18067   1.187   4.394   0.612
 5723SOL    HW118068   1.113   4.447   0.654
 5723SOL    HW218069   1.150   4.307   0.579
 5724SOL     OW18070   4.957   2.163   6.219
 5724SOL    HW118071   4.898   2.186   6.296
 5724SOL    HW218072   4.972   2.064   6.217
 5725SOL     OW18073   4.924   5.914   5.761
 5725SOL    HW118074   4.862   5.991   5.778
 5725SOL    HW218075   4.886   5.856   5.690
 5726SOL     OW18076   4.290   3.919   5.317
 5726SOL    HW118077   4.366   3.925   5.382
 5726SOL    HW218078   4.313   3.854   5.245
 5727SOL     OW18079   6.106   2.162   3.717
 5727SOL    HW118080   6.193   2.114   3.710
 5727SOL    HW218081   6.033   2.105   3.682
 5728SOL     OW18082   4.802   0.629   5.943
 5728SOL    HW118083   4.789   0.727   5.962
 5728SOL    HW218084   4.736   0.576   5.997
 5729SOL     OW18085   1.237   3.350   4.815
 5729SOL    HW118086   1.173   3.280   4.845
 5729SOL    HW218087   1.297   3.313   4.745
 5730SOL     OW18088   4.037   5.468   6.909
 5730SOL    HW118089   4.096   5.463   6.990
 5730SOL    HW218090   3.973   5.391   6.910
 5731SOL     OW18091   4.187   1.163   4.693
 5731SOL    HW118092   4.134   1.238   4.654
 5731SOL    HW218093   4.270   1.149   4.639
 5732SOL     OW18094   5.640   4.153   4.022
 5732SOL    HW118095   5.651   4.089   4.098
 5732SOL    HW218096   5.725   4.205   4.011
 5733SOL     OW18097   2.358   6.831   1.231
 5733SOL    HW118098   2.404   6.896   1.171
 5733SOL    HW218099   2.268   6.865   1.255
 5734SOL     OW18100   1.565   6.620   6.450
 5734SOL    HW118101   1.573   6.718   6.467
 5734SOL    HW218102   1.470   6.599   6.426
 5735SOL     OW18103   5.160   0.773   2.346
 5735SOL    HW118104   5.157   0.873   2.347
 5735SOL    HW218105   5.067   0.737   2.357
 5736SOL     OW18106   6.178   4.569   6.822
 5736SOL    HW118107   6.241   4.513   6.876
 5736SOL    HW218108   6.088   4.567   6.865
 5737SOL     OW18109   4.506   5.566   1.709
 5737SOL    HW118110   4.413   5.585   1.677
 5737SOL    HW218111   4.556   5.653   1.716
 5738SOL     OW18112   2.134   0.391   0.864
 5738SOL    HW118113   2.128   0.300   0.906
 5738SOL    HW218114   2.225   0.429   0.880
 5739SOL     OW18115   2.391   1.364   5.974
 5739SOL    HW118116   2.317   1.298   5.988
 5739SOL    HW218117   2.453   1.331   5.903
 5740SOL     OW18118   4.932   3.549   2.452
 5740SOL    HW118119   4.999   3.493   2.499
 5740SOL    HW218120   4.883   3.494   2.384
 5741SOL     OW18121   0.379   3.377   3.984
 5741SOL    HW118122   0.349   3.281   3.981
 5741SOL    HW218123   0.346   3.424   3.902
 5742SOL     OW18124   5.790   6.866   3.301
 5742SOL    HW118125   5.724   6.941   3.308
 5742SOL    HW218126   5.764   6.807   3.224
 5743SOL     OW18127   3.150   5.388   6.731
 5743SOL    HW118128   3.143   5.481   6.768
 5743SOL    HW218129   3.228   5.383   6.669
 5744SOL     OW18130   5.326   6.789   3.225
 5744SOL    HW118131   5.348   6.876   3.180
 5744SOL    HW218132   5.251   6.804   3.290
 5745SOL     OW18133   1.066   2.799   1.866
 5745SOL    HW118134   1.001   2.753   1.926
 5745SOL    HW218135   1.115   2.869   1.917
 5746SOL     OW18136   4.964   6.638   3.252
 5746SOL    HW118137   5.028   6.593   3.189
 5746SOL    HW218138   4.922   6.570   3.312
 5747SOL     OW18139   1.496   6.855   0.856
 5747SOL    HW118140   1.404   6.839   0.890
 5747SOL    HW218141   1.550   6.771   0.866
 5748SOL     OW18142   6.956   6.219   0.942
 5748SOL    HW118143   0.006   6.192   0.871
 5748SOL    HW218144   6.927   6.138   0.994
 5749SOL     OW18145   1.940   5.665   6.155
 5749SOL    HW118146   1.870   5.728   6.122
 5749SOL    HW218147   2.013   5.716   6.200
 5750SOL     OW18148   6.951   2.969   4.683
 5750SOL    HW118149   6.999   3.010   4.605
 5750SOL    HW218150   6.930   3.041   4.750
 5751SOL     OW18151   1.331   3.840   4.748
 5751SOL    HW118152   1.329   3.777   4.826
 5751SOL    HW218153   1.407   3.904   4.759
 5752SOL     OW18154   5.402   0.629   1.057
 5752SOL    HW118155   5.368   0.564   0.989
 5752SOL    HW218156   5.458   0.699   1.012
 5753SOL     OW18157   3.705   4.195   4.853
 5753SOL    HW118158   3.723   4.131   4.777
 5753SOL    HW218159   3.750   4.282   4.835
 5754SOL     OW18160   0.752   5.711   1.470
 5754SOL    HW118161   0.692   5.791   1.466
 5754SOL    HW218162   0.723   5.644   1.403
 5755SOL     OW18163   0.920   2.814   6.398
 5755SOL    HW118164   0.852   2.823   6.471
 5755SOL    HW218165   0.910   2.724   6.355
 5756SOL     OW18166   5.573   6.284   1.473
 5756SOL    HW118167   5.624   6.369   1.465
 5756SOL    HW218168   5.622   6.210   1.426
 5757SOL     OW18169   6.795   1.056   4.019
 5757SOL    HW118170   6.752   1.047   3.930
 5757SOL    HW218171   6.806   1.153   4.041
 5758SOL     OW18172   5.951   6.601   3.158
 5758SOL    HW118173   6.018   6.669   3.189
 5758SOL    HW218174   5.876   6.647   3.110
 5759SOL     OW18175   2.667   0.141   1.457
 5759SOL    HW118176   2.646   0.218   1.397
 5759SOL    HW218177   2.653   0.170   1.552
 5760SOL     OW18178   1.935   2.644   0.040
 5760SOL    HW118179   2.023   2.619   7.015
 5760SOL    HW218180   1.946   2.728   0.094
 5761SOL     OW18181   6.474   6.898   4.577
 5761SOL    HW118182   6.556   6.913   4.633
 5761SOL    HW218183   6.444   6.804   4.587
 5762SOL     OW18184   0.515   5.440   6.277
 5762SOL    HW118185   0.489   5.410   6.185
 5762SOL    HW218186   0.496   5.538   6.287
 5763SOL     OW18187   5.810   0.178   0.334
 5763SOL    HW118188   5.715   0.192   0.305
 5763SOL    HW218189   5.813   0.166   0.434
 5764SOL     OW18190   4.884   6.178   3.975
 5764SOL    HW118191   4.847   6.179   4.068
 5764SOL    HW218192   4.847   6.255   3.923
 5765SOL     OW18193   6.060   5.140   2.490
 5765SOL    HW118194   6.155   5.112   2.484
 5765SOL    HW218195   6.003   5.077   2.438
 5766SOL     OW18196   0.243   1.226   4.496
 5766SOL    HW118197   0.319   1.263   4.550
 5766SOL    HW218198   0.157   1.243   4.543
 5767SOL     OW18199   3.914   6.677   6.814
 5767SOL    HW118200   3.856   6.738   6.868
 5767SOL    HW218201   3.891   6.582   6.834
 5768SOL     OW18202   0.630   0.793   5.270
 5768SOL    HW118203   0.560   0.832   5.211
 5768SOL    HW218204   0.720   0.810   5.230
 5769SOL     OW18205   1.787   3.897   5.499
 5769SOL    HW118206   1.824   3.808   5.524
 5769SOL    HW218207   1.860   3.965   5.499
 5770SOL     OW18208   2.363   4.109   1.792
 5770SOL    HW118209   2.369   4.081   1.696
 5770SOL    HW218210   2.330   4.032   1.847
 5771SOL     OW18211   3.589   4.953   4.182
 5771SOL    HW118212   3.503   4.956   4.233
 5771SOL    HW218213   3.631   4.863   4.191
 5772SOL     OW18214   3.213   0.185   2.248
 5772SOL    HW118215   3.243   0.131   2.327
 5772SOL    HW218216   3.282   0.255   2.228
 5773SOL     OW18217   4.940   1.423   2.613
 5773SOL    HW118218   4.927   1.522   2.604
 5773SOL    HW218219   5.036   1.405   2.634
 5774SOL     OW18220   0.673   6.927   2.113
 5774SOL    HW118221   0.683   6.906   2.210
 5774SOL    HW218222   0.642   0.006   2.102
 5775SOL     OW18223   6.091   5.453   1.614
 5775SOL    HW118224   6.147   5.532   1.639
 5775SOL    HW218225   6.016   5.444   1.679
 5776SOL     OW18226   2.962   1.104   4.151
 5776SOL    HW118227   2.994   1.097   4.246
 5776SOL    HW218228   2.970   1.199   4.121
 5777SOL     OW18229   1.897   6.496   2.274
 5777SOL    HW118230   1.945   6.525   2.192
 5777SOL    HW218231   1.935   6.544   2.354
 5778SOL     OW18232   0.765   1.745   0.779
 5778SOL    HW118233   0.788   1.707   0.690
 5778SOL    HW218234   0.764   1.672   0.847
 5779SOL     OW18235   5.773   1.101   6.022
 5779SOL    HW118236   5.806   1.010   6.047
 5779SOL    HW218237   5.756   1.153   6.106
 5780SOL     OW18238   5.188   5.424   4.354
 5780SOL    HW118239   5.184   5.377   4.442
 5780SOL    HW218240   5.096   5.426   4.313
 5781SOL     OW18241   0.883   5.049   5.098
 5781SOL    HW118242   0.970   5.093   5.074
 5781SOL    HW218243   0.869   4.969   5.041
 5782SOL     OW18244   0.300   0.619   0.420
 5782SOL    HW118245   0.381   0.651   0.371
 5782SOL    HW218246   0.326   0.545   0.482
 5783SOL     OW18247   1.861   1.932   0.761
 5783SOL    HW118248   1.762   1.930   0.776
 5783SOL    HW218249   1.902   2.001   0.820
 5784SOL     OW18250   6.759   5.784   6.810
 5784SOL    HW118251   6.663   5.809   6.801
 5784SOL    HW218252   6.806   5.802   6.723
 5785SOL     OW18253   0.816   1.183   0.605
 5785SOL    HW118254   0.771   1.244   0.539
 5785SOL    HW218255   0.911   1.210   0.616
 5786SOL     OW18256   5.663   5.435   1.938
 5786SOL    HW118257   5.680   5.526   1.975
 5786SOL    HW218258   5.745   5.404   1.890
 5787SOL     OW18259   2.436   2.738   6.226
 5787SOL    HW118260   2.395   2.829   6.220
 5787SOL    HW218261   2.529   2.741   6.188
 5788SOL     OW18262   2.312   1.053   3.608
 5788SOL    HW118263   2.280   1.085   3.697
 5788SOL    HW218264   2.288   0.956   3.598
 5789SOL     OW18265   3.758   4.661   6.127
 5789SOL    HW118266   3.767   4.686   6.224
 5789SOL    HW218267   3.831   4.705   6.074
 5790SOL     OW18268   1.093   3.224   3.544
 5790SOL    HW118269   1.040   3.168   3.608
 5790SOL    HW218270   1.110   3.171   3.460
 5791SOL     OW18271   2.123   0.852   2.869
 5791SOL    HW118272   2.098   0.854   2.772
 5791SOL    HW218273   2.159   0.762   2.893
 5792SOL     OW18274   6.822   2.378   2.621
 5792SOL    HW118275   6.815   2.418   2.530
 5792SOL    HW218276   6.864   2.288   2.615
 5793SOL     OW18277   0.282   0.657   4.087
 5793SOL    HW118278   0.291   0.660   3.987
 5793SOL    HW218279   0.247   0.568   4.115
 5794SOL     OW18280   5.004   4.349   6.559
 5794SOL    HW118281   4.942   4.352   6.637
 5794SOL    HW218282   4.952   4.337   6.475
 5795SOL     OW18283   5.707   4.368   7.005
 5795SOL    HW118284   5.721   4.279   0.032
 5795SOL    HW218285   5.756   4.373   6.919
 5796SOL     OW18286   3.783   2.390   0.656
 5796SOL    HW118287   3.733   2.371   0.741
 5796SOL    HW218288   3.740   2.468   0.610
 5797SOL     OW18289   3.147   1.999   5.810
 5797SOL    HW118290   3.109   1.907   5.815
 5797SOL    HW218291   3.083   2.059   5.763
 5798SOL     OW18292   6.694   4.538   4.161
 5798SOL    HW118293   6.677   4.475   4.085
 5798SOL    HW218294   6.704   4.630   4.125
 5799SOL     OW18295   5.731   0.224   3.571
 5799SOL    HW118296   5.731   0.127   3.545
 5799SOL    HW218297   5.649   0.268   3.535
 5800SOL     OW18298   5.624   5.171   0.879
 5800SOL    HW118299   5.647   5.268   0.881
 5800SOL    HW218300   5.528   5.160   0.853
 5801SOL     OW18301   2.527   1.216   3.160
 5801SOL    HW118302   2.559   1.308   3.183
 5801SOL    HW218303   2.537   1.200   3.062
 5802SOL     OW18304   0.518   2.732   4.823
 5802SOL    HW118305   0.534   2.830   4.808
 5802SOL    HW218306   0.425   2.709   4.796
 5803SOL     OW18307   1.835   4.354   0.332
 5803SOL    HW118308   1.933   4.342   0.347
 5803SOL    HW218309   1.785   4.288   0.389
 5804SOL     OW18310   6.376   3.330   4.934
 5804SOL    HW118311   6.406   3.277   5.013
 5804SOL    HW218312   6.439   3.407   4.920
 5805SOL     OW18313   5.490   3.524   0.038
 5805SOL    HW118314   5.441   3.568   0.113
 5805SOL    HW218315   5.557   3.460   0.075
 5806SOL     OW18316   0.278   6.387   0.445
 5806SOL    HW118317   0.288   6.439   0.529
 5806SOL    HW218318   0.343   6.311   0.444
 5807SOL     OW18319   2.102   3.635   1.789
 5807SOL    HW118320   2.166   3.583   1.847
 5807SOL    HW218321   2.009   3.618   1.820
 5808SOL     OW18322   6.888   3.450   3.259
 5808SOL    HW118323   6.885   3.498   3.347
 5808SOL    HW218324   6.831   3.368   3.264
 5809SOL     OW18325   6.615   3.510   4.198
 5809SOL    HW118326   6.547   3.550   4.258
 5809SOL    HW218327   6.664   3.437   4.247
 5810SOL     OW18328   2.600   2.400   2.410
 5810SOL    HW118329   2.563   2.403   2.317
 5810SOL    HW218330   2.563   2.476   2.463
 5811SOL     OW18331   2.279   1.620   3.530
 5811SOL    HW118332   2.237   1.536   3.496
 5811SOL    HW218333   2.210   1.692   3.537
 5812SOL     OW18334   4.261   0.766   4.645
 5812SOL    HW118335   4.268   0.678   4.691
 5812SOL    HW218336   4.336   0.825   4.674
 5813SOL     OW18337   1.335   0.620   5.447
 5813SOL    HW118338   1.358   0.614   5.545
 5813SOL    HW218339   1.403   0.568   5.395
 5814SOL     OW18340   0.371   5.161   0.808
 5814SOL    HW118341   0.428   5.078   0.807
 5814SOL    HW218342   0.375   5.203   0.899
 5815SOL     OW18343   3.116   1.760   2.765
 5815SOL    HW118344   3.204   1.726   2.795
 5815SOL    HW218345   3.108   1.749   2.665
 5816SOL     OW18346   4.725   0.288   0.989
 5816SOL    HW118347   4.749   0.379   0.955
 5816SOL    HW218348   4.688   0.233   0.915
 5817SOL     OW18349   5.065   1.952   5.057
 5817SOL    HW118350   5.138   1.993   5.003
 5817SOL    HW218351   4.977   1.973   5.014
 5818SOL     OW18352   5.979   6.186   6.141
 5818SOL    HW118353   6.033   6.102   6.134
 5818SOL    HW218354   6.019   6.256   6.081
 5819SOL     OW18355   6.135   0.186   0.976
 5819SOL    HW118356   6.143   0.255   1.048
 5819SOL    HW218357   6.196   0.211   0.900
 5820SOL     OW18358   5.423   6.198   3.169
 5820SOL    HW118359   5.375   6.244   3.244
 5820SOL    HW218360   5.392   6.235   3.082
 5821SOL     OW18361   2.738   0.634   1.446
 5821SOL    HW118362   2.725   0.582   1.530
 5821SOL    HW218363   2.712   0.729   1.461
 5822SOL     OW18364   0.246   1.474   2.109
 5822SOL    HW118365   0.276   1.379   2.100
 5822SOL    HW218366   0.298   1.518   2.182
 5823SOL     OW18367   2.669   2.075   4.164
 5823SOL    HW118368   2.677   2.106   4.069
 5823SOL    HW218369   2.647   1.977   4.165
 5824SOL     OW18370   4.919   0.269   3.972
 5824SOL    HW118371   4.858   0.202   3.929
 5824SOL    HW218372   4.865   0.344   4.010
 5825SOL     OW18373   2.514   0.697   0.915
 5825SOL    HW118374   2.559   0.740   0.837
 5825SOL    HW218375   2.574   0.699   0.995
 5826SOL     OW18376   6.708   0.821   4.644
 5826SOL    HW118377   6.807   0.825   4.647
 5826SOL    HW218378   6.675   0.768   4.722
 5827SOL     OW18379   1.003   5.512   4.916
 5827SOL    HW118380   0.908   5.482   4.925
 5827SOL    HW218381   1.055   5.442   4.866
 5828SOL     OW18382   0.087   3.227   1.750
 5828SOL    HW118383   0.078   3.298   1.820
 5828SOL    HW218384   0.159   3.253   1.686
 5829SOL     OW18385   1.709   1.271   1.579
 5829SOL    HW118386   1.793   1.218   1.580
 5829SOL    HW218387   1.715   1.341   1.507
 5830SOL     OW18388   2.008   1.587   5.850
 5830SOL    HW118389   1.918   1.611   5.814
 5830SOL    HW218390   2.078   1.641   5.803
 5831SOL     OW18391   5.553   6.505   3.132
 5831SOL    HW118392   5.577   6.412   3.160
 5831SOL    HW218393   5.506   6.552   3.206
 5832SOL     OW18394   3.663   3.864   5.151
 5832SOL    HW118395   3.599   3.910   5.089
 5832SOL    HW218396   3.757   3.891   5.127
 5833SOL     OW18397   3.762   3.257   4.893
 5833SOL    HW118398   3.843   3.198   4.893
 5833SOL    HW218399   3.762   3.312   4.809
 5834SOL     OW18400   5.970   1.024   0.461
 5834SOL    HW118401   5.914   1.084   0.519
 5834SOL    HW218402   6.067   1.041   0.479
 5835SOL     OW18403   4.982   2.429   4.098
 5835SOL    HW118404   4.950   2.523   4.083
 5835SOL    HW218405   5.049   2.405   4.029
 5836SOL     OW18406   3.442   6.040   2.365
 5836SOL    HW118407   3.527   6.008   2.406
 5836SOL    HW218408   3.459   6.124   2.314
 5837SOL     OW18409   4.730   4.456   6.495
 5837SOL    HW118410   4.759   4.381   6.435
 5837SOL    HW218411   4.636   4.439   6.525
 5838SOL     OW18412   1.126   1.112   5.573
 5838SOL    HW118413   1.036   1.154   5.584
 5838SOL    HW218414   1.129   1.061   5.487
 5839SOL     OW18415   0.152   3.404   2.782
 5839SOL    HW118416   0.099   3.340   2.837
 5839SOL    HW218417   0.093   3.448   2.715
 5840SOL     OW18418   1.960   4.949   6.263
 5840SOL    HW118419   2.050   4.911   6.285
 5840SOL    HW218420   1.951   5.039   6.305
 5841SOL     OW18421   6.965   2.288   3.022
 5841SOL    HW118422   0.010   2.346   3.077
 5841SOL    HW218423   6.873   2.288   3.062
 5842SOL     OW18424   3.824   3.411   0.683
 5842SOL    HW118425   3.819   3.485   0.751
 5842SOL    HW218426   3.914   3.412   0.640
 5843SOL     OW18427   1.330   3.431   1.754
 5843SOL    HW118428   1.428   3.449   1.761
 5843SOL    HW218429   1.291   3.491   1.684
 5844SOL     OW18430   0.941   6.194   6.889
 5844SOL    HW118431   0.946   6.179   6.790
 5844SOL    HW218432   0.946   6.292   6.908
 5845SOL     OW18433   0.889   2.208   4.616
 5845SOL    HW118434   0.818   2.275   4.637
 5845SOL    HW218435   0.975   2.255   4.595
 5846SOL     OW18436   6.818   3.165   6.015
 5846SOL    HW118437   6.893   3.229   5.997
 5846SOL    HW218438   6.832   3.081   5.962
 5847SOL     OW18439   2.142   2.643   3.108
 5847SOL    HW118440   2.164   2.590   3.190
 5847SOL    HW218441   2.121   2.737   3.135
 5848SOL     OW18442   1.428   4.652   3.689
 5848SOL    HW118443   1.426   4.557   3.720
 5848SOL    HW218444   1.505   4.700   3.732
 5849SOL     OW18445   2.499   6.572   5.716
 5849SOL    HW118446   2.409   6.538   5.688
 5849SOL    HW218447   2.489   6.665   5.751
 5850SOL     OW18448   0.832   4.543   2.666
 5850SOL    HW118449   0.893   4.509   2.595
 5850SOL    HW218450   0.737   4.533   2.636
 5851SOL     OW18451   6.309   3.354   1.952
 5851SOL    HW118452   6.324   3.449   1.980
 5851SOL    HW218453   6.220   3.323   1.985
 5852SOL     OW18454   4.144   5.580   3.017
 5852SOL    HW118455   4.059   5.620   2.982
 5852SOL    HW218456   4.123   5.496   3.067
 5853SOL     OW18457   3.503   4.284   5.801
 5853SOL    HW118458   3.456   4.341   5.868
 5853SOL    HW218459   3.439   4.258   5.728
 5854SOL     OW18460   6.940   1.061   6.603
 5854SOL    HW118461   6.907   0.990   6.665
 5854SOL    HW218462   0.018   1.087   6.629
 5855SOL     OW18463   1.776   1.111   4.856
 5855SOL    HW118464   1.743   1.131   4.764
 5855SOL    HW218465   1.733   1.027   4.889
 5856SOL     OW18466   2.085   4.818   3.812
 5856SOL    HW118467   2.110   4.894   3.872
 5856SOL    HW218468   2.092   4.732   3.862
 5857SOL     OW18469   6.789   2.582   5.346
 5857SOL    HW118470   6.701   2.566   5.304
 5857SOL    HW218471   6.812   2.680   5.340
 5858SOL     OW18472   3.672   0.813   2.579
 5858SOL    HW118473   3.723   0.827   2.494
 5858SOL    HW218474   3.625   0.898   2.604
 5859SOL     OW18475   6.412   6.349   1.216
 5859SOL    HW118476   6.451   6.267   1.174
 5859SOL    HW218477   6.321   6.328   1.252
 5860SOL     OW18478   1.693   3.609   1.058
 5860SOL    HW118479   1.718   3.557   1.139
 5860SOL    HW218480   1.653   3.696   1.085
 5861SOL     OW18481   6.160   2.248   3.997
 5861SOL    HW118482   6.101   2.329   4.001
 5861SOL    HW218483   6.162   2.213   3.903
 5862SOL     OW18484   4.698   4.211   2.799
 5862SOL    HW118485   4.698   4.113   2.783
 5862SOL    HW218486   4.791   4.243   2.816
 5863SOL     OW18487   2.221   1.444   0.107
 5863SOL    HW118488   2.197   1.402   0.020
 5863SOL    HW218489   2.319   1.431   0.125
 5864SOL     OW18490   4.709   4.949   1.091
 5864SOL    HW118491   4.632   4.892   1.119
 5864SOL    HW218492   4.682   5.008   1.015
 5865SOL     OW18493   3.935   0.514   2.897
 5865SOL    HW118494   4.003   0.588   2.898
 5865SOL    HW218495   3.843   0.553   2.907
 5866SOL     OW18496   3.908   0.258   6.655
 5866SOL    HW118497   3.896   0.335   6.591
 5866SOL    HW218498   3.912   0.172   6.603
 5867SOL     OW18499   0.015   2.414   1.351
 5867SOL    HW118500   0.055   2.392   1.440
 5867SOL    HW218501   0.088   2.438   1.287
 5868SOL     OW18502   1.419   6.937   5.204
 5868SOL    HW118503   1.434   6.856   5.147
 5868SOL    HW218504   1.497   6.999   5.196
 5869SOL     OW18505   2.557   4.586   3.623
 5869SOL    HW118506   2.578   4.492   3.598
 5869SOL    HW218507   2.469   4.612   3.582
 5870SOL     OW18508   5.534   4.913   4.943
 5870SOL    HW118509   5.571   4.980   4.879
 5870SOL    HW218510   5.435   4.902   4.927
 5871SOL     OW18511   3.169   3.113   6.783
 5871SOL    HW118512   3.156   3.067   6.871
 5871SOL    HW218513   3.092   3.093   6.723
 5872SOL     OW18514   3.445   5.976   5.063
 5872SOL    HW118515   3.407   5.939   4.978
 5872SOL    HW218516   3.395   6.059   5.089
 5873SOL     OW18517   2.770   3.498   0.240
 5873SOL    HW118518   2.775   3.563   0.164
 5873SOL    HW218519   2.738   3.545   0.322
 5874SOL     OW18520   1.532   4.193   0.584
 5874SOL    HW118521   1.557   4.198   0.681
 5874SOL    HW218522   1.451   4.135   0.573
 5875SOL     OW18523   4.304   1.873   0.263
 5875SOL    HW118524   4.293   1.774   0.254
 5875SOL    HW218525   4.213   1.916   0.270
 5876SOL     OW18526   3.535   4.631   5.991
 5876SOL    HW118527   3.628   4.642   6.027
 5876SOL    HW218528   3.474   4.607   6.066
 5877SOL     OW18529   6.888   6.811   2.913
 5877SOL    HW118530   6.846   6.899   2.934
 5877SOL    HW218531   6.824   6.737   2.935
 5878SOL     OW18532   5.018   4.593   2.190
 5878SOL    HW118533   4.974   4.505   2.170
 5878SOL    HW218534   5.116   4.587   2.167
 5879SOL     OW18535   3.735   3.307   5.826
 5879SOL    HW118536   3.764   3.224   5.874
 5879SOL    HW218537   3.726   3.289   5.729
 5880SOL     OW18538   5.527   2.544   5.978
 5880SOL    HW118539   5.565   2.545   5.886
 5880SOL    HW218540   5.547   2.631   6.024
 5881SOL     OW18541   1.522   6.301   2.524
 5881SOL    HW118542   1.451   6.229   2.518
 5881SOL    HW218543   1.486   6.378   2.577
 5882SOL     OW18544   1.533   4.985   5.282
 5882SOL    HW118545   1.607   4.922   5.258
 5882SOL    HW218546   1.473   4.942   5.349
 5883SOL     OW18547   6.606   4.863   0.241
 5883SOL    HW118548   6.588   4.944   0.296
 5883SOL    HW218549   6.635   4.788   0.301
 5884SOL     OW18550   6.167   2.297   2.885
 5884SOL    HW118551   6.149   2.263   2.977
 5884SOL    HW218552   6.173   2.397   2.888
 5885SOL     OW18553   6.329   5.552   0.474
 5885SOL    HW118554   6.286   5.473   0.431
 5885SOL    HW218555   6.267   5.593   0.541
 5886SOL     OW18556   2.111   4.442   3.251
 5886SOL    HW118557   2.154   4.513   3.308
 5886SOL    HW218558   2.061   4.379   3.310
 5887SOL     OW18559   2.732   2.744   0.915
 5887SOL    HW118560   2.737   2.757   1.014
 5887SOL    HW218561   2.699   2.652   0.894
 5888SOL     OW18562   3.434   6.770   1.255
 5888SOL    HW118563   3.336   6.773   1.273
 5888SOL    HW218564   3.465   6.861   1.226
 5889SOL     OW18565   5.968   1.406   1.946
 5889SOL    HW118566   6.056   1.432   1.987
 5889SOL    HW218567   5.984   1.362   1.857
 5890SOL     OW18568   1.254   5.554   2.563
 5890SOL    HW118569   1.286   5.628   2.503
 5890SOL    HW218570   1.270   5.580   2.658
 5891SOL     OW18571   2.444   3.529   6.937
 5891SOL    HW118572   2.499   3.497   7.015
 5891SOL    HW218573   2.348   3.503   6.951
 5892SOL     OW18574   1.374   2.839   0.222
 5892SOL    HW118575   1.279   2.870   0.217
 5892SOL    HW218576   1.416   2.873   0.306
 5893SOL     OW18577   1.046   6.633   1.158
 5893SOL    HW118578   0.987   6.609   1.235
 5893SOL    HW218579   1.016   6.584   1.076
 5894SOL     OW18580   2.226   5.563   6.724
 5894SOL    HW118581   2.278   5.528   6.647
 5894SOL    HW218582   2.282   5.628   6.775
 5895SOL     OW18583   5.298   3.908   3.728
 5895SOL    HW118584   5.217   3.869   3.684
 5895SOL    HW218585   5.270   3.964   3.806
 5896SOL     OW18586   5.697   2.525   2.542
 5896SOL    HW118587   5.647   2.512   2.456
 5896SOL    HW218588   5.707   2.623   2.560
 5897SOL     OW18589   3.942   2.264   0.215
 5897SOL    HW118590   3.985   2.184   0.174
 5897SOL    HW218591   3.961   2.266   0.313
 5898SOL     OW18592   2.115   1.342   6.320
 5898SOL    HW118593   2.054   1.405   6.272
 5898SOL    HW218594   2.209   1.378   6.318
 5899SOL     OW18595   0.566   6.599   6.737
 5899SOL    HW118596   0.645   6.634   6.687
 5899SOL    HW218597   0.543   6.508   6.704
 5900SOL     OW18598   5.899   6.300   3.382
 5900SOL    HW118599   5.903   6.395   3.416
 5900SOL    HW218600   5.815   6.257   3.416
 5901SOL     OW18601   2.554   0.756   5.287
 5901SOL    HW118602   2.552   0.702   5.202
 5901SOL    HW218603   2.461   0.766   5.322
 5902SOL     OW18604   4.456   3.959   6.188
 5902SOL    HW118605   4.441   3.866   6.154
 5902SOL    HW218606   4.502   4.013   6.118
 5903SOL     OW18607   6.078   1.770   5.531
 5903SOL    HW118608   6.125   1.697   5.581
 5903SOL    HW218609   6.011   1.731   5.468
 5904SOL     OW18610   1.308   4.662   1.601
 5904SOL    HW118611   1.282   4.722   1.525
 5904SOL    HW218612   1.339   4.574   1.566
 5905SOL     OW18613   5.675   1.164   4.415
 5905SOL    HW118614   5.624   1.235   4.367
 5905SOL    HW218615   5.749   1.206   4.467
 5906SOL     OW18616   4.885   1.006   5.747
 5906SOL    HW118617   4.813   1.045   5.689
 5906SOL    HW218618   4.897   1.062   5.828
 5907SOL     OW18619   1.624   3.718   5.145
 5907SOL    HW118620   1.610   3.702   5.047
 5907SOL    HW218621   1.664   3.636   5.187
 5908SOL     OW18622   5.248   3.542   6.622
 5908SOL    HW118623   5.174   3.498   6.571
 5908SOL    HW218624   5.295   3.473   6.678
 5909SOL     OW18625   6.822   4.563   3.734
 5909SOL    HW118626   6.742   4.603   3.690
 5909SOL    HW218627   6.898   4.559   3.670
 5910SOL     OW18628   2.732   4.646   0.897
 5910SOL    HW118629   2.688   4.557   0.904
 5910SOL    HW218630   2.673   4.715   0.939
 5911SOL     OW18631   5.446   6.677   0.167
 5911SOL    HW118632   5.432   6.758   0.224
 5911SOL    HW218633   5.404   6.691   0.078
 5912SOL     OW18634   0.217   2.788   5.628
 5912SOL    HW118635   0.136   2.835   5.592
 5912SOL    HW218636   0.207   2.775   5.727
 5913SOL     OW18637   1.258   2.271   5.320
 5913SOL    HW118638   1.332   2.243   5.380
 5913SOL    HW218639   1.294   2.287   5.228
 5914SOL     OW18640   2.066   5.739   1.112
 5914SOL    HW118641   2.070   5.641   1.093
 5914SOL    HW218642   1.972   5.765   1.135
 5915SOL     OW18643   5.251   3.085   3.688
 5915SOL    HW118644   5.207   3.046   3.607
 5915SOL    HW218645   5.185   3.088   3.763
 5916SOL     OW18646   3.293   0.193   6.070
 5916SOL    HW118647   3.321   0.214   5.977
 5916SOL    HW218648   3.204   0.235   6.088
 5917SOL     OW18649   3.986   3.340   2.657
 5917SOL    HW118650   3.910   3.337   2.722
 5917SOL    HW218651   4.041   3.422   2.673
 5918SOL     OW18652   2.333   2.566   3.575
 5918SOL    HW118653   2.395   2.508   3.522
 5918SOL    HW218654   2.347   2.547   3.673
 5919SOL     OW18655   1.428   2.610   0.101
 5919SOL    HW118656   1.524   2.607   0.074
 5919SOL    HW218657   1.411   2.693   0.154
 5920SOL     OW18658   3.072   5.248   6.968
 5920SOL    HW118659   3.140   5.299   6.916
 5920SOL    HW218660   3.105   5.231   0.045
 5921SOL     OW18661   3.853   5.302   5.430
 5921SOL    HW118662   3.931   5.259   5.383
 5921SOL    HW218663   3.814   5.373   5.371
 5922SOL     OW18664   5.880   4.191   1.761
 5922SOL    HW118665   5.808   4.156   1.700
 5922SOL    HW218666   5.839   4.216   1.849
 5923SOL     OW18667   0.012   0.078   3.316
 5923SOL    HW118668   6.988   0.133   3.242
 5923SOL    HW218669   0.111   0.092   3.318
 5924SOL     OW18670   5.341   2.227   4.547
 5924SOL    HW118671   5.429   2.273   4.548
 5924SOL    HW218672   5.286   2.256   4.626
 5925SOL     OW18673   6.366   6.010   1.117
 5925SOL    HW118674   6.392   6.027   1.022
 5925SOL    HW218675   6.273   5.974   1.121
 5926SOL     OW18676   3.820   4.908   2.105
 5926SOL    HW118677   3.799   5.006   2.100
 5926SOL    HW218678   3.756   4.857   2.048
 5927SOL     OW18679   2.450   5.577   2.117
 5927SOL    HW118680   2.362   5.528   2.121
 5927SOL    HW218681   2.511   5.531   2.053
 5928SOL     OW18682   1.024   6.519   1.959
 5928SOL    HW118683   0.961   6.487   2.031
 5928SOL    HW218684   0.986   6.601   1.916
 5929SOL     OW18685   1.600   0.000   5.620
 5929SOL    HW118686   1.555   6.938   5.664
 5929SOL    HW218687   1.546   0.030   5.542
 5930SOL     OW18688   7.011   1.191   5.301
 5930SOL    HW118689   6.978   1.256   5.369
 5930SOL    HW218690   0.008   1.237   5.213
 5931SOL     OW18691   5.575   5.551   1.457
 5931SOL    HW118692   5.565   5.480   1.388
 5931SOL    HW218693   5.669   5.550   1.492
 5932SOL     OW18694   2.204   6.787   6.986
 5932SOL    HW118695   2.157   6.705   0.004
 5932SOL    HW218696   2.302   6.779   7.007
 5933SOL     OW18697   6.094   3.354   2.689
 5933SOL    HW118698   6.193   3.345   2.687
 5933SOL    HW218699   6.054   3.278   2.740
 5934SOL     OW18700   3.740   4.054   3.070
 5934SOL    HW118701   3.804   4.067   2.995
 5934SOL    HW218702   3.650   4.089   3.044
 5935SOL     OW18703   3.831   2.994   3.003
 5935SOL    HW118704   3.744   2.969   2.961
 5935SOL    HW218705   3.880   2.910   3.028
 5936SOL     OW18706   5.587   5.962   6.189
 5936SOL    HW118707   5.598   6.026   6.265
 5936SOL    HW218708   5.663   5.973   6.125
 5937SOL     OW18709   0.885   3.680   0.459
 5937SOL    HW118710   0.847   3.697   0.550
 5937SOL    HW218711   0.918   3.767   0.421
 5938SOL     OW18712   1.785   4.193   1.287
 5938SOL    HW118713   1.862   4.187   1.223
 5938SOL    HW218714   1.799   4.130   1.363
 5939SOL     OW18715   2.336   1.031   3.109
 5939SOL    HW118716   2.257   1.072   3.153
 5939SOL    HW218717   2.420   1.075   3.143
 5940SOL     OW18718   4.486   5.148   3.762
 5940SOL    HW118719   4.468   5.232   3.710
 5940SOL    HW218720   4.559   5.164   3.827
 5941SOL     OW18721   6.409   4.426   2.555
 5941SOL    HW118722   6.442   4.405   2.463
 5941SOL    HW218723   6.360   4.347   2.592
 5942SOL     OW18724   5.660   1.645   5.602
 5942SOL    HW118725   5.671   1.706   5.681
 5942SOL    HW218726   5.703   1.557   5.621
 5943SOL     OW18727   1.198   5.353   6.917
 5943SOL    HW118728   1.101   5.329   6.918
 5943SOL    HW218729   1.221   5.402   7.002
 5944SOL     OW18730   4.556   1.797   2.675
 5944SOL    HW118731   4.510   1.719   2.718
 5944SOL    HW218732   4.576   1.774   2.579
 5945SOL     OW18733   0.246   4.993   5.845
 5945SOL    HW118734   0.239   4.976   5.747
 5945SOL    HW218735   0.341   4.977   5.874
 5946SOL     OW18736   4.015   2.840   5.292
 5946SOL    HW118737   3.986   2.758   5.342
 5946SOL    HW218738   4.114   2.839   5.281
 5947SOL     OW18739   4.086   3.627   1.714
 5947SOL    HW118740   4.106   3.719   1.746
 5947SOL    HW218741   4.124   3.614   1.622
 5948SOL     OW18742   4.023   4.843   2.923
 5948SOL    HW118743   4.068   4.926   2.956
 5948SOL    HW218744   3.925   4.848   2.944
 5949SOL     OW18745   4.506   4.881   2.124
 5949SOL    HW118746   4.475   4.815   2.192
 5949SOL    HW218747   4.595   4.853   2.088
 5950SOL     OW18748   6.337   2.615   3.429
 5950SOL    HW118749   6.305   2.584   3.340
 5950SOL    HW218750   6.277   2.579   3.501
 5951SOL     OW18751   2.212   6.125   3.553
 5951SOL    HW118752   2.145   6.185   3.598
 5951SOL    HW218753   2.277   6.181   3.502
 5952SOL     OW18754   6.967   6.890   4.663
 5952SOL    HW118755   6.970   6.984   4.698
 5952SOL    HW218756   0.004   6.830   4.724
 5953SOL     OW18757   0.268   3.181   6.351
 5953SOL    HW118758   0.296   3.223   6.437
 5953SOL    HW218759   0.277   3.081   6.357
 5954SOL     OW18760   1.447   4.825   6.828
 5954SOL    HW118761   1.433   4.732   6.795
 5954SOL    HW218762   1.384   4.887   6.781
 5955SOL     OW18763   5.325   5.644   2.521
 5955SOL    HW118764   5.380   5.586   2.582
 5955SOL    HW218765   5.233   5.606   2.515
 5956SOL     OW18766   6.078   2.706   6.783
 5956SOL    HW118767   6.005   2.748   6.837
 5956SOL    HW218768   6.160   2.699   6.839
 5957SOL     OW18769   4.809   6.776   5.766
 5957SOL    HW118770   4.744   6.851   5.776
 5957SOL    HW218771   4.864   6.769   5.849
 5958SOL     OW18772   0.749   5.807   2.574
 5958SOL    HW118773   0.724   5.877   2.641
 5958SOL    HW218774   0.828   5.756   2.608
 5959SOL     OW18775   2.025   1.299   6.574
 5959SOL    HW118776   2.065   1.331   6.488
 5959SOL    HW218777   2.097   1.285   6.641
 5960SOL     OW18778   3.730   0.620   4.556
 5960SOL    HW118779   3.765   0.554   4.623
 5960SOL    HW218780   3.805   0.675   4.521
 5961SOL     OW18781   3.012   1.140   6.167
 5961SOL    HW118782   3.027   1.185   6.079
 5961SOL    HW218783   3.062   1.054   6.169
 5962SOL     OW18784   5.685   5.454   2.532
 5962SOL    HW118785   5.602   5.481   2.581
 5962SOL    HW218786   5.668   5.371   2.480
 5963SOL     OW18787   4.076   3.850   2.064
 5963SOL    HW118788   4.053   3.829   2.159
 5963SOL    HW218789   4.146   3.922   2.062
 5964SOL     OW18790   1.165   4.100   5.837
 5964SOL    HW118791   1.256   4.130   5.807
 5964SOL    HW218792   1.118   4.176   5.883
 5965SOL     OW18793   2.313   1.609   4.333
 5965SOL    HW118794   2.407   1.635   4.356
 5965SOL    HW218795   2.298   1.513   4.356
 5966SOL     OW18796   1.587   6.625   4.196
 5966SOL    HW118797   1.491   6.614   4.171
 5966SOL    HW218798   1.635   6.672   4.122
 5967SOL     OW18799   4.447   6.843   2.265
 5967SOL    HW118800   4.473   6.930   2.222
 5967SOL    HW218801   4.508   6.826   2.342
 5968SOL     OW18802   0.535   2.120   4.107
 5968SOL    HW118803   0.524   2.106   4.206
 5968SOL    HW218804   0.452   2.088   4.060
 5969SOL     OW18805   5.674   2.790   2.639
 5969SOL    HW118806   5.647   2.741   2.722
 5969SOL    HW218807   5.704   2.883   2.663
 5970SOL     OW18808   1.926   2.868   3.654
 5970SOL    HW118809   1.943   2.840   3.749
 5970SOL    HW218810   2.005   2.919   3.619
 5971SOL     OW18811   2.451   6.889   2.587
 5971SOL    HW118812   2.365   6.874   2.637
 5971SOL    HW218813   2.470   6.809   2.530
 5972SOL     OW18814   4.509   6.453   1.247
 5972SOL    HW118815   4.479   6.427   1.155
 5972SOL    HW218816   4.511   6.553   1.254
 5973SOL     OW18817   1.050   4.683   3.580
 5973SOL    HW118818   1.094   4.597   3.554
 5973SOL    HW218819   1.113   4.759   3.564
 5974SOL     OW18820   1.108   3.743   6.187
 5974SOL    HW118821   1.056   3.799   6.122
 5974SOL    HW218822   1.047   3.674   6.227
 5975SOL     OW18823   1.666   2.863   6.905
 5975SOL    HW118824   1.613   2.912   6.975
 5975SOL    HW218825   1.758   2.900   6.901
 5976SOL     OW18826   3.351   3.923   5.029
 5976SOL    HW118827   3.353   3.886   5.122
 5976SOL    HW218828   3.350   3.848   4.963
 5977SOL     OW18829   1.115   3.122   3.300
 5977SOL    HW118830   1.200   3.104   3.251
 5977SOL    HW218831   1.042   3.065   3.262
 5978SOL     OW18832   5.472   5.461   2.979
 5978SOL    HW118833   5.379   5.425   2.975
 5978SOL    HW218834   5.524   5.412   3.049
 5979SOL     OW18835   0.391   0.814   2.910
 5979SOL    HW118836   0.327   0.816   2.987
 5979SOL    HW218837   0.351   0.862   2.832
 5980SOL     OW18838   6.450   3.673   5.976
 5980SOL    HW118839   6.414   3.765   5.960
 5980SOL    HW218840   6.467   3.660   6.074
 5981SOL     OW18841   3.833   1.394   1.320
 5981SOL    HW118842   3.790   1.452   1.389
 5981SOL    HW218843   3.927   1.373   1.348
 5982SOL     OW18844   5.951   2.702   6.527
 5982SOL    HW118845   6.008   2.692   6.446
 5982SOL    HW218846   6.007   2.698   6.609
 5983SOL     OW18847   1.079   1.325   4.915
 5983SOL    HW118848   1.124   1.278   4.838
 5983SOL    HW218849   1.133   1.313   4.998
 5984SOL     OW18850   0.282   0.126   5.227
 5984SOL    HW118851   0.196   0.095   5.268
 5984SOL    HW218852   0.359   0.079   5.271
 5985SOL     OW18853   4.772   2.625   4.348
 5985SOL    HW118854   4.860   2.581   4.368
 5985SOL    HW218855   4.711   2.614   4.426
 5986SOL     OW18856   3.727   2.908   2.393
 5986SOL    HW118857   3.761   2.996   2.362
 5986SOL    HW218858   3.647   2.882   2.339
 5987SOL     OW18859   4.309   6.862   5.283
 5987SOL    HW118860   4.273   6.785   5.230
 5987SOL    HW218861   4.405   6.844   5.306
 5988SOL     OW18862   4.096   0.801   3.918
 5988SOL    HW118863   4.156   0.851   3.981
 5988SOL    HW218864   4.071   0.859   3.841
 5989SOL     OW18865   2.715   1.014   6.603
 5989SOL    HW118866   2.774   0.951   6.655
 5989SOL    HW218867   2.663   0.962   6.536
 5990SOL     OW18868   3.102   4.881   1.908
 5990SOL    HW118869   3.173   4.864   1.840
 5990SOL    HW218870   3.013   4.851   1.873
 5991SOL     OW18871   3.031   5.149   3.841
 5991SOL    HW118872   2.977   5.101   3.771
 5991SOL    HW218873   3.107   5.091   3.869
 5992SOL     OW18874   4.606   0.976   4.134
 5992SOL    HW118875   4.646   0.942   4.219
 5992SOL    HW218876   4.656   1.056   4.103
 5993SOL     OW18877   3.654   5.383   4.559
 5993SOL    HW118878   3.607   5.362   4.473
 5993SOL    HW218879   3.747   5.415   4.540
 5994SOL     OW18880   6.924   2.633   1.749
 5994SOL    HW118881   6.952   2.557   1.808
 5994SOL    HW218882   6.975   2.628   1.663
 5995SOL     OW18883   6.963   4.714   1.176
 5995SOL    HW118884   6.865   4.696   1.171
 5995SOL    HW218885   6.984   4.798   1.127
 5996SOL     OW18886   0.860   5.077   6.334
 5996SOL    HW118887   0.797   5.019   6.387
 5996SOL    HW218888   0.814   5.107   6.250
 5997SOL     OW18889   0.662   0.311   1.992
 5997SOL    HW118890   0.631   0.334   1.900
 5997SOL    HW218891   0.726   0.235   1.988
 5998SOL     OW18892   4.334   2.026   3.428
 5998SOL    HW118893   4.258   2.087   3.451
 5998SOL    HW218894   4.300   1.948   3.376
 5999SOL     OW18895   1.781   1.571   2.781
 5999SOL    HW118896   1.862   1.582   2.723
 5999SOL    HW218897   1.704   1.622   2.742
 6000SOL     OW18898   4.327   6.176   2.886
 6000SOL    HW118899   4.400   6.179   2.818
 6000SOL    HW218900   4.264   6.101   2.864
 6001SOL     OW18901   6.258   2.092   6.797
 6001SOL    HW118902   6.170   2.134   6.777
 6001SOL    HW218903   6.332   2.150   6.762
 6002SOL     OW18904   1.763   0.091   1.930
 6002SOL    HW118905   1.690   0.150   1.965
 6002SOL    HW218906   1.722   0.011   1.886
 6003SOL     OW18907   4.677   4.458   3.866
 6003SOL    HW118908   4.581   4.484   3.853
 6003SOL    HW218909   4.734   4.506   3.799
 6004SOL     OW18910   0.038   4.018   1.671
 6004SOL    HW118911   7.007   4.055   1.752
 6004SOL    HW218912   0.102   4.086   1.636
 6005SOL     OW18913   2.577   6.188   2.332
 6005SOL    HW118914   2.493   6.159   2.379
 6005SOL    HW218915   2.656   6.168   2.389
 6006SOL     OW18916   2.313   5.973   0.040
 6006SOL    HW118917   2.219   5.982   0.005
 6006SOL    HW218918   2.341   6.058   0.084
 6007SOL     OW18919   5.540   2.416   3.984
 6007SOL    HW118920   5.446   2.387   3.964
 6007SOL    HW218921   5.537   2.497   4.042
 6008SOL     OW18922   3.979   4.505   6.870
 6008SOL    HW118923   4.046   4.578   6.879
 6008SOL    HW218924   3.946   4.479   6.961
 6009SOL     OW18925   3.246   1.498   4.325
 6009SOL    HW118926   3.171   1.557   4.354
 6009SOL    HW218927   3.273   1.438   4.401
 6010SOL     OW18928   1.877   2.546   3.348
 6010SOL    HW118929   1.907   2.570   3.440
 6010SOL    HW218930   1.945   2.487   3.305
 6011SOL     OW18931   6.802   3.555   2.747
 6011SOL    HW118932   6.825   3.511   2.834
 6011SOL    HW218933   6.881   3.551   2.686
 6012SOL     OW18934   6.570   3.249   1.017
 6012SOL    HW118935   6.583   3.251   0.918
 6012SOL    HW218936   6.656   3.223   1.061
 6013SOL     OW18937   5.779   1.148   2.469
 6013SOL    HW118938   5.809   1.084   2.539
 6013SOL    HW218939   5.690   1.119   2.433
 6014SOL     OW18940   5.527   0.210   1.375
 6014SOL    HW118941   5.542   0.309   1.373
 6014SOL    HW218942   5.433   0.190   1.346
 6015SOL     OW18943   4.959   1.784   4.620
 6015SOL    HW118944   4.867   1.821   4.633
 6015SOL    HW218945   5.020   1.856   4.587
 6016SOL     OW18946   1.813   6.912   5.370
 6016SOL    HW118947   1.776   6.960   5.290
 6016SOL    HW218948   1.765   6.825   5.381
 6017SOL     OW18949   6.683   4.177   2.693
 6017SOL    HW118950   6.686   4.273   2.720
 6017SOL    HW218951   6.757   4.158   2.629
 6018SOL     OW18952   2.635   4.914   0.959
 6018SOL    HW118953   2.700   4.966   0.904
 6018SOL    HW218954   2.552   4.968   0.973
 6019SOL     OW18955   5.026   6.955   4.188
 6019SOL    HW118956   4.943   6.984   4.235
 6019SOL    HW218957   5.078   0.021   4.158
 6020SOL     OW18958   3.371   0.631   2.744
 6020SOL    HW118959   3.301   0.661   2.679
 6020SOL    HW218960   3.435   0.569   2.697
 6021SOL     OW18961   3.999   0.317   2.735
 6021SOL    HW118962   3.983   0.338   2.639
 6021SOL    HW218963   3.982   0.399   2.790
 6022SOL     OW18964   4.205   1.688   5.489
 6022SOL    HW118965   4.233   1.776   5.451
 6022SOL    HW218966   4.193   1.697   5.588
 6023SOL     OW18967   6.668   2.069   2.183
 6023SOL    HW118968   6.618   2.063   2.269
 6023SOL    HW218969   6.605   2.094   2.110
 6024SOL     OW18970   0.556   4.687   2.061
 6024SOL    HW118971   0.565   4.736   2.148
 6024SOL    HW218972   0.616   4.729   1.993
 6025SOL     OW18973   4.144   1.941   1.962
 6025SOL    HW118974   4.116   1.858   2.011
 6025SOL    HW218975   4.176   2.009   2.027
 6026SOL     OW18976   1.183   4.632   5.327
 6026SOL    HW118977   1.090   4.661   5.304
 6026SOL    HW218978   1.239   4.712   5.346
 6027SOL     OW18979   2.927   3.685   1.046
 6027SOL    HW118980   2.864   3.667   0.970
 6027SOL    HW218981   3.018   3.703   1.010
 6028SOL     OW18982   1.580   3.791   6.812
 6028SOL    HW118983   1.539   3.871   6.768
 6028SOL    HW218984   1.508   3.725   6.836
 6029SOL     OW18985   1.370   4.894   1.311
 6029SOL    HW118986   1.316   4.949   1.247
 6029SOL    HW218987   1.454   4.865   1.266
 6030SOL     OW18988   1.886   0.054   0.904
 6030SOL    HW118989   1.981   0.050   0.933
 6030SOL    HW218990   1.837   0.123   0.958
 6031SOL     OW18991   5.536   0.125   5.079
 6031SOL    HW118992   5.454   0.114   5.135
 6031SOL    HW218993   5.576   0.215   5.095
 6032SOL     OW18994   0.510   3.453   2.768
 6032SOL    HW118995   0.412   3.448   2.787
 6032SOL    HW218996   0.555   3.369   2.797
 6033SOL     OW18997   1.119   0.358   4.486
 6033SOL    HW118998   1.162   0.447   4.502
 6033SOL    HW218999   1.159   0.316   4.404
 6034SOL     OW19000   2.185   4.079   4.721
 6034SOL    HW119001   2.242   4.058   4.800
 6034SOL    HW219002   2.165   3.994   4.671
 6035SOL     OW19003   5.982   0.606   3.933
 6035SOL    HW119004   5.930   0.590   3.849
 6035SOL    HW219005   6.047   0.680   3.918
 6036SOL     OW19006   0.274   1.332   4.233
 6036SOL    HW119007   0.363   1.293   4.209
 6036SOL    HW219008   0.244   1.294   4.321
 6037SOL     OW19009   6.570   5.109   5.056
 6037SOL    HW119010   6.604   5.122   4.963
 6037SOL    HW219011   6.489   5.166   5.070
 6038SOL     OW19012   5.129   4.080   6.504
 6038SOL    HW119013   5.195   4.087   6.579
 6038SOL    HW219014   5.063   4.154   6.511
 6039SOL     OW19015   3.326   3.551   3.686
 6039SOL    HW119016   3.232   3.571   3.714
 6039SOL    HW219017   3.332   3.555   3.586
 6040SOL     OW19018   0.611   2.045   0.137
 6040SOL    HW119019   0.689   2.106   0.149
 6040SOL    HW219020   0.579   2.050   0.042
 6041SOL     OW19021   0.581   2.943   0.132
 6041SOL    HW119022   0.598   3.017   0.067
 6041SOL    HW219023   0.591   2.977   0.225
 6042SOL     OW19024   5.830   5.112   4.399
 6042SOL    HW119025   5.908   5.168   4.428
 6042SOL    HW219026   5.860   5.051   4.324
 6043SOL     OW19027   0.292   4.878   3.941
 6043SOL    HW119028   0.221   4.862   4.009
 6043SOL    HW219029   0.380   4.895   3.986
 6044SOL     OW19030   1.075   0.713   1.382
 6044SOL    HW119031   0.994   0.754   1.340
 6044SOL    HW219032   1.120   0.653   1.317
 6045SOL     OW19033   0.305   3.888   0.975
 6045SOL    HW119034   0.404   3.873   0.976
 6045SOL    HW219035   0.259   3.802   0.952
 6046SOL     OW19036   2.879   2.825   0.239
 6046SOL    HW119037   2.940   2.904   0.233
 6046SOL    HW219038   2.878   2.791   0.333
 6047SOL     OW19039   0.107   6.317   5.087
 6047SOL    HW119040   0.018   6.344   5.124
 6047SOL    HW219041   0.144   6.243   5.142
 6048SOL     OW19042   4.664   6.203   4.920
 6048SOL    HW119043   4.691   6.281   4.977
 6048SOL    HW219044   4.747   6.159   4.884
 6049SOL     OW19045   5.861   5.434   1.762
 6049SOL    HW119046   5.829   5.370   1.691
 6049SOL    HW219047   5.845   5.528   1.732
 6050SOL     OW19048   4.859   4.299   5.556
 6050SOL    HW119049   4.957   4.313   5.563
 6050SOL    HW219050   4.817   4.314   5.646
 6051SOL     OW19051   1.940   2.263   3.301
 6051SOL    HW119052   2.039   2.269   3.286
 6051SOL    HW219053   1.894   2.244   3.214
 6052SOL     OW19054   6.320   0.908   0.180
 6052SOL    HW119055   6.347   0.815   0.206
 6052SOL    HW219056   6.399   0.969   0.190
 6053SOL     OW19057   2.093   0.654   6.101
 6053SOL    HW119058   2.157   0.599   6.047
 6053SOL    HW219059   2.136   0.742   6.125
 6054SOL     OW19060   2.633   4.899   0.222
 6054SOL    HW119061   2.627   4.824   0.287
 6054SOL    HW219062   2.630   4.986   0.271
 6055SOL     OW19063   5.200   0.616   3.857
 6055SOL    HW119064   5.299   0.612   3.868
 6055SOL    HW219065   5.169   0.711   3.863
 6056SOL     OW19066   4.792   3.006   6.342
 6056SOL    HW119067   4.865   3.050   6.394
 6056SOL    HW219068   4.716   3.070   6.331
 6057SOL     OW19069   3.614   0.764   6.196
 6057SOL    HW119070   3.583   0.688   6.253
 6057SOL    HW219071   3.543   0.785   6.128
 6058SOL     OW19072   5.594   1.767   3.957
 6058SOL    HW119073   5.579   1.802   3.864
 6058SOL    HW219074   5.652   1.686   3.953
 6059SOL     OW19075   6.960   5.742   6.253
 6059SOL    HW119076   0.022   5.690   6.288
 6059SOL    HW219077   6.992   5.806   6.183
 6060SOL     OW19078   3.441   6.553   6.297
 6060SOL    HW119079   3.385   6.603   6.231
 6060SOL    HW219080   3.504   6.616   6.343
 6061SOL     OW19081   2.228   1.988   6.379
 6061SOL    HW119082   2.137   1.950   6.365
 6061SOL    HW219083   2.228   2.048   6.459
 6062SOL     OW19084   2.446   0.842   4.486
 6062SOL    HW119085   2.406   0.934   4.480
 6062SOL    HW219086   2.543   0.849   4.510
 6063SOL     OW19087   4.298   0.122   0.284
 6063SOL    HW119088   4.337   0.034   0.258
 6063SOL    HW219089   4.319   0.190   0.215
 6064SOL     OW19090   0.922   5.929   3.695
 6064SOL    HW119091   0.928   5.978   3.608
 6064SOL    HW219092   1.007   5.880   3.711
 6065SOL     OW19093   6.560   0.340   0.772
 6065SOL    HW119094   6.475   0.315   0.818
 6065SOL    HW219095   6.619   0.259   0.765
 6066SOL     OW19096   4.512   2.211   0.026
 6066SOL    HW119097   4.604   2.236   7.010
 6066SOL    HW219098   4.449   2.286   0.007
 6067SOL     OW19099   5.685   2.237   0.049
 6067SOL    HW119100   5.743   2.157   0.060
 6067SOL    HW219101   5.667   2.278   0.138
 6068SOL     OW19102   4.703   2.282   5.010
 6068SOL    HW119103   4.658   2.266   5.098
 6068SOL    HW219104   4.634   2.303   4.941
 6069SOL     OW19105   6.155   3.741   4.386
 6069SOL    HW119106   6.098   3.813   4.426
 6069SOL    HW219107   6.141   3.656   4.437
 6070SOL     OW19108   3.448   2.252   6.422
 6070SOL    HW119109   3.505   2.332   6.441
 6070SOL    HW219110   3.462   2.224   6.327
 6071SOL     OW19111   4.552   6.132   5.346
 6071SOL    HW119112   4.525   6.143   5.251
 6071SOL    HW219113   4.650   6.111   5.351
 6072SOL     OW19114   0.052   2.115   1.048
 6072SOL    HW119115   0.113   2.183   1.008
 6072SOL    HW219116   0.085   2.023   1.024
 6073SOL     OW19117   0.038   2.241   1.621
 6073SOL    HW119118   0.049   2.143   1.606
 6073SOL    HW219119   0.114   2.276   1.675
 6074SOL     OW19120   0.770   0.397   4.841
 6074SOL    HW119121   0.826   0.470   4.801
 6074SOL    HW219122   0.703   0.367   4.774
 6075SOL     OW19123   5.192   4.306   6.904
 6075SOL    HW119124   5.265   4.312   6.835
 6075SOL    HW219125   5.135   4.388   6.898
 6076SOL     OW19126   2.693   6.481   3.648
 6076SOL    HW119127   2.739   6.569   3.657
 6076SOL    HW219128   2.594   6.494   3.659
 6077SOL     OW19129   5.645   5.933   2.551
 6077SOL    HW119130   5.691   6.000   2.493
 6077SOL    HW219131   5.547   5.934   2.531
 6078SOL     OW19132   2.498   4.887   2.981
 6078SOL    HW119133   2.417   4.845   3.023
 6078SOL    HW219134   2.476   4.914   2.887
 6079SOL     OW19135   1.795   1.176   0.261
 6079SOL    HW119136   1.802   1.163   0.162
 6079SOL    HW219137   1.879   1.144   0.305
 6080SOL     OW19138   5.811   1.971   2.777
 6080SOL    HW119139   5.833   2.029   2.699
 6080SOL    HW219140   5.724   1.999   2.816
 6081SOL     OW19141   0.635   4.565   3.242
 6081SOL    HW119142   0.549   4.526   3.210
 6081SOL    HW219143   0.706   4.495   3.241
 6082SOL     OW19144   3.992   1.603   4.460
 6082SOL    HW119145   3.952   1.555   4.382
 6082SOL    HW219146   4.003   1.700   4.438
 6083SOL     OW19147   1.945   6.861   0.247
 6083SOL    HW119148   2.005   6.808   0.306
 6083SOL    HW219149   1.851   6.858   0.282
 6084SOL     OW19150   0.414   4.914   6.311
 6084SOL    HW119151   0.449   4.825   6.338
 6084SOL    HW219152   0.459   4.985   6.365
 6085SOL     OW19153   4.856   4.376   1.500
 6085SOL    HW119154   4.776   4.383   1.559
 6085SOL    HW219155   4.860   4.285   1.459
 6086SOL     OW19156   2.562   1.788   3.340
 6086SOL    HW119157   2.466   1.818   3.344
 6086SOL    HW219158   2.608   1.834   3.264
 6087SOL     OW19159   4.790   6.816   0.109
 6087SOL    HW119160   4.710   6.825   0.051
 6087SOL    HW219161   4.833   6.727   0.095
 6088SOL     OW19162   6.740   0.050   4.990
 6088SOL    HW119163   6.702   0.046   4.897
 6088SOL    HW219164   6.800   0.130   4.997
 6089SOL     OW19165   6.898   3.068   0.208
 6089SOL    HW119166   6.827   3.136   0.223
 6089SOL    HW219167   6.858   2.985   0.169
 6090SOL     OW19168   0.056   5.784   4.255
 6090SOL    HW119169   0.011   5.873   4.252
 6090SOL    HW219170   0.152   5.795   4.279
 6091SOL     OW19171   5.986   2.180   1.791
 6091SOL    HW119172   5.973   2.121   1.711
 6091SOL    HW219173   6.010   2.272   1.761
 6092SOL     OW19174   1.442   2.534   0.972
 6092SOL    HW119175   1.500   2.489   1.039
 6092SOL    HW219176   1.354   2.558   1.014
 6093SOL     OW19177   1.166   3.117   1.108
 6093SOL    HW119178   1.262   3.142   1.125
 6093SOL    HW219179   1.107   3.167   1.171
 6094SOL     OW19180   0.932   0.666   1.076
 6094SOL    HW119181   0.870   0.666   0.998
 6094SOL    HW219182   1.002   0.736   1.062
 6095SOL     OW19183   6.904   4.158   5.450
 6095SOL    HW119184   6.821   4.133   5.401
 6095SOL    HW219185   6.983   4.115   5.406
 6096SOL     OW19186   3.641   1.927   2.614
 6096SOL    HW119187   3.591   1.963   2.692
 6096SOL    HW219188   3.622   1.829   2.604
 6097SOL     OW19189   3.127   2.038   1.824
 6097SOL    HW119190   3.102   1.955   1.775
 6097SOL    HW219191   3.046   2.079   1.865
 6098SOL     OW19192   1.668   1.396   5.712
 6098SOL    HW119193   1.589   1.421   5.768
 6098SOL    HW219194   1.717   1.320   5.755
 6099SOL     OW19195   6.087   5.181   5.160
 6099SOL    HW119196   6.143   5.136   5.230
 6099SOL    HW219197   6.131   5.171   5.071
 6100SOL     OW19198   6.451   2.861   0.178
 6100SOL    HW119199   6.517   2.885   0.107
 6100SOL    HW219200   6.421   2.766   0.165
 6101SOL     OW19201   5.456   1.606   4.167
 6101SOL    HW119202   5.510   1.532   4.207
 6101SOL    HW219203   5.510   1.652   4.097
 6102SOL     OW19204   3.197   0.575   5.197
 6102SOL    HW119205   3.271   0.510   5.208
 6102SOL    HW219206   3.229   0.653   5.142
 6103SOL     OW19207   6.194   0.263   5.522
 6103SOL    HW119208   6.144   0.209   5.590
 6103SOL    HW219209   6.159   0.243   5.431
 6104SOL     OW19210   1.795   3.057   0.663
 6104SOL    HW119211   1.838   3.064   0.573
 6104SOL    HW219212   1.701   3.024   0.653
 6105SOL     OW19213   3.431   5.477   4.176
 6105SOL    HW119214   3.496   5.416   4.221
 6105SOL    HW219215   3.454   5.572   4.195
 6106SOL     OW19216   3.499   5.538   4.710
 6106SOL    HW119217   3.458   5.472   4.773
 6106SOL    HW219218   3.581   5.499   4.669
 6107SOL     OW19219   2.250   5.078   4.943
 6107SOL    HW119220   2.279   4.986   4.972
 6107SOL    HW219221   2.168   5.071   4.886
 6108SOL     OW19222   6.851   2.288   4.211
 6108SOL    HW119223   6.762   2.333   4.213
 6108SOL    HW219224   6.893   2.299   4.121
 6109SOL     OW19225   6.608   4.438   1.912
 6109SOL    HW119226   6.550   4.483   1.844
 6109SOL    HW219227   6.683   4.391   1.865
 6110SOL     OW19228   3.071   2.085   4.342
 6110SOL    HW119229   3.074   2.069   4.441
 6110SOL    HW219230   3.131   2.161   4.319
 6111SOL     OW19231   0.724   5.078   3.060
 6111SOL    HW119232   0.632   5.050   3.032
 6111SOL    HW219233   0.789   5.057   2.988
 6112SOL     OW19234   1.060   1.955   2.477
 6112SOL    HW119235   1.124   1.985   2.406
 6112SOL    HW219236   0.968   1.991   2.457
 6113SOL     OW19237   1.979   5.746   5.286
 6113SOL    HW119238   1.947   5.737   5.380
 6113SOL    HW219239   2.065   5.696   5.275
 6114SOL     OW19240   5.307   5.377   0.734
 6114SOL    HW119241   5.400   5.371   0.697
 6114SOL    HW219242   5.281   5.289   0.774
 6115SOL     OW19243   6.372   4.674   2.629
 6115SOL    HW119244   6.405   4.597   2.573
 6115SOL    HW219245   6.374   4.758   2.575
 6116SOL     OW19246   3.588   1.691   1.394
 6116SOL    HW119247   3.646   1.748   1.336
 6116SOL    HW219248   3.573   1.736   1.482
 6117SOL     OW19249   5.510   6.728   4.549
 6117SOL    HW119250   5.591   6.753   4.603
 6117SOL    HW219251   5.447   6.805   4.546
 6118SOL     OW19252   5.899   0.068   2.684
 6118SOL    HW119253   5.925   6.996   2.723
 6118SOL    HW219254   5.924   0.142   2.748
 6119SOL     OW19255   6.359   5.151   3.791
 6119SOL    HW119256   6.418   5.077   3.823
 6119SOL    HW219257   6.327   5.204   3.870
 6120SOL     OW19258   2.730   0.835   3.014
 6120SOL    HW119259   2.827   0.859   3.020
 6120SOL    HW219260   2.675   0.914   3.040
 6121SOL     OW19261   6.415   2.519   4.336
 6121SOL    HW119262   6.499   2.567   4.308
 6121SOL    HW219263   6.381   2.464   4.260
 6122SOL     OW19264   4.494   5.706   3.561
 6122SOL    HW119265   4.512   5.799   3.592
 6122SOL    HW219266   4.450   5.654   3.634
 6123SOL     OW19267   6.846   1.469   2.092
 6123SOL    HW119268   6.797   1.463   2.005
 6123SOL    HW219269   6.923   1.531   2.083
 6124SOL     OW19270   2.959   0.318   5.751
 6124SOL    HW119271   2.933   0.405   5.792
 6124SOL    HW219272   2.894   0.247   5.779
 6125SOL     OW19273   1.815   5.058   2.243
 6125SOL    HW119274   1.911   5.043   2.265
 6125SOL    HW219275   1.778   5.131   2.301
 6126SOL     OW19276   5.196   5.444   2.172
 6126SOL    HW119277   5.179   5.390   2.255
 6126SOL    HW219278   5.215   5.538   2.198
 6127SOL     OW19279   2.113   4.354   1.726
 6127SOL    HW119280   2.020   4.319   1.718
 6127SOL    HW219281   2.115   4.429   1.792
 6128SOL     OW19282   5.315   2.481   1.101
 6128SOL    HW119283   5.314   2.563   1.043
 6128SOL    HW219284   5.317   2.399   1.044
 6129SOL     OW19285   6.100   4.014   3.698
 6129SOL    HW119286   6.055   4.019   3.788
 6129SOL    HW219287   6.078   3.926   3.655
 6130SOL     OW19288   5.656   4.171   2.595
 6130SOL    HW119289   5.688   4.213   2.510
 6130SOL    HW219290   5.732   4.168   2.660
 6131SOL     OW19291   6.776   1.144   4.869
 6131SOL    HW119292   6.683   1.119   4.840
 6131SOL    HW219293   6.775   1.236   4.907
 6132SOL     OW19294   6.382   2.600   0.261
 6132SOL    HW119295   6.471   2.566   0.292
 6132SOL    HW219296   6.330   2.634   0.339
 6133SOL     OW19297   1.642   4.035   0.159
 6133SOL    HW119298   1.552   4.003   0.129
 6133SOL    HW219299   1.713   3.976   0.120
 6134SOL     OW19300   4.780   3.028   0.433
 6134SOL    HW119301   4.865   3.073   0.460
 6134SOL    HW219302   4.747   3.068   0.347
 6135SOL     OW19303   5.288   0.220   1.576
 6135SOL    HW119304   5.339   0.175   1.503
 6135SOL    HW219305   5.193   0.235   1.547
 6136SOL     OW19306   0.324   1.501   1.663
 6136SOL    HW119307   0.289   1.488   1.570
 6136SOL    HW219308   0.402   1.563   1.660
 6137SOL     OW19309   2.780   6.795   5.857
 6137SOL    HW119310   2.808   6.701   5.838
 6137SOL    HW219311   2.736   6.798   5.947
 6138SOL     OW19312   4.405   6.912   2.950
 6138SOL    HW119313   4.449   7.001   2.966
 6138SOL    HW219314   4.307   6.926   2.938
 6139SOL     OW19315   2.058   5.354   4.365
 6139SOL    HW119316   1.961   5.349   4.341
 6139SOL    HW219317   2.109   5.289   4.309
 6140SOL     OW19318   1.791   6.441   0.949
 6140SOL    HW119319   1.855   6.367   0.927
 6140SOL    HW219320   1.793   6.458   1.048
 6141SOL     OW19321   6.291   6.471   5.789
 6141SOL    HW119322   6.318   6.560   5.826
 6141SOL    HW219323   6.210   6.482   5.731
 6142SOL     OW19324   0.546   4.738   2.890
 6142SOL    HW119325   0.534   4.640   2.906
 6142SOL    HW219326   0.618   4.752   2.822
 6143SOL     OW19327   6.590   4.254   6.488
 6143SOL    HW119328   6.683   4.274   6.457
 6143SOL    HW219329   6.528   4.259   6.410
 6144SOL     OW19330   0.055   5.448   3.934
 6144SOL    HW119331   7.015   5.429   3.853
 6144SOL    HW219332   0.005   5.510   3.995
 6145SOL     OW19333   4.995   5.930   3.594
 6145SOL    HW119334   4.935   5.861   3.635
 6145SOL    HW219335   5.024   5.899   3.504
 6146SOL     OW19336   5.391   0.719   3.100
 6146SOL    HW119337   5.425   0.780   3.171
 6146SOL    HW219338   5.422   0.625   3.119
 6147SOL     OW19339   1.573   3.442   2.830
 6147SOL    HW119340   1.629   3.406   2.904
 6147SOL    HW219341   1.578   3.542   2.830
 6148SOL     OW19342   6.146   6.383   4.025
 6148SOL    HW119343   6.067   6.445   4.019
 6148SOL    HW219344   6.195   6.400   4.111
 6149SOL     OW19345   2.458   6.802   3.860
 6149SOL    HW119346   2.442   6.774   3.766
 6149SOL    HW219347   2.494   6.895   3.862
 6150SOL     OW19348   4.162   5.785   6.039
 6150SOL    HW119349   4.115   5.822   6.119
 6150SOL    HW219350   4.095   5.738   5.981
 6151SOL     OW19351   4.403   1.499   5.872
 6151SOL    HW119352   4.390   1.541   5.962
 6151SOL    HW219353   4.317   1.462   5.839
 6152SOL     OW19354   6.902   5.077   6.660
 6152SOL    HW119355   6.950   5.160   6.632
 6152SOL    HW219356   6.968   5.005   6.680
 6153SOL     OW19357   4.853   4.013   0.066
 6153SOL    HW119358   4.811   3.928   0.034
 6153SOL    HW219359   4.942   4.025   0.023
 6154SOL     OW19360   5.216   2.882   2.772
 6154SOL    HW119361   5.243   2.895   2.868
 6154SOL    HW219362   5.256   2.796   2.739
 6155SOL     OW19363   1.454   3.921   4.111
 6155SOL    HW119364   1.459   3.872   4.198
 6155SOL    HW219365   1.412   3.862   4.042
 6156SOL     OW19366   6.534   0.323   4.016
 6156SOL    HW119367   6.495   0.409   4.048
 6156SOL    HW219368   6.536   0.258   4.092
 6157SOL     OW19369   1.483   1.463   3.320
 6157SOL    HW119370   1.491   1.530   3.393
 6157SOL    HW219371   1.555   1.394   3.328
 6158SOL     OW19372   4.527   0.989   0.663
 6158SOL    HW119373   4.516   1.030   0.572
 6158SOL    HW219374   4.438   0.963   0.699
 6159SOL     OW19375   5.063   3.209   0.066
 6159SOL    HW119376   5.072   3.234   0.162
 6159SOL    HW219377   5.138   3.149   0.039
 6160SOL     OW19378   6.755   4.987   2.158
 6160SOL    HW119379   6.715   5.020   2.244
 6160SOL    HW219380   6.682   4.975   2.091
 6161SOL     OW19381   5.325   0.419   6.740
 6161SOL    HW119382   5.281   0.488   6.683
 6161SOL    HW219383   5.358   0.344   6.682
 6162SOL     OW19384   5.923   5.411   3.937
 6162SOL    HW119385   5.973   5.326   3.918
 6162SOL    HW219386   5.827   5.398   3.914
 6163SOL     OW19387   6.911   4.122   1.907
 6163SOL    HW119388   6.816   4.091   1.896
 6163SOL    HW219389   6.964   4.051   1.952
 6164SOL     OW19390   4.682   2.921   0.816
 6164SOL    HW119391   4.651   2.905   0.910
 6164SOL    HW219392   4.637   2.856   0.755
 6165SOL     OW19393   4.596   6.371   0.334
 6165SOL    HW119394   4.687   6.397   0.367
 6165SOL    HW219395   4.568   6.433   0.260
 6166SOL     OW19396   3.560   1.637   6.744
 6166SOL    HW119397   3.525   1.730   6.742
 6166SOL    HW219398   3.659   1.638   6.731
 6167SOL     OW19399   6.572   4.895   3.408
 6167SOL    HW119400   6.546   4.926   3.316
 6167SOL    HW219401   6.672   4.897   3.416
 6168SOL     OW19402   0.596   2.563   2.032
 6168SOL    HW119403   0.545   2.479   2.016
 6168SOL    HW219404   0.592   2.586   2.130
 6169SOL     OW19405   1.931   4.223   2.307
 6169SOL    HW119406   1.917   4.133   2.265
 6169SOL    HW219407   1.975   4.283   2.241
 6170SOL     OW19408   6.901   2.492   3.618
 6170SOL    HW119409   6.974   2.425   3.631
 6170SOL    HW219410   6.936   2.583   3.637
 6171SOL     OW19411   6.537   0.503   6.256
 6171SOL    HW119412   6.616   0.547   6.213
 6171SOL    HW219413   6.471   0.476   6.185
 6172SOL     OW19414   0.963   4.696   3.881
 6172SOL    HW119415   0.960   4.687   3.781
 6172SOL    HW219416   0.936   4.610   3.923
 6173SOL     OW19417   5.633   5.923   3.356
 6173SOL    HW119418   5.703   5.893   3.422
 6173SOL    HW219419   5.675   5.933   3.266
 6174SOL     OW19420   5.918   3.052   1.789
 6174SOL    HW119421   5.997   3.029   1.732
 6174SOL    HW219422   5.935   3.023   1.883
 6175SOL     OW19423   3.517   2.174   6.151
 6175SOL    HW119424   3.461   2.092   6.140
 6175SOL    HW219425   3.488   2.243   6.085
 6176SOL     OW19426   3.884   4.416   6.187
 6176SOL    HW119427   3.824   4.485   6.146
 6176SOL    HW219428   3.863   4.408   6.284
 6177SOL     OW19429   5.839   6.901   1.281
 6177SOL    HW119430   5.824   6.880   1.377
 6177SOL    HW219431   5.770   6.965   1.249
 6178SOL     OW19432   4.078   4.859   1.502
 6178SOL    HW119433   4.126   4.798   1.566
 6178SOL    HW219434   3.981   4.863   1.528
 6179SOL     OW19435   6.071   4.911   4.945
 6179SOL    HW119436   6.096   4.845   5.015
 6179SOL    HW219437   6.153   4.951   4.905
 6180SOL     OW19438   3.103   4.685   6.578
 6180SOL    HW119439   3.189   4.659   6.623
 6180SOL    HW219440   3.118   4.694   6.480
 6181SOL     OW19441   5.960   6.158   6.891
 6181SOL    HW119442   5.958   6.258   6.895
 6181SOL    HW219443   5.907   6.127   6.812
 6182SOL     OW19444   3.582   2.593   0.674
 6182SOL    HW119445   3.496   2.605   0.625
 6182SOL    HW219446   3.565   2.547   0.761
 6183SOL     OW19447   0.171   6.813   0.474
 6183SOL    HW119448   0.137   6.907   0.474
 6183SOL    HW219449   0.119   6.759   0.540
 6184SOL     OW19450   2.669   6.463   5.550
 6184SOL    HW119451   2.615   6.494   5.628
 6184SOL    HW219452   2.767   6.469   5.572
 6185SOL     OW19453   3.958   3.077   4.838
 6185SOL    HW119454   3.922   2.995   4.884
 6185SOL    HW219455   3.947   3.067   4.739
 6186SOL     OW19456   0.419   1.869   2.035
 6186SOL    HW119457   0.433   1.823   2.123
 6186SOL    HW219458   0.457   1.813   1.962
 6187SOL     OW19459   3.258   1.163   5.860
 6187SOL    HW119460   3.169   1.205   5.873
 6187SOL    HW219461   3.323   1.231   5.826
 6188SOL     OW19462   1.731   1.253   5.096
 6188SOL    HW119463   1.686   1.342   5.086
 6188SOL    HW219464   1.756   1.218   5.006
 6189SOL     OW19465   6.289   5.678   1.317
 6189SOL    HW119466   6.366   5.729   1.356
 6189SOL    HW219467   6.315   5.583   1.302
 6190SOL     OW19468   0.372   3.089   4.652
 6190SOL    HW119469   0.327   3.152   4.715
 6190SOL    HW219470   0.460   3.061   4.690
 6191SOL     OW19471   3.320   3.690   0.269
 6191SOL    HW119472   3.229   3.667   0.304
 6191SOL    HW219473   3.388   3.627   0.307
 6192SOL     OW19474   2.975   1.817   0.753
 6192SOL    HW119475   2.989   1.898   0.696
 6192SOL    HW219476   3.037   1.744   0.724
 6193SOL     OW19477   4.351   6.004   6.634
 6193SOL    HW119478   4.319   5.952   6.713
 6193SOL    HW219479   4.442   6.041   6.653
 6194SOL     OW19480   5.352   6.837   6.895
 6194SOL    HW119481   5.310   6.746   6.887
 6194SOL    HW219482   5.283   6.904   6.921
 6195SOL     OW19483   6.084   6.077   6.566
 6195SOL    HW119484   6.097   5.980   6.589
 6195SOL    HW219485   5.996   6.088   6.520
 6196SOL     OW19486   5.768   3.561   2.674
 6196SOL    HW119487   5.867   3.571   2.671
 6196SOL    HW219488   5.725   3.645   2.640
 6197SOL     OW19489   0.987   5.482   0.807
 6197SOL    HW119490   0.983   5.499   0.906
 6197SOL    HW219491   1.022   5.564   0.761
 6198SOL     OW19492   5.663   1.023   6.618
 6198SOL    HW119493   5.594   0.958   6.649
 6198SOL    HW219494   5.619   1.109   6.593
 6199SOL     OW19495   2.262   0.061   5.962
 6199SOL    HW119496   2.361   0.073   5.951
 6199SOL    HW219497   2.215   0.140   5.923
 6200SOL     OW19498   1.425   0.740   1.374
 6200SOL    HW119499   1.421   0.699   1.465
 6200SOL    HW219500   1.338   0.724   1.327
 6201SOL     OW19501   0.477   5.001   2.941
 6201SOL    HW119502   0.507   4.910   2.913
 6201SOL    HW219503   0.402   4.993   3.006
 6202SOL     OW19504   5.734   1.382   2.572
 6202SOL    HW119505   5.792   1.438   2.513
 6202SOL    HW219506   5.736   1.287   2.540
 6203SOL     OW19507   6.358   0.295   1.994
 6203SOL    HW119508   6.458   0.296   2.000
 6203SOL    HW219509   6.320   0.338   2.075
 6204SOL     OW19510   1.216   6.457   5.204
 6204SOL    HW119511   1.154   6.385   5.233
 6204SOL    HW219512   1.173   6.546   5.219
 6205SOL     OW19513   5.509   4.338   3.854
 6205SOL    HW119514   5.464   4.276   3.790
 6205SOL    HW219515   5.568   4.286   3.915
 6206SOL     OW19516   5.671   1.787   3.670
 6206SOL    HW119517   5.751   1.769   3.613
 6206SOL    HW219518   5.600   1.720   3.650
 6207SOL     OW19519   0.681   5.834   4.302
 6207SOL    HW119520   0.615   5.812   4.229
 6207SOL    HW219521   0.693   5.754   4.360
 6208SOL     OW19522   4.382   4.319   5.676
 6208SOL    HW119523   4.415   4.295   5.585
 6208SOL    HW219524   4.339   4.239   5.718
 6209SOL     OW19525   3.351   2.285   1.762
 6209SOL    HW119526   3.444   2.291   1.800
 6209SOL    HW219527   3.349   2.216   1.689
 6210SOL     OW19528   5.096   1.991   4.519
 6210SOL    HW119529   5.119   2.021   4.426
 6210SOL    HW219530   5.180   1.981   4.572
 6211SOL     OW19531   5.751   4.375   5.080
 6211SOL    HW119532   5.731   4.309   5.008
 6211SOL    HW219533   5.727   4.337   5.169
 6212SOL     OW19534   5.108   5.051   5.228
 6212SOL    HW119535   5.113   5.146   5.199
 6212SOL    HW219536   5.191   5.003   5.200
 6213SOL     OW19537   4.124   5.733   0.341
 6213SOL    HW119538   4.101   5.643   0.377
 6213SOL    HW219539   4.040   5.783   0.320
 6214SOL     OW19540   6.172   6.934   6.891
 6214SOL    HW119541   6.102   6.987   6.844
 6214SOL    HW219542   6.205   6.862   6.830
 6215SOL     OW19543   5.706   2.501   5.284
 6215SOL    HW119544   5.673   2.517   5.191
 6215SOL    HW219545   5.776   2.570   5.306
 6216SOL     OW19546   4.538   1.560   4.197
 6216SOL    HW119547   4.481   1.570   4.278
 6216SOL    HW219548   4.480   1.541   4.117
 6217SOL     OW19549   0.410   4.461   3.072
 6217SOL    HW119550   0.409   4.368   3.036
 6217SOL    HW219551   0.350   4.519   3.017
 6218SOL     OW19552   4.744   5.727   0.120
 6218SOL    HW119553   4.763   5.753   0.025
 6218SOL    HW219554   4.830   5.725   0.171
 6219SOL     OW19555   2.270   1.283   6.730
 6219SOL    HW119556   2.342   1.353   6.726
 6219SOL    HW219557   2.296   1.206   6.673
 6220SOL     OW19558   3.545   6.290   0.528
 6220SOL    HW119559   3.454   6.258   0.555
 6220SOL    HW219560   3.538   6.382   0.490
 6221SOL     OW19561   5.334   5.721   6.689
 6221SOL    HW119562   5.301   5.707   6.596
 6221SOL    HW219563   5.433   5.705   6.692
 6222SOL     OW19564   6.821   1.862   2.007
 6222SOL    HW119565   6.869   1.849   2.093
 6222SOL    HW219566   6.884   1.898   1.938
 6223SOL     OW19567   6.945   5.030   4.032
 6223SOL    HW119568   6.972   4.958   4.097
 6223SOL    HW219569   0.002   5.099   4.028
 6224SOL     OW19570   3.851   0.106   0.274
 6224SOL    HW119571   3.933   0.079   0.324
 6224SOL    HW219572   3.775   0.048   0.300
 6225SOL     OW19573   4.853   6.017   6.691
 6225SOL    HW119574   4.938   6.068   6.684
 6225SOL    HW219575   4.864   5.926   6.649
 6226SOL     OW19576   1.196   0.861   4.446
 6226SOL    HW119577   1.122   0.837   4.383
 6226SOL    HW219578   1.164   0.929   4.511
 6227SOL     OW19579   3.172   4.979   5.463
 6227SOL    HW119580   3.265   4.942   5.459
 6227SOL    HW219581   3.128   4.968   5.374
 6228SOL     OW19582   0.904   3.320   3.919
 6228SOL    HW119583   0.919   3.412   3.881
 6228SOL    HW219584   0.872   3.328   4.013
 6229SOL     OW19585   0.541   3.034   4.039
 6229SOL    HW119586   0.594   2.987   4.109
 6229SOL    HW219587   0.601   3.094   3.986
 6230SOL     OW19588   0.109   0.993   1.453
 6230SOL    HW119589   0.189   1.013   1.510
 6230SOL    HW219590   0.119   0.903   1.411
 6231SOL     OW19591   2.549   4.893   6.263
 6231SOL    HW119592   2.575   4.796   6.265
 6231SOL    HW219593   2.622   4.948   6.304
 6232SOL     OW19594   4.070   0.348   6.406
 6232SOL    HW119595   4.159   0.321   6.370
 6232SOL    HW219596   4.006   0.360   6.330
 6233SOL     OW19597   6.598   3.452   1.184
 6233SOL    HW119598   6.562   3.382   1.123
 6233SOL    HW219599   6.684   3.420   1.224
 6234SOL     OW19600   5.120   4.868   4.663
 6234SOL    HW119601   5.079   4.953   4.628
 6234SOL    HW219602   5.049   4.809   4.699
 6235SOL     OW19603   0.633   0.169   2.679
 6235SOL    HW119604   0.570   0.097   2.708
 6235SOL    HW219605   0.634   0.174   2.579
 6236SOL     OW19606   6.563   5.748   1.946
 6236SOL    HW119607   6.511   5.664   1.958
 6236SOL    HW219608   6.504   5.827   1.959
 6237SOL     OW19609   3.178   0.978   2.230
 6237SOL    HW119610   3.218   0.887   2.236
 6237SOL    HW219611   3.193   1.027   2.316
 6238SOL     OW19612   2.648   0.620   3.971
 6238SOL    HW119613   2.724   0.556   3.984
 6238SOL    HW219614   2.616   0.654   4.059
 6239SOL     OW19615   4.801   1.061   4.611
 6239SOL    HW119616   4.778   1.070   4.708
 6239SOL    HW219617   4.846   0.973   4.595
 6240SOL     OW19618   4.013   3.188   3.833
 6240SOL    HW119619   3.999   3.281   3.866
 6240SOL    HW219620   4.023   3.126   3.911
 6241SOL     OW19621   3.479   6.847   3.510
 6241SOL    HW119622   3.500   6.940   3.479
 6241SOL    HW219623   3.563   6.794   3.514
 6242SOL     OW19624   2.699   2.060   3.660
 6242SOL    HW119625   2.734   1.974   3.695
 6242SOL    HW219626   2.745   2.084   3.575
 6243SOL     OW19627   4.641   1.685   6.706
 6243SOL    HW119628   4.639   1.664   6.608
 6243SOL    HW219629   4.555   1.727   6.733
 6244SOL     OW19630   4.669   2.591   1.737
 6244SOL    HW119631   4.610   2.631   1.807
 6244SOL    HW219632   4.765   2.610   1.760
 6245SOL     OW19633   0.253   5.255   1.859
 6245SOL    HW119634   0.347   5.247   1.826
 6245SOL    HW219635   0.193   5.200   1.802
 6246SOL     OW19636   6.990   0.097   4.391
 6246SOL    HW119637   0.013   0.006   4.403
 6246SOL    HW219638   6.919   0.095   4.320
 6247SOL     OW19639   6.086   5.822   3.716
 6247SOL    HW119640   6.051   5.908   3.754
 6247SOL    HW219641   6.115   5.837   3.621
 6248SOL     OW19642   3.812   3.001   5.264
 6248SOL    HW119643   3.830   3.097   5.244
 6248SOL    HW219644   3.897   2.950   5.261
 6249SOL     OW19645   6.250   3.494   2.363
 6249SOL    HW119646   6.178   3.430   2.392
 6249SOL    HW219647   6.251   3.500   2.263
 6250SOL     OW19648   5.599   0.067   6.781
 6250SOL    HW119649   5.656   7.003   6.756
 6250SOL    HW219650   5.523   0.074   6.717
 6251SOL     OW19651   2.551   0.469   4.440
 6251SOL    HW119652   2.518   0.445   4.349
 6251SOL    HW219653   2.644   0.432   4.452
 6252SOL     OW19654   3.416   5.315   6.280
 6252SOL    HW119655   3.485   5.248   6.309
 6252SOL    HW219656   3.360   5.341   6.358
 6253SOL     OW19657   3.792   5.755   3.704
 6253SOL    HW119658   3.730   5.690   3.749
 6253SOL    HW219659   3.739   5.829   3.664
 6254SOL     OW19660   0.452   0.047   1.540
 6254SOL    HW119661   0.419   6.969   1.525
 6254SOL    HW219662   0.552   0.047   1.541
 6255SOL     OW19663   1.372   1.818   0.541
 6255SOL    HW119664   1.432   1.788   0.615
 6255SOL    HW219665   1.420   1.886   0.485
 6256SOL     OW19666   5.821   6.060   2.338
 6256SOL    HW119667   5.862   5.986   2.284
 6256SOL    HW219668   5.858   6.148   2.307
 6257SOL     OW19669   3.144   4.638   0.653
 6257SOL    HW119670   3.135   4.704   0.579
 6257SOL    HW219671   3.185   4.553   0.618
 6258SOL     OW19672   4.601   5.145   5.308
 6258SOL    HW119673   4.625   5.065   5.252
 6258SOL    HW219674   4.680   5.205   5.316
 6259SOL     OW19675   4.214   1.102   4.960
 6259SOL    HW119676   4.142   1.093   5.029
 6259SOL    HW219677   4.173   1.101   4.869
 6260SOL     OW19678   1.766   1.687   0.261
 6260SOL    HW119679   1.838   1.744   0.220
 6260SOL    HW219680   1.687   1.685   0.201
 6261SOL     OW19681   3.408   0.229   0.654
 6261SOL    HW119682   3.480   0.285   0.612
 6261SOL    HW219683   3.343   0.288   0.701
 6262SOL     OW19684   5.993   1.105   2.271
 6262SOL    HW119685   5.932   1.104   2.350
 6262SOL    HW219686   5.942   1.074   2.190
 6263SOL     OW19687   6.284   5.825   5.932
 6263SOL    HW119688   6.332   5.902   5.889
 6263SOL    HW219689   6.187   5.829   5.909
 6264SOL     OW19690   2.595   6.160   6.689
 6264SOL    HW119691   2.497   6.160   6.712
 6264SOL    HW219692   2.641   6.089   6.742
 6265SOL     OW19693   4.597   6.867   6.120
 6265SOL    HW119694   4.527   6.913   6.175
 6265SOL    HW219695   4.662   6.822   6.181
 6266SOL     OW19696   3.111   5.129   2.842
 6266SOL    HW119697   3.037   5.090   2.789
 6266SOL    HW219698   3.184   5.160   2.781
 6267SOL     OW19699   1.555   6.630   4.884
 6267SOL    HW119700   1.583   6.560   4.818
 6267SOL    HW219701   1.564   6.721   4.843
 6268SOL     OW19702   3.280   1.841   0.665
 6268SOL    HW119703   3.299   1.764   0.726
 6268SOL    HW219704   3.325   1.923   0.699
 6269SOL     OW19705   6.881   5.350   6.889
 6269SOL    HW119706   6.977   5.376   6.902
 6269SOL    HW219707   6.874   5.251   6.885
 6270SOL     OW19708   2.041   6.263   0.924
 6270SOL    HW119709   1.968   6.195   0.924
 6270SOL    HW219710   2.099   6.250   1.004
 6271SOL     OW19711   6.711   3.004   5.604
 6271SOL    HW119712   6.656   3.030   5.683
 6271SOL    HW219713   6.753   3.086   5.563
 6272SOL     OW19714   0.337   0.950   0.121
 6272SOL    HW119715   0.307   0.950   0.026
 6272SOL    HW219716   0.260   0.929   0.181
 6273SOL     OW19717   0.689   6.639   2.372
 6273SOL    HW119718   0.713   6.557   2.424
 6273SOL    HW219719   0.687   6.718   2.432
 6274SOL     OW19720   2.816   5.726   3.647
 6274SOL    HW119721   2.862   5.672   3.718
 6274SOL    HW219722   2.731   5.763   3.684
 6275SOL     OW19723   3.158   5.846   6.285
 6275SOL    HW119724   3.180   5.878   6.193
 6275SOL    HW219725   3.121   5.754   6.281
 6276SOL     OW19726   1.014   5.682   2.544
 6276SOL    HW119727   1.074   5.603   2.556
 6276SOL    HW219728   1.059   5.749   2.484
 6277SOL     OW19729   5.619   2.465   1.398
 6277SOL    HW119730   5.574   2.378   1.379
 6277SOL    HW219731   5.695   2.477   1.335
 6278SOL     OW19732   4.341   2.152   0.656
 6278SOL    HW119733   4.383   2.110   0.737
 6278SOL    HW219734   4.394   2.233   0.630
 6279SOL     OW19735   3.556   7.009   1.234
 6279SOL    HW119736   3.569   0.059   1.309
 6279SOL    HW219737   3.636   6.949   1.228
 6280SOL     OW19738   5.214   2.620   6.486
 6280SOL    HW119739   5.199   2.650   6.392
 6280SOL    HW219740   5.289   2.553   6.488
 6281SOL     OW19741   5.145   4.047   6.226
 6281SOL    HW119742   5.165   4.068   6.322
 6281SOL    HW219743   5.194   4.111   6.167
 6282SOL     OW19744   0.232   3.695   5.846
 6282SOL    HW119745   0.181   3.775   5.875
 6282SOL    HW219746   0.216   3.678   5.749
 6283SOL     OW19747   2.100   6.639   4.402
 6283SOL    HW119748   2.152   6.562   4.367
 6283SOL    HW219749   2.097   6.711   4.333
 6284SOL     OW19750   1.350   3.149   5.158
 6284SOL    HW119751   1.365   3.221   5.090
 6284SOL    HW219752   1.428   3.086   5.157
 6285SOL     OW19753   1.219   3.222   2.745
 6285SOL    HW119754   1.257   3.282   2.815
 6285SOL    HW219755   1.176   3.277   2.673
 6286SOL     OW19756   0.821   2.511   6.581
 6286SOL    HW119757   0.877   2.587   6.613
 6286SOL    HW219758   0.851   2.484   6.489
 6287SOL     OW19759   4.855   4.694   5.363
 6287SOL    HW119760   4.768   4.720   5.405
 6287SOL    HW219761   4.841   4.617   5.301
 6288SOL     OW19762   2.475   4.082   6.100
 6288SOL    HW119763   2.463   4.015   6.174
 6288SOL    HW219764   2.396   4.078   6.039
 6289SOL     OW19765   2.262   4.784   5.281
 6289SOL    HW119766   2.285   4.715   5.213
 6289SOL    HW219767   2.286   4.875   5.245
 6290SOL     OW19768   5.917   6.794   4.110
 6290SOL    HW119769   6.007   6.838   4.102
 6290SOL    HW219770   5.872   6.826   4.193
 6291SOL     OW19771   3.718   3.618   2.139
 6291SOL    HW119772   3.688   3.712   2.155
 6291SOL    HW219773   3.797   3.618   2.078
 6292SOL     OW19774   1.437   4.759   4.128
 6292SOL    HW119775   1.463   4.856   4.131
 6292SOL    HW219776   1.353   4.749   4.075
 6293SOL     OW19777   2.930   1.748   6.405
 6293SOL    HW119778   3.012   1.692   6.409
 6293SOL    HW219779   2.943   1.831   6.459
 6294SOL     OW19780   1.866   1.572   2.124
 6294SOL    HW119781   1.954   1.526   2.114
 6294SOL    HW219782   1.806   1.517   2.182
 6295SOL     OW19783   4.399   3.329   6.226
 6295SOL    HW119784   4.340   3.254   6.194
 6295SOL    HW219785   4.344   3.395   6.278
 6296SOL     OW19786   1.015   2.859   6.737
 6296SOL    HW119787   0.926   2.826   6.705
 6296SOL    HW219788   1.009   2.880   6.835
 6297SOL     OW19789   6.378   1.570   3.698
 6297SOL    HW119790   6.345   1.662   3.720
 6297SOL    HW219791   6.342   1.541   3.610
 6298SOL     OW19792   0.374   6.567   0.985
 6298SOL    HW119793   0.360   6.497   0.915
 6298SOL    HW219794   0.468   6.601   0.980
 6299SOL     OW19795   3.859   1.650   3.932
 6299SOL    HW119796   3.763   1.623   3.922
 6299SOL    HW219797   3.918   1.575   3.904
 6300SOL     OW19798   2.700   1.885   0.007
 6300SOL    HW119799   2.702   1.908   0.105
 6300SOL    HW219800   2.615   1.916   6.982
 6301SOL     OW19801   4.284   6.207   6.978
 6301SOL    HW119802   4.348   6.230   6.905
 6301SOL    HW219803   4.319   6.128   0.014
 6302SOL     OW19804   1.926   2.965   6.827
 6302SOL    HW119805   1.915   3.023   6.747
 6302SOL    HW219806   2.011   2.914   6.820
 6303SOL     OW19807   0.507   5.614   4.499
 6303SOL    HW119808   0.532   5.584   4.407
 6303SOL    HW219809   0.471   5.536   4.550
 6304SOL     OW19810   3.256   0.716   4.546
 6304SOL    HW119811   3.229   0.620   4.535
 6304SOL    HW219812   3.337   0.721   4.605
 6305SOL     OW19813   0.929   5.693   5.790
 6305SOL    HW119814   1.021   5.677   5.755
 6305SOL    HW219815   0.934   5.742   5.877
 6306SOL     OW19816   0.558   4.673   5.215
 6306SOL    HW119817   0.551   4.676   5.116
 6306SOL    HW219818   0.578   4.579   5.244
 6307SOL     OW19819   3.888   2.974   2.126
 6307SOL    HW119820   3.881   2.884   2.169
 6307SOL    HW219821   3.961   3.027   2.169
 6308SOL     OW19822   0.539   2.464   0.069
 6308SOL    HW119823   0.567   2.553   0.033
 6308SOL    HW219824   0.552   2.394   7.015
 6309SOL     OW19825   2.037   6.282   4.940
 6309SOL    HW119826   2.130   6.273   4.904
 6309SOL    HW219827   2.012   6.198   4.989
 6310SOL     OW19828   1.361   6.906   3.489
 6310SOL    HW119829   1.436   6.866   3.436
 6310SOL    HW219830   1.392   6.988   3.535
 6311SOL     OW19831   6.188   1.194   6.588
 6311SOL    HW119832   6.099   1.210   6.630
 6311SOL    HW219833   6.226   1.281   6.555
 6312SOL     OW19834   2.882   5.454   0.046
 6312SOL    HW119835   2.925   5.389   6.998
 6312SOL    HW219836   2.789   5.474   0.015
 6313SOL     OW19837   6.233   4.237   3.965
 6313SOL    HW119838   6.212   4.297   3.887
 6313SOL    HW219839   6.274   4.292   4.038
 6314SOL     OW19840   1.865   6.728   2.880
 6314SOL    HW119841   1.962   6.705   2.891
 6314SOL    HW219842   1.817   6.707   2.965
 6315SOL     OW19843   2.007   1.598   3.672
 6315SOL    HW119844   1.933   1.606   3.739
 6315SOL    HW219845   2.055   1.511   3.685
 6316SOL     OW19846   4.286   0.683   5.085
 6316SOL    HW119847   4.380   0.699   5.117
 6316SOL    HW219848   4.245   0.609   5.138
 6317SOL     OW19849   5.710   4.492   2.757
 6317SOL    HW119850   5.733   4.574   2.705
 6317SOL    HW219851   5.780   4.476   2.826
 6318SOL     OW19852   6.562   6.902   7.008
 6318SOL    HW119853   6.625   6.910   6.931
 6318SOL    HW219854   6.491   6.836   6.987
 6319SOL     OW19855   5.112   2.043   4.231
 6319SOL    HW119856   5.095   1.949   4.200
 6319SOL    HW219857   5.192   2.080   4.183
 6320SOL     OW19858   6.229   1.499   5.557
 6320SOL    HW119859   6.244   1.421   5.495
 6320SOL    HW219860   6.137   1.494   5.594
 6321SOL     OW19861   0.175   2.530   0.224
 6321SOL    HW119862   0.142   2.616   0.185
 6321SOL    HW219863   0.272   2.519   0.201
 6322SOL     OW19864   1.127   1.118   3.172
 6322SOL    HW119865   1.171   1.190   3.225
 6322SOL    HW219866   1.136   1.138   3.074
 6323SOL     OW19867   2.234   4.828   0.804
 6323SOL    HW119868   2.157   4.770   0.777
 6323SOL    HW219869   2.300   4.775   0.857
 6324SOL     OW19870   5.030   3.599   1.424
 6324SOL    HW119871   5.028   3.501   1.446
 6324SOL    HW219872   5.039   3.610   1.325
 6325SOL     OW19873   1.651   2.917   4.173
 6325SOL    HW119874   1.686   2.998   4.222
 6325SOL    HW219875   1.660   2.931   4.075
 6326SOL     OW19876   5.239   5.335   5.523
 6326SOL    HW119877   5.250   5.363   5.428
 6326SOL    HW219878   5.322   5.288   5.554
 6327SOL     OW19879   0.402   1.262   3.672
 6327SOL    HW119880   0.372   1.220   3.758
 6327SOL    HW219881   0.492   1.303   3.685
 6328SOL     OW19882   4.763   3.805   5.257
 6328SOL    HW119883   4.724   3.717   5.228
 6328SOL    HW219884   4.862   3.799   5.258
 6329SOL     OW19885   0.846   1.936   6.058
 6329SOL    HW119886   0.789   2.019   6.065
 6329SOL    HW219887   0.804   1.873   5.993
 6330SOL     OW19888   4.371   1.258   4.181
 6330SOL    HW119889   4.386   1.313   4.099
 6330SOL    HW219890   4.458   1.219   4.211
 6331SOL     OW19891   1.187   3.401   4.101
 6331SOL    HW119892   1.130   3.480   4.122
 6331SOL    HW219893   1.223   3.409   4.008
 6332SOL     OW19894   3.161   1.600   6.802
 6332SOL    HW119895   3.217   1.635   6.877
 6332SOL    HW219896   3.094   1.669   6.775
 6333SOL     OW19897   5.734   1.064   1.090
 6333SOL    HW119898   5.660   1.008   1.127
 6333SOL    HW219899   5.765   1.024   1.003
 6334SOL     OW19900   1.622   0.936   1.232
 6334SOL    HW119901   1.698   0.993   1.201
 6334SOL    HW219902   1.597   0.962   1.325
 6335SOL     OW19903   6.601   3.112   5.821
 6335SOL    HW119904   6.581   3.025   5.865
 6335SOL    HW219905   6.632   3.178   5.889
 6336SOL     OW19906   0.559   3.666   5.666
 6336SOL    HW119907   0.551   3.765   5.650
 6336SOL    HW219908   0.605   3.624   5.588
 6337SOL     OW19909   5.291   0.130   5.235
 6337SOL    HW119910   5.295   0.230   5.229
 6337SOL    HW219911   5.283   0.103   5.331
 6338SOL     OW19912   0.855   0.711   3.357
 6338SOL    HW119913   0.804   0.627   3.336
 6338SOL    HW219914   0.829   0.783   3.293
 6339SOL     OW19915   0.298   4.067   3.526
 6339SOL    HW119916   0.380   4.033   3.481
 6339SOL    HW219917   0.235   3.992   3.543
 6340SOL     OW19918   2.841   4.402   0.661
 6340SOL    HW119919   2.767   4.392   0.727
 6340SOL    HW219920   2.857   4.500   0.644
 6341SOL     OW19921   0.407   5.566   1.949
 6341SOL    HW119922   0.387   5.626   1.871
 6341SOL    HW219923   0.483   5.505   1.926
 6342SOL     OW19924   1.710   0.914   1.712
 6342SOL    HW119925   1.751   0.865   1.636
 6342SOL    HW219926   1.752   0.884   1.798
 6343SOL     OW19927   1.046   5.770   0.644
 6343SOL    HW119928   1.130   5.719   0.665
 6343SOL    HW219929   1.049   5.801   0.549
 6344SOL     OW19930   1.090   1.299   4.393
 6344SOL    HW119931   1.022   1.337   4.330
 6344SOL    HW219932   1.149   1.373   4.427
 6345SOL     OW19933   5.646   2.371   2.854
 6345SOL    HW119934   5.688   2.331   2.936
 6345SOL    HW219935   5.666   2.313   2.775
 6346SOL     OW19936   0.112   3.991   5.011
 6346SOL    HW119937   0.130   3.929   4.935
 6346SOL    HW219938   0.172   4.070   5.004
 6347SOL     OW19939   2.251   2.274   3.215
 6347SOL    HW119940   2.262   2.288   3.117
 6347SOL    HW219941   2.292   2.187   3.241
 6348SOL     OW19942   0.813   2.822   6.017
 6348SOL    HW119943   0.782   2.754   6.083
 6348SOL    HW219944   0.899   2.793   5.976
 6349SOL     OW19945   6.324   1.163   0.756
 6349SOL    HW119946   6.292   1.137   0.847
 6349SOL    HW219947   6.259   1.131   0.687
 6350SOL     OW19948   1.108   5.989   1.816
 6350SOL    HW119949   1.044   5.913   1.801
 6350SOL    HW219950   1.201   5.952   1.825
 6351SOL     OW19951   5.819   3.891   1.423
 6351SOL    HW119952   5.866   3.922   1.340
 6351SOL    HW219953   5.872   3.918   1.503
 6352SOL     OW19954   3.975   0.861   4.856
 6352SOL    HW119955   3.907   0.933   4.875
 6352SOL    HW219956   3.999   0.862   4.759
 6353SOL     OW19957   3.874   6.170   5.053
 6353SOL    HW119958   3.816   6.200   4.977
 6353SOL    HW219959   3.887   6.245   5.117
 6354SOL     OW19960   5.082   5.233   2.430
 6354SOL    HW119961   5.025   5.180   2.493
 6354SOL    HW219962   5.059   5.209   2.335
 6355SOL     OW19963   3.149   5.450   0.748
 6355SOL    HW119964   3.097   5.480   0.829
 6355SOL    HW219965   3.108   5.367   0.712
 6356SOL     OW19966   0.185   5.981   6.237
 6356SOL    HW119967   0.115   5.979   6.165
 6356SOL    HW219968   0.161   6.050   6.305
 6357SOL     OW19969   5.269   0.713   2.650
 6357SOL    HW119970   5.304   0.685   2.561
 6357SOL    HW219971   5.201   0.785   2.639
 6358SOL     OW19972   1.085   2.306   5.064
 6358SOL    HW119973   1.028   2.386   5.076
 6358SOL    HW219974   1.036   2.236   5.012
 6359SOL     OW19975   5.321   6.207   1.553
 6359SOL    HW119976   5.412   6.247   1.544
 6359SOL    HW219977   5.319   6.118   1.507
 6360SOL     OW19978   1.278   2.042   1.091
 6360SOL    HW119979   1.288   1.995   1.003
 6360SOL    HW219980   1.262   2.139   1.075
 6361SOL     OW19981   0.442   1.467   0.716
 6361SOL    HW119982   0.394   1.380   0.728
 6361SOL    HW219983   0.536   1.459   0.748
 6362SOL     OW19984   1.690   5.377   0.791
 6362SOL    HW119985   1.758   5.449   0.776
 6362SOL    HW219986   1.736   5.291   0.811
 6363SOL     OW19987   1.746   3.833   1.815
 6363SOL    HW119988   1.699   3.895   1.878
 6363SOL    HW219989   1.824   3.880   1.774
 6364SOL     OW19990   2.800   2.242   4.544
 6364SOL    HW119991   2.764   2.308   4.610
 6364SOL    HW219992   2.756   2.256   4.456
 6365SOL     OW19993   5.904   6.994   2.983
 6365SOL    HW119994   5.817   0.021   3.007
 6365SOL    HW219995   5.952   6.967   3.067
 6366SOL     OW19996   5.899   0.969   4.867
 6366SOL    HW119997   5.832   1.041   4.882
 6366SOL    HW219998   5.908   0.913   4.949
 6367SOL     OW19999   0.997   2.288   3.159
 6367SOL    HW120000   1.006   2.280   3.258
 6367SOL    HW220001   1.071   2.346   3.123
 6368SOL     OW20002   4.908   3.670   4.774
 6368SOL    HW120003   4.996   3.680   4.821
 6368SOL    HW220004   4.844   3.621   4.834
 6369SOL     OW20005   4.370   4.749   0.348
 6369SOL    HW120006   4.366   4.654   0.316
 6369SOL    HW220007   4.463   4.771   0.375
 6370SOL     OW20008   5.475   4.001   4.418
 6370SOL    HW120009   5.454   4.095   4.446
 6370SOL    HW220010   5.501   3.999   4.322
 6371SOL     OW20011   5.419   4.894   1.181
 6371SOL    HW120012   5.429   4.992   1.165
 6371SOL    HW220013   5.433   4.874   1.279
 6372SOL     OW20014   6.427   1.802   1.413
 6372SOL    HW120015   6.382   1.827   1.499
 6372SOL    HW220016   6.455   1.706   1.416
 6373SOL     OW20017   4.885   3.366   2.246
 6373SOL    HW120018   4.852   3.279   2.210
 6373SOL    HW220019   4.894   3.432   2.171
 6374SOL     OW20020   4.659   3.686   6.686
 6374SOL    HW120021   4.632   3.659   6.593
 6374SOL    HW220022   4.733   3.626   6.717
 6375SOL     OW20023   4.999   1.034   2.082
 6375SOL    HW120024   5.052   1.005   2.162
 6375SOL    HW220025   5.062   1.057   2.007
 6376SOL     OW20026   2.490   0.336   0.571
 6376SOL    HW120027   2.558   0.344   0.498
 6376SOL    HW220028   2.452   0.243   0.571
 6377SOL     OW20029   0.487   0.737   0.203
 6377SOL    HW120030   0.576   0.756   0.162
 6377SOL    HW220031   0.422   0.808   0.177
 6378SOL     OW20032   5.787   4.662   2.556
 6378SOL    HW120033   5.887   4.671   2.557
 6378SOL    HW220034   5.751   4.698   2.470
 6379SOL     OW20035   1.880   5.189   6.363
 6379SOL    HW120036   1.820   5.268   6.354
 6379SOL    HW220037   1.828   5.112   6.400
 6380SOL     OW20038   0.936   3.657   5.219
 6380SOL    HW120039   0.865   3.725   5.204
 6380SOL    HW220040   0.949   3.642   5.317
 6381SOL     OW20041   4.023   3.555   0.290
 6381SOL    HW120042   4.028   3.473   0.347
 6381SOL    HW220043   3.930   3.590   0.290
 6382SOL     OW20044   1.377   1.360   0.343
 6382SOL    HW120045   1.474   1.380   0.328
 6382SOL    HW220046   1.327   1.445   0.359
 6383SOL     OW20047   2.229   2.554   2.201
 6383SOL    HW120048   2.219   2.455   2.213
 6383SOL    HW220049   2.246   2.574   2.105
 6384SOL     OW20050   6.234   2.597   1.965
 6384SOL    HW120051   6.295   2.524   1.996
 6384SOL    HW220052   6.144   2.586   2.008
 6385SOL     OW20053   6.801   3.990   0.102
 6385SOL    HW120054   6.771   3.918   0.039
 6385SOL    HW220055   6.870   4.047   0.058
 6386SOL     OW20056   3.132   2.919   0.584
 6386SOL    HW120057   3.055   2.858   0.605
 6386SOL    HW220058   3.213   2.865   0.564
 6387SOL     OW20059   0.044   6.604   6.912
 6387SOL    HW120060   0.144   6.609   6.925
 6387SOL    HW220061   0.024   6.564   6.823
 6388SOL     OW20062   5.406   5.302   1.995
 6388SOL    HW120063   5.482   5.356   1.959
 6388SOL    HW220064   5.371   5.344   2.079
 6389SOL     OW20065   6.667   6.518   0.855
 6389SOL    HW120066   6.723   6.437   0.840
 6389SOL    HW220067   6.717   6.584   0.910
 6390SOL     OW20068   5.380   0.642   0.199
 6390SOL    HW120069   5.367   0.656   0.297
 6390SOL    HW220070   5.458   0.580   0.184
 6391SOL     OW20071   1.439   2.069   4.953
 6391SOL    HW120072   1.481   2.144   5.004
 6391SOL    HW220073   1.499   1.989   4.956
 6392SOL     OW20074   4.619   6.843   4.332
 6392SOL    HW120075   4.705   6.794   4.344
 6392SOL    HW220076   4.554   6.785   4.283
 6393SOL     OW20077   1.611   4.739   0.503
 6393SOL    HW120078   1.559   4.654   0.512
 6393SOL    HW220079   1.566   4.811   0.556
 6394SOL     OW20080   1.627   5.053   1.702
 6394SOL    HW120081   1.723   5.083   1.705
 6394SOL    HW220082   1.617   4.979   1.636
 6395SOL     OW20083   1.945   4.184   3.706
 6395SOL    HW120084   1.936   4.169   3.804
 6395SOL    HW220085   1.896   4.113   3.656
 6396SOL     OW20086   1.936   3.025   5.305
 6396SOL    HW120087   1.991   2.989   5.381
 6396SOL    HW220088   1.994   3.083   5.247
 6397SOL     OW20089   5.801   3.961   4.954
 6397SOL    HW120090   5.749   3.972   5.038
 6397SOL    HW220091   5.899   3.958   4.975
 6398SOL     OW20092   2.565   0.353   2.762
 6398SOL    HW120093   2.539   0.421   2.694
 6398SOL    HW220094   2.661   0.368   2.788
 6399SOL     OW20095   3.340   0.035   0.242
 6399SOL    HW120096   3.283   0.079   0.311
 6399SOL    HW220097   3.374   0.103   0.178
 6400SOL     OW20098   0.703   6.512   2.920
 6400SOL    HW120099   0.763   6.447   2.873
 6400SOL    HW220100   0.706   6.495   3.018
 6401SOL     OW20101   4.342   5.239   2.803
 6401SOL    HW120102   4.379   5.208   2.715
 6401SOL    HW220103   4.266   5.302   2.787
 6402SOL     OW20104   2.959   4.579   5.646
 6402SOL    HW120105   2.919   4.661   5.686
 6402SOL    HW220106   2.994   4.520   5.720
 6403SOL     OW20107   5.493   5.202   5.582
 6403SOL    HW120108   5.510   5.152   5.668
 6403SOL    HW220109   5.517   5.144   5.505
 6404SOL     OW20110   4.843   6.483   1.178
 6404SOL    HW120111   4.882   6.450   1.093
 6404SOL    HW220112   4.877   6.428   1.254
 6405SOL     OW20113   4.442   1.097   2.690
 6405SOL    HW120114   4.447   1.050   2.778
 6405SOL    HW220115   4.504   1.052   2.625
 6406SOL     OW20116   0.572   3.338   3.214
 6406SOL    HW120117   0.637   3.286   3.158
 6406SOL    HW220118   0.558   3.428   3.173
 6407SOL     OW20119   0.323   6.711   2.728
 6407SOL    HW120120   0.276   6.649   2.665
 6407SOL    HW220121   0.256   6.772   2.771
 6408SOL     OW20122   0.316   1.212   2.085
 6408SOL    HW120123   0.307   1.221   1.986
 6408SOL    HW220124   0.233   1.172   2.123
 6409SOL     OW20125   5.352   4.784   3.764
 6409SOL    HW120126   5.328   4.691   3.795
 6409SOL    HW220127   5.449   4.800   3.782
 6410SOL     OW20128   2.121   1.094   0.085
 6410SOL    HW120129   2.171   1.160   0.141
 6410SOL    HW220130   2.116   1.007   0.134
 6411SOL     OW20131   0.552   2.937   2.275
 6411SOL    HW120132   0.471   2.899   2.231
 6411SOL    HW220133   0.538   3.034   2.294
 6412SOL     OW20134   3.932   1.067   6.830
 6412SOL    HW120135   3.887   0.989   6.786
 6412SOL    HW220136   4.027   1.045   6.849
 6413SOL     OW20137   4.676   6.212   3.757
 6413SOL    HW120138   4.610   6.205   3.683
 6413SOL    HW220139   4.764   6.244   3.721
 6414SOL     OW20140   2.549   0.621   0.617
 6414SOL    HW120141   2.641   0.647   0.587
 6414SOL    HW220142   2.534   0.524   0.597
 6415SOL     OW20143   0.767   1.894   4.031
 6415SOL    HW120144   0.822   1.947   4.096
 6415SOL    HW220145   0.697   1.953   3.991
 6416SOL     OW20146   3.022   4.833   0.092
 6416SOL    HW120147   3.060   4.741   0.086
 6416SOL    HW220148   2.943   4.832   0.154
 6417SOL     OW20149   4.279   2.839   6.696
 6417SOL    HW120150   4.257   2.936   6.697
 6417SOL    HW220151   4.344   2.819   6.769
 6418SOL     OW20152   5.003   4.702   0.340
 6418SOL    HW120153   4.909   4.729   0.319
 6418SOL    HW220154   5.058   4.702   0.256
 6419SOL     OW20155   1.043   6.633   6.227
 6419SOL    HW120156   1.074   6.642   6.133
 6419SOL    HW220157   0.943   6.644   6.230
 6420SOL     OW20158   2.446   4.826   4.089
 6420SOL    HW120159   2.429   4.782   4.001
 6420SOL    HW220160   2.409   4.919   4.088
 6421SOL     OW20161   4.545   0.376   2.107
 6421SOL    HW120162   4.500   0.466   2.103
 6421SOL    HW220163   4.476   0.304   2.097
 6422SOL     OW20164   6.380   2.347   4.958
 6422SOL    HW120165   6.393   2.446   4.954
 6422SOL    HW220166   6.338   2.315   4.873
 6423SOL     OW20167   1.244   4.796   4.674
 6423SOL    HW120168   1.337   4.830   4.693
 6423SOL    HW220169   1.242   4.697   4.685
 6424SOL     OW20170   6.797   4.303   6.322
 6424SOL    HW120171   6.779   4.281   6.226
 6424SOL    HW220172   6.891   4.276   6.344
 6425SOL     OW20173   6.808   6.393   4.373
 6425SOL    HW120174   6.857   6.315   4.412
 6425SOL    HW220175   6.825   6.474   4.430
 6426SOL     OW20176   4.748   5.180   4.721
 6426SOL    HW120177   4.817   5.202   4.791
 6426SOL    HW220178   4.657   5.200   4.757
 6427SOL     OW20179   3.843   2.956   3.404
 6427SOL    HW120180   3.879   3.033   3.351
 6427SOL    HW220181   3.920   2.904   3.444
 6428SOL     OW20182   5.615   2.561   0.273
 6428SOL    HW120183   5.531   2.612   0.254
 6428SOL    HW220184   5.592   2.466   0.295
 6429SOL     OW20185   2.366   1.276   5.470
 6429SOL    HW120186   2.393   1.190   5.428
 6429SOL    HW220187   2.337   1.341   5.399
 6430SOL     OW20188   6.168   0.585   5.535
 6430SOL    HW120189   6.186   0.487   5.549
 6430SOL    HW220190   6.219   0.617   5.455
 6431SOL     OW20191   3.267   5.060   2.290
 6431SOL    HW120192   3.171   5.030   2.291
 6431SOL    HW220193   3.316   5.014   2.216
 6432SOL     OW20194   5.078   3.366   5.988
 6432SOL    HW120195   5.081   3.287   6.049
 6432SOL    HW220196   4.982   3.390   5.971
 6433SOL     OW20197   3.508   4.676   5.252
 6433SOL    HW120198   3.541   4.587   5.284
 6433SOL    HW220199   3.585   4.738   5.239
 6434SOL     OW20200   5.061   5.926   6.044
 6434SOL    HW120201   5.160   5.920   6.044
 6434SOL    HW220202   5.027   5.911   5.951
 6435SOL     OW20203   4.368   1.470   1.290
 6435SOL    HW120204   4.453   1.433   1.252
 6435SOL    HW220205   4.388   1.553   1.343
 6436SOL     OW20206   0.135   3.220   3.553
 6436SOL    HW120207   0.128   3.172   3.641
 6436SOL    HW220208   0.044   3.225   3.511
 6437SOL     OW20209   1.554   2.493   5.599
 6437SOL    HW120210   1.540   2.579   5.649
 6437SOL    HW220211   1.587   2.513   5.507
 6438SOL     OW20212   0.521   5.379   6.982
 6438SOL    HW120213   0.457   5.351   0.038
 6438SOL    HW220214   0.523   5.310   6.910
 6439SOL     OW20215   5.272   6.564   2.369
 6439SOL    HW120216   5.370   6.545   2.375
 6439SOL    HW220217   5.222   6.477   2.364
 6440SOL     OW20218   3.032   1.464   6.180
 6440SOL    HW120219   3.124   1.501   6.194
 6440SOL    HW220220   2.980   1.475   6.264
 6441SOL     OW20221   7.012   2.156   2.035
 6441SOL    HW120222   7.002   2.114   1.945
 6441SOL    HW220223   0.092   2.152   2.064
 6442SOL     OW20224   2.488   2.207   4.554
 6442SOL    HW120225   2.464   2.302   4.569
 6442SOL    HW220226   2.526   2.168   4.638
 6443SOL     OW20227   4.033   2.593   6.459
 6443SOL    HW120228   4.039   2.502   6.417
 6443SOL    HW220229   3.941   2.606   6.496
 6444SOL     OW20230   6.903   4.291   4.747
 6444SOL    HW120231   6.985   4.296   4.803
 6444SOL    HW220232   6.890   4.377   4.698
 6445SOL     OW20233   2.915   3.343   3.342
 6445SOL    HW120234   2.977   3.276   3.302
 6445SOL    HW220235   2.927   3.345   3.441
 6446SOL     OW20236   1.310   1.704   6.936
 6446SOL    HW120237   1.270   1.737   0.006
 6446SOL    HW220238   1.310   1.777   6.869
 6447SOL     OW20239   5.706   3.409   2.366
 6447SOL    HW120240   5.686   3.506   2.379
 6447SOL    HW220241   5.641   3.354   2.418
 6448SOL     OW20242   4.540   4.592   1.095
 6448SOL    HW120243   4.629   4.546   1.102
 6448SOL    HW220244   4.468   4.524   1.082
 6449SOL     OW20245   3.195   5.075   0.448
 6449SOL    HW120246   3.172   5.052   0.353
 6449SOL    HW220247   3.268   5.144   0.449
 6450SOL     OW20248   6.283   4.457   6.591
 6450SOL    HW120249   6.328   4.373   6.621
 6450SOL    HW220250   6.256   4.511   6.671
 6451SOL     OW20251   4.279   2.572   1.669
 6451SOL    HW120252   4.335   2.619   1.601
 6451SOL    HW220253   4.187   2.555   1.632
 6452SOL     OW20254   3.828   1.878   4.509
 6452SOL    HW120255   3.758   1.871   4.438
 6452SOL    HW220256   3.918   1.886   4.466
 6453SOL     OW20257   2.338   0.516   2.662
 6453SOL    HW120258   2.352   0.431   2.612
 6453SOL    HW220259   2.260   0.506   2.724
 6454SOL     OW20260   5.121   2.482   3.590
 6454SOL    HW120261   5.074   2.523   3.668
 6454SOL    HW220262   5.215   2.461   3.615
 6455SOL     OW20263   6.904   2.885   4.011
 6455SOL    HW120264   6.980   2.899   4.074
 6455SOL    HW220265   6.862   2.973   3.991
 6456SOL     OW20266   6.359   1.742   2.279
 6456SOL    HW120267   6.372   1.647   2.251
 6456SOL    HW220268   6.441   1.795   2.258
 6457SOL     OW20269   3.066   6.620   2.779
 6457SOL    HW120270   3.033   6.588   2.690
 6457SOL    HW220271   3.117   6.548   2.824
 6458SOL     OW20272   0.271   0.203   4.561
 6458SOL    HW120273   0.261   0.262   4.641
 6458SOL    HW220274   0.181   0.184   4.522
 6459SOL     OW20275   0.782   3.233   3.081
 6459SOL    HW120276   0.815   3.149   3.124
 6459SOL    HW220277   0.853   3.303   3.085
 6460SOL     OW20278   0.761   5.568   6.614
 6460SOL    HW120279   0.850   5.610   6.594
 6460SOL    HW220280   0.718   5.616   6.690
 6461SOL     OW20281   1.215   6.348   0.901
 6461SOL    HW120282   1.251   6.439   0.918
 6461SOL    HW220283   1.162   6.349   0.816
 6462SOL     OW20284   1.886   3.710   4.936
 6462SOL    HW120285   1.978   3.732   4.970
 6462SOL    HW220286   1.876   3.611   4.929
 6463SOL     OW20287   4.459   3.399   0.871
 6463SOL    HW120288   4.515   3.380   0.952
 6463SOL    HW220289   4.393   3.326   0.857
 6464SOL     OW20290   0.779   4.224   4.006
 6464SOL    HW120291   0.735   4.182   4.086
 6464SOL    HW220292   0.714   4.226   3.930
 6465SOL     OW20293   3.172   0.967   4.081
 6465SOL    HW120294   3.075   0.990   4.074
 6465SOL    HW220295   3.226   1.051   4.085
 6466SOL     OW20296   0.059   4.885   0.166
 6466SOL    HW120297   6.978   4.912   0.159
 6466SOL    HW220298   0.082   4.824   0.090
 6467SOL     OW20299   1.715   2.280   6.216
 6467SOL    HW120300   1.689   2.197   6.264
 6467SOL    HW220301   1.815   2.287   6.213
 6468SOL     OW20302   1.712   0.248   1.115
 6468SOL    HW120303   1.773   0.320   1.081
 6468SOL    HW220304   1.703   0.256   1.215
 6469SOL     OW20305   2.082   1.092   1.766
 6469SOL    HW120306   2.036   1.136   1.843
 6469SOL    HW220307   2.039   1.122   1.681
 6470SOL     OW20308   6.712   2.091   6.890
 6470SOL    HW120309   6.778   2.046   6.830
 6470SOL    HW220310   6.653   2.023   6.932
 6471SOL     OW20311   0.435   6.507   5.871
 6471SOL    HW120312   0.471   6.573   5.805
 6471SOL    HW220313   0.510   6.472   5.927
 6472SOL     OW20314   0.035   6.213   3.294
 6472SOL    HW120315   7.001   6.294   3.325
 6472SOL    HW220316   0.039   6.146   3.368
 6473SOL     OW20317   2.220   0.783   3.299
 6473SOL    HW120318   2.296   0.829   3.253
 6473SOL    HW220319   2.153   0.851   3.329
 6474SOL     OW20320   3.602   6.417   4.424
 6474SOL    HW120321   3.676   6.349   4.423
 6474SOL    HW220322   3.562   6.424   4.333
 6475SOL     OW20323   5.797   5.693   2.479
 6475SOL    HW120324   5.761   5.612   2.525
 6475SOL    HW220325   5.771   5.775   2.530
 6476SOL     OW20326   3.790   2.649   6.563
 6476SOL    HW120327   3.804   2.700   6.648
 6476SOL    HW220328   3.696   2.617   6.559
 6477SOL     OW20329   0.129   6.497   1.416
 6477SOL    HW120330   0.111   6.559   1.341
 6477SOL    HW220331   0.214   6.447   1.399
 6478SOL     OW20332   2.761   6.039   1.105
 6478SOL    HW120333   2.735   6.117   1.163
 6478SOL    HW220334   2.697   5.964   1.121
 6479SOL     OW20335   4.692   5.609   3.086
 6479SOL    HW120336   4.676   5.690   3.029
 6479SOL    HW220337   4.625   5.608   3.161
 6480SOL     OW20338   4.217   1.259   6.154
 6480SOL    HW120339   4.223   1.359   6.154
 6480SOL    HW220340   4.120   1.232   6.152
 6481SOL     OW20341   4.072   3.151   2.183
 6481SOL    HW120342   4.171   3.145   2.191
 6481SOL    HW220343   4.048   3.178   2.089
 6482SOL     OW20344   4.879   3.832   5.819
 6482SOL    HW120345   4.947   3.761   5.797
 6482SOL    HW220346   4.915   3.890   5.892
 6483SOL     OW20347   1.807   5.851   5.074
 6483SOL    HW120348   1.830   5.787   5.148
 6483SOL    HW220349   1.708   5.852   5.059
 6484SOL     OW20350   3.236   1.229   3.210
 6484SOL    HW120351   3.209   1.206   3.116
 6484SOL    HW220352   3.257   1.145   3.260
 6485SOL     OW20353   2.332   5.847   4.826
 6485SOL    HW120354   2.259   5.900   4.783
 6485SOL    HW220355   2.351   5.766   4.770
 6486SOL     OW20356   0.280   4.741   2.742
 6486SOL    HW120357   0.323   4.751   2.652
 6486SOL    HW220358   0.343   4.772   2.813
 6487SOL     OW20359   6.560   4.934   3.835
 6487SOL    HW120360   6.547   4.843   3.874
 6487SOL    HW220361   6.616   4.928   3.753
 6488SOL     OW20362   3.473   5.163   4.036
 6488SOL    HW120363   3.534   5.181   3.959
 6488SOL    HW220364   3.513   5.094   4.095
 6489SOL     OW20365   5.430   3.292   5.034
 6489SOL    HW120366   5.404   3.295   4.937
 6489SOL    HW220367   5.393   3.210   5.076
 6490SOL     OW20368   2.253   2.270   0.613
 6490SOL    HW120369   2.208   2.337   0.554
 6490SOL    HW220370   2.243   2.179   0.572
 6491SOL     OW20371   1.327   6.900   1.876
 6491SOL    HW120372   1.304   6.985   1.922
 6491SOL    HW220373   1.308   6.823   1.937
 6492SOL     OW20374   4.137   3.476   3.989
 6492SOL    HW120375   4.178   3.476   3.897
 6492SOL    HW220376   4.137   3.570   4.025
 6493SOL     OW20377   1.097   4.365   4.272
 6493SOL    HW120378   1.133   4.447   4.317
 6493SOL    HW220379   1.171   4.302   4.253
 6494SOL     OW20380   6.871   0.975   1.734
 6494SOL    HW120381   6.951   0.980   1.674
 6494SOL    HW220382   6.894   0.922   1.816
 6495SOL     OW20383   6.498   6.921   3.053
 6495SOL    HW120384   6.482   6.945   3.148
 6495SOL    HW220385   6.419   6.869   3.019
 6496SOL     OW20386   3.300   1.995   2.047
 6496SOL    HW120387   3.275   2.063   1.977
 6496SOL    HW220388   3.378   2.028   2.099
 6497SOL     OW20389   6.795   0.945   0.288
 6497SOL    HW120390   6.820   0.973   0.381
 6497SOL    HW220391   6.852   0.994   0.222
 6498SOL     OW20392   2.314   4.178   3.970
 6498SOL    HW120393   2.368   4.248   4.017
 6498SOL    HW220394   2.222   4.175   4.009
 6499SOL     OW20395   4.607   2.487   3.501
 6499SOL    HW120396   4.643   2.414   3.560
 6499SOL    HW220397   4.534   2.450   3.444
 6500SOL     OW20398   1.373   3.646   3.191
 6500SOL    HW120399   1.318   3.598   3.123
 6500SOL    HW220400   1.410   3.730   3.151
 6501SOL     OW20401   5.810   1.635   3.220
 6501SOL    HW120402   5.796   1.540   3.250
 6501SOL    HW220403   5.743   1.658   3.150
 6502SOL     OW20404   0.077   3.757   1.629
 6502SOL    HW120405   7.010   3.715   1.592
 6502SOL    HW220406   0.055   3.849   1.663
 6503SOL     OW20407   0.019   3.318   5.651
 6503SOL    HW120408   6.987   3.343   5.567
 6503SOL    HW220409   0.117   3.310   5.633
 6504SOL     OW20410   3.534   6.892   6.146
 6504SOL    HW120411   3.569   6.972   6.099
 6504SOL    HW220412   3.436   6.882   6.126
 6505SOL     OW20413   0.128   6.680   0.720
 6505SOL    HW120414   0.201   6.615   0.700
 6505SOL    HW220415   0.167   6.768   0.747
 6506SOL     OW20416   0.929   3.792   2.222
 6506SOL    HW120417   0.978   3.710   2.252
 6506SOL    HW220418   0.831   3.781   2.239
 6507SOL     OW20419   4.161   5.461   0.119
 6507SOL    HW120420   4.195   5.369   0.099
 6507SOL    HW220421   4.238   5.523   0.131
 6508SOL     OW20422   7.001   0.324   3.526
 6508SOL    HW120423   6.961   0.300   3.438
 6508SOL    HW220424   0.082   0.295   3.528
 6509SOL     OW20425   2.470   1.928   6.881
 6509SOL    HW120426   2.505   1.857   6.819
 6509SOL    HW220427   2.370   1.920   6.886
 6510SOL     OW20428   3.243   6.108   4.873
 6510SOL    HW120429   3.244   6.159   4.787
 6510SOL    HW220430   3.304   6.154   4.939
 6511SOL     OW20431   3.083   2.556   0.670
 6511SOL    HW120432   3.016   2.505   0.617
 6511SOL    HW220433   3.169   2.564   0.619
 6512SOL     OW20434   4.769   1.238   0.291
 6512SOL    HW120435   4.814   1.227   0.379
 6512SOL    HW220436   4.837   1.253   0.220
 6513SOL     OW20437   2.647   4.617   2.566
 6513SOL    HW120438   2.569   4.605   2.504
 6513SOL    HW220439   2.717   4.672   2.522
 6514SOL     OW20440   5.056   6.386   5.579
 6514SOL    HW120441   5.127   6.427   5.635
 6514SOL    HW220442   5.041   6.443   5.498
 6515SOL     OW20443   0.854   4.897   2.843
 6515SOL    HW120444   0.837   4.814   2.894
 6515SOL    HW220445   0.793   4.902   2.764
 6516SOL     OW20446   6.279   2.671   2.566
 6516SOL    HW120447   6.275   2.770   2.558
 6516SOL    HW220448   6.352   2.645   2.628
 6517SOL     OW20449   6.646   3.222   0.762
 6517SOL    HW120450   6.698   3.299   0.798
 6517SOL    HW220451   6.704   3.168   0.701
 6518SOL     OW20452   1.152   0.875   2.243
 6518SOL    HW120453   1.226   0.931   2.281
 6518SOL    HW220454   1.064   0.914   2.270
 6519SOL     OW20455   1.183   0.849   3.256
 6519SOL    HW120456   1.158   0.933   3.209
 6519SOL    HW220457   1.134   0.844   3.344
 6520SOL     OW20458   0.166   5.694   0.366
 6520SOL    HW120459   0.153   5.761   0.439
 6520SOL    HW220460   0.127   5.606   0.393
 6521SOL     OW20461   1.990   4.619   3.987
 6521SOL    HW120462   1.897   4.638   4.019
 6521SOL    HW220463   1.986   4.554   3.910
 6522SOL     OW20464   2.576   2.946   5.405
 6522SOL    HW120465   2.670   2.976   5.388
 6522SOL    HW220466   2.515   2.986   5.337
 6523SOL     OW20467   6.252   6.592   0.664
 6523SOL    HW120468   6.217   6.580   0.757
 6523SOL    HW220469   6.344   6.553   0.657
 6524SOL     OW20470   2.861   3.000   1.382
 6524SOL    HW120471   2.873   3.090   1.422
 6524SOL    HW220472   2.947   2.970   1.340
 6525SOL     OW20473   1.220   4.906   3.509
 6525SOL    HW120474   1.264   4.827   3.465
 6525SOL    HW220475   1.265   4.990   3.480
 6526SOL     OW20476   0.146   6.180   0.769
 6526SOL    HW120477   0.231   6.128   0.774
 6526SOL    HW220478   0.120   6.193   0.674
 6527SOL     OW20479   6.338   1.648   0.476
 6527SOL    HW120480   6.326   1.672   0.572
 6527SOL    HW220481   6.263   1.688   0.422
 6528SOL     OW20482   4.146   6.150   0.203
 6528SOL    HW120483   4.226   6.128   0.260
 6528SOL    HW220484   4.177   6.196   0.120
 6529SOL     OW20485   5.170   0.065   2.250
 6529SOL    HW120486   5.174   6.983   2.276
 6529SOL    HW220487   5.240   0.084   2.182
 6530SOL     OW20488   0.712   2.528   3.293
 6530SOL    HW120489   0.617   2.557   3.297
 6530SOL    HW220490   0.769   2.592   3.344
 6531SOL     OW20491   3.720   4.016   4.224
 6531SOL    HW120492   3.675   3.944   4.277
 6531SOL    HW220493   3.683   4.018   4.131
 6532SOL     OW20494   1.223   6.075   0.645
 6532SOL    HW120495   1.287   5.998   0.637
 6532SOL    HW220496   1.190   6.082   0.739
 6533SOL     OW20497   4.833   4.600   1.737
 6533SOL    HW120498   4.926   4.563   1.734
 6533SOL    HW220499   4.836   4.699   1.749
 6534SOL     OW20500   6.816   4.433   3.268
 6534SOL    HW120501   6.758   4.415   3.189
 6534SOL    HW220502   6.912   4.421   3.241
 6535SOL     OW20503   5.147   3.887   5.463
 6535SOL    HW120504   5.191   3.835   5.536
 6535SOL    HW220505   5.064   3.930   5.497
 6536SOL     OW20506   0.627   4.417   5.639
 6536SOL    HW120507   0.565   4.478   5.689
 6536SOL    HW220508   0.689   4.472   5.583
 6537SOL     OW20509   6.359   5.366   3.632
 6537SOL    HW120510   6.369   5.278   3.679
 6537SOL    HW220511   6.351   5.439   3.699
 6538SOL     OW20512   0.877   2.801   4.513
 6538SOL    HW120513   0.902   2.895   4.493
 6538SOL    HW220514   0.939   2.739   4.464
 6539SOL     OW20515   4.863   6.575   6.320
 6539SOL    HW120516   4.864   6.475   6.333
 6539SOL    HW220517   4.828   6.596   6.229
 6540SOL     OW20518   6.891   2.315   5.314
 6540SOL    HW120519   6.955   2.299   5.239
 6540SOL    HW220520   6.858   2.409   5.309
 6541SOL     OW20521   4.844   1.806   5.652
 6541SOL    HW120522   4.849   1.720   5.601
 6541SOL    HW220523   4.933   1.852   5.648
 6542SOL     OW20524   1.623   3.726   2.841
 6542SOL    HW120525   1.697   3.790   2.820
 6542SOL    HW220526   1.535   3.773   2.829
 6543SOL     OW20527   4.086   1.449   4.931
 6543SOL    HW120528   4.059   1.502   4.850
 6543SOL    HW220529   4.182   1.422   4.923
 6544SOL     OW20530   0.346   0.157   0.787
 6544SOL    HW120531   0.297   0.236   0.823
 6544SOL    HW220532   0.380   0.177   0.695
 6545SOL     OW20533   4.866   6.768   1.327
 6545SOL    HW120534   4.863   6.865   1.350
 6545SOL    HW220535   4.794   6.747   1.260
 6546SOL     OW20536   5.269   4.414   6.253
 6546SOL    HW120537   5.273   4.452   6.346
 6546SOL    HW220538   5.318   4.327   6.250
 6547SOL     OW20539   1.055   6.262   5.304
 6547SOL    HW120540   0.965   6.279   5.343
 6547SOL    HW220541   1.050   6.185   5.241
 6548SOL     OW20542   0.220   1.345   6.165
 6548SOL    HW120543   0.210   1.278   6.239
 6548SOL    HW220544   0.265   1.301   6.087
 6549SOL     OW20545   4.025   1.938   3.273
 6549SOL    HW120546   3.929   1.913   3.283
 6549SOL    HW220547   4.083   1.866   3.311
 6550SOL     OW20548   6.242   6.357   2.749
 6550SOL    HW120549   6.167   6.420   2.730
 6550SOL    HW220550   6.213   6.290   2.818
 6551SOL     OW20551   2.652   4.361   0.847
 6551SOL    HW120552   2.552   4.362   0.854
 6551SOL    HW220553   2.692   4.342   0.936
 6552SOL     OW20554   1.945   5.012   0.087
 6552SOL    HW120555   2.016   5.071   0.126
 6552SOL    HW220556   1.876   4.991   0.157
 6553SOL     OW20557   0.720   1.782   3.434
 6553SOL    HW120558   0.810   1.745   3.456
 6553SOL    HW220559   0.714   1.878   3.462
 6554SOL     OW20560   1.641   2.684   4.291
 6554SOL    HW120561   1.646   2.778   4.256
 6554SOL    HW220562   1.730   2.640   4.280
 6555SOL     OW20563   0.377   3.790   3.930
 6555SOL    HW120564   0.373   3.826   3.837
 6555SOL    HW220565   0.441   3.845   3.984
 6556SOL     OW20566   4.986   3.003   2.714
 6556SOL    HW120567   5.072   2.956   2.736
 6556SOL    HW220568   4.918   2.935   2.686
 6557SOL     OW20569   2.120   0.786   2.582
 6557SOL    HW120570   2.206   0.761   2.625
 6557SOL    HW220571   2.058   0.708   2.583
 6558SOL     OW20572   5.325   6.398   0.197
 6558SOL    HW120573   5.361   6.490   0.209
 6558SOL    HW220574   5.286   6.366   0.284
 6559SOL     OW20575   6.600   2.839   5.876
 6559SOL    HW120576   6.695   2.850   5.904
 6559SOL    HW220577   6.563   2.756   5.918
 6560SOL     OW20578   6.427   4.783   0.036
 6560SOL    HW120579   6.485   4.836   0.098
 6560SOL    HW220580   6.475   4.699   0.010
 6561SOL     OW20581   2.964   4.081   0.363
 6561SOL    HW120582   3.063   4.090   0.349
 6561SOL    HW220583   2.947   4.013   0.434
 6562SOL     OW20584   4.921   2.665   1.811
 6562SOL    HW120585   5.009   2.676   1.764
 6562SOL    HW220586   4.937   2.627   1.902
 6563SOL     OW20587   6.196   5.296   5.440
 6563SOL    HW120588   6.108   5.260   5.470
 6563SOL    HW220589   6.270   5.236   5.472
 6564SOL     OW20590   5.725   3.041   2.708
 6564SOL    HW120591   5.724   3.141   2.713
 6564SOL    HW220592   5.816   3.009   2.682
 6565SOL     OW20593   5.225   6.590   2.999
 6565SOL    HW120594   5.130   6.621   2.986
 6565SOL    HW220595   5.267   6.641   3.074
 6566SOL     OW20596   5.017   5.527   3.944
 6566SOL    HW120597   5.043   5.572   3.859
 6566SOL    HW220598   4.983   5.595   4.009
 6567SOL     OW20599   3.727   0.634   2.355
 6567SOL    HW120600   3.823   0.609   2.342
 6567SOL    HW220601   3.679   0.557   2.396
 6568SOL     OW20602   4.600   1.419   1.091
 6568SOL    HW120603   4.522   1.436   1.031
 6568SOL    HW220604   4.675   1.379   1.038
 6569SOL     OW20605   1.077   4.871   4.393
 6569SOL    HW120606   1.026   4.946   4.350
 6569SOL    HW220607   1.167   4.903   4.421
 6570SOL     OW20608   4.210   6.874   2.382
 6570SOL    HW120609   4.129   6.845   2.331
 6570SOL    HW220610   4.291   6.868   2.323
 6571SOL     OW20611   3.144   6.169   3.274
 6571SOL    HW120612   3.123   6.072   3.269
 6571SOL    HW220613   3.233   6.182   3.318
 6572SOL     OW20614   1.965   6.133   3.867
 6572SOL    HW120615   1.881   6.181   3.843
 6572SOL    HW220616   1.945   6.038   3.890
 6573SOL     OW20617   0.521   2.125   3.316
 6573SOL    HW120618   0.422   2.115   3.331
 6573SOL    HW220619   0.537   2.195   3.245
 6574SOL     OW20620   1.348   4.692   2.188
 6574SOL    HW120621   1.322   4.670   2.094
 6574SOL    HW220622   1.312   4.783   2.212
 6575SOL     OW20623   0.045   1.473   3.554
 6575SOL    HW120624   0.049   1.402   3.624
 6575SOL    HW220625   0.138   1.495   3.524
 6576SOL     OW20626   4.180   6.860   1.543
 6576SOL    HW120627   4.099   6.903   1.504
 6576SOL    HW220628   4.183   6.875   1.642
 6577SOL     OW20629   3.648   1.132   4.169
 6577SOL    HW120630   3.620   1.110   4.263
 6577SOL    HW220631   3.626   1.056   4.109
 6578SOL     OW20632   0.961   4.536   0.401
 6578SOL    HW120633   0.999   4.476   0.331
 6578SOL    HW220634   0.902   4.483   0.462
 6579SOL     OW20635   0.835   0.943   3.657
 6579SOL    HW120636   0.871   1.028   3.696
 6579SOL    HW220637   0.743   0.958   3.621
 6580SOL     OW20638   2.627   1.940   0.309
 6580SOL    HW120639   2.529   1.934   0.289
 6580SOL    HW220640   2.639   1.966   0.405
 6581SOL     OW20641   0.648   2.331   1.110
 6581SOL    HW120642   0.730   2.352   1.057
 6581SOL    HW220643   0.629   2.233   1.106
 6582SOL     OW20644   5.755   0.842   2.875
 6582SOL    HW120645   5.659   0.860   2.855
 6582SOL    HW220646   5.812   0.878   2.801
 6583SOL     OW20647   3.286   4.382   7.014
 6583SOL    HW120648   3.378   4.401   0.032
 6583SOL    HW220649   3.219   4.418   0.064
 6584SOL     OW20650   4.576   1.991   6.418
 6584SOL    HW120651   4.623   2.069   6.377
 6584SOL    HW220652   4.637   1.913   6.421
 6585SOL     OW20653   5.792   0.189   2.258
 6585SOL    HW120654   5.776   0.272   2.311
 6585SOL    HW220655   5.824   0.214   2.166
 6586SOL     OW20656   6.566   1.285   6.572
 6586SOL    HW120657   6.509   1.303   6.492
 6586SOL    HW220658   6.508   1.278   6.654
 6587SOL     OW20659   2.625   5.309   4.945
 6587SOL    HW120660   2.696   5.321   4.876
 6587SOL    HW220661   2.624   5.214   4.976
 6588SOL     OW20662   0.278   2.499   0.493
 6588SOL    HW120663   0.203   2.442   0.458
 6588SOL    HW220664   0.329   2.537   0.416
 6589SOL     OW20665   6.999   6.452   2.243
 6589SOL    HW120666   6.949   6.396   2.309
 6589SOL    HW220667   6.976   6.548   2.258
 6590SOL     OW20668   0.872   6.318   4.419
 6590SOL    HW120669   0.931   6.310   4.338
 6590SOL    HW220670   0.899   6.249   4.487
 6591SOL     OW20671   6.119   3.531   3.493
 6591SOL    HW120672   6.075   3.575   3.571
 6591SOL    HW220673   6.181   3.459   3.525
 6592SOL     OW20674   6.246   6.601   3.794
 6592SOL    HW120675   6.199   6.687   3.775
 6592SOL    HW220676   6.183   6.525   3.780
 6593SOL     OW20677   1.948   1.243   1.963
 6593SOL    HW120678   1.930   1.340   1.947
 6593SOL    HW220679   1.879   1.206   2.025
 6594SOL     OW20680   5.104   0.079   6.732
 6594SOL    HW120681   5.121   0.054   6.827
 6594SOL    HW220682   5.020   0.036   6.700
 6595SOL     OW20683   0.994   1.950   5.118
 6595SOL    HW120684   0.959   1.996   5.199
 6595SOL    HW220685   1.093   1.965   5.112
 6596SOL     OW20686   4.887   0.731   2.411
 6596SOL    HW120687   4.862   0.827   2.409
 6596SOL    HW220688   4.862   0.688   2.324
 6597SOL     OW20689   0.508   4.924   0.965
 6597SOL    HW120690   0.474   4.849   1.021
 6597SOL    HW220691   0.602   4.904   0.937
 6598SOL     OW20692   1.848   4.771   3.220
 6598SOL    HW120693   1.939   4.802   3.194
 6598SOL    HW220694   1.805   4.725   3.141
 6599SOL     OW20695   0.386   5.669   5.822
 6599SOL    HW120696   0.463   5.627   5.871
 6599SOL    HW220697   0.302   5.659   5.876
 6600SOL     OW20698   4.689   0.041   5.422
 6600SOL    HW120699   4.776   7.010   5.410
 6600SOL    HW220700   4.684   0.120   5.360
 6601SOL     OW20701   1.530   1.964   1.948
 6601SOL    HW120702   1.582   1.956   1.863
 6601SOL    HW220703   1.593   1.968   2.025
 6602SOL     OW20704   0.107   5.482   1.802
 6602SOL    HW120705   0.020   5.433   1.793
 6602SOL    HW220706   0.182   5.416   1.808
 6603SOL     OW20707   0.313   4.527   2.318
 6603SOL    HW120708   0.337   4.620   2.346
 6603SOL    HW220709   0.396   4.472   2.313
 6604SOL     OW20710   1.710   5.614   3.325
 6604SOL    HW120711   1.637   5.646   3.264
 6604SOL    HW220712   1.685   5.526   3.365
 6605SOL     OW20713   6.924   5.810   1.010
 6605SOL    HW120714   6.918   5.897   1.060
 6605SOL    HW220715   6.993   5.818   0.938
 6606SOL     OW20716   1.611   3.344   2.565
 6606SOL    HW120717   1.598   3.379   2.658
 6606SOL    HW220718   1.581   3.248   2.561
 6607SOL     OW20719   6.380   3.223   3.704
 6607SOL    HW120720   6.375   3.194   3.800
 6607SOL    HW220721   6.452   3.171   3.658
 6608SOL     OW20722   1.653   6.833   5.958
 6608SOL    HW120723   1.741   6.805   5.921
 6608SOL    HW220724   1.627   6.772   6.033
 6609SOL     OW20725   4.139   1.854   6.842
 6609SOL    HW120726   4.090   1.932   6.881
 6609SOL    HW220727   4.125   1.852   6.743
 6610SOL     OW20728   2.836   5.732   1.150
 6610SOL    HW120729   2.829   5.674   1.231
 6610SOL    HW220730   2.909   5.698   1.091
 6611SOL     OW20731   2.726   1.764   5.008
 6611SOL    HW120732   2.633   1.747   4.975
 6611SOL    HW220733   2.776   1.815   4.938
 6612SOL     OW20734   0.389   0.343   6.860
 6612SOL    HW120735   0.371   0.414   6.793
 6612SOL    HW220736   0.355   0.372   6.950
 6613SOL     OW20737   4.628   6.832   0.352
 6613SOL    HW120738   4.691   6.844   0.275
 6613SOL    HW220739   4.668   6.873   0.434
 6614SOL     OW20740   4.036   5.059   0.680
 6614SOL    HW120741   3.966   5.116   0.637
 6614SOL    HW220742   4.084   5.006   0.610
 6615SOL     OW20743   3.750   5.946   6.035
 6615SOL    HW120744   3.813   5.889   5.982
 6615SOL    HW220745   3.802   6.002   6.099
 6616SOL     OW20746   4.445   1.156   6.941
 6616SOL    HW120747   4.473   1.208   6.861
 6616SOL    HW220748   4.437   1.059   6.917
 6617SOL     OW20749   3.411   0.554   3.813
 6617SOL    HW120750   3.361   0.546   3.727
 6617SOL    HW220751   3.375   0.631   3.866
 6618SOL     OW20752   5.710   2.260   4.287
 6618SOL    HW120753   5.790   2.206   4.262
 6618SOL    HW220754   5.628   2.222   4.244
 6619SOL     OW20755   4.959   5.258   3.974
 6619SOL    HW120756   4.975   5.354   3.996
 6619SOL    HW220757   5.043   5.217   3.938
 6620SOL     OW20758   1.345   2.418   3.266
 6620SOL    HW120759   1.440   2.448   3.256
 6620SOL    HW220760   1.284   2.488   3.229
 6621SOL     OW20761   2.915   3.461   3.962
 6621SOL    HW120762   2.904   3.422   4.054
 6621SOL    HW220763   2.902   3.389   3.894
 6622SOL     OW20764   0.334   5.777   1.109
 6622SOL    HW120765   0.292   5.694   1.071
 6622SOL    HW220766   0.308   5.786   1.205
 6623SOL     OW20767   3.258   4.101   4.393
 6623SOL    HW120768   3.343   4.149   4.414
 6623SOL    HW220769   3.215   4.070   4.478
 6624SOL     OW20770   2.320   2.143   2.702
 6624SOL    HW120771   2.392   2.119   2.636
 6624SOL    HW220772   2.284   2.234   2.680
 6625SOL     OW20773   6.663   4.003   5.354
 6625SOL    HW120774   6.650   4.092   5.309
 6625SOL    HW220775   6.578   3.975   5.399
 6626SOL     OW20776   3.174   6.040   5.736
 6626SOL    HW120777   3.246   5.980   5.702
 6626SOL    HW220778   3.216   6.113   5.791
 6627SOL     OW20779   2.442   6.466   3.798
 6627SOL    HW120780   2.437   6.369   3.822
 6627SOL    HW220781   2.430   6.522   3.880
 6628SOL     OW20782   3.749   6.251   3.284
 6628SOL    HW120783   3.824   6.306   3.248
 6628SOL    HW220784   3.780   6.156   3.294
 6629SOL     OW20785   4.992   5.592   5.544
 6629SOL    HW120786   4.950   5.542   5.469
 6629SOL    HW220787   5.041   5.528   5.604
 6630SOL     OW20788   1.574   1.020   0.057
 6630SOL    HW120789   1.599   0.930   0.021
 6630SOL    HW220790   1.636   1.089   0.020
 6631SOL     OW20791   1.835   3.270   5.605
 6631SOL    HW120792   1.904   3.301   5.539
 6631SOL    HW220793   1.744   3.298   5.575
 6632SOL     OW20794   1.211   0.097   6.901
 6632SOL    HW120795   1.292   0.147   6.931
 6632SOL    HW220796   1.130   0.133   6.948
 6633SOL     OW20797   4.235   5.342   6.241
 6633SOL    HW120798   4.142   5.321   6.210
 6633SOL    HW220799   4.240   5.438   6.270
 6634SOL     OW20800   3.324   2.132   4.180
 6634SOL    HW120801   3.409   2.185   4.175
 6634SOL    HW220802   3.345   2.037   4.201
 6635SOL     OW20803   4.973   5.236   4.948
 6635SOL    HW120804   4.900   5.279   5.002
 6635SOL    HW220805   5.037   5.307   4.917
 6636SOL     OW20806   4.187   0.876   6.979
 6636SOL    HW120807   4.130   0.829   6.911
 6636SOL    HW220808   4.274   0.902   6.937
 6637SOL     OW20809   0.038   2.333   0.361
 6637SOL    HW120810   6.953   2.335   0.359
 6637SOL    HW220811   0.074   2.410   0.308
 6638SOL     OW20812   3.001   3.911   3.739
 6638SOL    HW120813   2.935   3.857   3.687
 6638SOL    HW220814   2.974   3.913   3.835
 6639SOL     OW20815   5.253   2.521   1.364
 6639SOL    HW120816   5.331   2.572   1.400
 6639SOL    HW220817   5.263   2.509   1.265
 6640SOL     OW20818   1.758   4.191   4.867
 6640SOL    HW120819   1.680   4.249   4.891
 6640SOL    HW220820   1.792   4.146   4.950
 6641SOL     OW20821   5.990   2.116   1.115
 6641SOL    HW120822   6.034   2.067   1.040
 6641SOL    HW220823   6.059   2.163   1.170
 6642SOL     OW20824   1.638   5.743   7.000
 6642SOL    HW120825   1.539   5.729   7.007
 6642SOL    HW220826   1.664   5.828   0.030
 6643SOL     OW20827   3.176   5.946   6.019
 6643SOL    HW120828   3.248   5.876   6.015
 6643SOL    HW220829   3.140   5.962   5.927
 6644SOL     OW20830   2.047   6.804   4.163
 6644SOL    HW120831   2.129   6.845   4.125
 6644SOL    HW220832   2.033   6.714   4.121
 6645SOL     OW20833   5.443   2.929   6.349
 6645SOL    HW120834   5.390   2.939   6.433
 6645SOL    HW220835   5.409   2.850   6.298
 6646SOL     OW20836   3.649   0.225   5.561
 6646SOL    HW120837   3.671   0.155   5.493
 6646SOL    HW220838   3.639   0.314   5.516
 6647SOL     OW20839   4.134   4.866   0.863
 6647SOL    HW120840   4.101   4.952   0.826
 6647SOL    HW220841   4.216   4.837   0.814
 6648SOL     OW20842   3.016   5.909   5.090
 6648SOL    HW120843   3.063   5.970   5.026
 6648SOL    HW220844   2.920   5.898   5.062
 6649SOL     OW20845   4.739   2.484   6.389
 6649SOL    HW120846   4.819   2.452   6.438
 6649SOL    HW220847   4.751   2.581   6.366
 6650SOL     OW20848   1.420   1.427   5.868
 6650SOL    HW120849   1.362   1.504   5.841
 6650SOL    HW220850   1.391   1.345   5.819
 6651SOL     OW20851   6.794   1.704   5.992
 6651SOL    HW120852   6.701   1.737   6.005
 6651SOL    HW220853   6.812   1.628   6.055
 6652SOL     OW20854   7.015   4.770   0.547
 6652SOL    HW120855   0.096   4.796   0.550
 6652SOL    HW220856   6.993   4.718   0.630
 6653SOL     OW20857   5.895   4.698   0.469
 6653SOL    HW120858   5.907   4.696   0.568
 6653SOL    HW220859   5.814   4.753   0.447
 6654SOL     OW20860   6.373   3.503   3.667
 6654SOL    HW120861   6.398   3.543   3.756
 6654SOL    HW220862   6.351   3.406   3.680
 6655SOL     OW20863   6.793   5.967   1.620
 6655SOL    HW120864   6.693   5.974   1.615
 6655SOL    HW220865   6.825   6.003   1.708
 6656SOL     OW20866   4.096   1.292   3.339
 6656SOL    HW120867   4.107   1.222   3.410
 6656SOL    HW220868   4.082   1.248   3.251
 6657SOL     OW20869   5.310   1.866   4.100
 6657SOL    HW120870   5.376   1.791   4.094
 6657SOL    HW220871   5.217   1.829   4.094
 6658SOL     OW20872   6.558   6.302   5.362
 6658SOL    HW120873   6.623   6.285   5.437
 6658SOL    HW220874   6.542   6.216   5.312
 6659SOL     OW20875   0.555   5.141   1.301
 6659SOL    HW120876   0.589   5.193   1.380
 6659SOL    HW220877   0.470   5.095   1.325
 6660SOL     OW20878   6.919   0.273   4.575
 6660SOL    HW120879   6.931   0.355   4.519
 6660SOL    HW220880   6.947   0.193   4.523
 6661SOL     OW20881   4.212   5.562   3.701
 6661SOL    HW120882   4.124   5.515   3.696
 6661SOL    HW220883   4.197   5.661   3.709
 6662SOL     OW20884   3.665   6.580   2.640
 6662SOL    HW120885   3.724   6.619   2.711
 6662SOL    HW220886   3.571   6.574   2.675
 6663SOL     OW20887   0.912   4.578   5.910
 6663SOL    HW120888   0.823   4.597   5.868
 6663SOL    HW220889   0.978   4.556   5.838
 6664SOL     OW20890   2.702   0.383   1.289
 6664SOL    HW120891   2.731   0.459   1.347
 6664SOL    HW220892   2.779   0.354   1.232
 6665SOL     OW20893   2.806   0.659   0.188
 6665SOL    HW120894   2.869   0.651   0.111
 6665SOL    HW220895   2.812   0.751   0.227
 6666SOL     OW20896   3.691   6.189   4.842
 6666SOL    HW120897   3.755   6.240   4.785
 6666SOL    HW220898   3.676   6.098   4.802
 6667SOL     OW20899   1.371   5.782   6.568
 6667SOL    HW120900   1.375   5.880   6.547
 6667SOL    HW220901   1.378   5.730   6.483
 6668SOL     OW20902   0.450   4.229   0.616
 6668SOL    HW120903   0.394   4.298   0.568
 6668SOL    HW220904   0.391   4.155   0.648
 6669SOL     OW20905   1.619   1.896   2.831
 6669SOL    HW120906   1.548   1.952   2.873
 6669SOL    HW220907   1.709   1.933   2.854
 6670SOL     OW20908   3.742   3.005   0.325
 6670SOL    HW120909   3.771   2.911   0.344
 6670SOL    HW220910   3.726   3.015   0.226
 6671SOL     OW20911   4.804   4.826   0.190
 6671SOL    HW120912   4.723   4.794   0.239
 6671SOL    HW220913   4.785   4.916   0.150
 6672SOL     OW20914   1.023   2.197   1.535
 6672SOL    HW120915   1.044   2.281   1.585
 6672SOL    HW220916   1.080   2.192   1.453
 6673SOL     OW20917   6.371   2.896   4.157
 6673SOL    HW120918   6.327   2.885   4.246
 6673SOL    HW220919   6.317   2.850   4.086
 6674SOL     OW20920   0.349   1.561   0.477
 6674SOL    HW120921   0.355   1.660   0.489
 6674SOL    HW220922   0.383   1.515   0.559
 6675SOL     OW20923   4.531   0.519   6.667
 6675SOL    HW120924   4.603   0.572   6.711
 6675SOL    HW220925   4.514   0.435   6.719
 6676SOL     OW20926   0.393   4.250   4.332
 6676SOL    HW120927   0.403   4.151   4.344
 6676SOL    HW220928   0.482   4.289   4.309
 6677SOL     OW20929   0.891   1.849   6.324
 6677SOL    HW120930   0.973   1.792   6.333
 6677SOL    HW220931   0.882   1.880   6.229
 6678SOL     OW20932   2.807   4.394   6.055
 6678SOL    HW120933   2.784   4.386   6.152
 6678SOL    HW220934   2.746   4.460   6.012
 6679SOL     OW20935   1.689   0.446   3.878
 6679SOL    HW120936   1.727   0.528   3.835
 6679SOL    HW220937   1.764   0.383   3.900
 6680SOL     OW20938   6.607   5.992   1.248
 6680SOL    HW120939   6.621   5.893   1.260
 6680SOL    HW220940   6.513   6.008   1.217
 6681SOL     OW20941   3.461   6.263   1.502
 6681SOL    HW120942   3.486   6.184   1.446
 6681SOL    HW220943   3.371   6.247   1.542
 6682SOL     OW20944   3.445   5.925   5.671
 6682SOL    HW120945   3.456   5.932   5.770
 6682SOL    HW220946   3.474   5.834   5.641
 6683SOL     OW20947   0.149   5.215   5.988
 6683SOL    HW120948   0.196   5.146   5.933
 6683SOL    HW220949   0.069   5.174   6.032
 6684SOL     OW20950   2.997   5.814   7.013
 6684SOL    HW120951   2.906   5.796   0.036
 6684SOL    HW220952   2.991   5.885   6.943
 6685SOL     OW20953   5.274   2.883   0.801
 6685SOL    HW120954   5.255   2.891   0.899
 6685SOL    HW220955   5.213   2.944   0.750
 6686SOL     OW20956   5.402   5.269   4.753
 6686SOL    HW120957   5.467   5.200   4.721
 6686SOL    HW220958   5.438   5.315   4.834
 6687SOL     OW20959   6.938   1.404   1.330
 6687SOL    HW120960   6.842   1.402   1.302
 6687SOL    HW220961   6.981   1.317   1.307
 6688SOL     OW20962   4.185   4.933   0.470
 6688SOL    HW120963   4.230   4.845   0.456
 6688SOL    HW220964   4.095   4.931   0.428
 6689SOL     OW20965   2.618   4.174   5.688
 6689SOL    HW120966   2.695   4.194   5.627
 6689SOL    HW220967   2.652   4.163   5.781
 6690SOL     OW20968   0.784   0.296   6.391
 6690SOL    HW120969   0.742   0.228   6.331
 6690SOL    HW220970   0.719   0.324   6.461
 6691SOL     OW20971   3.113   1.837   2.380
 6691SOL    HW120972   3.190   1.781   2.413
 6691SOL    HW220973   3.136   1.934   2.390
 6692SOL     OW20974   4.376   5.502   2.291
 6692SOL    HW120975   4.323   5.490   2.374
 6692SOL    HW220976   4.316   5.490   2.211
 6693SOL     OW20977   3.534   1.790   5.255
 6693SOL    HW120978   3.502   1.700   5.227
 6693SOL    HW220979   3.623   1.781   5.302
 6694SOL     OW20980   4.036   4.237   1.352
 6694SOL    HW120981   3.936   4.244   1.347
 6694SOL    HW220982   4.077   4.321   1.318
 6695SOL     OW20983   2.861   2.091   0.513
 6695SOL    HW120984   2.776   2.098   0.565
 6695SOL    HW220985   2.937   2.122   0.570
 6696SOL     OW20986   4.080   3.308   4.192
 6696SOL    HW120987   4.100   3.382   4.128
 6696SOL    HW220988   4.074   3.222   4.143
 6697SOL     OW20989   4.580   2.066   2.073
 6697SOL    HW120990   4.563   2.055   2.171
 6697SOL    HW220991   4.497   2.099   2.028
 6698SOL     OW20992   3.792   4.340   1.606
 6698SOL    HW120993   3.815   4.264   1.667
 6698SOL    HW220994   3.705   4.381   1.635
 6699SOL     OW20995   1.282   3.577   5.443
 6699SOL    HW120996   1.186   3.600   5.461
 6699SOL    HW220997   1.333   3.579   5.529
 6700SOL     OW20998   5.546   0.239   0.877
 6700SOL    HW120999   5.584   0.225   0.969
 6700SOL    HW221000   5.619   0.267   0.815
 6701SOL     OW21001   6.251   6.759   1.586
 6701SOL    HW121002   6.309   6.683   1.558
 6701SOL    HW221003   6.164   6.723   1.620
 6702SOL     OW21004   3.860   3.331   1.059
 6702SOL    HW121005   3.951   3.338   1.100
 6702SOL    HW221006   3.796   3.388   1.110
 6703SOL     OW21007   6.880   1.328   0.277
 6703SOL    HW121008   6.872   1.428   0.285
 6703SOL    HW221009   6.805   1.285   0.329
 6704SOL     OW21010   3.461   6.946   5.771
 6704SOL    HW121011   3.531   6.877   5.789
 6704SOL    HW221012   3.472   6.981   5.678
 6705SOL     OW21013   0.241   4.345   1.977
 6705SOL    HW121014   0.284   4.434   1.987
 6705SOL    HW221015   0.298   4.275   2.021
 6706SOL     OW21016   0.170   6.668   1.635
 6706SOL    HW121017   0.113   6.618   1.570
 6706SOL    HW221018   0.242   6.717   1.586
 6707SOL     OW21019   4.751   1.267   2.489
 6707SOL    HW121020   4.812   1.339   2.520
 6707SOL    HW221021   4.675   1.306   2.438
 6708SOL     OW21022   0.683   3.218   0.306
 6708SOL    HW121023   0.595   3.242   0.265
 6708SOL    HW221024   0.698   3.274   0.388
 6709SOL     OW21025   2.244   4.285   1.989
 6709SOL    HW121026   2.329   4.293   2.043
 6709SOL    HW221027   2.262   4.232   1.907
 6710SOL     OW21028   4.698   1.298   0.861
 6710SOL    HW121029   4.727   1.206   0.834
 6710SOL    HW221030   4.663   1.347   0.781
 6711SOL     OW21031   3.255   6.236   5.903
 6711SOL    HW121032   3.159   6.235   5.932
 6711SOL    HW221033   3.304   6.309   5.952
 6712SOL     OW21034   5.341   4.749   1.409
 6712SOL    HW121035   5.250   4.775   1.376
 6712SOL    HW221036   5.354   4.650   1.396
 6713SOL     OW21037   1.617   5.520   4.424
 6713SOL    HW121038   1.568   5.589   4.371
 6713SOL    HW221039   1.578   5.515   4.516
 6714SOL     OW21040   5.587   1.261   1.725
 6714SOL    HW121041   5.682   1.233   1.710
 6714SOL    HW221042   5.543   1.278   1.637
 6715SOL     OW21043   1.797   0.470   6.341
 6715SOL    HW121044   1.781   0.373   6.323
 6715SOL    HW221045   1.760   0.493   6.431
 6716SOL     OW21046   7.002   5.995   2.406
 6716SOL    HW121047   0.067   6.047   2.374
 6716SOL    HW221048   6.980   5.923   2.341
 6717SOL     OW21049   5.725   1.551   6.146
 6717SOL    HW121050   5.760   1.623   6.206
 6717SOL    HW221051   5.709   1.588   6.055
 6718SOL     OW21052   4.541   1.704   0.802
 6718SOL    HW121053   4.502   1.718   0.711
 6718SOL    HW221054   4.526   1.786   0.857
 6719SOL     OW21055   1.917   1.487   6.820
 6719SOL    HW121056   1.976   1.407   6.827
 6719SOL    HW221057   1.887   1.515   6.911
 6720SOL     OW21058   1.421   0.895   6.044
 6720SOL    HW121059   1.390   0.800   6.050
 6720SOL    HW221060   1.483   0.915   6.120
 6721SOL     OW21061   5.877   0.119   0.897
 6721SOL    HW121062   5.972   0.133   0.924
 6721SOL    HW221063   5.822   0.092   0.976
 6722SOL     OW21064   5.355   3.672   0.527
 6722SOL    HW121065   5.350   3.759   0.477
 6722SOL    HW221066   5.434   3.674   0.589
 6723SOL     OW21067   1.055   2.879   5.619
 6723SOL    HW121068   1.063   2.906   5.715
 6723SOL    HW221069   1.129   2.816   5.596
 6724SOL     OW21070   2.002   3.675   4.136
 6724SOL    HW121071   2.030   3.608   4.068
 6724SOL    HW221072   1.929   3.732   4.098
 6725SOL     OW21073   4.857   2.712   3.376
 6725SOL    HW121074   4.951   2.676   3.379
 6725SOL    HW221075   4.823   2.723   3.469
 6726SOL     OW21076   0.662   0.630   5.667
 6726SOL    HW121077   0.609   0.587   5.594
 6726SOL    HW221078   0.622   0.720   5.688
 6727SOL     OW21079   1.549   4.963   5.831
 6727SOL    HW121080   1.526   4.923   5.919
 6727SOL    HW221081   1.640   5.005   5.836
 6728SOL     OW21082   3.543   1.031   3.061
 6728SOL    HW121083   3.616   0.997   3.000
 6728SOL    HW221084   3.469   0.964   3.065
 6729SOL     OW21085   4.187   1.067   2.261
 6729SOL    HW121086   4.182   0.975   2.222
 6729SOL    HW221087   4.110   1.082   2.322
 6730SOL     OW21088   6.924   1.894   0.794
 6730SOL    HW121089   6.989   1.951   0.745
 6730SOL    HW221090   6.843   1.948   0.816
 6731SOL     OW21091   3.682   0.072   6.333
 6731SOL    HW121092   3.654   7.009   6.278
 6731SOL    HW221093   3.715   0.145   6.274
 6732SOL     OW21094   6.989   4.949   5.808
 6732SOL    HW121095   6.964   4.853   5.823
 6732SOL    HW221096   0.068   4.963   5.837
 6733SOL     OW21097   4.910   4.815   5.702
 6733SOL    HW121098   4.927   4.840   5.798
 6733SOL    HW221099   4.979   4.857   5.644
 6734SOL     OW21100   6.344   1.757   4.048
 6734SOL    HW121101   6.375   1.664   4.030
 6734SOL    HW221102   6.337   1.771   4.147
 6735SOL     OW21103   6.640   2.539   2.937
 6735SOL    HW121104   6.590   2.617   2.974
 6735SOL    HW221105   6.684   2.488   3.011
 6736SOL     OW21106   3.590   3.572   0.925
 6736SOL    HW121107   3.578   3.478   0.893
 6736SOL    HW221108   3.529   3.589   1.002
 6737SOL     OW21109   6.697   3.752   6.987
 6737SOL    HW121110   6.745   3.681   6.937
 6737SOL    HW221111   6.617   3.712   0.017
 6738SOL     OW21112   1.170   6.002   3.983
 6738SOL    HW121113   1.261   5.961   3.987
 6738SOL    HW221114   1.128   5.998   4.074
 6739SOL     OW21115   6.931   0.087   5.247
 6739SOL    HW121116   6.973   0.022   5.184
 6739SOL    HW221117   6.868   0.146   5.197
 6740SOL     OW21118   0.468   6.854   3.172
 6740SOL    HW121119   0.528   6.891   3.242
 6740SOL    HW221120   0.452   6.923   3.101
 6741SOL     OW21121   3.752   1.894   0.019
 6741SOL    HW121122   3.810   1.954   6.979
 6741SOL    HW221123   3.656   1.910   7.012
 6742SOL     OW21124   5.786   4.090   3.537
 6742SOL    HW121125   5.779   4.160   3.608
 6742SOL    HW221126   5.871   4.102   3.486
 6743SOL     OW21127   3.872   3.617   0.853
 6743SOL    HW121128   3.912   3.704   0.884
 6743SOL    HW221129   3.772   3.622   0.860
 6744SOL     OW21130   6.184   6.811   6.101
 6744SOL    HW121131   6.149   6.734   6.154
 6744SOL    HW221132   6.214   6.779   6.011
 6745SOL     OW21133   0.105   4.705   5.171
 6745SOL    HW121134   0.120   4.658   5.084
 6745SOL    HW221135   0.047   4.650   5.230
 6746SOL     OW21136   1.229   2.268   2.772
 6746SOL    HW121137   1.278   2.240   2.689
 6746SOL    HW221138   1.132   2.248   2.761
 6747SOL     OW21139   1.421   6.082   5.828
 6747SOL    HW121140   1.330   6.070   5.790
 6747SOL    HW221141   1.488   6.090   5.754
 6748SOL     OW21142   2.008   1.189   4.743
 6748SOL    HW121143   2.003   1.289   4.748
 6748SOL    HW221144   1.934   1.150   4.797
 6749SOL     OW21145   4.152   5.037   2.425
 6749SOL    HW121146   4.073   5.057   2.483
 6749SOL    HW221147   4.123   4.980   2.348
 6750SOL     OW21148   3.809   1.176   4.895
 6750SOL    HW121149   3.788   1.258   4.841
 6750SOL    HW221150   3.894   1.190   4.944
 6751SOL     OW21151   4.707   0.073   4.291
 6751SOL    HW121152   4.661   7.000   4.292
 6751SOL    HW221153   4.670   0.130   4.218
 6752SOL     OW21154   2.120   4.505   2.298
 6752SOL    HW121155   2.203   4.529   2.249
 6752SOL    HW221156   2.041   4.548   2.254
 6753SOL     OW21157   4.036   3.280   6.102
 6753SOL    HW121158   4.112   3.215   6.095
 6753SOL    HW221159   3.975   3.251   6.175
 6754SOL     OW21160   6.119   2.149   0.455
 6754SOL    HW121161   6.067   2.088   0.514
 6754SOL    HW221162   6.056   2.210   0.407
 6755SOL     OW21163   2.747   5.873   6.132
 6755SOL    HW121164   2.817   5.816   6.089
 6755SOL    HW221165   2.701   5.820   6.203
 6756SOL     OW21166   3.309   2.053   6.016
 6756SOL    HW121167   3.255   1.998   5.953
 6756SOL    HW221168   3.250   2.116   6.066
 6757SOL     OW21169   4.291   0.208   0.959
 6757SOL    HW121170   4.298   0.264   0.876
 6757SOL    HW221171   4.328   0.117   0.941
 6758SOL     OW21172   5.089   2.057   3.523
 6758SOL    HW121173   5.081   2.155   3.501
 6758SOL    HW221174   4.998   2.018   3.537
 6759SOL     OW21175   0.626   1.997   3.063
 6759SOL    HW121176   0.559   2.052   3.012
 6759SOL    HW221177   0.618   2.017   3.161
 6760SOL     OW21178   5.166   2.281   4.749
 6760SOL    HW121179   5.130   2.367   4.786
 6760SOL    HW221180   5.090   2.224   4.716
 6761SOL     OW21181   3.720   1.405   4.788
 6761SOL    HW121182   3.778   1.479   4.753
 6761SOL    HW221183   3.636   1.444   4.826
 6762SOL     OW21184   6.689   5.524   4.441
 6762SOL    HW121185   6.780   5.492   4.415
 6762SOL    HW221186   6.656   5.469   4.518
 6763SOL     OW21187   5.683   5.660   4.683
 6763SOL    HW121188   5.592   5.691   4.655
 6763SOL    HW221189   5.702   5.571   4.642
 6764SOL     OW21190   1.028   4.887   0.706
 6764SOL    HW121191   1.103   4.947   0.735
 6764SOL    HW221192   0.978   4.930   0.631
 6765SOL     OW21193   0.177   4.581   2.957
 6765SOL    HW121194   0.169   4.481   2.956
 6765SOL    HW221195   0.219   4.611   2.872
 6766SOL     OW21196   5.833   0.777   1.310
 6766SOL    HW121197   5.751   0.755   1.363
 6766SOL    HW221198   5.847   0.876   1.309
 6767SOL     OW21199   3.224   0.380   0.750
 6767SOL    HW121200   3.251   0.476   0.743
 6767SOL    HW221201   3.127   0.371   0.725
 6768SOL     OW21202   1.718   0.997   0.458
 6768SOL    HW121203   1.714   1.043   0.369
 6768SOL    HW221204   1.781   0.920   0.453
 6769SOL     OW21205   4.369   2.814   1.554
 6769SOL    HW121206   4.332   2.900   1.519
 6769SOL    HW221207   4.469   2.816   1.550
 6770SOL     OW21208   0.375   0.628   1.621
 6770SOL    HW121209   0.467   0.615   1.584
 6770SOL    HW221210   0.377   0.702   1.688
 6771SOL     OW21211   4.399   2.152   3.209
 6771SOL    HW121212   4.442   2.077   3.160
 6771SOL    HW221213   4.381   2.123   3.303
 6772SOL     OW21214   3.376   1.867   3.188
 6772SOL    HW121215   3.449   1.798   3.188
 6772SOL    HW221216   3.288   1.823   3.207
 6773SOL     OW21217   0.662   4.093   1.579
 6773SOL    HW121218   0.664   4.010   1.634
 6773SOL    HW221219   0.581   4.147   1.603
 6774SOL     OW21220   0.406   1.819   6.149
 6774SOL    HW121221   0.453   1.734   6.124
 6774SOL    HW221222   0.447   1.896   6.100
 6775SOL     OW21223   2.388   4.696   0.146
 6775SOL    HW121224   2.353   4.625   0.085
 6775SOL    HW221225   2.417   4.654   0.232
 6776SOL     OW21226   5.740   5.628   7.012
 6776SOL    HW121227   5.661   5.592   0.046
 6776SOL    HW221228   5.798   5.552   6.982
 6777SOL     OW21229   4.810   4.987   6.556
 6777SOL    HW121230   4.820   4.964   6.459
 6777SOL    HW221231   4.828   5.084   6.570
 6778SOL     OW21232   0.491   6.309   2.892
 6778SOL    HW121233   0.538   6.392   2.921
 6778SOL    HW221234   0.451   6.324   2.801
 6779SOL     OW21235   0.615   4.281   0.180
 6779SOL    HW121236   0.641   4.378   0.184
 6779SOL    HW221237   0.691   4.228   0.144
 6780SOL     OW21238   0.295   2.796   2.197
 6780SOL    HW121239   0.227   2.792   2.271
 6780SOL    HW221240   0.262   2.856   2.125
 6781SOL     OW21241   6.163   5.249   6.163
 6781SOL    HW121242   6.237   5.251   6.097
 6781SOL    HW221243   6.151   5.156   6.199
 6782SOL     OW21244   6.056   1.210   2.937
 6782SOL    HW121245   5.958   1.191   2.948
 6782SOL    HW221246   6.108   1.126   2.948
 6783SOL     OW21247   0.614   6.157   6.594
 6783SOL    HW121248   0.554   6.228   6.632
 6783SOL    HW221249   0.619   6.080   6.658
 6784SOL     OW21250   3.470   3.082   0.133
 6784SOL    HW121251   3.547   3.032   0.095
 6784SOL    HW221252   3.471   3.075   0.233
 6785SOL     OW21253   6.125   6.505   2.404
 6785SOL    HW121254   6.081   6.576   2.350
 6785SOL    HW221255   6.215   6.484   2.366
 6786SOL     OW21256   1.993   3.087   6.193
 6786SOL    HW121257   2.079   3.051   6.229
 6786SOL    HW221258   1.971   3.173   6.239
 6787SOL     OW21259   1.125   3.806   1.617
 6787SOL    HW121260   1.087   3.861   1.544
 6787SOL    HW221261   1.082   3.831   1.704
 6788SOL     OW21262   2.337   4.356   0.902
 6788SOL    HW121263   2.255   4.401   0.936
 6788SOL    HW221264   2.356   4.275   0.958
 6789SOL     OW21265   0.377   6.643   2.996
 6789SOL    HW121266   0.360   6.660   2.899
 6789SOL    HW221267   0.374   6.730   3.045
 6790SOL     OW21268   1.939   3.015   0.074
 6790SOL    HW121269   1.939   3.020   6.990
 6790SOL    HW221270   2.028   3.042   0.110
 6791SOL     OW21271   4.156   3.642   5.983
 6791SOL    HW121272   4.170   3.590   6.067
 6791SOL    HW221273   4.102   3.724   6.002
 6792SOL     OW21274   0.170   5.489   0.723
 6792SOL    HW121275   0.128   5.536   0.645
 6792SOL    HW221276   0.156   5.391   0.714
 6793SOL     OW21277   6.592   1.801   1.083
 6793SOL    HW121278   6.622   1.706   1.086
 6793SOL    HW221279   6.628   1.844   1.000
 6794SOL     OW21280   4.805   0.968   4.914
 6794SOL    HW121281   4.714   1.006   4.896
 6794SOL    HW221282   4.834   0.991   5.006
 6795SOL     OW21283   3.046   5.638   6.761
 6795SOL    HW121284   3.116   5.709   6.758
 6795SOL    HW221285   2.980   5.659   6.834
 6796SOL     OW21286   4.176   1.749   2.809
 6796SOL    HW121287   4.257   1.704   2.845
 6796SOL    HW221288   4.156   1.830   2.864
 6797SOL     OW21289   0.007   3.507   2.563
 6797SOL    HW121290   0.026   3.587   2.507
 6797SOL    HW221291   6.970   3.440   2.510
 6798SOL     OW21292   6.624   6.270   2.634
 6798SOL    HW121293   6.684   6.350   2.637
 6798SOL    HW221294   6.675   6.191   2.601
 6799SOL     OW21295   5.154   6.254   1.293
 6799SOL    HW121296   5.099   6.173   1.274
 6799SOL    HW221297   5.100   6.319   1.347
 6800SOL     OW21298   3.003   4.971   6.861
 6800SOL    HW121299   2.988   5.066   6.890
 6800SOL    HW221300   2.972   4.909   6.933
 6801SOL     OW21301   1.752   1.886   2.421
 6801SOL    HW121302   1.698   1.848   2.495
 6801SOL    HW221303   1.700   1.957   2.374
 6802SOL     OW21304   2.345   6.091   2.448
 6802SOL    HW121305   2.394   6.068   2.532
 6802SOL    HW221306   2.250   6.062   2.457
 6803SOL     OW21307   5.256   2.662   6.891
 6803SOL    HW121308   5.331   2.671   6.825
 6803SOL    HW221309   5.223   2.567   6.891
 6804SOL     OW21310   1.693   6.761   3.983
 6804SOL    HW121311   1.750   6.841   4.001
 6804SOL    HW221312   1.671   6.756   3.886
 6805SOL     OW21313   5.425   0.385   4.441
 6805SOL    HW121314   5.345   0.383   4.382
 6805SOL    HW221315   5.502   0.427   4.392
 6806SOL     OW21316   4.356   0.493   5.860
 6806SOL    HW121317   4.406   0.576   5.838
 6806SOL    HW221318   4.259   0.506   5.843
 6807SOL     OW21319   3.210   3.026   0.032
 6807SOL    HW121320   3.199   2.958   0.104
 6807SOL    HW221321   3.306   3.030   0.004
 6808SOL     OW21322   1.724   3.078   4.884
 6808SOL    HW121323   1.760   3.113   4.798
 6808SOL    HW221324   1.676   2.991   4.866
 6809SOL     OW21325   1.966   3.785   6.486
 6809SOL    HW121326   1.905   3.783   6.407
 6809SOL    HW221327   1.971   3.878   6.521
 6810SOL     OW21328   5.952   1.522   2.397
 6810SOL    HW121329   6.010   1.603   2.405
 6810SOL    HW221330   6.005   1.447   2.357
 6811SOL     OW21331   5.032   5.687   1.314
 6811SOL    HW121332   5.116   5.664   1.363
 6811SOL    HW221333   4.953   5.663   1.370
 6812SOL     OW21334   3.304   3.367   2.755
 6812SOL    HW121335   3.367   3.390   2.830
 6812SOL    HW221336   3.271   3.274   2.767
 6813SOL     OW21337   4.615   3.819   1.129
 6813SOL    HW121338   4.574   3.731   1.106
 6813SOL    HW221339   4.546   3.877   1.172
 6814SOL     OW21340   2.609   3.633   0.432
 6814SOL    HW121341   2.533   3.683   0.390
 6814SOL    HW221342   2.582   3.602   0.523
 6815SOL     OW21343   2.055   0.275   1.831
 6815SOL    HW121344   1.976   0.314   1.783
 6815SOL    HW221345   2.105   0.348   1.879
 6816SOL     OW21346   6.386   4.619   1.398
 6816SOL    HW121347   6.300   4.598   1.444
 6816SOL    HW221348   6.397   4.559   1.319
 6817SOL     OW21349   0.190   1.539   5.910
 6817SOL    HW121350   0.136   1.513   5.989
 6817SOL    HW221351   0.281   1.568   5.939
 6818SOL     OW21352   3.395   6.376   2.644
 6818SOL    HW121353   3.341   6.332   2.572
 6818SOL    HW221354   3.355   6.465   2.665
 6819SOL     OW21355   3.240   1.317   3.705
 6819SOL    HW121356   3.176   1.363   3.766
 6819SOL    HW221357   3.291   1.385   3.652
 6820SOL     OW21358   1.022   4.275   3.746
 6820SOL    HW121359   0.973   4.283   3.832
 6820SOL    HW221360   1.119   4.296   3.760
 6821SOL     OW21361   2.419   1.962   4.451
 6821SOL    HW121362   2.474   2.036   4.491
 6821SOL    HW221363   2.474   1.879   4.444
 6822SOL     OW21364   5.208   2.007   5.682
 6822SOL    HW121365   5.150   2.085   5.662
 6822SOL    HW221366   5.302   2.038   5.695
 6823SOL     OW21367   3.018   3.212   2.157
 6823SOL    HW121368   3.062   3.300   2.139
 6823SOL    HW221369   2.940   3.200   2.096
 6824SOL     OW21370   1.766   4.164   6.354
 6824SOL    HW121371   1.754   4.198   6.447
 6824SOL    HW221372   1.677   4.166   6.307
 6825SOL     OW21373   4.948   6.946   3.628
 6825SOL    HW121374   4.940   6.944   3.727
 6825SOL    HW221375   4.965   0.024   3.597
 6826SOL     OW21376   1.367   3.053   2.409
 6826SOL    HW121377   1.424   3.063   2.490
 6826SOL    HW221378   1.412   3.094   2.330
 6827SOL     OW21379   5.709   5.980   4.809
 6827SOL    HW121380   5.768   6.058   4.788
 6827SOL    HW221381   5.745   5.898   4.765
 6828SOL     OW21382   1.513   2.851   1.330
 6828SOL    HW121383   1.450   2.882   1.259
 6828SOL    HW221384   1.560   2.768   1.300
 6829SOL     OW21385   4.721   5.395   3.652
 6829SOL    HW121386   4.630   5.431   3.672
 6829SOL    HW221387   4.726   5.300   3.683
 6830SOL     OW21388   5.783   2.037   3.904
 6830SOL    HW121389   5.722   1.989   3.967
 6830SOL    HW221390   5.765   2.006   3.811
 6831SOL     OW21391   0.150   1.165   6.378
 6831SOL    HW121392   0.163   1.066   6.372
 6831SOL    HW221393   0.210   1.202   6.448
 6832SOL     OW21394   3.022   5.240   2.498
 6832SOL    HW121395   3.041   5.157   2.446
 6832SOL    HW221396   3.033   5.320   2.439
 6833SOL     OW21397   4.191   5.206   0.002
 6833SOL    HW121398   4.117   5.203   6.951
 6833SOL    HW221399   4.181   5.131   0.068
 6834SOL     OW21400   3.689   5.263   2.540
 6834SOL    HW121401   3.596   5.244   2.509
 6834SOL    HW221402   3.691   5.352   2.585
 6835SOL     OW21403   3.849   6.858   4.777
 6835SOL    HW121404   3.879   6.937   4.723
 6835SOL    HW221405   3.751   6.844   4.764
 6836SOL     OW21406   3.470   6.021   6.912
 6836SOL    HW121407   3.480   6.033   6.813
 6836SOL    HW221408   3.384   6.064   6.942
 6837SOL     OW21409   1.250   3.010   1.919
 6837SOL    HW121410   1.349   2.999   1.909
 6837SOL    HW221411   1.230   3.101   1.954
 6838SOL     OW21412   2.360   1.568   6.640
 6838SOL    HW121413   2.268   1.592   6.671
 6838SOL    HW221414   2.426   1.632   6.681
 6839SOL     OW21415   4.352   1.177   1.136
 6839SOL    HW121416   4.288   1.215   1.069
 6839SOL    HW221417   4.429   1.134   1.088
 6840SOL     OW21418   1.067   2.137   6.716
 6840SOL    HW121419   0.985   2.091   6.683
 6840SOL    HW221420   1.093   2.100   6.805
 6841SOL     OW21421   6.740   3.824   6.116
 6841SOL    HW121422   6.718   3.852   6.210
 6841SOL    HW221423   6.766   3.905   6.063
 6842SOL     OW21424   2.109   4.433   2.799
 6842SOL    HW121425   2.063   4.471   2.879
 6842SOL    HW221426   2.091   4.335   2.794
 6843SOL     OW21427   4.272   6.468   0.016
 6843SOL    HW121428   4.292   6.377   6.993
 6843SOL    HW221429   4.200   6.512   6.977
 6844SOL     OW21430   5.049   0.617   5.527
 6844SOL    HW121431   4.973   0.682   5.529
 6844SOL    HW221432   5.106   0.630   5.608
 6845SOL     OW21433   5.264   1.991   2.295
 6845SOL    HW121434   5.280   1.895   2.319
 6845SOL    HW221435   5.351   2.038   2.284
 6846SOL     OW21436   2.473   3.855   0.292
 6846SOL    HW121437   2.390   3.822   0.338
 6846SOL    HW221438   2.449   3.932   0.232
 6847SOL     OW21439   6.678   3.374   3.805
 6847SOL    HW121440   6.590   3.406   3.839
 6847SOL    HW221441   6.751   3.406   3.865
 6848SOL     OW21442   5.838   4.332   3.352
 6848SOL    HW121443   5.928   4.355   3.314
 6848SOL    HW221444   5.802   4.252   3.304
 6849SOL     OW21445   2.959   4.019   6.769
 6849SOL    HW121446   3.018   4.031   6.849
 6849SOL    HW221447   2.982   3.934   6.723
 6850SOL     OW21448   4.064   1.441   3.909
 6850SOL    HW121449   4.069   1.400   3.818
 6850SOL    HW221450   4.067   1.368   3.978
 6851SOL     OW21451   2.201   3.067   3.751
 6851SOL    HW121452   2.255   3.110   3.678
 6851SOL    HW221453   2.241   3.089   3.840
 6852SOL     OW21454   2.621   4.682   0.385
 6852SOL    HW121455   2.545   4.621   0.406
 6852SOL    HW221456   2.681   4.689   0.465
 6853SOL     OW21457   4.925   3.733   6.960
 6853SOL    HW121458   4.912   3.648   6.909
 6853SOL    HW221459   4.977   3.797   6.904
 6854SOL     OW21460   6.125   5.951   6.184
 6854SOL    HW121461   6.193   5.904   6.127
 6854SOL    HW221462   6.039   5.902   6.179
 6855SOL     OW21463   4.248   5.013   3.398
 6855SOL    HW121464   4.270   4.986   3.492
 6855SOL    HW221465   4.329   5.052   3.354
 6856SOL     OW21466   0.606   1.755   6.395
 6856SOL    HW121467   0.564   1.842   6.422
 6856SOL    HW221468   0.702   1.770   6.372
 6857SOL     OW21469   0.912   3.968   4.996
 6857SOL    HW121470   1.006   3.967   4.962
 6857SOL    HW221471   0.849   3.967   4.919
 6858SOL     OW21472   2.373   3.756   1.717
 6858SOL    HW121473   2.396   3.669   1.760
 6858SOL    HW221474   2.293   3.744   1.658
 6859SOL     OW21475   1.429   1.510   2.499
 6859SOL    HW121476   1.472   1.569   2.431
 6859SOL    HW221477   1.396   1.565   2.576
 6860SOL     OW21478   0.711   6.222   2.351
 6860SOL    HW121479   0.663   6.282   2.415
 6860SOL    HW221480   0.803   6.256   2.335
 6861SOL     OW21481   5.820   3.087   5.232
 6861SOL    HW121482   5.894   3.144   5.268
 6861SOL    HW221483   5.742   3.091   5.294
 6862SOL     OW21484   0.758   4.330   4.920
 6862SOL    HW121485   0.825   4.364   4.854
 6862SOL    HW221486   0.786   4.241   4.954
 6863SOL     OW21487   5.870   0.632   5.555
 6863SOL    HW121488   5.969   0.650   5.550
 6863SOL    HW221489   5.854   0.534   5.552
 6864SOL     OW21490   1.207   3.713   5.761
 6864SOL    HW121491   1.280   3.645   5.756
 6864SOL    HW221492   1.235   3.787   5.822
 6865SOL     OW21493   2.413   0.257   3.917
 6865SOL    HW121494   2.358   0.212   3.847
 6865SOL    HW221495   2.510   0.251   3.893
 6866SOL     OW21496   1.008   4.632   0.667
 6866SOL    HW121497   0.989   4.632   0.569
 6866SOL    HW221498   1.017   4.726   0.699
 6867SOL     OW21499   2.303   3.844   7.013
 6867SOL    HW121500   2.284   3.828   6.916
 6867SOL    HW221501   2.400   3.829   0.015
 6868SOL     OW21502   2.612   5.389   4.042
 6868SOL    HW121503   2.635   5.368   3.947
 6868SOL    HW221504   2.696   5.411   4.092
 6869SOL     OW21505   3.207   0.934   6.132
 6869SOL    HW121506   3.280   0.942   6.064
 6869SOL    HW221507   3.217   0.847   6.180
 6870SOL     OW21508   6.066   2.362   0.638
 6870SOL    HW121509   6.105   2.294   0.577
 6870SOL    HW221510   6.005   2.317   0.704
 6871SOL     OW21511   0.150   3.858   2.252
 6871SOL    HW121512   0.135   3.808   2.338
 6871SOL    HW221513   0.202   3.942   2.271
 6872SOL     OW21514   1.714   3.871   0.676
 6872SOL    HW121515   1.653   3.833   0.746
 6872SOL    HW221516   1.696   3.827   0.588
 6873SOL     OW21517   0.347   4.400   3.627
 6873SOL    HW121518   0.444   4.423   3.618
 6873SOL    HW221519   0.334   4.301   3.614
 6874SOL     OW21520   5.217   6.294   3.369
 6874SOL    HW121521   5.290   6.362   3.383
 6874SOL    HW221522   5.238   6.212   3.422
 6875SOL     OW21523   2.756   1.532   0.408
 6875SOL    HW121524   2.708   1.484   0.481
 6875SOL    HW221525   2.779   1.625   0.439
 6876SOL     OW21526   5.210   5.000   3.662
 6876SOL    HW121527   5.292   4.944   3.679
 6876SOL    HW221528   5.233   5.074   3.599
 6877SOL     OW21529   0.981   3.533   1.963
 6877SOL    HW121530   1.068   3.565   1.999
 6877SOL    HW221531   0.994   3.447   1.915
 6878SOL     OW21532   2.022   0.776   4.635
 6878SOL    HW121533   2.066   0.856   4.676
 6878SOL    HW221534   1.956   0.806   4.566
 6879SOL     OW21535   1.967   0.991   0.916
 6879SOL    HW121536   2.027   1.070   0.905
 6879SOL    HW221537   1.935   0.961   0.826
 6880SOL     OW21538   1.690   5.474   6.465
 6880SOL    HW121539   1.591   5.468   6.455
 6880SOL    HW221540   1.733   5.460   6.376
 6881SOL     OW21541   0.795   2.907   0.862
 6881SOL    HW121542   0.765   2.822   0.905
 6881SOL    HW221543   0.883   2.935   0.900
 6882SOL     OW21544   2.505   6.651   6.568
 6882SOL    HW121545   2.466   6.713   6.500
 6882SOL    HW221546   2.464   6.561   6.558
 6883SOL     OW21547   4.602   0.732   0.664
 6883SOL    HW121548   4.590   0.830   0.678
 6883SOL    HW221549   4.580   0.683   0.749
 6884SOL     OW21550   2.134   4.081   2.964
 6884SOL    HW121551   2.122   4.028   3.048
 6884SOL    HW221552   2.147   4.019   2.887
 6885SOL     OW21553   6.086   5.293   4.674
 6885SOL    HW121554   6.096   5.380   4.722
 6885SOL    HW221555   6.015   5.302   4.603
 6886SOL     OW21556   5.345   2.193   0.223
 6886SOL    HW121557   5.366   2.134   0.145
 6886SOL    HW221558   5.269   2.253   0.199
 6887SOL     OW21559   5.505   5.448   5.708
 6887SOL    HW121560   5.445   5.446   5.787
 6887SOL    HW221561   5.518   5.355   5.673
 6888SOL     OW21562   6.288   4.892   6.459
 6888SOL    HW121563   6.262   4.911   6.554
 6888SOL    HW221564   6.294   4.793   6.446
 6889SOL     OW21565   0.104   2.546   6.702
 6889SOL    HW121566   0.151   2.495   6.774
 6889SOL    HW221567   0.047   2.484   6.649
 6890SOL     OW21568   4.665   4.282   3.215
 6890SOL    HW121569   4.636   4.229   3.295
 6890SOL    HW221570   4.680   4.377   3.241
 6891SOL     OW21571   1.792   1.108   1.119
 6891SOL    HW121572   1.796   1.203   1.087
 6891SOL    HW221573   1.855   1.052   1.066
 6892SOL     OW21574   2.833   0.796   4.602
 6892SOL    HW121575   2.829   0.896   4.598
 6892SOL    HW221576   2.821   0.758   4.511
 6893SOL     OW21577   5.917   3.094   0.757
 6893SOL    HW121578   5.856   3.023   0.792
 6893SOL    HW221579   6.006   3.086   0.801
 6894SOL     OW21580   5.816   5.415   0.791
 6894SOL    HW121581   5.897   5.382   0.741
 6894SOL    HW221582   5.843   5.488   0.854
 6895SOL     OW21583   0.364   6.538   2.050
 6895SOL    HW121584   0.363   6.542   1.950
 6895SOL    HW221585   0.453   6.504   2.081
 6896SOL     OW21586   4.612   1.468   4.741
 6896SOL    HW121587   4.654   1.507   4.659
 6896SOL    HW221588   4.629   1.370   4.744
 6897SOL     OW21589   4.865   2.983   4.988
 6897SOL    HW121590   4.827   2.971   4.896
 6897SOL    HW221591   4.881   3.081   5.005
 6898SOL     OW21592   1.951   6.863   1.732
 6898SOL    HW121593   1.897   6.786   1.765
 6898SOL    HW221594   2.013   6.832   1.660
 6899SOL     OW21595   6.411   5.490   2.230
 6899SOL    HW121596   6.374   5.506   2.139
 6899SOL    HW221597   6.410   5.392   2.250
 6900SOL     OW21598   6.722   3.749   5.230
 6900SOL    HW121599   6.735   3.688   5.308
 6900SOL    HW221600   6.740   3.843   5.258
 6901SOL     OW21601   5.322   4.822   0.042
 6901SOL    HW121602   5.328   4.749   6.989
 6901SOL    HW221603   5.263   4.895   0.008
 6902SOL     OW21604   0.690   5.962   5.981
 6902SOL    HW121605   0.717   6.001   6.069
 6902SOL    HW221606   0.771   5.950   5.924
 6903SOL     OW21607   1.096   5.969   4.754
 6903SOL    HW121608   1.068   5.873   4.755
 6903SOL    HW221609   1.159   5.987   4.830
 6904SOL     OW21610   6.992   6.815   5.467
 6904SOL    HW121611   6.990   6.892   5.531
 6904SOL    HW221612   6.898   6.786   5.446
 6905SOL     OW21613   4.689   5.959   6.056
 6905SOL    HW121614   4.740   6.025   6.002
 6905SOL    HW221615   4.697   5.982   6.153
 6906SOL     OW21616   3.209   1.055   3.577
 6906SOL    HW121617   3.231   1.134   3.634
 6906SOL    HW221618   3.114   1.063   3.545
 6907SOL     OW21619   5.750   2.748   0.465
 6907SOL    HW121620   5.832   2.765   0.520
 6907SOL    HW221621   5.762   2.662   0.414
 6908SOL     OW21622   2.644   5.109   0.399
 6908SOL    HW121623   2.555   5.064   0.408
 6908SOL    HW221624   2.631   5.208   0.394
 6909SOL     OW21625   6.341   5.197   2.024
 6909SOL    HW121626   6.274   5.242   1.964
 6909SOL    HW221627   6.311   5.206   2.119
 6910SOL     OW21628   1.249   2.707   2.728
 6910SOL    HW121629   1.218   2.615   2.752
 6910SOL    HW221630   1.195   2.775   2.778
 6911SOL     OW21631   1.736   6.626   5.495
 6911SOL    HW121632   1.732   6.529   5.470
 6911SOL    HW221633   1.652   6.671   5.468
 6912SOL     OW21634   2.626   3.797   6.654
 6912SOL    HW121635   2.619   3.819   6.556
 6912SOL    HW221636   2.637   3.882   6.706
 6913SOL     OW21637   4.951   6.329   5.846
 6913SOL    HW121638   4.995   6.355   5.761
 6913SOL    HW221639   4.894   6.248   5.831
 6914SOL     OW21640   5.979   2.590   2.545
 6914SOL    HW121641   5.893   2.559   2.504
 6914SOL    HW221642   6.018   2.664   2.489
 6915SOL     OW21643   6.422   3.523   3.381
 6915SOL    HW121644   6.473   3.444   3.347
 6915SOL    HW221645   6.421   3.522   3.481
 6916SOL     OW21646   5.034   6.191   6.789
 6916SOL    HW121647   4.988   6.165   6.875
 6916SOL    HW221648   5.130   6.208   6.807
 6917SOL     OW21649   4.647   6.343   1.699
 6917SOL    HW121650   4.638   6.424   1.642
 6917SOL    HW221651   4.730   6.350   1.755
 6918SOL     OW21652   2.067   3.056   0.992
 6918SOL    HW121653   2.136   2.994   1.029
 6918SOL    HW221654   1.979   3.008   0.986
 6919SOL     OW21655   5.422   5.645   3.595
 6919SOL    HW121656   5.386   5.702   3.521
 6919SOL    HW221657   5.427   5.698   3.679
 6920SOL     OW21658   6.148   1.191   6.056
 6920SOL    HW121659   6.133   1.128   5.979
 6920SOL    HW221660   6.116   1.148   6.140
 6921SOL     OW21661   4.220   0.146   4.511
 6921SOL    HW121662   4.204   0.174   4.416
 6921SOL    HW221663   4.283   0.068   4.512
 6922SOL     OW21664   1.782   4.310   5.975
 6922SOL    HW121665   1.843   4.234   5.996
 6922SOL    HW221666   1.688   4.284   5.994
 6923SOL     OW21667   5.895   6.981   2.426
 6923SOL    HW121668   5.881   0.021   2.344
 6923SOL    HW221669   5.879   0.022   2.507
 6924SOL     OW21670   3.090   5.693   1.720
 6924SOL    HW121671   3.059   5.651   1.805
 6924SOL    HW221672   3.035   5.775   1.701
 6925SOL     OW21673   5.541   6.659   5.659
 6925SOL    HW121674   5.520   6.723   5.734
 6925SOL    HW221675   5.571   6.572   5.698
 6926SOL     OW21676   3.316   2.357   0.463
 6926SOL    HW121677   3.342   2.454   0.466
 6926SOL    HW221678   3.352   2.311   0.545
 6927SOL     OW21679   4.756   0.890   0.486
 6927SOL    HW121680   4.775   0.986   0.502
 6927SOL    HW221681   4.679   0.861   0.543
 6928SOL     OW21682   4.363   5.119   0.607
 6928SOL    HW121683   4.299   5.174   0.661
 6928SOL    HW221684   4.311   5.055   0.551
 6929SOL     OW21685   5.775   5.022   1.982
 6929SOL    HW121686   5.780   4.946   1.916
 6929SOL    HW221687   5.831   5.098   1.950
 6930SOL     OW21688   0.712   0.015   1.538
 6930SOL    HW121689   0.764   6.993   1.616
 6930SOL    HW221690   0.716   6.965   1.462
 6931SOL     OW21691   2.760   3.443   1.072
 6931SOL    HW121692   2.749   3.416   0.976
 6931SOL    HW221693   2.827   3.518   1.077
 6932SOL     OW21694   4.030   6.226   6.843
 6932SOL    HW121695   4.093   6.241   6.920
 6932SOL    HW221696   4.081   6.229   6.757
 6933SOL     OW21697   3.375   6.103   6.142
 6933SOL    HW121698   3.276   6.093   6.130
 6933SOL    HW221699   3.422   6.053   6.069
 6934SOL     OW21700   5.466   4.361   6.771
 6934SOL    HW121701   5.537   4.298   6.739
 6934SOL    HW221702   5.509   4.435   6.823
 6935SOL     OW21703   4.193   6.538   1.892
 6935SOL    HW121704   4.184   6.501   1.800
 6935SOL    HW221705   4.267   6.605   1.894
 6936SOL     OW21706   0.185   1.594   5.325
 6936SOL    HW121707   0.122   1.625   5.397
 6936SOL    HW221708   0.141   1.600   5.236
 6937SOL     OW21709   5.470   5.287   0.066
 6937SOL    HW121710   5.532   5.209   0.080
 6937SOL    HW221711   5.484   5.354   0.139
 6938SOL     OW21712   2.298   0.867   4.968
 6938SOL    HW121713   2.288   0.921   5.052
 6938SOL    HW221714   2.234   0.900   4.899
 6939SOL     OW21715   5.755   3.434   3.343
 6939SOL    HW121716   5.713   3.381   3.269
 6939SOL    HW221717   5.733   3.391   3.431
 6940SOL     OW21718   3.052   6.127   0.754
 6940SOL    HW121719   2.981   6.182   0.799
 6940SOL    HW221720   3.018   6.092   0.667
 6941SOL     OW21721   3.663   3.728   3.142
 6941SOL    HW121722   3.699   3.815   3.177
 6941SOL    HW221723   3.595   3.747   3.071
 6942SOL     OW21724   5.972   5.830   2.298
 6942SOL    HW121725   5.898   5.798   2.358
 6942SOL    HW221726   6.049   5.860   2.354
 6943SOL     OW21727   4.077   4.648   6.280
 6943SOL    HW121728   4.128   4.567   6.253
 6943SOL    HW221729   4.115   4.728   6.234
 6944SOL     OW21730   1.518   4.457   5.142
 6944SOL    HW121731   1.535   4.359   5.132
 6944SOL    HW221732   1.605   4.504   5.158
 6945SOL     OW21733   4.931   1.801   1.306
 6945SOL    HW121734   5.012   1.746   1.286
 6945SOL    HW221735   4.955   1.873   1.371
 6946SOL     OW21736   5.035   5.819   3.339
 6946SOL    HW121737   4.936   5.825   3.345
 6946SOL    HW221738   5.063   5.827   3.243
 6947SOL     OW21739   6.139   4.781   5.492
 6947SOL    HW121740   6.218   4.744   5.442
 6947SOL    HW221741   6.067   4.805   5.427
 6948SOL     OW21742   0.362   4.439   6.931
 6948SOL    HW121743   0.433   4.490   6.980
 6948SOL    HW221744   0.286   4.421   6.993
 6949SOL     OW21745   2.382   2.154   4.004
 6949SOL    HW121746   2.324   2.102   3.941
 6949SOL    HW221747   2.478   2.136   3.984
 6950SOL     OW21748   0.316   0.993   4.349
 6950SOL    HW121749   0.379   0.948   4.412
 6950SOL    HW221750   0.279   1.076   4.392
 6951SOL     OW21751   0.715   4.184   6.857
 6951SOL    HW121752   0.619   4.164   6.837
 6951SOL    HW221753   0.743   4.266   6.807
 6952SOL     OW21754   4.761   6.019   4.219
 6952SOL    HW121755   4.731   5.931   4.254
 6952SOL    HW221756   4.822   6.063   4.286
 6953SOL     OW21757   6.500   2.217   1.180
 6953SOL    HW121758   6.467   2.270   1.258
 6953SOL    HW221759   6.452   2.129   1.176
 6954SOL     OW21760   6.848   4.557   0.122
 6954SOL    HW121761   6.875   4.511   0.207
 6954SOL    HW221762   6.778   4.503   0.076
 6955SOL     OW21763   4.581   6.105   3.037
 6955SOL    HW121764   4.552   6.119   2.942
 6955SOL    HW221765   4.521   6.156   3.098
 6956SOL     OW21766   5.994   5.385   2.419
 6956SOL    HW121767   6.005   5.294   2.458
 6956SOL    HW221768   5.921   5.385   2.352
 6957SOL     OW21769   6.500   5.636   5.844
 6957SOL    HW121770   6.419   5.695   5.847
 6957SOL    HW221771   6.568   5.676   5.784
 6958SOL     OW21772   3.026   3.822   3.261
 6958SOL    HW121773   3.079   3.781   3.336
 6958SOL    HW221774   3.047   3.920   3.257
 6959SOL     OW21775   1.718   4.130   2.593
 6959SOL    HW121776   1.663   4.111   2.512
 6959SOL    HW221777   1.679   4.208   2.642
 6960SOL     OW21778   3.712   4.045   0.610
 6960SOL    HW121779   3.728   3.958   0.563
 6960SOL    HW221780   3.663   4.027   0.696
 6961SOL     OW21781   4.460   2.365   4.881
 6961SOL    HW121782   4.362   2.365   4.904
 6961SOL    HW221783   4.487   2.457   4.853
 6962SOL     OW21784   2.326   0.066   6.302
 6962SOL    HW121785   2.316   0.149   6.248
 6962SOL    HW221786   2.375   0.088   6.387
 6963SOL     OW21787   6.145   6.080   0.865
 6963SOL    HW121788   6.139   6.132   0.780
 6963SOL    HW221789   6.219   6.013   0.858
 6964SOL     OW21790   1.691   1.404   5.439
 6964SOL    HW121791   1.703   1.498   5.407
 6964SOL    HW221792   1.687   1.402   5.539
 6965SOL     OW21793   0.781   1.813   0.454
 6965SOL    HW121794   0.798   1.817   0.355
 6965SOL    HW221795   0.736   1.897   0.483
 6966SOL     OW21796   1.504   6.489   1.225
 6966SOL    HW121797   1.445   6.475   1.305
 6966SOL    HW221798   1.597   6.511   1.255
 6967SOL     OW21799   4.390   1.097   6.542
 6967SOL    HW121800   4.458   1.138   6.602
 6967SOL    HW221801   4.302   1.143   6.556
 6968SOL     OW21802   4.073   6.279   3.047
 6968SOL    HW121803   4.155   6.336   3.041
 6968SOL    HW221804   4.034   6.267   2.955
 6969SOL     OW21805   2.022   1.715   2.407
 6969SOL    HW121806   2.085   1.706   2.330
 6969SOL    HW221807   1.989   1.809   2.413
 6970SOL     OW21808   3.843   5.478   5.181
 6970SOL    HW121809   3.798   5.469   5.092
 6970SOL    HW221810   3.842   5.574   5.209
 6971SOL     OW21811   6.709   3.875   0.343
 6971SOL    HW121812   6.774   3.806   0.374
 6971SOL    HW221813   6.741   3.916   0.258
 6972SOL     OW21814   5.435   4.032   1.481
 6972SOL    HW121815   5.454   3.934   1.476
 6972SOL    HW221816   5.421   4.068   1.389
 6973SOL     OW21817   1.873   2.428   2.769
 6973SOL    HW121818   1.782   2.395   2.795
 6973SOL    HW221819   1.941   2.387   2.829
 6974SOL     OW21820   3.712   3.457   2.931
 6974SOL    HW121821   3.616   3.452   2.959
 6974SOL    HW221822   3.725   3.403   2.848
 6975SOL     OW21823   2.862   5.463   4.136
 6975SOL    HW121824   2.864   5.541   4.199
 6975SOL    HW221825   2.908   5.488   4.051
 6976SOL     OW21826   4.812   4.236   6.349
 6976SOL    HW121827   4.779   4.148   6.316
 6976SOL    HW221828   4.861   4.283   6.275
 6977SOL     OW21829   4.806   5.317   2.070
 6977SOL    HW121830   4.720   5.305   2.021
 6977SOL    HW221831   4.803   5.268   2.157
 6978SOL     OW21832   6.951   3.954   1.415
 6978SOL    HW121833   6.972   3.958   1.513
 6978SOL    HW221834   6.998   3.876   1.374
 6979SOL     OW21835   1.780   3.082   2.047
 6979SOL    HW121836   1.831   3.006   2.008
 6979SOL    HW221837   1.834   3.126   2.118
 6980SOL     OW21838   1.816   5.705   2.479
 6980SOL    HW121839   1.912   5.706   2.454
 6980SOL    HW221840   1.760   5.689   2.397
 6981SOL     OW21841   4.269   2.604   6.569
 6981SOL    HW121842   4.272   2.702   6.587
 6981SOL    HW221843   4.179   2.580   6.532
 6982SOL     OW21844   1.660   0.668   2.421
 6982SOL    HW121845   1.647   0.663   2.520
 6982SOL    HW221846   1.650   0.763   2.391
 6983SOL     OW21847   5.881   0.908   4.183
 6983SOL    HW121848   5.954   0.933   4.120
 6983SOL    HW221849   5.918   0.906   4.277
 6984SOL     OW21850   1.194   2.973   2.876
 6984SOL    HW121851   1.100   2.953   2.903
 6984SOL    HW221852   1.196   3.056   2.819
 6985SOL     OW21853   5.638   3.563   6.677
 6985SOL    HW121854   5.627   3.661   6.658
 6985SOL    HW221855   5.646   3.514   6.590
 6986SOL     OW21856   4.684   4.754   5.579
 6986SOL    HW121857   4.766   4.760   5.637
 6986SOL    HW221858   4.625   4.682   5.614
 6987SOL     OW21859   0.495   1.032   6.677
 6987SOL    HW121860   0.529   1.063   6.766
 6987SOL    HW221861   0.566   1.046   6.607
 6988SOL     OW21862   2.845   1.617   6.820
 6988SOL    HW121863   2.906   1.690   6.790
 6988SOL    HW221864   2.889   1.528   6.804
 6989SOL     OW21865   0.676   4.805   2.650
 6989SOL    HW121866   0.742   4.843   2.585
 6989SOL    HW221867   0.643   4.717   2.616
 6990SOL     OW21868   3.754   3.332   0.369
 6990SOL    HW121869   3.715   3.240   0.362
 6990SOL    HW221870   3.816   3.336   0.448
 6991SOL     OW21871   6.703   3.102   2.685
 6991SOL    HW121872   6.652   3.064   2.608
 6991SOL    HW221873   6.738   3.193   2.661
 6992SOL     OW21874   1.050   5.827   0.377
 6992SOL    HW121875   0.982   5.811   0.306
 6992SOL    HW221876   1.113   5.898   0.346
 6993SOL     OW21877   4.277   1.849   1.535
 6993SOL    HW121878   4.243   1.795   1.612
 6993SOL    HW221879   4.359   1.806   1.497
 6994SOL     OW21880   2.706   1.053   3.892
 6994SOL    HW121881   2.735   1.110   3.815
 6994SOL    HW221882   2.782   1.042   3.956
 6995SOL     OW21883   0.349   4.180   1.002
 6995SOL    HW121884   0.314   4.251   1.062
 6995SOL    HW221885   0.330   4.090   1.041
 6996SOL     OW21886   1.093   1.373   6.762
 6996SOL    HW121887   1.053   1.373   6.670
 6996SOL    HW221888   1.051   1.444   6.817
 6997SOL     OW21889   6.032   5.686   5.887
 6997SOL    HW121890   6.042   5.666   5.790
 6997SOL    HW221891   6.061   5.607   5.941
 6998SOL     OW21892   6.651   1.290   0.022
 6998SOL    HW121893   6.722   1.345   6.994
 6998SOL    HW221894   6.647   1.310   0.120
 6999SOL     OW21895   0.129   2.960   6.725
 6999SOL    HW121896   0.040   3.005   6.715
 6999SOL    HW221897   0.149   2.948   6.822
 7000SOL     OW21898   6.860   5.493   3.385
 7000SOL    HW121899   6.861   5.511   3.286
 7000SOL    HW221900   6.897   5.572   3.433
 7001SOL     OW21901   6.986   2.361   3.957
 7001SOL    HW121902   6.980   2.460   3.950
 7001SOL    HW221903   0.063   2.335   3.985
 7002SOL     OW21904   0.859   5.465   2.411
 7002SOL    HW121905   0.913   5.538   2.453
 7002SOL    HW221906   0.913   5.381   2.407
 7003SOL     OW21907   6.960   3.836   0.689
 7003SOL    HW121908   6.901   3.890   0.629
 7003SOL    HW221909   7.004   3.897   0.755
 7004SOL     OW21910   1.626   6.746   0.558
 7004SOL    HW121911   1.665   6.815   0.619
 7004SOL    HW221912   1.654   6.655   0.588
 7005SOL     OW21913   1.246   5.573   0.716
 7005SOL    HW121914   1.328   5.528   0.680
 7005SOL    HW221915   1.262   5.599   0.811
 7006SOL     OW21916   1.089   0.305   4.127
 7006SOL    HW121917   1.088   0.239   4.053
 7006SOL    HW221918   1.162   0.282   4.192
 7007SOL     OW21919   2.423   0.744   6.164
 7007SOL    HW121920   2.364   0.825   6.158
 7007SOL    HW221921   2.517   0.773   6.182
 7008SOL     OW21922   5.447   3.650   2.810
 7008SOL    HW121923   5.427   3.641   2.712
 7008SOL    HW221924   5.426   3.743   2.840
 7009SOL     OW21925   4.772   5.684   2.448
 7009SOL    HW121926   4.726   5.700   2.360
 7009SOL    HW221927   4.781   5.586   2.463
 7010SOL     OW21928   5.145   3.675   1.853
 7010SOL    HW121929   5.072   3.734   1.885
 7010SOL    HW221930   5.233   3.723   1.861
 7011SOL     OW21931   3.148   6.713   6.561
 7011SOL    HW121932   3.203   6.793   6.537
 7011SOL    HW221933   3.192   6.630   6.526
 7012SOL     OW21934   6.600   3.011   0.331
 7012SOL    HW121935   6.530   2.945   0.305
 7012SOL    HW221936   6.574   3.102   0.298
 7013SOL     OW21937   3.177   2.534   0.038
 7013SOL    HW121938   3.078   2.517   0.029
 7013SOL    HW221939   3.197   2.564   0.131
 7014SOL     OW21940   5.778   3.161   0.348
 7014SOL    HW121941   5.695   3.107   0.363
 7014SOL    HW221942   5.839   3.111   0.286
 7015SOL     OW21943   5.962   6.711   1.098
 7015SOL    HW121944   5.979   6.692   1.001
 7015SOL    HW221945   5.905   6.793   1.106
 7016SOL     OW21946   3.317   4.784   0.861
 7016SOL    HW121947   3.238   4.724   0.845
 7016SOL    HW221948   3.361   4.760   0.947
 7017SOL     OW21949   6.010   4.815   5.760
 7017SOL    HW121950   6.042   4.756   5.686
 7017SOL    HW221951   6.027   4.769   5.848
 7018SOL     OW21952   5.204   3.774   4.772
 7018SOL    HW121953   5.178   3.838   4.700
 7018SOL    HW221954   5.278   3.813   4.827
 7019SOL     OW21955   4.251   5.792   2.340
 7019SOL    HW121956   4.267   5.704   2.296
 7019SOL    HW221957   4.230   5.861   2.271
 7020SOL     OW21958   0.471   2.785   6.146
 7020SOL    HW121959   0.507   2.842   6.219
 7020SOL    HW221960   0.405   2.837   6.091
 7021SOL     OW21961   0.680   1.833   4.658
 7021SOL    HW121962   0.699   1.890   4.578
 7021SOL    HW221963   0.672   1.892   4.739
 7022SOL     OW21964   2.925   2.349   1.074
 7022SOL    HW121965   2.940   2.271   1.012
 7022SOL    HW221966   2.886   2.317   1.160
 7023SOL     OW21967   0.337   1.833   0.552
 7023SOL    HW121968   0.267   1.892   0.591
 7023SOL    HW221969   0.427   1.874   0.565
 7024SOL     OW21970   3.799   3.802   4.689
 7024SOL    HW121971   3.856   3.754   4.623
 7024SOL    HW221972   3.753   3.736   4.748
 7025SOL     OW21973   2.871   0.268   0.865
 7025SOL    HW121974   2.785   0.262   0.915
 7025SOL    HW221975   2.947   0.252   0.927
 7026SOL     OW21976   3.462   2.800   1.065
 7026SOL    HW121977   3.504   2.781   1.154
 7026SOL    HW221978   3.461   2.899   1.049
 7027SOL     OW21979   2.723   4.956   2.564
 7027SOL    HW121980   2.743   4.880   2.502
 7027SOL    HW221981   2.806   4.978   2.616
 7028SOL     OW21982   3.108   0.014   3.544
 7028SOL    HW121983   3.057   0.038   3.626
 7028SOL    HW221984   3.141   0.097   3.500
 7029SOL     OW21985   3.411   3.852   3.658
 7029SOL    HW121986   3.415   3.951   3.673
 7029SOL    HW221987   3.399   3.805   3.745
 7030SOL     OW21988   6.528   0.842   4.448
 7030SOL    HW121989   6.599   0.820   4.514
 7030SOL    HW221990   6.570   0.870   4.362
 7031SOL     OW21991   4.808   6.500   0.648
 7031SOL    HW121992   4.894   6.550   0.659
 7031SOL    HW221993   4.789   6.487   0.551
 7032SOL     OW21994   4.902   5.411   4.284
 7032SOL    HW121995   4.832   5.408   4.354
 7032SOL    HW221996   4.921   5.318   4.252
 7033SOL     OW21997   1.927   1.931   4.753
 7033SOL    HW121998   1.943   1.959   4.847
 7033SOL    HW221999   2.009   1.887   4.716
 7034SOL     OW22000   6.340   1.018   3.459
 7034SOL    HW122001   6.317   0.965   3.377
 7034SOL    HW222002   6.346   0.956   3.537
 7035SOL     OW22003   1.879   0.158   0.607
 7035SOL    HW122004   1.870   0.119   0.699
 7035SOL    HW222005   1.790   0.191   0.576
 7036SOL     OW22006   6.509   1.513   2.573
 7036SOL    HW122007   6.571   1.494   2.649
 7036SOL    HW222008   6.563   1.521   2.488
 7037SOL     OW22009   1.205   0.291   5.714
 7037SOL    HW122010   1.195   0.192   5.713
 7037SOL    HW222011   1.274   0.318   5.782
 7038SOL     OW22012   1.103   3.959   0.045
 7038SOL    HW122013   1.071   3.868   0.019
 7038SOL    HW222014   1.197   3.971   0.015
 7039SOL     OW22015   0.359   6.782   2.380
 7039SOL    HW122016   0.392   6.688   2.369
 7039SOL    HW222017   0.261   6.781   2.400
 7040SOL     OW22018   5.376   3.076   4.845
 7040SOL    HW122019   5.290   3.029   4.829
 7040SOL    HW222020   5.404   3.123   4.761
 7041SOL     OW22021   1.494   6.588   4.450
 7041SOL    HW122022   1.424   6.655   4.477
 7041SOL    HW222023   1.516   6.601   4.353
 7042SOL     OW22024   5.438   6.172   5.258
 7042SOL    HW122025   5.434   6.238   5.333
 7042SOL    HW222026   5.504   6.101   5.279
 7043SOL     OW22027   2.339   5.152   1.333
 7043SOL    HW122028   2.367   5.063   1.367
 7043SOL    HW222029   2.419   5.211   1.325
 7044SOL     OW22030   5.510   6.850   5.222
 7044SOL    HW122031   5.511   6.838   5.123
 7044SOL    HW222032   5.444   6.921   5.246
 7045SOL     OW22033   6.442   5.740   2.387
 7045SOL    HW122034   6.363   5.801   2.385
 7045SOL    HW222035   6.439   5.678   2.308
 7046SOL     OW22036   2.294   1.491   3.926
 7046SOL    HW122037   2.294   1.568   3.989
 7046SOL    HW222038   2.310   1.406   3.976
 7047SOL     OW22039   1.094   6.341   0.653
 7047SOL    HW122040   1.133   6.250   0.646
 7047SOL    HW222041   1.055   6.369   0.565
 7048SOL     OW22042   0.065   6.274   4.284
 7048SOL    HW122043   0.056   6.243   4.379
 7048SOL    HW222044   0.041   6.371   4.278
 7049SOL     OW22045   3.645   1.121   3.666
 7049SOL    HW122046   3.711   1.070   3.721
 7049SOL    HW222047   3.565   1.063   3.649
 7050SOL     OW22048   3.851   3.906   0.906
 7050SOL    HW122049   3.926   3.969   0.887
 7050SOL    HW222050   3.856   3.875   1.001
 7051SOL     OW22051   1.049   1.045   1.872
 7051SOL    HW122052   0.979   1.055   1.943
 7051SOL    HW222053   1.137   1.077   1.908
 7052SOL     OW22054   4.177   0.949   2.994
 7052SOL    HW122055   4.124   0.885   2.939
 7052SOL    HW222056   4.266   0.964   2.952
 7053SOL     OW22057   1.845   3.797   3.185
 7053SOL    HW122058   1.930   3.806   3.236
 7053SOL    HW222059   1.769   3.829   3.242
 7054SOL     OW22060   6.027   0.884   0.222
 7054SOL    HW122061   6.127   0.894   0.222
 7054SOL    HW222062   5.988   0.939   0.296
 7055SOL     OW22063   2.335   1.026   0.373
 7055SOL    HW122064   2.310   0.959   0.443
 7055SOL    HW222065   2.343   0.981   0.284
 7056SOL     OW22066   6.835   5.559   1.243
 7056SOL    HW122067   6.919   5.613   1.240
 7056SOL    HW222068   6.797   5.552   1.150
 7057SOL     OW22069   2.473   5.703   4.654
 7057SOL    HW122070   2.557   5.663   4.618
 7057SOL    HW222071   2.398   5.687   4.588
 7058SOL     OW22072   5.616   2.730   6.160
 7058SOL    HW122073   5.652   2.679   6.238
 7058SOL    HW222074   5.692   2.772   6.111
 7059SOL     OW22075   2.074   0.030   5.043
 7059SOL    HW122076   2.126   0.046   5.127
 7059SOL    HW222077   2.024   0.113   5.019
 7060SOL     OW22078   3.194   1.427   1.295
 7060SOL    HW122079   3.103   1.422   1.252
 7060SOL    HW222080   3.238   1.513   1.269
 7061SOL     OW22081   1.031   1.401   1.927
 7061SOL    HW122082   1.094   1.453   1.869
 7061SOL    HW222083   1.078   1.320   1.963
 7062SOL     OW22084   3.454   0.170   3.893
 7062SOL    HW122085   3.545   0.194   3.858
 7062SOL    HW222086   3.441   0.071   3.885
 7063SOL     OW22087   0.336   0.936   0.956
 7063SOL    HW122088   0.417   0.995   0.950
 7063SOL    HW222089   0.283   0.943   0.871
 7064SOL     OW22090   3.471   1.446   4.940
 7064SOL    HW122091   3.439   1.500   5.018
 7064SOL    HW222092   3.400   1.381   4.913
 7065SOL     OW22093   4.138   5.441   5.370
 7065SOL    HW122094   4.136   5.539   5.392
 7065SOL    HW222095   4.106   5.427   5.276
 7066SOL     OW22096   3.600   0.418   0.563
 7066SOL    HW122097   3.640   0.373   0.644
 7066SOL    HW222098   3.652   0.393   0.482
 7067SOL     OW22099   1.562   3.540   6.256
 7067SOL    HW122100   1.569   3.583   6.347
 7067SOL    HW222101   1.574   3.442   6.266
 7068SOL     OW22102   5.221   3.958   4.570
 7068SOL    HW122103   5.164   4.035   4.599
 7068SOL    HW222104   5.301   3.993   4.521
 7069SOL     OW22105   5.244   0.777   6.258
 7069SOL    HW122106   5.199   0.702   6.211
 7069SOL    HW222107   5.216   0.777   6.354
 7070SOL     OW22108   0.265   0.361   5.453
 7070SOL    HW122109   0.172   0.332   5.475
 7070SOL    HW222110   0.330   0.310   5.509
 7071SOL     OW22111   5.151   5.491   0.109
 7071SOL    HW122112   5.093   5.528   0.182
 7071SOL    HW222113   5.120   5.526   0.021
 7072SOL     OW22114   0.672   3.669   6.316
 7072SOL    HW122115   0.585   3.718   6.309
 7072SOL    HW222116   0.714   3.687   6.405
 7073SOL     OW22117   4.723   1.585   3.890
 7073SOL    HW122118   4.782   1.612   3.814
 7073SOL    HW222119   4.627   1.588   3.862
 7074SOL     OW22120   5.181   4.239   3.013
 7074SOL    HW122121   5.157   4.176   2.939
 7074SOL    HW222122   5.279   4.235   3.030
 7075SOL     OW22123   2.679   4.923   3.187
 7075SOL    HW122124   2.615   4.940   3.112
 7075SOL    HW222125   2.770   4.906   3.149
 7076SOL     OW22126   5.791   2.582   1.574
 7076SOL    HW122127   5.725   2.547   1.507
 7076SOL    HW222128   5.758   2.669   1.611
 7077SOL     OW22129   3.971   5.557   2.123
 7077SOL    HW122130   4.008   5.643   2.088
 7077SOL    HW222131   3.912   5.515   2.054
 7078SOL     OW22132   6.412   0.472   7.003
 7078SOL    HW122133   6.432   0.534   0.064
 7078SOL    HW222134   6.316   0.445   7.006
 7079SOL     OW22135   1.204   6.464   4.827
 7079SOL    HW122136   1.136   6.425   4.889
 7079SOL    HW222137   1.296   6.440   4.859
 7080SOL     OW22138   4.182   1.842   5.946
 7080SOL    HW122139   4.133   1.762   5.911
 7080SOL    HW222140   4.119   1.919   5.954
 7081SOL     OW22141   2.079   0.168   0.201
 7081SOL    HW122142   2.176   0.181   0.183
 7081SOL    HW222143   2.044   0.093   0.146
 7082SOL     OW22144   0.647   4.015   2.971
 7082SOL    HW122145   0.584   3.938   2.962
 7082SOL    HW222146   0.721   4.006   2.905
 7083SOL     OW22147   5.285   2.147   2.910
 7083SOL    HW122148   5.253   2.123   2.819
 7083SOL    HW222149   5.207   2.149   2.973
 7084SOL     OW22150   1.160   5.557   0.113
 7084SOL    HW122151   1.066   5.586   0.095
 7084SOL    HW222152   1.179   5.564   0.211
 7085SOL     OW22153   0.794   3.977   2.079
 7085SOL    HW122154   0.826   4.068   2.102
 7085SOL    HW222155   0.863   3.909   2.107
 7086SOL     OW22156   5.454   1.049   3.724
 7086SOL    HW122157   5.367   1.000   3.721
 7086SOL    HW222158   5.515   1.012   3.654
 7087SOL     OW22159   4.878   3.168   2.910
 7087SOL    HW122160   4.882   3.102   2.836
 7087SOL    HW222161   4.919   3.255   2.880
 7088SOL     OW22162   5.928   1.853   5.253
 7088SOL    HW122163   5.842   1.851   5.304
 7088SOL    HW222164   5.975   1.940   5.270
 7089SOL     OW22165   2.709   5.721   1.467
 7089SOL    HW122166   2.717   5.738   1.566
 7089SOL    HW222167   2.781   5.659   1.438
 7090SOL     OW22168   4.618   2.739   1.364
 7090SOL    HW122169   4.600   2.811   1.297
 7090SOL    HW222170   4.669   2.776   1.441
 7091SOL     OW22171   0.228   6.895   0.851
 7091SOL    HW122172   0.219   6.979   0.797
 7091SOL    HW222173   0.320   6.890   0.890
 7092SOL     OW22174   4.659   0.444   6.112
 7092SOL    HW122175   4.657   0.359   6.060
 7092SOL    HW222176   4.648   0.424   6.210
 7093SOL     OW22177   3.585   3.232   0.812
 7093SOL    HW122178   3.677   3.250   0.777
 7093SOL    HW222179   3.589   3.162   0.882
 7094SOL     OW22180   3.549   0.310   6.058
 7094SOL    HW122181   3.628   0.272   6.107
 7094SOL    HW222182   3.465   0.269   6.092
 7095SOL     OW22183   2.207   4.934   4.591
 7095SOL    HW122184   2.243   4.987   4.515
 7095SOL    HW222185   2.196   4.993   4.671
 7096SOL     OW22186   6.609   0.275   1.425
 7096SOL    HW122187   6.623   0.353   1.486
 7096SOL    HW222188   6.577   0.308   1.336
 7097SOL     OW22189   4.729   1.447   2.102
 7097SOL    HW122190   4.814   1.400   2.127
 7097SOL    HW222191   4.664   1.439   2.177
 7098SOL     OW22192   0.866   0.253   3.477
 7098SOL    HW122193   0.957   0.292   3.484
 7098SOL    HW222194   0.797   0.325   3.481
 7099SOL     OW22195   2.746   1.933   4.501
 7099SOL    HW122196   2.713   1.863   4.438
 7099SOL    HW222197   2.743   2.022   4.456
 7100SOL     OW22198   6.624   4.057   1.897
 7100SOL    HW122199   6.563   4.082   1.972
 7100SOL    HW222200   6.669   3.970   1.918
 7101SOL     OW22201   2.261   5.961   5.097
 7101SOL    HW122202   2.275   5.862   5.085
 7101SOL    HW222203   2.344   6.002   5.135
 7102SOL     OW22204   5.718   1.350   2.106
 7102SOL    HW122205   5.808   1.355   2.062
 7102SOL    HW222206   5.705   1.429   2.165
 7103SOL     OW22207   4.928   3.508   3.206
 7103SOL    HW122208   4.904   3.535   3.112
 7103SOL    HW222209   4.936   3.409   3.211
 7104SOL     OW22210   4.637   2.684   3.913
 7104SOL    HW122211   4.708   2.671   3.982
 7104SOL    HW222212   4.550   2.705   3.958
 7105SOL     OW22213   3.354   4.135   3.425
 7105SOL    HW122214   3.428   4.096   3.370
 7105SOL    HW222215   3.383   4.139   3.521
 7106SOL     OW22216   3.395   1.815   1.836
 7106SOL    HW122217   3.326   1.835   1.767
 7106SOL    HW222218   3.393   1.887   1.906
 7107SOL     OW22219   3.973   0.608   6.332
 7107SOL    HW122220   4.012   0.534   6.388
 7107SOL    HW222221   4.032   0.688   6.337
 7108SOL     OW22222   4.831   0.445   1.923
 7108SOL    HW122223   4.905   0.445   1.856
 7108SOL    HW222224   4.818   0.352   1.958
 7109SOL     OW22225   2.580   5.219   0.062
 7109SOL    HW122226   2.524   5.187   7.002
 7109SOL    HW222227   2.676   5.198   0.043
 7110SOL     OW22228   3.377   0.066   4.441
 7110SOL    HW122229   3.371   0.105   4.349
 7110SOL    HW222230   3.307   7.011   4.451
 7111SOL     OW22231   6.953   0.774   4.948
 7111SOL    HW122232   0.023   0.814   4.914
 7111SOL    HW222233   6.897   0.845   4.991
 7112SOL     OW22234   0.834   4.806   4.953
 7112SOL    HW122235   0.931   4.824   4.940
 7112SOL    HW222236   0.822   4.711   4.982
 7113SOL     OW22237   3.475   6.320   4.918
 7113SOL    HW122238   3.566   6.281   4.905
 7113SOL    HW222239   3.478   6.390   4.989
 7114SOL     OW22240   5.935   3.941   1.091
 7114SOL    HW122241   5.949   4.040   1.101
 7114SOL    HW222242   6.023   3.896   1.076
 7115SOL     OW22243   6.010   3.626   6.162
 7115SOL    HW122244   6.051   3.718   6.165
 7115SOL    HW222245   6.081   3.559   6.141
 7116SOL     OW22246   6.282   3.674   4.704
 7116SOL    HW122247   6.247   3.639   4.617
 7116SOL    HW222248   6.212   3.732   4.747
 7117SOL     OW22249   5.280   0.140   3.315
 7117SOL    HW122250   5.320   0.099   3.233
 7117SOL    HW222251   5.194   0.186   3.290
 7118SOL     OW22252   3.664   4.475   5.758
 7118SOL    HW122253   3.625   4.530   5.833
 7118SOL    HW222254   3.608   4.393   5.744
 7119SOL     OW22255   3.561   6.751   5.222
 7119SOL    HW122256   3.494   6.816   5.187
 7119SOL    HW222257   3.652   6.775   5.188
 7120SOL     OW22258   4.623   0.833   0.998
 7120SOL    HW122259   4.524   0.845   0.998
 7120SOL    HW222260   4.645   0.737   0.981
 7121SOL     OW22261   1.442   5.956   2.230
 7121SOL    HW122262   1.472   6.050   2.247
 7121SOL    HW222263   1.356   5.956   2.178
 7122SOL     OW22264   3.351   2.034   6.997
 7122SOL    HW122265   3.252   2.041   6.981
 7122SOL    HW222266   3.394   2.120   6.970
 7123SOL     OW22267   5.675   5.141   6.084
 7123SOL    HW122268   5.593   5.098   6.121
 7123SOL    HW222269   5.752   5.124   6.145
 7124SOL     OW22270   1.671   2.647   1.217
 7124SOL    HW122271   1.734   2.680   1.147
 7124SOL    HW222272   1.702   2.558   1.251
 7125SOL     OW22273   0.626   6.422   2.555
 7125SOL    HW122274   0.538   6.421   2.602
 7125SOL    HW222275   0.699   6.403   2.621
 7126SOL     OW22276   3.361   5.220   0.941
 7126SOL    HW122277   3.325   5.126   0.935
 7126SOL    HW222278   3.372   5.258   0.849
 7127SOL     OW22279   2.316   6.270   6.057
 7127SOL    HW122280   2.339   6.250   6.152
 7127SOL    HW222281   2.399   6.289   6.006
 7128SOL     OW22282   3.725   4.062   6.977
 7128SOL    HW122283   3.778   4.123   6.919
 7128SOL    HW222284   3.636   4.104   6.997
 7129SOL     OW22285   0.443   6.960   0.376
 7129SOL    HW122286   0.475   6.994   0.287
 7129SOL    HW222287   0.381   6.883   0.361
 7130SOL     OW22288   3.489   6.223   3.863
 7130SOL    HW122289   3.409   6.249   3.917
 7130SOL    HW222290   3.558   6.182   3.922
 7131SOL     OW22291   2.241   1.277   1.909
 7131SOL    HW122292   2.207   1.211   1.842
 7131SOL    HW222293   2.164   1.313   1.962
 7132SOL     OW22294   5.019   4.320   0.632
 7132SOL    HW122295   4.995   4.342   0.538
 7132SOL    HW222296   4.963   4.243   0.664
 7133SOL     OW22297   4.863   5.913   2.895
 7133SOL    HW122298   4.869   5.868   2.806
 7133SOL    HW222299   4.785   5.875   2.946
 7134SOL     OW22300   4.891   5.447   0.365
 7134SOL    HW122301   4.804   5.434   0.413
 7134SOL    HW222302   4.966   5.428   0.429
 7135SOL     OW22303   1.413   3.206   1.195
 7135SOL    HW122304   1.427   3.304   1.189
 7135SOL    HW222305   1.498   3.159   1.173
 7136SOL     OW22306   1.180   2.354   2.105
 7136SOL    HW122307   1.135   2.367   2.016
 7136SOL    HW222308   1.267   2.308   2.092
 7137SOL     OW22309   2.620   1.407   1.089
 7137SOL    HW122310   2.646   1.363   1.175
 7137SOL    HW222311   2.549   1.475   1.106
 7138SOL     OW22312   0.444   2.603   0.301
 7138SOL    HW122313   0.511   2.662   0.344
 7138SOL    HW222314   0.486   2.555   0.224
 7139SOL     OW22315   5.717   6.334   0.919
 7139SOL    HW122316   5.801   6.338   0.866
 7139SOL    HW222317   5.712   6.245   0.966
 7140SOL     OW22318   6.585   4.334   0.229
 7140SOL    HW122319   6.506   4.367   0.280
 7140SOL    HW222320   6.648   4.287   0.291
 7141SOL     OW22321   2.897   0.440   1.099
 7141SOL    HW122322   2.911   0.514   1.165
 7141SOL    HW222323   2.884   0.480   1.008
 7142SOL     OW22324   3.929   0.101   5.008
 7142SOL    HW122325   3.995   0.073   5.077
 7142SOL    HW222326   3.974   0.107   4.919
 7143SOL     OW22327   2.787   3.315   6.686
 7143SOL    HW122328   2.723   3.335   6.759
 7143SOL    HW222329   2.751   3.351   6.599
 7144SOL     OW22330   6.621   1.157   6.267
 7144SOL    HW122331   6.529   1.192   6.249
 7144SOL    HW222332   6.651   1.101   6.191
 7145SOL     OW22333   5.389   1.541   6.581
 7145SOL    HW122334   5.480   1.582   6.582
 7145SOL    HW222335   5.328   1.595   6.640
 7146SOL     OW22336   1.129   2.222   5.762
 7146SOL    HW122337   1.188   2.300   5.739
 7146SOL    HW222338   1.180   2.157   5.818
 7147SOL     OW22339   6.298   6.251   1.867
 7147SOL    HW122340   6.281   6.239   1.769
 7147SOL    HW222341   6.243   6.186   1.919
 7148SOL     OW22342   6.410   6.625   1.386
 7148SOL    HW122343   6.338   6.620   1.317
 7148SOL    HW222344   6.449   6.717   1.387
 7149SOL     OW22345   6.037   4.705   6.000
 7149SOL    HW122346   6.045   4.767   6.078
 7149SOL    HW222347   6.025   4.612   6.033
 7150SOL     OW22348   3.139   2.755   6.890
 7150SOL    HW122349   3.157   2.668   6.936
 7150SOL    HW222350   3.045   2.784   6.909
 7151SOL     OW22351   4.952   1.232   0.093
 7151SOL    HW122352   5.000   1.313   0.058
 7151SOL    HW222353   4.933   1.170   0.017
 7152SOL     OW22354   5.440   0.832   6.468
 7152SOL    HW122355   5.435   0.892   6.389
 7152SOL    HW222356   5.465   0.740   6.438
 7153SOL     OW22357   3.216   5.463   0.238
 7153SOL    HW122358   3.273   5.544   0.233
 7153SOL    HW222359   3.154   5.461   0.160
 7154SOL     OW22360   4.049   1.417   2.019
 7154SOL    HW122361   4.027   1.502   2.067
 7154SOL    HW222362   4.149   1.407   2.014
 7155SOL     OW22363   1.357   1.036   2.308
 7155SOL    HW122364   1.324   1.130   2.320
 7155SOL    HW222365   1.411   1.010   2.388
 7156SOL     OW22366   6.443   2.972   5.128
 7156SOL    HW122367   6.413   2.957   5.034
 7156SOL    HW222368   6.390   2.913   5.189
 7157SOL     OW22369   0.463   3.965   6.238
 7157SOL    HW122370   0.382   4.022   6.226
 7157SOL    HW222371   0.474   3.906   6.158
 7158SOL     OW22372   4.902   6.748   4.403
 7158SOL    HW122373   4.918   6.653   4.429
 7158SOL    HW222374   4.965   6.773   4.329
 7159SOL     OW22375   0.337   6.206   3.642
 7159SOL    HW122376   0.436   6.214   3.653
 7159SOL    HW222377   0.315   6.181   3.548
 7160SOL     OW22378   6.339   0.003   3.836
 7160SOL    HW122379   6.260   7.003   3.895
 7160SOL    HW222380   6.331   0.093   3.792
 7161SOL     OW22381   3.707   3.715   2.791
 7161SOL    HW122382   3.612   3.730   2.818
 7161SOL    HW222383   3.725   3.617   2.783
 7162SOL     OW22384   0.486   5.963   1.614
 7162SOL    HW122385   0.397   6.006   1.602
 7162SOL    HW222386   0.528   5.946   1.525
 7163SOL     OW22387   6.908   0.716   0.838
 7163SOL    HW122388   6.956   0.631   0.862
 7163SOL    HW222389   6.814   0.695   0.812
 7164SOL     OW22390   1.746   0.873   6.675
 7164SOL    HW122391   1.655   0.839   6.650
 7164SOL    HW222392   1.775   0.942   6.608
 7165SOL     OW22393   5.901   2.569   0.259
 7165SOL    HW122394   5.899   2.669   0.259
 7165SOL    HW222395   5.812   2.534   0.229
 7166SOL     OW22396   0.030   6.032   5.784
 7166SOL    HW122397   0.123   6.017   5.750
 7166SOL    HW222398   7.009   6.116   5.745
 7167SOL     OW22399   6.603   2.258   5.044
 7167SOL    HW122400   6.587   2.160   5.027
 7167SOL    HW222401   6.516   2.307   5.038
 7168SOL     OW22402   1.744   1.249   2.159
 7168SOL    HW122403   1.675   1.206   2.101
 7168SOL    HW222404   1.701   1.281   2.243
 7169SOL     OW22405   2.146   4.527   5.709
 7169SOL    HW122406   2.200   4.569   5.636
 7169SOL    HW222407   2.113   4.437   5.679
 7170SOL     OW22408   3.474   1.370   1.124
 7170SOL    HW122409   3.449   1.446   1.184
 7170SOL    HW222410   3.524   1.301   1.176
 7171SOL     OW22411   0.264   4.045   0.719
 7171SOL    HW122412   0.293   3.950   0.704
 7171SOL    HW222413   0.240   4.057   0.816
 7172SOL     OW22414   0.878   2.466   3.806
 7172SOL    HW122415   0.823   2.410   3.868
 7172SOL    HW222416   0.893   2.556   3.847
 7173SOL     OW22417   4.782   5.358   6.063
 7173SOL    HW122418   4.850   5.430   6.048
 7173SOL    HW222419   4.695   5.386   6.022
 7174SOL     OW22420   6.643   4.250   2.144
 7174SOL    HW122421   6.559   4.277   2.192
 7174SOL    HW222422   6.659   4.312   2.068
 7175SOL     OW22423   6.602   4.050   5.713
 7175SOL    HW122424   6.533   4.095   5.656
 7175SOL    HW222425   6.629   3.964   5.671
 7176SOL     OW22426   7.001   0.657   6.300
 7176SOL    HW122427   0.077   0.637   6.265
 7176SOL    HW222428   6.971   0.582   6.359
 7177SOL     OW22429   1.190   5.748   3.763
 7177SOL    HW122430   1.254   5.672   3.773
 7177SOL    HW222431   1.233   5.833   3.794
 7178SOL     OW22432   1.881   6.299   4.734
 7178SOL    HW122433   1.930   6.271   4.816
 7178SOL    HW222434   1.783   6.299   4.752
 7179SOL     OW22435   3.962   4.862   6.001
 7179SOL    HW122436   4.053   4.862   6.042
 7179SOL    HW222437   3.968   4.889   5.905
 7180SOL     OW22438   1.956   3.193   1.695
 7180SOL    HW122439   2.042   3.195   1.745
 7180SOL    HW222440   1.882   3.227   1.752
 7181SOL     OW22441   1.866   1.669   6.627
 7181SOL    HW122442   1.788   1.724   6.658
 7181SOL    HW222443   1.879   1.592   6.689
 7182SOL     OW22444   1.914   1.016   3.856
 7182SOL    HW122445   1.899   0.986   3.762
 7182SOL    HW222446   1.856   0.963   3.918
 7183SOL     OW22447   1.578   6.731   2.230
 7183SOL    HW122448   1.565   6.634   2.254
 7183SOL    HW222449   1.658   6.740   2.171
 7184SOL     OW22450   6.362   1.482   3.441
 7184SOL    HW122451   6.298   1.481   3.364
 7184SOL    HW222452   6.455   1.487   3.407
 7185SOL     OW22453   4.374   0.399   4.318
 7185SOL    HW122454   4.318   0.411   4.236
 7185SOL    HW222455   4.432   0.479   4.331
 7186SOL     OW22456   6.332   0.776   6.733
 7186SOL    HW122457   6.422   0.733   6.745
 7186SOL    HW222458   6.339   0.848   6.663
 7187SOL     OW22459   3.457   3.235   4.142
 7187SOL    HW122460   3.443   3.226   4.241
 7187SOL    HW222461   3.505   3.320   4.123
 7188SOL     OW22462   4.786   4.567   0.015
 7188SOL    HW122463   4.840   4.545   6.950
 7188SOL    HW222464   4.845   4.609   0.085
 7189SOL     OW22465   6.213   2.730   5.855
 7189SOL    HW122466   6.261   2.741   5.767
 7189SOL    HW222467   6.114   2.729   5.839
 7190SOL     OW22468   6.156   4.893   0.068
 7190SOL    HW122469   6.137   4.934   6.994
 7190SOL    HW222470   6.250   4.859   0.069
 7191SOL     OW22471   6.753   5.105   3.118
 7191SOL    HW122472   6.658   5.082   3.097
 7191SOL    HW222473   6.812   5.073   3.044
 7192SOL     OW22474   2.231   4.074   5.933
 7192SOL    HW122475   2.146   4.112   5.970
 7192SOL    HW222476   2.271   4.138   5.868
 7193SOL     OW22477   3.478   2.122   3.338
 7193SOL    HW122478   3.414   2.068   3.283
 7193SOL    HW222479   3.557   2.148   3.282
 7194SOL     OW22480   2.822   2.927   6.028
 7194SOL    HW122481   2.855   2.938   5.934
 7194SOL    HW222482   2.900   2.914   6.089
 7195SOL     OW22483   0.501   4.393   4.974
 7195SOL    HW122484   0.495   4.491   4.956
 7195SOL    HW222485   0.596   4.363   4.972
 7196SOL     OW22486   3.519   4.185   1.947
 7196SOL    HW122487   3.549   4.149   2.036
 7196SOL    HW222488   3.425   4.217   1.954
 7197SOL     OW22489   3.230   4.806   6.373
 7197SOL    HW122490   3.236   4.902   6.401
 7197SOL    HW222491   3.222   4.801   6.274
 7198SOL     OW22492   0.842   1.112   2.076
 7198SOL    HW122493   0.755   1.158   2.094
 7198SOL    HW222494   0.831   1.013   2.085
 7199SOL     OW22495   6.060   1.685   2.718
 7199SOL    HW122496   6.062   1.587   2.738
 7199SOL    HW222497   6.089   1.701   2.624
 7200SOL     OW22498   1.068   2.347   0.474
 7200SOL    HW122499   1.055   2.381   0.567
 7200SOL    HW222500   1.078   2.247   0.477
 7201SOL     OW22501   6.231   5.290   3.980
 7201SOL    HW122502   6.179   5.243   4.052
 7201SOL    HW222503   6.227   5.388   3.996
 7202SOL     OW22504   4.575   6.927   5.847
 7202SOL    HW122505   4.583   6.913   5.945
 7202SOL    HW222506   4.517   7.006   5.829
 7203SOL     OW22507   0.167   1.834   1.020
 7203SOL    HW122508   0.144   1.834   0.922
 7203SOL    HW222509   0.204   1.744   1.045
 7204SOL     OW22510   6.654   0.502   2.372
 7204SOL    HW122511   6.618   0.409   2.371
 7204SOL    HW222512   6.626   0.549   2.456
 7205SOL     OW22513   3.017   1.905   3.912
 7205SOL    HW122514   3.050   1.840   3.982
 7205SOL    HW222515   3.022   1.998   3.949
 7206SOL     OW22516   1.717   3.402   0.003
 7206SOL    HW122517   1.701   3.495   0.038
 7206SOL    HW222518   1.811   3.397   6.982
 7207SOL     OW22519   1.798   0.967   3.619
 7207SOL    HW122520   1.746   1.045   3.585
 7207SOL    HW222521   1.773   0.885   3.567
 7208SOL     OW22522   3.472   0.465   4.118
 7208SOL    HW122523   3.482   0.496   4.023
 7208SOL    HW222524   3.519   0.529   4.179
 7209SOL     OW22525   3.430   0.998   2.003
 7209SOL    HW122526   3.373   0.989   2.084
 7209SOL    HW222527   3.495   1.073   2.017
 7210SOL     OW22528   3.126   1.757   3.198
 7210SOL    HW122529   3.094   1.663   3.207
 7210SOL    HW222530   3.048   1.819   3.206
 7211SOL     OW22531   4.569   6.419   5.410
 7211SOL    HW122532   4.563   6.319   5.405
 7211SOL    HW222533   4.621   6.453   5.331
 7212SOL     OW22534   0.372   4.692   5.746
 7212SOL    HW122535   0.356   4.791   5.737
 7212SOL    HW222536   0.326   4.644   5.671
 7213SOL     OW22537   4.214   2.196   6.949
 7213SOL    HW122538   4.266   2.116   6.977
 7213SOL    HW222539   4.263   2.243   6.875
 7214SOL     OW22540   6.266   0.685   6.428
 7214SOL    HW122541   6.168   0.667   6.420
 7214SOL    HW222542   6.300   0.645   6.514
 7215SOL     OW22543   5.797   1.934   3.137
 7215SOL    HW122544   5.870   1.911   3.200
 7215SOL    HW222545   5.830   1.929   3.043
 7216SOL     OW22546   3.967   6.453   3.231
 7216SOL    HW122547   4.016   6.538   3.208
 7216SOL    HW222548   3.991   6.383   3.164
 7217SOL     OW22549   1.096   2.884   2.456
 7217SOL    HW122550   1.095   2.785   2.470
 7217SOL    HW222551   1.185   2.912   2.422
 7218SOL     OW22552   6.485   2.942   4.541
 7218SOL    HW122553   6.533   3.008   4.484
 7218SOL    HW222554   6.387   2.946   4.521
 7219SOL     OW22555   3.430   6.626   2.808
 7219SOL    HW122556   3.415   6.542   2.861
 7219SOL    HW222557   3.345   6.679   2.805
 7220SOL     OW22558   6.640   4.425   3.862
 7220SOL    HW122559   6.704   4.469   3.800
 7220SOL    HW222560   6.557   4.481   3.869
 7221SOL     OW22561   3.979   5.411   3.668
 7221SOL    HW122562   3.901   5.373   3.619
 7221SOL    HW222563   3.946   5.473   3.740
 7222SOL     OW22564   6.416   5.798   4.789
 7222SOL    HW122565   6.415   5.851   4.704
 7222SOL    HW222566   6.450   5.706   4.770
 7223SOL     OW22567   0.291   4.204   1.627
 7223SOL    HW122568   0.300   4.258   1.544
 7223SOL    HW222569   0.340   4.249   1.702
 7224SOL     OW22570   4.303   1.958   2.353
 7224SOL    HW122571   4.246   2.013   2.292
 7224SOL    HW222572   4.396   1.996   2.354
 7225SOL     OW22573   1.489   5.472   0.605
 7225SOL    HW122574   1.549   5.427   0.671
 7225SOL    HW222575   1.544   5.517   0.535
 7226SOL     OW22576   6.642   6.526   0.400
 7226SOL    HW122577   6.623   6.524   0.302
 7226SOL    HW222578   6.632   6.620   0.434
 7227SOL     OW22579   2.019   1.236   2.492
 7227SOL    HW122580   1.982   1.151   2.456
 7227SOL    HW222581   2.031   1.227   2.591
 7228SOL     OW22582   6.879   3.305   2.408
 7228SOL    HW122583   6.802   3.358   2.444
 7228SOL    HW222584   6.845   3.235   2.345
 7229SOL     OW22585   6.382   1.367   5.133
 7229SOL    HW122586   6.466   1.401   5.174
 7229SOL    HW222587   6.384   1.380   5.034
 7230SOL     OW22588   2.369   5.308   4.698
 7230SOL    HW122589   2.357   5.310   4.599
 7230SOL    HW222590   2.453   5.258   4.720
 7231SOL     OW22591   4.392   2.787   5.973
 7231SOL    HW122592   4.476   2.738   5.946
 7231SOL    HW222593   4.315   2.753   5.919
 7232SOL     OW22594   5.462   6.244   3.661
 7232SOL    HW122595   5.485   6.203   3.749
 7232SOL    HW222596   5.393   6.189   3.615
 7233SOL     OW22597   0.020   1.142   4.809
 7233SOL    HW122598   6.939   1.132   4.837
 7233SOL    HW222599   0.077   1.151   4.890
 7234SOL     OW22600   5.181   4.141   3.544
 7234SOL    HW122601   5.276   4.154   3.573
 7234SOL    HW222602   5.157   4.044   3.551
 7235SOL     OW22603   6.784   5.725   1.779
 7235SOL    HW122604   6.810   5.821   1.767
 7235SOL    HW222605   6.704   5.719   1.838
 7236SOL     OW22606   1.009   3.675   2.581
 7236SOL    HW122607   1.059   3.669   2.668
 7236SOL    HW222608   0.929   3.733   2.594
 7237SOL     OW22609   6.007   0.854   0.692
 7237SOL    HW122610   6.038   0.761   0.675
 7237SOL    HW222611   5.986   0.898   0.604
 7238SOL     OW22612   4.029   3.406   6.767
 7238SOL    HW122613   3.990   3.407   6.675
 7238SOL    HW222614   3.975   3.346   6.826
 7239SOL     OW22615   6.701   2.667   2.179
 7239SOL    HW122616   6.626   2.604   2.196
 7239SOL    HW222617   6.664   2.755   2.148
 7240SOL     OW22618   6.559   1.838   6.933
 7240SOL    HW122619   6.557   1.815   0.016
 7240SOL    HW222620   6.587   1.758   6.881
 7241SOL     OW22621   2.487   1.277   2.002
 7241SOL    HW122622   2.544   1.264   1.920
 7241SOL    HW222623   2.391   1.286   1.975
 7242SOL     OW22624   6.895   4.604   4.348
 7242SOL    HW122625   6.841   4.555   4.279
 7242SOL    HW222626   6.901   4.700   4.323
 7243SOL     OW22627   5.875   4.384   6.506
 7243SOL    HW122628   5.930   4.313   6.464
 7243SOL    HW222629   5.918   4.473   6.491
 7244SOL     OW22630   0.488   6.303   6.960
 7244SOL    HW122631   0.562   6.249   6.998
 7244SOL    HW222632   0.413   6.309   0.011
 7245SOL     OW22633   0.823   3.434   0.751
 7245SOL    HW122634   0.915   3.472   0.763
 7245SOL    HW222635   0.822   3.376   0.669
 7246SOL     OW22636   4.269   6.572   3.552
 7246SOL    HW122637   4.203   6.554   3.626
 7246SOL    HW222638   4.348   6.620   3.590
 7247SOL     OW22639   3.142   3.834   5.347
 7247SOL    HW122640   3.215   3.768   5.325
 7247SOL    HW222641   3.068   3.786   5.393
 7248SOL     OW22642   2.970   1.063   5.216
 7248SOL    HW122643   2.992   0.968   5.238
 7248SOL    HW222644   3.054   1.117   5.216
 7249SOL     OW22645   3.863   4.826   2.526
 7249SOL    HW122646   3.771   4.795   2.501
 7249SOL    HW222647   3.860   4.923   2.550
 7250SOL     OW22648   5.494   5.039   5.185
 7250SOL    HW122649   5.538   5.129   5.183
 7250SOL    HW222650   5.503   4.996   5.095
 7251SOL     OW22651   0.275   6.002   5.668
 7251SOL    HW122652   0.350   5.979   5.731
 7251SOL    HW222653   0.296   5.968   5.577
 7252SOL     OW22654   3.780   4.082   2.505
 7252SOL    HW122655   3.768   3.996   2.456
 7252SOL    HW222656   3.851   4.136   2.460
 7253SOL     OW22657   2.128   5.662   4.658
 7253SOL    HW122658   2.144   5.759   4.638
 7253SOL    HW222659   2.097   5.652   4.753
 7254SOL     OW22660   5.777   3.256   3.850
 7254SOL    HW122661   5.690   3.235   3.807
 7254SOL    HW222662   5.764   3.268   3.948
 7255SOL     OW22663   4.952   3.137   6.577
 7255SOL    HW122664   4.865   3.141   6.625
 7255SOL    HW222665   4.991   3.045   6.585
 7256SOL     OW22666   3.434   0.420   5.301
 7256SOL    HW122667   3.392   0.357   5.366
 7256SOL    HW222668   3.476   0.368   5.227
 7257SOL     OW22669   0.372   1.514   4.405
 7257SOL    HW122670   0.335   1.477   4.319
 7257SOL    HW222671   0.472   1.517   4.399
 7258SOL     OW22672   6.017   2.218   2.666
 7258SOL    HW122673   6.067   2.266   2.594
 7258SOL    HW222674   6.066   2.228   2.753
 7259SOL     OW22675   1.306   3.849   2.449
 7259SOL    HW122676   1.364   3.783   2.401
 7259SOL    HW222677   1.310   3.833   2.547
 7260SOL     OW22678   5.709   3.269   1.455
 7260SOL    HW122679   5.807   3.280   1.438
 7260SOL    HW222680   5.668   3.212   1.384
 7261SOL     OW22681   0.109   4.563   0.325
 7261SOL    HW122682   0.032   4.499   0.321
 7261SOL    HW222683   0.074   4.657   0.323
 7262SOL     OW22684   6.293   1.292   5.377
 7262SOL    HW122685   6.272   1.194   5.380
 7262SOL    HW222686   6.325   1.317   5.285
 7263SOL     OW22687   0.474   5.640   0.048
 7263SOL    HW122688   0.469   5.557   7.008
 7263SOL    HW222689   0.387   5.689   0.044
 7264SOL     OW22690   6.528   1.770   0.200
 7264SOL    HW122691   6.582   1.755   0.283
 7264SOL    HW222692   6.464   1.846   0.215
 7265SOL     OW22693   4.391   5.879   5.729
 7265SOL    HW122694   4.369   5.782   5.722
 7265SOL    HW222695   4.349   5.916   5.812
 7266SOL     OW22696   0.427   1.088   3.888
 7266SOL    HW122697   0.369   1.050   3.961
 7266SOL    HW222698   0.453   1.015   3.825
 7267SOL     OW22699   6.287   4.732   4.684
 7267SOL    HW122700   6.379   4.709   4.651
 7267SOL    HW222701   6.287   4.731   4.784
 7268SOL     OW22702   6.516   6.379   4.414
 7268SOL    HW122703   6.491   6.470   4.448
 7268SOL    HW222704   6.615   6.374   4.401
 7269SOL     OW22705   2.524   4.547   5.280
 7269SOL    HW122706   2.614   4.549   5.325
 7269SOL    HW222707   2.489   4.453   5.281
 7270SOL     OW22708   0.744   1.231   4.368
 7270SOL    HW122709   0.786   1.199   4.452
 7270SOL    HW222710   0.679   1.163   4.335
 7271SOL     OW22711   1.003   4.365   3.473
 7271SOL    HW122712   1.005   4.354   3.572
 7271SOL    HW222713   1.092   4.394   3.440
 7272SOL     OW22714   6.543   4.673   2.939
 7272SOL    HW122715   6.502   4.760   2.912
 7272SOL    HW222716   6.591   4.684   3.026
 7273SOL     OW22717   0.401   2.286   5.264
 7273SOL    HW122718   0.423   2.351   5.337
 7273SOL    HW222719   0.326   2.321   5.209
 7274SOL     OW22720   0.703   4.554   0.129
 7274SOL    HW122721   0.736   4.648   0.137
 7274SOL    HW222722   0.603   4.553   0.137
 7275SOL     OW22723   6.923   0.397   2.887
 7275SOL    HW122724   6.939   0.417   2.791
 7275SOL    HW222725   7.003   0.424   2.940
 7276SOL     OW22726   5.682   6.439   4.525
 7276SOL    HW122727   5.588   6.471   4.539
 7276SOL    HW222728   5.722   6.415   4.613
 7277SOL     OW22729   4.614   0.203   5.943
 7277SOL    HW122730   4.649   0.195   5.850
 7277SOL    HW222731   4.673   0.151   6.005
 7278SOL     OW22732   2.875   3.422   2.763
 7278SOL    HW122733   2.794   3.389   2.810
 7278SOL    HW222734   2.881   3.380   2.672
 7279SOL     OW22735   3.237   6.678   6.168
 7279SOL    HW122736   3.144   6.644   6.158
 7279SOL    HW222737   3.239   6.777   6.158
 7280SOL     OW22738   4.842   1.580   6.033
 7280SOL    HW122739   4.778   1.650   6.066
 7280SOL    HW222740   4.906   1.622   5.969
 7281SOL     OW22741   5.125   1.259   6.485
 7281SOL    HW122742   5.191   1.281   6.413
 7281SOL    HW222743   5.069   1.340   6.504
 7282SOL     OW22744   5.703   5.636   2.214
 7282SOL    HW122745   5.710   5.640   2.313
 7282SOL    HW222746   5.614   5.671   2.185
 7283SOL     OW22747   2.006   0.501   3.888
 7283SOL    HW122748   2.032   0.596   3.877
 7283SOL    HW222749   2.083   0.448   3.922
 7284SOL     OW22750   0.116   3.827   4.802
 7284SOL    HW122751   0.032   3.812   4.749
 7284SOL    HW222752   0.176   3.890   4.753
 7285SOL     OW22753   4.865   5.639   1.565
 7285SOL    HW122754   4.802   5.700   1.518
 7285SOL    HW222755   4.945   5.690   1.596
 7286SOL     OW22756   2.007   3.592   1.277
 7286SOL    HW122757   1.933   3.659   1.288
 7286SOL    HW222758   2.033   3.557   1.366
 7287SOL     OW22759   5.781   1.387   6.505
 7287SOL    HW122760   5.827   1.324   6.568
 7287SOL    HW222761   5.729   1.335   6.437
 7288SOL     OW22762   3.691   6.525   0.044
 7288SOL    HW122763   3.705   6.490   6.967
 7288SOL    HW222764   3.731   6.462   0.110
 7289SOL     OW22765   4.520   1.891   3.165
 7289SOL    HW122766   4.614   1.921   3.145
 7289SOL    HW222767   4.511   1.795   3.140
 7290SOL     OW22768   2.325   5.046   4.383
 7290SOL    HW122769   2.395   4.995   4.332
 7290SOL    HW222770   2.356   5.140   4.396
 7291SOL     OW22771   2.454   5.740   1.833
 7291SOL    HW122772   2.488   5.657   1.878
 7291SOL    HW222773   2.530   5.789   1.792
 7292SOL     OW22774   2.709   6.889   4.410
 7292SOL    HW122775   2.754   6.924   4.492
 7292SOL    HW222776   2.717   6.790   4.408
 7293SOL     OW22777   1.109   2.449   5.432
 7293SOL    HW122778   1.171   2.382   5.390
 7293SOL    HW222779   1.016   2.431   5.402
 7294SOL     OW22780   3.325   5.031   0.722
 7294SOL    HW122781   3.333   4.939   0.760
 7294SOL    HW222782   3.231   5.045   0.689
 7295SOL     OW22783   6.021   0.694   1.636
 7295SOL    HW122784   5.982   0.602   1.626
 7295SOL    HW222785   6.070   0.718   1.552
 7296SOL     OW22786   3.802   4.803   1.433
 7296SOL    HW122787   3.848   4.715   1.417
 7296SOL    HW222788   3.712   4.787   1.472
 7297SOL     OW22789   5.063   6.947   1.715
 7297SOL    HW122790   5.001   7.014   1.756
 7297SOL    HW222791   5.013   6.895   1.646
 7298SOL     OW22792   5.737   3.676   4.165
 7298SOL    HW122793   5.708   3.686   4.260
 7298SOL    HW222794   5.825   3.628   4.162
 7299SOL     OW22795   6.500   4.094   6.686
 7299SOL    HW122796   6.519   4.146   6.603
 7299SOL    HW222797   6.587   4.072   6.732
 7300SOL     OW22798   4.302   5.218   1.120
 7300SOL    HW122799   4.223   5.205   1.060
 7300SOL    HW222800   4.366   5.282   1.078
 7301SOL     OW22801   6.412   0.249   6.109
 7301SOL    HW122802   6.352   0.186   6.060
 7301SOL    HW222803   6.507   0.233   6.081
 7302SOL     OW22804   5.232   1.033   6.598
 7302SOL    HW122805   5.216   1.116   6.545
 7302SOL    HW222806   5.318   1.042   6.648
 7303SOL     OW22807   3.511   1.288   0.297
 7303SOL    HW122808   3.598   1.323   0.263
 7303SOL    HW222809   3.447   1.364   0.308
 7304SOL     OW22810   3.187   3.998   5.713
 7304SOL    HW122811   3.145   4.085   5.739
 7304SOL    HW222812   3.264   4.016   5.652
 7305SOL     OW22813   5.238   1.105   0.823
 7305SOL    HW122814   5.331   1.110   0.860
 7305SOL    HW222815   5.212   1.195   0.788
 7306SOL     OW22816   4.858   4.900   1.817
 7306SOL    HW122817   4.792   4.959   1.770
 7306SOL    HW222818   4.816   4.862   1.899
 7307SOL     OW22819   3.935   6.510   2.332
 7307SOL    HW122820   4.018   6.481   2.379
 7307SOL    HW222821   3.861   6.444   2.350
 7308SOL     OW22822   6.431   2.357   4.563
 7308SOL    HW122823   6.430   2.403   4.474
 7308SOL    HW222824   6.522   2.319   4.580
 7309SOL     OW22825   4.640   6.539   1.495
 7309SOL    HW122826   4.619   6.636   1.483
 7309SOL    HW222827   4.600   6.487   1.420
 7310SOL     OW22828   2.881   5.044   1.476
 7310SOL    HW122829   2.902   4.960   1.526
 7310SOL    HW222830   2.833   5.022   1.392
 7311SOL     OW22831   2.712   2.096   1.908
 7311SOL    HW122832   2.770   2.151   1.969
 7311SOL    HW222833   2.639   2.152   1.871
 7312SOL     OW22834   6.795   1.019   5.843
 7312SOL    HW122835   6.752   1.109   5.844
 7312SOL    HW222836   6.806   0.989   5.748
 7313SOL     OW22837   4.066   2.358   6.329
 7313SOL    HW122838   3.993   2.291   6.313
 7313SOL    HW222839   4.150   2.309   6.352
 7314SOL     OW22840   0.022   3.190   4.466
 7314SOL    HW122841   0.121   3.201   4.463
 7314SOL    HW222842   7.007   3.136   4.388
 7315SOL     OW22843   6.845   0.090   4.146
 7315SOL    HW122844   6.755   0.049   4.160
 7315SOL    HW222845   6.906   0.024   4.102
 7316SOL     OW22846   3.394   3.627   5.535
 7316SOL    HW122847   3.359   3.650   5.625
 7316SOL    HW222848   3.492   3.605   5.541
 7317SOL     OW22849   3.459   1.225   3.849
 7317SOL    HW122850   3.380   1.263   3.802
 7317SOL    HW222851   3.536   1.219   3.786
 7318SOL     OW22852   1.793   2.213   1.353
 7318SOL    HW122853   1.801   2.300   1.401
 7318SOL    HW222854   1.869   2.153   1.379
 7319SOL     OW22855   5.812   4.672   6.725
 7319SOL    HW122856   5.877   4.667   6.801
 7319SOL    HW222857   5.859   4.653   6.639
 7320SOL     OW22858   0.059   3.155   2.057
 7320SOL    HW122859   7.000   3.133   2.120
 7320SOL    HW222860   0.060   3.089   1.982
 7321SOL     OW22861   3.030   1.085   4.420
 7321SOL    HW122862   2.971   1.085   4.500
 7321SOL    HW222863   3.117   1.042   4.443
 7322SOL     OW22864   0.196   4.160   3.225
 7322SOL    HW122865   0.288   4.169   3.188
 7322SOL    HW222866   0.132   4.146   3.149
 7323SOL     OW22867   2.144   3.629   3.433
 7323SOL    HW122868   2.145   3.629   3.333
 7323SOL    HW222869   2.203   3.557   3.468
 7324SOL     OW22870   5.550   6.869   2.885
 7324SOL    HW122871   5.510   6.780   2.864
 7324SOL    HW222872   5.613   6.895   2.813
 7325SOL     OW22873   3.193   6.093   0.012
 7325SOL    HW122874   3.183   6.105   0.111
 7325SOL    HW222875   3.102   6.097   6.985
 7326SOL     OW22876   3.010   6.890   5.622
 7326SOL    HW122877   2.942   6.921   5.689
 7326SOL    HW222878   3.080   6.836   5.669
 7327SOL     OW22879   1.285   2.813   5.511
 7327SOL    HW122880   1.238   2.874   5.448
 7327SOL    HW222881   1.359   2.863   5.556
 7328SOL     OW22882   2.511   0.344   6.884
 7328SOL    HW122883   2.474   0.266   6.834
 7328SOL    HW222884   2.441   0.415   6.894
 7329SOL     OW22885   4.238   3.050   1.474
 7329SOL    HW122886   4.260   3.071   1.570
 7329SOL    HW222887   4.314   3.077   1.416
 7330SOL     OW22888   3.711   1.408   0.170
 7330SOL    HW122889   3.790   1.350   0.189
 7330SOL    HW222890   3.741   1.495   0.131
 7331SOL     OW22891   5.539   0.445   1.844
 7331SOL    HW122892   5.547   0.534   1.890
 7331SOL    HW222893   5.446   0.433   1.811
 7332SOL     OW22894   3.605   5.235   1.102
 7332SOL    HW122895   3.523   5.230   1.046
 7332SOL    HW222896   3.666   5.159   1.079
 7333SOL     OW22897   0.919   4.770   2.479
 7333SOL    HW122898   0.977   4.836   2.528
 7333SOL    HW222899   0.894   4.696   2.541
 7334SOL     OW22900   3.899   6.596   4.189
 7334SOL    HW122901   3.882   6.640   4.277
 7334SOL    HW222902   3.813   6.589   4.139
 7335SOL     OW22903   2.003   2.761   2.748
 7335SOL    HW122904   2.093   2.736   2.782
 7335SOL    HW222905   1.967   2.687   2.691
 7336SOL     OW22906   2.401   6.283   3.402
 7336SOL    HW122907   2.395   6.277   3.302
 7336SOL    HW222908   2.388   6.378   3.431
 7337SOL     OW22909   6.599   2.902   2.108
 7337SOL    HW122910   6.527   2.916   2.040
 7337SOL    HW222911   6.622   2.988   2.152
 7338SOL     OW22912   6.439   2.724   0.688
 7338SOL    HW122913   6.465   2.820   0.689
 7338SOL    HW222914   6.381   2.706   0.609
 7339SOL     OW22915   6.856   5.618   4.809
 7339SOL    HW122916   6.901   5.557   4.744
 7339SOL    HW222917   6.817   5.696   4.760
 7340SOL     OW22918   2.361   0.110   6.836
 7340SOL    HW122919   2.366   0.024   6.785
 7340SOL    HW222920   2.285   0.164   6.801
 7341SOL     OW22921   6.143   2.677   6.313
 7341SOL    HW122922   6.140   2.773   6.340
 7341SOL    HW222923   6.237   2.644   6.314
 7342SOL     OW22924   0.099   6.885   2.753
 7342SOL    HW122925   0.104   6.985   2.752
 7342SOL    HW222926   0.011   6.857   2.790
 7343SOL     OW22927   5.250   3.914   0.205
 7343SOL    HW122928   5.334   3.967   0.200
 7343SOL    HW222929   5.261   3.830   0.152
 7344SOL     OW22930   1.609   6.591   6.160
 7344SOL    HW122931   1.573   6.602   6.253
 7344SOL    HW222932   1.599   6.495   6.131
 7345SOL     OW22933   3.620   5.354   5.994
 7345SOL    HW122934   3.597   5.436   6.046
 7345SOL    HW222935   3.691   5.303   6.042
 7346SOL     OW22936   5.217   4.496   2.886
 7346SOL    HW122937   5.190   4.421   2.947
 7346SOL    HW222938   5.298   4.470   2.835
 7347SOL     OW22939   5.739   2.444   6.630
 7347SOL    HW122940   5.685   2.407   6.706
 7347SOL    HW222941   5.812   2.502   6.665
 7348SOL     OW22942   6.844   5.028   1.588
 7348SOL    HW122943   6.819   5.000   1.495
 7348SOL    HW222944   6.808   4.962   1.654
 7349SOL     OW22945   3.901   1.977   1.654
 7349SOL    HW122946   3.985   2.022   1.624
 7349SOL    HW222947   3.892   1.985   1.754
 7350SOL     OW22948   3.566   0.303   5.068
 7350SOL    HW122949   3.585   0.401   5.073
 7350SOL    HW222950   3.603   0.265   4.983
 7351SOL     OW22951   3.279   4.869   4.065
 7351SOL    HW122952   3.313   4.943   4.123
 7351SOL    HW222953   3.271   4.785   4.120
 7352SOL     OW22954   6.635   2.417   3.606
 7352SOL    HW122955   6.599   2.428   3.699
 7352SOL    HW222956   6.725   2.459   3.599
 7353SOL     OW22957   6.077   0.388   6.621
 7353SOL    HW122958   6.020   0.381   6.539
 7353SOL    HW222959   6.099   0.483   6.639
 7354SOL     OW22960   0.958   1.612   2.869
 7354SOL    HW122961   0.860   1.613   2.889
 7354SOL    HW222962   0.993   1.706   2.874
 7355SOL     OW22963   1.511   2.114   6.988
 7355SOL    HW122964   1.505   2.206   6.950
 7355SOL    HW222965   1.601   2.100   0.012
 7356SOL     OW22966   4.601   4.354   6.075
 7356SOL    HW122967   4.694   4.378   6.050
 7356SOL    HW222968   4.578   4.265   6.034
 7357SOL     OW22969   5.274   5.842   2.224
 7357SOL    HW122970   5.312   5.871   2.312
 7357SOL    HW222971   5.194   5.783   2.240
 7358SOL     OW22972   5.574   0.716   3.627
 7358SOL    HW122973   5.544   0.656   3.701
 7358SOL    HW222974   5.506   0.716   3.554
 7359SOL     OW22975   5.104   0.138   0.802
 7359SOL    HW122976   5.202   0.117   0.795
 7359SOL    HW222977   5.090   0.202   0.878
 7360SOL     OW22978   2.831   3.732   5.294
 7360SOL    HW122979   2.897   3.700   5.227
 7360SOL    HW222980   2.824   3.831   5.291
 7361SOL     OW22981   5.262   0.349   3.584
 7361SOL    HW122982   5.188   0.416   3.573
 7361SOL    HW222983   5.264   0.318   3.680
 7362SOL     OW22984   3.813   5.412   6.407
 7362SOL    HW122985   3.822   5.336   6.342
 7362SOL    HW222986   3.718   5.418   6.437
 7363SOL     OW22987   3.744   0.526   1.307
 7363SOL    HW122988   3.836   0.542   1.343
 7363SOL    HW222989   3.732   0.429   1.289
 7364SOL     OW22990   5.550   6.969   1.500
 7364SOL    HW122991   5.578   6.919   1.419
 7364SOL    HW222992   5.555   0.052   1.483
 7365SOL     OW22993   5.792   4.719   2.074
 7365SOL    HW122994   5.863   4.748   2.010
 7365SOL    HW222995   5.776   4.621   2.065
 7366SOL     OW22996   2.110   1.248   4.177
 7366SOL    HW122997   2.109   1.268   4.275
 7366SOL    HW222998   2.060   1.163   4.161
 7367SOL     OW22999   4.181   0.104   6.660
 7367SOL    HW123000   4.178   0.017   6.612
 7367SOL    HW223001   4.091   0.147   6.658
 7368SOL     OW23002   3.978   3.676   3.311
 7368SOL    HW123003   3.949   3.771   3.304
 7368SOL    HW223004   3.960   3.628   3.225
 7369SOL     OW23005   5.314   2.253   0.956
 7369SOL    HW123006   5.309   2.274   0.858
 7369SOL    HW223007   5.256   2.175   0.977
 7370SOL     OW23008   2.053   1.686   4.256
 7370SOL    HW123009   2.152   1.688   4.270
 7370SOL    HW223010   2.030   1.612   4.193
 7371SOL     OW23011   3.876   0.801   3.567
 7371SOL    HW123012   3.869   0.880   3.628
 7371SOL    HW223013   3.859   0.831   3.473
 7372SOL     OW23014   5.274   0.644   5.387
 7372SOL    HW123015   5.321   0.729   5.410
 7372SOL    HW223016   5.188   0.639   5.438
 7373SOL     OW23017   5.749   3.307   4.116
 7373SOL    HW123018   5.665   3.308   4.170
 7373SOL    HW223019   5.814   3.374   4.152
 7374SOL     OW23020   6.390   1.728   5.513
 7374SOL    HW123021   6.344   1.639   5.518
 7374SOL    HW223022   6.436   1.747   5.600
 7375SOL     OW23023   1.835   3.630   1.989
 7375SOL    HW123024   1.783   3.673   1.915
 7375SOL    HW223025   1.782   3.635   2.074
 7376SOL     OW23026   0.018   3.672   6.958
 7376SOL    HW123027   6.954   3.729   6.936
 7376SOL    HW223028   0.089   3.685   6.889
 7377SOL     OW23029   3.027   6.052   1.181
 7377SOL    HW123030   2.936   6.071   1.143
 7377SOL    HW223031   3.040   5.953   1.187
 7378SOL     OW23032   1.274   6.042   3.703
 7378SOL    HW123033   1.224   6.128   3.709
 7378SOL    HW223034   1.333   6.033   3.783
 7379SOL     OW23035   3.899   0.893   1.061
 7379SOL    HW123036   3.805   0.898   1.094
 7379SOL    HW223037   3.961   0.887   1.140
 7380SOL     OW23038   5.192   3.683   2.126
 7380SOL    HW123039   5.269   3.645   2.075
 7380SOL    HW223040   5.152   3.758   2.075
 7381SOL     OW23041   3.565   1.024   0.662
 7381SOL    HW123042   3.522   0.964   0.595
 7381SOL    HW223043   3.650   0.982   0.695
 7382SOL     OW23044   6.345   1.372   6.422
 7382SOL    HW123045   6.328   1.470   6.431
 7382SOL    HW223046   6.344   1.347   6.326
 7383SOL     OW23047   2.027   6.898   0.549
 7383SOL    HW123048   1.958   6.858   0.609
 7383SOL    HW223049   2.008   6.996   0.538
 7384SOL     OW23050   6.814   7.013   1.222
 7384SOL    HW123051   6.737   6.962   1.263
 7384SOL    HW223052   6.863   0.046   1.294
 7385SOL     OW23053   5.803   4.082   3.027
 7385SOL    HW123054   5.897   4.047   3.034
 7385SOL    HW223055   5.769   4.102   3.119
 7386SOL     OW23056   5.734   3.416   0.430
 7386SOL    HW123057   5.736   3.318   0.448
 7386SOL    HW223058   5.822   3.445   0.393
 7387SOL     OW23059   6.968   5.787   5.436
 7387SOL    HW123060   6.946   5.696   5.470
 7387SOL    HW223061   0.041   5.784   5.389
 7388SOL     OW23062   2.316   5.543   2.552
 7388SOL    HW123063   2.304   5.526   2.650
 7388SOL    HW223064   2.278   5.466   2.501
 7389SOL     OW23065   5.826   3.146   0.008
 7389SOL    HW123066   5.925   3.158   7.013
 7389SOL    HW223067   5.797   3.064   6.974
 7390SOL     OW23068   2.508   2.563   2.908
 7390SOL    HW123069   2.570   2.490   2.879
 7390SOL    HW223070   2.519   2.579   3.006
 7391SOL     OW23071   3.998   3.131   3.294
 7391SOL    HW123072   4.022   3.206   3.357
 7391SOL    HW223073   4.038   3.150   3.204
 7392SOL     OW23074   3.069   6.249   6.722
 7392SOL    HW123075   3.090   6.326   6.783
 7392SOL    HW223076   3.044   6.169   6.777
 7393SOL     OW23077   5.435   5.332   4.287
 7393SOL    HW123078   5.506   5.401   4.275
 7393SOL    HW223079   5.351   5.377   4.319
 7394SOL     OW23080   2.874   1.687   6.121
 7394SOL    HW123081   2.885   1.709   6.217
 7394SOL    HW223082   2.941   1.617   6.095
 7395SOL     OW23083   2.897   5.394   0.905
 7395SOL    HW123084   2.956   5.464   0.947
 7395SOL    HW223085   2.817   5.438   0.864
 7396SOL     OW23086   2.585   5.444   1.954
 7396SOL    HW123087   2.557   5.406   1.866
 7396SOL    HW223088   2.685   5.441   1.961
 7397SOL     OW23089   5.845   4.391   4.176
 7397SOL    HW123090   5.788   4.338   4.238
 7397SOL    HW223091   5.791   4.464   4.134
 7398SOL     OW23092   2.451   4.533   2.390
 7398SOL    HW123093   2.500   4.552   2.306
 7398SOL    HW223094   2.418   4.439   2.389
 7399SOL     OW23095   4.923   2.442   5.113
 7399SOL    HW123096   4.840   2.392   5.087
 7399SOL    HW223097   5.003   2.400   5.069
 7400SOL     OW23098   5.380   2.990   5.616
 7400SOL    HW123099   5.422   3.053   5.681
 7400SOL    HW223100   5.347   2.909   5.664
 7401SOL     OW23101   1.607   2.740   3.803
 7401SOL    HW123102   1.545   2.787   3.866
 7401SOL    HW223103   1.693   2.720   3.850
 7402SOL     OW23104   3.354   6.150   4.497
 7402SOL    HW123105   3.367   6.201   4.582
 7402SOL    HW223106   3.443   6.116   4.465
 7403SOL     OW23107   1.743   4.021   4.136
 7403SOL    HW123108   1.643   4.010   4.134
 7403SOL    HW223109   1.774   4.025   4.231
 7404SOL     OW23110   3.349   3.333   1.050
 7404SOL    HW123111   3.385   3.426   1.047
 7404SOL    HW223112   3.388   3.284   1.128
 7405SOL     OW23113   3.674   6.534   4.030
 7405SOL    HW123114   3.639   6.459   4.086
 7405SOL    HW223115   3.611   6.551   3.955
 7406SOL     OW23116   0.939   1.300   5.192
 7406SOL    HW123117   0.972   1.341   5.107
 7406SOL    HW223118   0.852   1.341   5.218
 7407SOL     OW23119   1.000   5.864   5.467
 7407SOL    HW123120   0.937   5.792   5.495
 7407SOL    HW223121   0.970   5.903   5.380
 7408SOL     OW23122   3.718   4.839   5.294
 7408SOL    HW123123   3.770   4.880   5.369
 7408SOL    HW223124   3.653   4.906   5.259
 7409SOL     OW23125   6.294   3.240   1.059
 7409SOL    HW123126   6.385   3.216   1.025
 7409SOL    HW223127   6.268   3.330   1.024
 7410SOL     OW23128   0.417   0.712   1.136
 7410SOL    HW123129   0.516   0.706   1.127
 7410SOL    HW223130   0.382   0.785   1.078
 7411SOL     OW23131   1.618   1.760   5.282
 7411SOL    HW123132   1.707   1.715   5.282
 7411SOL    HW223133   1.556   1.712   5.344
 7412SOL     OW23134   4.226   6.617   0.249
 7412SOL    HW123135   4.229   6.591   0.153
 7412SOL    HW223136   4.242   6.536   0.306
 7413SOL     OW23137   4.364   6.864   3.697
 7413SOL    HW123138   4.387   6.807   3.776
 7413SOL    HW223139   4.343   6.957   3.727
 7414SOL     OW23140   3.497   1.511   4.219
 7414SOL    HW123141   3.538   1.511   4.310
 7414SOL    HW223142   3.397   1.515   4.228
 7415SOL     OW23143   3.782   6.331   6.338
 7415SOL    HW123144   3.784   6.416   6.284
 7415SOL    HW223145   3.829   6.346   6.425
 7416SOL     OW23146   1.320   0.879   1.973
 7416SOL    HW123147   1.315   0.783   1.945
 7416SOL    HW223148   1.247   0.898   2.038
 7417SOL     OW23149   0.257   1.059   3.289
 7417SOL    HW123150   0.337   1.010   3.253
 7417SOL    HW223151   0.250   1.043   3.388
 7418SOL     OW23152   1.790   3.945   5.993
 7418SOL    HW123153   1.691   3.938   5.979
 7418SOL    HW223154   1.837   3.882   5.931
 7419SOL     OW23155   6.992   3.810   3.883
 7419SOL    HW123156   7.000   3.852   3.973
 7419SOL    HW223157   6.898   3.780   3.868
 7420SOL     OW23158   6.713   0.002   1.832
 7420SOL    HW123159   6.788   6.963   1.795
 7420SOL    HW223160   6.657   0.038   1.757
 7421SOL     OW23161   5.375   4.119   1.210
 7421SOL    HW123162   5.460   4.086   1.169
 7421SOL    HW223163   5.312   4.147   1.138
 7422SOL     OW23164   5.537   2.042   2.854
 7422SOL    HW123165   5.455   2.098   2.855
 7422SOL    HW223166   5.514   1.949   2.883
 7423SOL     OW23167   5.117   1.757   5.640
 7423SOL    HW123168   5.152   1.842   5.599
 7423SOL    HW223169   5.191   1.691   5.647
 7424SOL     OW23170   1.052   2.326   3.648
 7424SOL    HW123171   1.007   2.392   3.708
 7424SOL    HW223172   0.983   2.277   3.595
 7425SOL     OW23173   5.759   0.539   1.171
 7425SOL    HW123174   5.767   0.552   1.072
 7425SOL    HW223175   5.792   0.621   1.219
 7426SOL     OW23176   3.995   3.293   5.591
 7426SOL    HW123177   4.063   3.362   5.569
 7426SOL    HW223178   4.028   3.203   5.563
 7427SOL     OW23179   2.864   0.773   3.445
 7427SOL    HW123180   2.883   0.786   3.542
 7427SOL    HW223181   2.769   0.745   3.433
 7428SOL     OW23182   4.450   6.141   5.100
 7428SOL    HW123183   4.357   6.129   5.066
 7428SOL    HW223184   4.515   6.129   5.024
 7429SOL     OW23185   1.603   6.674   2.742
 7429SOL    HW123186   1.655   6.690   2.658
 7429SOL    HW223187   1.667   6.661   2.818
 7430SOL     OW23188   6.535   5.323   2.597
 7430SOL    HW123189   6.454   5.368   2.559
 7430SOL    HW223190   6.576   5.382   2.666
 7431SOL     OW23191   1.341   1.452   3.688
 7431SOL    HW123192   1.278   1.523   3.657
 7431SOL    HW223193   1.398   1.488   3.763
 7432SOL     OW23194   2.363   0.579   3.051
 7432SOL    HW123195   2.345   0.591   3.149
 7432SOL    HW223196   2.390   0.667   3.011
 7433SOL     OW23197   2.739   0.206   6.636
 7433SOL    HW123198   2.757   0.284   6.575
 7433SOL    HW223199   2.759   0.232   6.730
 7434SOL     OW23200   4.094   6.820   4.909
 7434SOL    HW123201   4.010   6.858   4.870
 7434SOL    HW223202   4.170   6.835   4.845
 7435SOL     OW23203   4.978   4.400   2.733
 7435SOL    HW123204   5.029   4.464   2.790
 7435SOL    HW223205   5.004   4.306   2.755
 7436SOL     OW23206   5.477   2.905   5.974
 7436SOL    HW123207   5.486   2.864   6.065
 7436SOL    HW223208   5.554   2.966   5.957
 7437SOL     OW23209   3.049   6.773   0.790
 7437SOL    HW123210   3.074   6.794   0.696
 7437SOL    HW223211   3.112   6.820   0.852
 7438SOL     OW23212   1.884   0.487   6.993
 7438SOL    HW123213   1.879   0.443   0.068
 7438SOL    HW223214   1.829   0.434   6.928
 7439SOL     OW23215   1.389   4.302   6.941
 7439SOL    HW123216   1.478   4.346   6.927
 7439SOL    HW223217   1.318   4.372   6.945
 7440SOL     OW23218   5.554   3.588   3.978
 7440SOL    HW123219   5.613   3.612   4.055
 7440SOL    HW223220   5.562   3.490   3.960
 7441SOL     OW23221   5.563   5.577   1.012
 7441SOL    HW123222   5.583   5.614   0.921
 7441SOL    HW223223   5.465   5.582   1.030
 7442SOL     OW23224   5.342   0.508   5.932
 7442SOL    HW123225   5.252   0.541   5.959
 7442SOL    HW223226   5.410   0.536   5.999
 7443SOL     OW23227   0.599   1.220   2.137
 7443SOL    HW123228   0.500   1.211   2.143
 7443SOL    HW223229   0.626   1.313   2.164
 7444SOL     OW23230   1.985   6.532   6.786
 7444SOL    HW123231   1.993   6.573   6.877
 7444SOL    HW223232   1.909   6.575   6.737
 7445SOL     OW23233   4.194   6.452   1.649
 7445SOL    HW123234   4.149   6.493   1.569
 7445SOL    HW223235   4.286   6.422   1.624
 7446SOL     OW23236   5.483   4.300   0.476
 7446SOL    HW123237   5.548   4.319   0.403
 7446SOL    HW223238   5.410   4.241   0.441
 7447SOL     OW23239   0.339   4.583   0.904
 7447SOL    HW123240   0.429   4.546   0.927
 7447SOL    HW223241   0.327   4.671   0.949
 7448SOL     OW23242   4.781   5.326   6.806
 7448SOL    HW123243   4.845   5.291   6.875
 7448SOL    HW223244   4.821   5.316   6.715
 7449SOL     OW23245   0.491   4.467   6.252
 7449SOL    HW123246   0.398   4.442   6.224
 7449SOL    HW223247   0.555   4.397   6.223
 7450SOL     OW23248   5.457   2.134   5.340
 7450SOL    HW123249   5.556   2.146   5.345
 7450SOL    HW223250   5.436   2.054   5.282
 7451SOL     OW23251   4.851   4.480   3.103
 7451SOL    HW123252   4.840   4.383   3.079
 7451SOL    HW223253   4.932   4.491   3.161
 7452SOL     OW23254   5.919   5.416   5.669
 7452SOL    HW123255   5.926   5.325   5.627
 7452SOL    HW223256   5.882   5.407   5.761
 7453SOL     OW23257   3.500   5.927   5.945
 7453SOL    HW123258   3.599   5.920   5.960
 7453SOL    HW223259   3.456   5.842   5.974
 7454SOL     OW23260   4.559   2.122   0.846
 7454SOL    HW123261   4.531   2.189   0.915
 7454SOL    HW223262   4.658   2.114   0.845
 7455SOL     OW23263   6.736   2.019   3.046
 7455SOL    HW123264   6.750   2.041   3.142
 7455SOL    HW223265   6.725   2.104   2.993
 7456SOL     OW23266   2.665   2.263   6.004
 7456SOL    HW123267   2.594   2.305   6.060
 7456SOL    HW223268   2.742   2.236   6.063
 7457SOL     OW23269   2.426   0.816   2.936
 7457SOL    HW123270   2.376   0.887   2.987
 7457SOL    HW223271   2.411   0.829   2.838
 7458SOL     OW23272   1.815   4.952   5.001
 7458SOL    HW123273   1.842   4.859   4.977
 7458SOL    HW223274   1.858   4.978   5.087
 7459SOL     OW23275   5.802   0.500   2.527
 7459SOL    HW123276   5.733   0.485   2.457
 7459SOL    HW223277   5.783   0.443   2.607
 7460SOL     OW23278   2.176   6.233   0.687
 7460SOL    HW123279   2.156   6.248   0.784
 7460SOL    HW223280   2.130   6.303   0.632
 7461SOL     OW23281   1.932   4.470   6.177
 7461SOL    HW123282   1.890   4.560   6.185
 7461SOL    HW223283   1.868   4.407   6.133
 7462SOL     OW23284   1.293   4.486   0.344
 7462SOL    HW123285   1.298   4.418   0.272
 7462SOL    HW223286   1.251   4.446   0.425
 7463SOL     OW23287   3.973   5.327   1.390
 7463SOL    HW123288   4.073   5.329   1.401
 7463SOL    HW223289   3.938   5.421   1.391
 7464SOL     OW23290   6.111   6.212   5.357
 7464SOL    HW123291   6.100   6.161   5.272
 7464SOL    HW223292   6.032   6.273   5.369
 7465SOL     OW23293   1.684   4.999   0.224
 7465SOL    HW123294   1.629   4.933   0.173
 7465SOL    HW223295   1.636   5.087   0.226
 7466SOL     OW23296   0.561   0.439   5.131
 7466SOL    HW123297   0.611   0.405   5.211
 7466SOL    HW223298   0.625   0.447   5.054
 7467SOL     OW23299   0.504   3.064   5.264
 7467SOL    HW123300   0.575   2.994   5.276
 7467SOL    HW223301   0.461   3.084   5.352
 7468SOL     OW23302   5.875   3.956   5.706
 7468SOL    HW123303   5.877   3.969   5.607
 7468SOL    HW223304   5.798   3.897   5.729
 7469SOL     OW23305   6.870   2.486   0.902
 7469SOL    HW123306   6.818   2.549   0.959
 7469SOL    HW223307   6.896   2.531   0.817
 7470SOL     OW23308   5.743   2.577   3.480
 7470SOL    HW123309   5.655   2.587   3.526
 7470SOL    HW223310   5.797   2.507   3.526
 7471SOL     OW23311   4.121   6.153   6.083
 7471SOL    HW123312   4.183   6.097   6.138
 7471SOL    HW223313   4.113   6.113   5.992
 7472SOL     OW23314   6.079   6.829   5.786
 7472SOL    HW123315   6.062   6.913   5.836
 7472SOL    HW223316   6.093   6.849   5.689
 7473SOL     OW23317   3.503   5.770   3.904
 7473SOL    HW123318   3.494   5.820   3.819
 7473SOL    HW223319   3.416   5.771   3.953
 7474SOL     OW23320   5.652   1.597   6.601
 7474SOL    HW123321   5.713   1.675   6.614
 7474SOL    HW223322   5.704   1.520   6.564
 7475SOL     OW23323   5.157   2.068   1.055
 7475SOL    HW123324   5.107   2.133   1.112
 7475SOL    HW223325   5.190   1.993   1.112
 7476SOL     OW23326   2.220   0.357   3.119
 7476SOL    HW123327   2.287   0.362   3.193
 7476SOL    HW223328   2.250   0.414   3.043
 7477SOL     OW23329   0.580   4.040   5.056
 7477SOL    HW123330   0.515   4.031   4.981
 7477SOL    HW223331   0.625   3.952   5.073
 7478SOL     OW23332   0.680   1.092   6.193
 7478SOL    HW123333   0.740   1.108   6.115
 7478SOL    HW223334   0.601   1.039   6.164
 7479SOL     OW23335   5.144   2.856   0.214
 7479SOL    HW123336   5.186   2.947   0.208
 7479SOL    HW223337   5.136   2.828   0.310
 7480SOL     OW23338   3.591   4.884   2.474
 7480SOL    HW123339   3.650   4.904   2.395
 7480SOL    HW223340   3.498   4.916   2.455
 7481SOL     OW23341   0.200   3.612   6.747
 7481SOL    HW123342   0.147   3.527   6.743
 7481SOL    HW223343   0.287   3.599   6.700
 7482SOL     OW23344   5.085   2.438   2.804
 7482SOL    HW123345   5.180   2.408   2.810
 7482SOL    HW223346   5.056   2.477   2.891
 7483SOL     OW23347   4.798   1.943   5.331
 7483SOL    HW123348   4.879   1.885   5.322
 7483SOL    HW223349   4.725   1.906   5.273
 7484SOL     OW23350   3.107   6.698   3.846
 7484SOL    HW123351   3.034   6.767   3.840
 7484SOL    HW223352   3.182   6.724   3.785
 7485SOL     OW23353   3.576   6.596   5.453
 7485SOL    HW123354   3.588   6.649   5.369
 7485SOL    HW223355   3.628   6.640   5.527
 7486SOL     OW23356   2.457   6.565   1.141
 7486SOL    HW123357   2.441   6.663   1.154
 7486SOL    HW223358   2.424   6.515   1.221
 7487SOL     OW23359   3.982   6.030   4.372
 7487SOL    HW123360   4.058   6.096   4.373
 7487SOL    HW223361   3.935   6.032   4.460
 7488SOL     OW23362   0.567   5.533   4.233
 7488SOL    HW123363   0.592   5.538   4.136
 7488SOL    HW223364   0.555   5.437   4.259
 7489SOL     OW23365   5.312   3.111   0.022
 7489SOL    HW123366   5.379   3.036   0.015
 7489SOL    HW223367   5.307   3.143   0.116
 7490SOL     OW23368   0.770   2.482   2.412
 7490SOL    HW123369   0.742   2.572   2.381
 7490SOL    HW223370   0.870   2.476   2.412
 7491SOL     OW23371   4.025   3.325   0.459
 7491SOL    HW123372   4.084   3.340   0.538
 7491SOL    HW223373   4.058   3.245   0.408
 7492SOL     OW23374   1.381   0.011   4.455
 7492SOL    HW123375   1.368   0.078   4.527
 7492SOL    HW223376   1.479   7.014   4.437
 7493SOL     OW23377   6.657   4.515   5.261
 7493SOL    HW123378   6.674   4.482   5.354
 7493SOL    HW223379   6.558   4.523   5.246
 7494SOL     OW23380   0.055   1.079   2.103
 7494SOL    HW123381   7.010   1.151   2.139
 7494SOL    HW223382   0.016   1.040   2.021
 7495SOL     OW23383   1.803   3.965   5.039
 7495SOL    HW123384   1.827   3.878   4.997
 7495SOL    HW223385   1.731   3.950   5.108
 7496SOL     OW23386   5.909   4.351   2.477
 7496SOL    HW123387   5.977   4.292   2.433
 7496SOL    HW223388   5.924   4.351   2.576
 7497SOL     OW23389   6.992   6.767   1.355
 7497SOL    HW123390   0.061   6.795   1.402
 7497SOL    HW223391   6.999   6.790   1.258
 7498SOL     OW23392   3.304   6.918   2.762
 7498SOL    HW123393   3.245   6.990   2.799
 7498SOL    HW223394   3.263   6.881   2.679
 7499SOL     OW23395   3.066   1.474   3.890
 7499SOL    HW123396   2.998   1.503   3.823
 7499SOL    HW223397   3.140   1.541   3.894
 7500SOL     OW23398   3.822   0.036   3.325
 7500SOL    HW123399   3.838   6.959   3.291
 7500SOL    HW223400   3.877   0.052   3.407
 7501SOL     OW23401   6.048   2.417   5.088
 7501SOL    HW123402   6.145   2.414   5.108
 7501SOL    HW223403   6.020   2.512   5.071
 7502SOL     OW23404   4.473   0.551   3.901
 7502SOL    HW123405   4.480   0.594   3.991
 7502SOL    HW223406   4.457   0.622   3.832
 7503SOL     OW23407   1.768   5.870   1.424
 7503SOL    HW123408   1.794   5.791   1.369
 7503SOL    HW223409   1.841   5.891   1.490
 7504SOL     OW23410   6.705   6.866   4.707
 7504SOL    HW123411   6.668   6.773   4.708
 7504SOL    HW223412   6.802   6.863   4.681
 7505SOL     OW23413   0.237   6.199   5.367
 7505SOL    HW123414   0.241   6.272   5.435
 7505SOL    HW223415   0.270   6.114   5.408
 7506SOL     OW23416   3.598   1.796   3.691
 7506SOL    HW123417   3.503   1.824   3.707
 7506SOL    HW223418   3.658   1.876   3.701
 7507SOL     OW23419   6.535   4.455   5.726
 7507SOL    HW123420   6.470   4.405   5.783
 7507SOL    HW223421   6.585   4.391   5.668
 7508SOL     OW23422   2.477   5.710   0.283
 7508SOL    HW123423   2.384   5.702   0.250
 7508SOL    HW223424   2.480   5.685   0.380
 7509SOL     OW23425   6.012   5.050   1.673
 7509SOL    HW123426   6.101   5.065   1.716
 7509SOL    HW223427   6.021   4.980   1.602
 7510SOL     OW23428   3.371   3.792   3.068
 7510SOL    HW123429   3.321   3.877   3.051
 7510SOL    HW223430   3.379   3.778   3.167
 7511SOL     OW23431   4.294   6.667   4.428
 7511SOL    HW123432   4.339   6.716   4.502
 7511SOL    HW223433   4.245   6.588   4.464
 7512SOL     OW23434   3.662   0.807   0.256
 7512SOL    HW123435   3.632   0.788   0.163
 7512SOL    HW223436   3.751   0.851   0.254
 7513SOL     OW23437   1.371   2.402   2.516
 7513SOL    HW123438   1.369   2.302   2.515
 7513SOL    HW223439   1.425   2.435   2.439
 7514SOL     OW23440   1.235   5.698   1.454
 7514SOL    HW123441   1.280   5.787   1.451
 7514SOL    HW223442   1.245   5.658   1.544
 7515SOL     OW23443   0.397   5.052   5.304
 7515SOL    HW123444   0.306   5.078   5.336
 7515SOL    HW223445   0.452   5.019   5.381
 7516SOL     OW23446   1.548   6.257   5.457
 7516SOL    HW123447   1.593   6.181   5.504
 7516SOL    HW223448   1.451   6.236   5.445
 7517SOL     OW23449   0.647   1.381   5.910
 7517SOL    HW123450   0.728   1.386   5.968
 7517SOL    HW223451   0.654   1.450   5.837
 7518SOL     OW23452   4.709   2.282   3.723
 7518SOL    HW123453   4.658   2.337   3.790
 7518SOL    HW223454   4.776   2.226   3.771
 7519SOL     OW23455   3.770   6.058   4.200
 7519SOL    HW123456   3.798   6.135   4.141
 7519SOL    HW223457   3.843   6.038   4.265
 7520SOL     OW23458   1.655   1.412   0.347
 7520SOL    HW123459   1.697   1.323   0.330
 7520SOL    HW223460   1.726   1.483   0.346
 7521SOL     OW23461   3.670   1.929   5.524
 7521SOL    HW123462   3.646   2.026   5.530
 7521SOL    HW223463   3.703   1.908   5.432
 7522SOL     OW23464   2.089   6.909   3.045
 7522SOL    HW123465   2.141   6.834   3.086
 7522SOL    HW223466   2.151   6.984   3.021
 7523SOL     OW23467   5.515   1.379   0.526
 7523SOL    HW123468   5.450   1.382   0.451
 7523SOL    HW223469   5.496   1.454   0.590
 7524SOL     OW23470   6.995   3.258   4.761
 7524SOL    HW123471   7.014   3.318   4.684
 7524SOL    HW223472   6.938   3.305   4.828
 7525SOL     OW23473   3.996   5.855   6.258
 7525SOL    HW123474   4.043   5.851   6.346
 7525SOL    HW223475   3.969   5.950   6.239
 7526SOL     OW23476   2.346   3.414   1.551
 7526SOL    HW123477   2.392   3.453   1.471
 7526SOL    HW223478   2.404   3.425   1.631
 7527SOL     OW23479   3.991   4.780   3.649
 7527SOL    HW123480   4.072   4.833   3.675
 7527SOL    HW223481   4.009   4.731   3.564
 7528SOL     OW23482   5.884   2.996   6.354
 7528SOL    HW123483   5.922   3.068   6.296
 7528SOL    HW223484   5.939   2.914   6.345
 7529SOL     OW23485   6.224   2.769   3.975
 7529SOL    HW123486   6.210   2.670   3.972
 7529SOL    HW223487   6.146   2.815   3.931
 7530SOL     OW23488   0.743   2.101   1.754
 7530SOL    HW123489   0.783   2.011   1.733
 7530SOL    HW223490   0.708   2.100   1.848
 7531SOL     OW23491   4.238   1.902   3.839
 7531SOL    HW123492   4.282   1.903   3.929
 7531SOL    HW223493   4.139   1.909   3.850
 7532SOL     OW23494   4.628   5.466   6.562
 7532SOL    HW123495   4.597   5.495   6.653
 7532SOL    HW223496   4.607   5.369   6.549
 7533SOL     OW23497   4.263   4.459   1.736
 7533SOL    HW123498   4.200   4.397   1.688
 7533SOL    HW223499   4.339   4.407   1.775
 7534SOL     OW23500   3.890   0.031   4.571
 7534SOL    HW123501   3.922   7.012   4.482
 7534SOL    HW223502   3.814   0.094   4.557
 7535SOL     OW23503   0.731   6.239   3.969
 7535SOL    HW123504   0.676   6.296   3.909
 7535SOL    HW223505   0.767   6.161   3.918
 7536SOL     OW23506   5.180   6.173   4.529
 7536SOL    HW123507   5.168   6.085   4.483
 7536SOL    HW223508   5.185   6.246   4.461
 7537SOL     OW23509   2.458   6.911   2.950
 7537SOL    HW123510   2.467   7.010   2.942
 7537SOL    HW223511   2.529   6.866   2.894
 7538SOL     OW23512   0.387   3.567   0.473
 7538SOL    HW123513   0.388   3.654   0.424
 7538SOL    HW223514   0.464   3.563   0.535
 7539SOL     OW23515   0.200   0.380   4.158
 7539SOL    HW123516   0.191   0.336   4.068
 7539SOL    HW223517   0.269   0.333   4.212
 7540SOL     OW23518   5.932   5.627   2.930
 7540SOL    HW123519   6.020   5.642   2.974
 7540SOL    HW223520   5.871   5.703   2.952
 7541SOL     OW23521   2.310   4.393   6.202
 7541SOL    HW123522   2.243   4.397   6.276
 7541SOL    HW223523   2.263   4.397   6.114
 7542SOL     OW23524   6.265   5.859   5.272
 7542SOL    HW123525   6.170   5.854   5.242
 7542SOL    HW223526   6.325   5.846   5.193
 7543SOL     OW23527   2.493   1.110   6.812
 7543SOL    HW123528   2.447   1.088   6.725
 7543SOL    HW223529   2.537   1.200   6.804
 7544SOL     OW23530   6.620   1.951   4.148
 7544SOL    HW123531   6.612   1.873   4.087
 7544SOL    HW223532   6.708   1.949   4.194
 7545SOL     OW23533   1.416   4.812   6.037
 7545SOL    HW123534   1.328   4.853   6.016
 7545SOL    HW223535   1.455   4.855   6.118
 7546SOL     OW23536   2.312   2.721   1.868
 7546SOL    HW123537   2.396   2.678   1.902
 7546SOL    HW223538   2.331   2.772   1.785
 7547SOL     OW23539   4.409   0.139   1.262
 7547SOL    HW123540   4.508   0.149   1.248
 7547SOL    HW223541   4.362   0.146   1.175
 7548SOL     OW23542   3.403   2.436   6.080
 7548SOL    HW123543   3.421   2.491   5.998
 7548SOL    HW223544   3.425   2.488   6.162
 7549SOL     OW23545   5.591   2.004   4.111
 7549SOL    HW123546   5.507   2.028   4.161
 7549SOL    HW223547   5.579   1.915   4.067
 7550SOL     OW23548   2.657   4.774   4.221
 7550SOL    HW123549   2.571   4.797   4.175
 7550SOL    HW223550   2.637   4.717   4.301
 7551SOL     OW23551   6.459   2.611   5.953
 7551SOL    HW123552   6.509   2.569   5.878
 7551SOL    HW223553   6.369   2.640   5.921
 7552SOL     OW23554   2.644   6.506   5.035
 7552SOL    HW123555   2.631   6.409   5.014
 7552SOL    HW223556   2.739   6.522   5.061
 7553SOL     OW23557   5.480   6.188   5.612
 7553SOL    HW123558   5.497   6.250   5.536
 7553SOL    HW223559   5.455   6.242   5.693
 7554SOL     OW23560   4.885   0.839   1.156
 7554SOL    HW123561   4.901   0.887   1.070
 7554SOL    HW223562   4.803   0.875   1.200
 7555SOL     OW23563   3.979   5.235   5.018
 7555SOL    HW123564   3.993   5.196   5.109
 7555SOL    HW223565   3.912   5.310   5.024
 7556SOL     OW23566   0.486   6.448   1.575
 7556SOL    HW123567   0.556   6.389   1.615
 7556SOL    HW223568   0.484   6.436   1.476
 7557SOL     OW23569   4.615   0.575   0.909
 7557SOL    HW123570   4.700   0.545   0.865
 7557SOL    HW223571   4.575   0.499   0.960
 7558SOL     OW23572   1.040   1.691   4.266
 7558SOL    HW123573   1.092   1.716   4.184
 7558SOL    HW223574   1.023   1.592   4.265
 7559SOL     OW23575   2.754   1.635   5.251
 7559SOL    HW123576   2.823   1.671   5.313
 7559SOL    HW223577   2.750   1.691   5.168
 7560SOL     OW23578   0.720   1.718   5.965
 7560SOL    HW123579   0.699   1.671   5.880
 7560SOL    HW223580   0.692   1.661   6.042
 7561SOL     OW23581   5.814   1.541   5.126
 7561SOL    HW123582   5.743   1.581   5.183
 7561SOL    HW223583   5.897   1.597   5.131
 7562SOL     OW23584   2.067   5.913   3.530
 7562SOL    HW123585   2.126   5.833   3.542
 7562SOL    HW223586   2.112   5.994   3.566
 7563SOL     OW23587   3.427   5.544   2.219
 7563SOL    HW123588   3.524   5.564   2.201
 7563SOL    HW223589   3.410   5.447   2.202
 7564SOL     OW23590   3.511   2.173   5.486
 7564SOL    HW123591   3.477   2.179   5.392
 7564SOL    HW223592   3.437   2.194   5.550
 7565SOL     OW23593   6.439   3.951   5.484
 7565SOL    HW123594   6.379   4.026   5.511
 7565SOL    HW223595   6.397   3.863   5.508
 7566SOL     OW23596   4.442   4.784   1.232
 7566SOL    HW123597   4.473   4.789   1.327
 7566SOL    HW223598   4.479   4.701   1.190
 7567SOL     OW23599   1.507   0.258   4.102
 7567SOL    HW123600   1.603   0.281   4.119
 7567SOL    HW223601   1.500   0.167   4.062
 7568SOL     OW23602   5.810   5.720   2.002
 7568SOL    HW123603   5.789   5.689   2.094
 7568SOL    HW223604   5.894   5.675   1.970
 7569SOL     OW23605   4.759   3.803   0.474
 7569SOL    HW123606   4.755   3.901   0.459
 7569SOL    HW223607   4.830   3.783   0.542
 7570SOL     OW23608   0.395   2.995   2.630
 7570SOL    HW123609   0.459   3.068   2.605
 7570SOL    HW223610   0.388   2.989   2.729
 7571SOL     OW23611   5.020   1.978   3.239
 7571SOL    HW123612   5.038   2.062   3.291
 7571SOL    HW223613   5.062   1.901   3.286
 7572SOL     OW23614   4.417   6.923   3.439
 7572SOL    HW123615   4.392   6.890   3.530
 7572SOL    HW223616   4.334   6.939   3.386
 7573SOL     OW23617   4.767   6.729   5.493
 7573SOL    HW123618   4.736   6.719   5.587
 7573SOL    HW223619   4.845   6.791   5.490
 7574SOL     OW23620   0.860   2.794   3.935
 7574SOL    HW123621   0.949   2.799   3.981
 7574SOL    HW223622   0.867   2.831   3.843
 7575SOL     OW23623   0.341   6.944   1.992
 7575SOL    HW123624   0.410   6.885   1.951
 7575SOL    HW223625   0.273   6.888   2.040
 7576SOL     OW23626   5.293   2.442   0.443
 7576SOL    HW123627   5.221   2.434   0.374
 7576SOL    HW223628   5.317   2.538   0.456
 7577SOL     OW23629   0.919   6.667   1.415
 7577SOL    HW123630   0.875   6.753   1.390
 7577SOL    HW223631   0.880   6.635   1.502
 7578SOL     OW23632   6.580   5.952   3.517
 7578SOL    HW123633   6.538   6.008   3.588
 7578SOL    HW223634   6.624   6.010   3.449
 7579SOL     OW23635   0.480   1.173   0.221
 7579SOL    HW123636   0.430   1.088   0.240
 7579SOL    HW223637   0.579   1.156   0.228
 7580SOL     OW23638   2.467   4.850   3.673
 7580SOL    HW123639   2.417   4.794   3.738
 7580SOL    HW223640   2.538   4.795   3.629
 7581SOL     OW23641   6.640   0.768   2.483
 7581SOL    HW123642   6.731   0.778   2.443
 7581SOL    HW223643   6.647   0.731   2.575
 7582SOL     OW23644   2.728   1.140   5.854
 7582SOL    HW123645   2.783   1.219   5.826
 7582SOL    HW223646   2.687   1.097   5.774
 7583SOL     OW23647   5.316   2.926   3.036
 7583SOL    HW123648   5.386   2.913   3.106
 7583SOL    HW223649   5.242   2.982   3.073
 7584SOL     OW23650   0.075   0.869   3.591
 7584SOL    HW123651   0.047   0.904   3.502
 7584SOL    HW223652   0.002   0.815   3.631
 7585SOL     OW23653   1.599   1.222   6.779
 7585SOL    HW123654   1.607   1.318   6.752
 7585SOL    HW223655   1.502   1.196   6.779
 7586SOL     OW23656   1.643   0.941   2.362
 7586SOL    HW123657   1.610   0.955   2.269
 7586SOL    HW223658   1.607   1.012   2.422
 7587SOL     OW23659   4.160   0.744   0.768
 7587SOL    HW123660   4.119   0.768   0.681
 7587SOL    HW223661   4.091   0.702   0.828
 7588SOL     OW23662   1.963   2.903   4.190
 7588SOL    HW123663   2.061   2.886   4.200
 7588SOL    HW223664   1.912   2.835   4.242
 7589SOL     OW23665   0.575   0.498   2.614
 7589SOL    HW123666   0.573   0.451   2.526
 7589SOL    HW223667   0.667   0.530   2.634
 7590SOL     OW23668   6.946   0.828   6.773
 7590SOL    HW123669   6.856   0.804   6.811
 7590SOL    HW223670   6.994   0.888   6.838
 7591SOL     OW23671   3.926   3.049   4.538
 7591SOL    HW123672   4.003   3.112   4.529
 7591SOL    HW223673   3.920   2.992   4.455
 7592SOL     OW23674   0.125   6.775   4.843
 7592SOL    HW123675   0.139   6.683   4.880
 7592SOL    HW223676   0.127   6.842   4.918
 7593SOL     OW23677   1.080   1.106   5.911
 7593SOL    HW123678   1.089   1.010   5.884
 7593SOL    HW223679   1.146   1.161   5.860
 7594SOL     OW23680   0.335   4.232   0.288
 7594SOL    HW123681   0.314   4.299   0.360
 7594SOL    HW223682   0.418   4.260   0.240
 7595SOL     OW23683   0.982   3.049   6.252
 7595SOL    HW123684   0.969   2.951   6.267
 7595SOL    HW223685   0.951   3.072   6.159
 7596SOL     OW23686   3.433   1.078   5.484
 7596SOL    HW123687   3.398   0.992   5.448
 7596SOL    HW223688   3.357   1.140   5.504
 7597SOL     OW23689   1.702   4.325   2.054
 7597SOL    HW123690   1.800   4.320   2.034
 7597SOL    HW223691   1.687   4.379   2.137
 7598SOL     OW23692   6.701   0.971   2.768
 7598SOL    HW123693   6.604   0.949   2.777
 7598SOL    HW223694   6.735   1.005   2.856
 7599SOL     OW23695   3.268   3.405   0.782
 7599SOL    HW123696   3.263   3.324   0.723
 7599SOL    HW223697   3.317   3.381   0.866
 7600SOL     OW23698   1.681   6.386   4.291
 7600SOL    HW123699   1.648   6.473   4.252
 7600SOL    HW223700   1.758   6.405   4.352
 7601SOL     OW23701   3.312   6.549   1.809
 7601SOL    HW123702   3.301   6.645   1.833
 7601SOL    HW223703   3.379   6.541   1.735
 7602SOL     OW23704   0.214   2.126   0.439
 7602SOL    HW123705   0.180   2.054   0.378
 7602SOL    HW223706   0.160   2.209   0.425
 7603SOL     OW23707   3.703   0.051   6.055
 7603SOL    HW123708   3.794   0.036   6.095
 7603SOL    HW223709   3.713   0.101   5.969
 7604SOL     OW23710   0.197   1.990   5.203
 7604SOL    HW123711   0.194   1.902   5.156
 7604SOL    HW223712   0.290   2.025   5.205
 7605SOL     OW23713   2.047   6.568   0.024
 7605SOL    HW123714   1.963   6.562   0.077
 7605SOL    HW223715   2.126   6.558   0.084
 7606SOL     OW23716   6.396   1.300   3.111
 7606SOL    HW123717   6.304   1.327   3.141
 7606SOL    HW223718   6.422   1.356   3.032
 7607SOL     OW23719   1.751   6.309   5.846
 7607SOL    HW123720   1.829   6.300   5.784
 7607SOL    HW223721   1.686   6.375   5.809
 7608SOL     OW23722   5.651   2.296   6.285
 7608SOL    HW123723   5.705   2.235   6.344
 7608SOL    HW223724   5.712   2.342   6.221
 7609SOL     OW23725   1.624   1.871   5.037
 7609SOL    HW123726   1.706   1.927   5.050
 7609SOL    HW223727   1.608   1.816   5.119
 7610SOL     OW23728   4.080   5.146   4.700
 7610SOL    HW123729   4.001   5.205   4.719
 7610SOL    HW223730   4.059   5.053   4.730
 7611SOL     OW23731   4.654   3.517   0.107
 7611SOL    HW123732   4.654   3.609   0.069
 7611SOL    HW223733   4.693   3.519   0.199
 7612SOL     OW23734   3.765   1.823   3.197
 7612SOL    HW123735   3.722   1.909   3.224
 7612SOL    HW223736   3.701   1.748   3.210
 7613SOL     OW23737   0.540   1.806   1.189
 7613SOL    HW123738   0.506   1.768   1.103
 7613SOL    HW223739   0.592   1.890   1.170
 7614SOL     OW23740   4.507   4.095   0.295
 7614SOL    HW123741   4.525   4.136   0.384
 7614SOL    HW223742   4.429   4.033   0.302
 7615SOL     OW23743   5.934   3.315   4.900
 7615SOL    HW123744   5.980   3.235   4.937
 7615SOL    HW223745   5.836   3.310   4.920
 7616SOL     OW23746   6.254   0.109   3.395
 7616SOL    HW123747   6.173   0.119   3.338
 7616SOL    HW223748   6.229   0.064   3.481
 7617SOL     OW23749   6.373   3.964   3.589
 7617SOL    HW123750   6.415   3.990   3.676
 7617SOL    HW223751   6.277   3.940   3.604
 7618SOL     OW23752   2.464   2.576   0.378
 7618SOL    HW123753   2.445   2.492   0.328
 7618SOL    HW223754   2.487   2.554   0.473
 7619SOL     OW23755   1.252   1.494   4.461
 7619SOL    HW123756   1.229   1.550   4.541
 7619SOL    HW223757   1.294   1.551   4.391
 7620SOL     OW23758   3.964   4.508   1.038
 7620SOL    HW123759   4.005   4.583   1.089
 7620SOL    HW223760   3.877   4.483   1.081
 7621SOL     OW23761   6.027   4.358   0.170
 7621SOL    HW123762   5.991   4.285   0.113
 7621SOL    HW223763   5.961   4.380   0.242
 7622SOL     OW23764   3.387   3.822   1.279
 7622SOL    HW123765   3.432   3.905   1.311
 7622SOL    HW223766   3.294   3.818   1.314
 7623SOL     OW23767   5.132   4.213   1.384
 7623SOL    HW123768   5.163   4.305   1.407
 7623SOL    HW223769   5.040   4.199   1.422
 7624SOL     OW23770   1.189   3.250   2.256
 7624SOL    HW123771   1.247   3.246   2.175
 7624SOL    HW223772   1.111   3.188   2.245
 7625SOL     OW23773   5.593   0.966   1.540
 7625SOL    HW123774   5.494   0.977   1.543
 7625SOL    HW223775   5.616   0.868   1.536
 7626SOL     OW23776   4.442   0.621   6.101
 7626SOL    HW123777   4.530   0.574   6.107
 7626SOL    HW223778   4.381   0.571   6.040
 7627SOL     OW23779   4.008   2.711   6.759
 7627SOL    HW123780   4.098   2.754   6.771
 7627SOL    HW223781   4.020   2.615   6.734
 7628SOL     OW23782   3.426   2.763   0.276
 7628SOL    HW123783   3.439   2.856   0.309
 7628SOL    HW223784   3.431   2.762   0.176
 7629SOL     OW23785   6.307   2.489   3.139
 7629SOL    HW123786   6.225   2.538   3.110
 7629SOL    HW223787   6.387   2.549   3.133
 7630SOL     OW23788   0.879   6.358   5.033
 7630SOL    HW123789   0.890   6.391   4.940
 7630SOL    HW223790   0.869   6.436   5.095
 7631SOL     OW23791   0.920   0.531   5.616
 7631SOL    HW123792   0.825   0.532   5.645
 7631SOL    HW223793   0.930   0.585   5.532
 7632SOL     OW23794   4.335   5.664   0.203
 7632SOL    HW123795   4.249   5.707   0.233
 7632SOL    HW223796   4.399   5.736   0.176
 7633SOL     OW23797   6.683   0.923   1.221
 7633SOL    HW123798   6.722   0.949   1.133
 7633SOL    HW223799   6.706   0.827   1.240
 7634SOL     OW23800   6.844   2.818   0.061
 7634SOL    HW123801   6.934   2.795   0.023
 7634SOL    HW223802   6.812   2.743   0.119
 7635SOL     OW23803   2.302   3.554   5.736
 7635SOL    HW123804   2.306   3.651   5.760
 7635SOL    HW223805   2.351   3.539   5.650
 7636SOL     OW23806   6.963   3.949   4.161
 7636SOL    HW123807   6.971   4.035   4.212
 7636SOL    HW223808   6.872   3.910   4.175
 7637SOL     OW23809   1.116   5.273   4.801
 7637SOL    HW123810   1.119   5.207   4.726
 7637SOL    HW223811   1.208   5.309   4.818
 7638SOL     OW23812   0.329   6.179   1.293
 7638SOL    HW123813   0.330   6.199   1.391
 7638SOL    HW223814   0.330   6.265   1.241
 7639SOL     OW23815   1.302   0.979   6.957
 7639SOL    HW123816   1.300   1.066   6.910
 7639SOL    HW223817   1.368   0.983   0.017
 7640SOL     OW23818   3.197   1.145   0.862
 7640SOL    HW123819   3.169   1.135   0.767
 7640SOL    HW223820   3.292   1.115   0.873
 7641SOL     OW23821   0.586   4.230   3.818
 7641SOL    HW123822   0.646   4.220   3.739
 7641SOL    HW223823   0.506   4.171   3.808
 7642SOL     OW23824   5.524   1.089   3.085
 7642SOL    HW123825   5.543   1.184   3.112
 7642SOL    HW223826   5.561   1.072   2.994
 7643SOL     OW23827   5.282   3.578   3.375
 7643SOL    HW123828   5.375   3.609   3.394
 7643SOL    HW223829   5.275   3.480   3.396
 7644SOL     OW23830   5.598   3.781   1.293
 7644SOL    HW123831   5.599   3.707   1.360
 7644SOL    HW223832   5.658   3.855   1.323
 7645SOL     OW23833   3.469   4.761   6.505
 7645SOL    HW123834   3.391   4.798   6.454
 7645SOL    HW223835   3.444   4.671   6.542
 7646SOL     OW23836   5.966   1.504   0.649
 7646SOL    HW123837   5.932   1.556   0.571
 7646SOL    HW223838   5.894   1.496   0.718
 7647SOL     OW23839   7.004   2.131   4.353
 7647SOL    HW123840   0.049   2.191   4.406
 7647SOL    HW223841   6.943   2.186   4.297
 7648SOL     OW23842   2.667   1.853   1.837
 7648SOL    HW123843   2.697   1.940   1.876
 7648SOL    HW223844   2.684   1.853   1.739
 7649SOL     OW23845   3.927   1.169   6.146
 7649SOL    HW123846   3.960   1.074   6.152
 7649SOL    HW223847   3.850   1.182   6.208
 7650SOL     OW23848   4.083   2.543   0.562
 7650SOL    HW123849   4.017   2.585   0.625
 7650SOL    HW223850   4.045   2.458   0.527
 7651SOL     OW23851   3.200   4.890   6.087
 7651SOL    HW123852   3.192   4.846   5.998
 7651SOL    HW223853   3.220   4.987   6.074
 7652SOL     OW23854   1.288   1.074   4.308
 7652SOL    HW123855   1.246   1.147   4.362
 7652SOL    HW223856   1.240   0.988   4.325
 7653SOL     OW23857   1.601   1.234   6.379
 7653SOL    HW123858   1.521   1.220   6.322
 7653SOL    HW223859   1.642   1.323   6.358
 7654SOL     OW23860   5.589   1.769   6.254
 7654SOL    HW123861   5.603   1.843   6.187
 7654SOL    HW223862   5.676   1.744   6.295
 7655SOL     OW23863   3.357   1.486   3.134
 7655SOL    HW123864   3.343   1.423   3.210
 7655SOL    HW223865   3.268   1.511   3.095
 7656SOL     OW23866   6.913   3.473   6.371
 7656SOL    HW123867   6.938   3.405   6.303
 7656SOL    HW223868   6.970   3.555   6.358
 7657SOL     OW23869   1.157   4.215   4.590
 7657SOL    HW123870   1.241   4.267   4.574
 7657SOL    HW223871   1.082   4.278   4.608
 7658SOL     OW23872   2.397   0.848   1.101
 7658SOL    HW123873   2.417   0.794   1.019
 7658SOL    HW223874   2.299   0.847   1.118
 7659SOL     OW23875   4.596   4.093   5.983
 7659SOL    HW123876   4.688   4.076   6.018
 7659SOL    HW223877   4.582   4.040   5.899
 7660SOL     OW23878   6.689   5.282   5.280
 7660SOL    HW123879   6.648   5.253   5.194
 7660SOL    HW223880   6.637   5.243   5.356
 7661SOL     OW23881   3.950   1.585   5.186
 7661SOL    HW123882   4.038   1.548   5.215
 7661SOL    HW223883   3.886   1.511   5.171
 7662SOL     OW23884   6.158   6.752   1.301
 7662SOL    HW123885   6.151   6.851   1.298
 7662SOL    HW223886   6.098   6.711   1.232
 7663SOL     OW23887   0.191   5.386   5.393
 7663SOL    HW123888   0.243   5.424   5.316
 7663SOL    HW223889   0.093   5.400   5.377
 7664SOL     OW23890   3.850   1.984   1.927
 7664SOL    HW123891   3.778   2.053   1.930
 7664SOL    HW223892   3.924   2.010   1.990
 7665SOL     OW23893   3.699   0.192   5.818
 7665SOL    HW123894   3.674   0.193   5.721
 7665SOL    HW223895   3.622   0.225   5.872
 7666SOL     OW23896   5.353   4.414   3.184
 7666SOL    HW123897   5.312   4.481   3.246
 7666SOL    HW223898   5.413   4.461   3.120
 7667SOL     OW23899   3.769   5.861   2.743
 7667SOL    HW123900   3.780   5.947   2.694
 7667SOL    HW223901   3.832   5.858   2.821
 7668SOL     OW23902   2.243   5.747   0.780
 7668SOL    HW123903   2.165   5.799   0.743
 7668SOL    HW223904   2.295   5.806   0.842
 7669SOL     OW23905   2.368   1.377   6.435
 7669SOL    HW123906   2.435   1.401   6.364
 7669SOL    HW223907   2.359   1.454   6.498
 7670SOL     OW23908   0.491   6.999   0.964
 7670SOL    HW123909   0.458   0.059   0.907
 7670SOL    HW223910   0.574   6.960   0.924
 7671SOL     OW23911   3.419   0.353   0.966
 7671SOL    HW123912   3.342   0.371   0.904
 7671SOL    HW223913   3.475   0.436   0.973
 7672SOL     OW23914   4.797   4.725   2.382
 7672SOL    HW123915   4.732   4.667   2.332
 7672SOL    HW223916   4.822   4.681   2.468
 7673SOL     OW23917   1.477   6.210   4.280
 7673SOL    HW123918   1.557   6.269   4.264
 7673SOL    HW223919   1.440   6.230   4.371
 7674SOL     OW23920   4.848   6.004   4.546
 7674SOL    HW123921   4.923   5.938   4.541
 7674SOL    HW223922   4.862   6.076   4.478
 7675SOL     OW23923   4.731   6.265   3.260
 7675SOL    HW123924   4.827   6.252   3.234
 7675SOL    HW223925   4.672   6.213   3.198
 7676SOL     OW23926   3.749   2.947   5.529
 7676SOL    HW123927   3.733   3.034   5.576
 7676SOL    HW223928   3.759   2.963   5.431
 7677SOL     OW23929   6.361   4.657   0.291
 7677SOL    HW123930   6.431   4.706   0.239
 7677SOL    HW223931   6.280   4.715   0.301
 7678SOL     OW23932   1.925   1.183   5.288
 7678SOL    HW123933   1.845   1.239   5.266
 7678SOL    HW223934   1.961   1.210   5.377
 7679SOL     OW23935   3.709   5.957   5.162
 7679SOL    HW123936   3.617   5.945   5.126
 7679SOL    HW223937   3.758   6.025   5.107
 7680SOL     OW23938   1.816   6.930   4.794
 7680SOL    HW123939   1.808   6.861   4.722
 7680SOL    HW223940   1.846   6.886   4.879
 7681SOL     OW23941   2.728   3.411   6.436
 7681SOL    HW123942   2.746   3.320   6.400
 7681SOL    HW223943   2.666   3.459   6.375
 7682SOL     OW23944   3.119   0.875   2.929
 7682SOL    HW123945   3.096   0.786   2.969
 7682SOL    HW223946   3.075   0.883   2.840
 7683SOL     OW23947   0.477   5.094   4.744
 7683SOL    HW123948   0.481   5.140   4.655
 7683SOL    HW223949   0.532   5.011   4.741
 7684SOL     OW23950   4.628   3.278   1.054
 7684SOL    HW123951   4.666   3.363   1.090
 7684SOL    HW223952   4.694   3.237   0.991
 7685SOL     OW23953   2.125   0.583   0.397
 7685SOL    HW123954   2.099   0.594   0.301
 7685SOL    HW223955   2.138   0.486   0.417
 7686SOL     OW23956   6.263   7.001   4.938
 7686SOL    HW123957   6.321   6.929   4.900
 7686SOL    HW223958   6.172   6.994   4.897
 7687SOL     OW23959   5.591   4.041   6.300
 7687SOL    HW123960   5.519   4.088   6.249
 7687SOL    HW223961   5.669   4.024   6.241
 7688SOL     OW23962   0.210   4.110   6.233
 7688SOL    HW123963   0.166   4.021   6.217
 7688SOL    HW223964   0.155   4.162   6.299
 7689SOL     OW23965   4.376   0.973   1.700
 7689SOL    HW123966   4.377   0.877   1.670
 7689SOL    HW223967   4.379   1.033   1.620
 7690SOL     OW23968   5.538   5.751   1.750
 7690SOL    HW123969   5.575   5.810   1.822
 7690SOL    HW223970   5.455   5.792   1.713
 7691SOL     OW23971   4.992   3.648   3.431
 7691SOL    HW123972   5.085   3.657   3.394
 7691SOL    HW223973   4.933   3.606   3.362
 7692SOL     OW23974   3.102   0.215   2.703
 7692SOL    HW123975   3.112   0.156   2.623
 7692SOL    HW223976   3.005   0.228   2.723
 7693SOL     OW23977   2.243   0.840   1.795
 7693SOL    HW123978   2.303   0.879   1.865
 7693SOL    HW223979   2.191   0.914   1.751
 7694SOL     OW23980   4.929   1.429   5.299
 7694SOL    HW123981   4.898   1.459   5.209
 7694SOL    HW223982   4.869   1.466   5.370
 7695SOL     OW23983   4.676   0.127   3.904
 7695SOL    HW123984   4.613   0.147   3.979
 7695SOL    HW223985   4.654   0.038   3.864
 7696SOL     OW23986   1.907   3.001   5.590
 7696SOL    HW123987   1.925   3.099   5.590
 7696SOL    HW223988   1.824   2.982   5.643
 7697SOL     OW23989   4.979   6.988   3.002
 7697SOL    HW123990   4.954   0.018   2.916
 7697SOL    HW223991   5.047   0.029   3.050
 7698SOL     OW23992   6.212   2.991   0.851
 7698SOL    HW123993   6.250   2.969   0.761
 7698SOL    HW223994   6.263   2.942   0.921
 7699SOL     OW23995   4.782   5.645   5.698
 7699SOL    HW123996   4.716   5.583   5.654
 7699SOL    HW223997   4.866   5.648   5.645
 7700SOL     OW23998   5.159   6.322   2.415
 7700SOL    HW123999   5.144   6.253   2.486
 7700SOL    HW224000   5.150   6.279   2.325
 7701SOL     OW24001   1.231   2.572   5.922
 7701SOL    HW124002   1.233   2.495   5.858
 7701SOL    HW224003   1.314   2.627   5.910
 7702SOL     OW24004   4.587   6.983   4.613
 7702SOL    HW124005   4.634   0.018   4.541
 7702SOL    HW224006   4.494   6.960   4.583
 7703SOL     OW24007   6.423   0.030   5.471
 7703SOL    HW124008   6.385   0.031   5.379
 7703SOL    HW224009   6.511   0.078   5.472
 7704SOL     OW24010   1.029   1.718   4.849
 7704SOL    HW124011   1.019   1.752   4.943
 7704SOL    HW224012   0.966   1.642   4.834
 7705SOL     OW24013   1.518   5.150   6.550
 7705SOL    HW124014   1.447   5.153   6.620
 7705SOL    HW224015   1.606   5.172   6.591
 7706SOL     OW24016   3.512   2.823   2.203
 7706SOL    HW124017   3.491   2.726   2.191
 7706SOL    HW224018   3.545   2.861   2.117
 7707SOL     OW24019   6.903   3.825   6.785
 7707SOL    HW124020   6.979   3.843   6.723
 7707SOL    HW224021   6.846   3.752   6.748
 7708SOL     OW24022   2.333   0.297   4.604
 7708SOL    HW124023   2.422   0.333   4.575
 7708SOL    HW224024   2.346   0.207   4.646
 7709SOL     OW24025   0.208   4.787   1.556
 7709SOL    HW124026   0.173   4.694   1.568
 7709SOL    HW224027   0.148   4.837   1.493
 7710SOL     OW24028   0.076   3.278   1.257
 7710SOL    HW124029   0.062   3.185   1.293
 7710SOL    HW224030   0.172   3.288   1.229
 7711SOL     OW24031   6.867   4.869   4.794
 7711SOL    HW124032   6.862   4.923   4.878
 7711SOL    HW224033   6.938   4.907   4.734
 7712SOL     OW24034   0.529   5.591   5.606
 7712SOL    HW124035   0.486   5.502   5.597
 7712SOL    HW224036   0.476   5.647   5.670
 7713SOL     OW24037   1.354   4.042   6.858
 7713SOL    HW124038   1.359   4.136   6.893
 7713SOL    HW224039   1.299   4.041   6.774
 7714SOL     OW24040   6.724   1.692   4.580
 7714SOL    HW124041   6.728   1.618   4.648
 7714SOL    HW224042   6.794   1.677   4.510
 7715SOL     OW24043   3.837   3.248   5.155
 7715SOL    HW124044   3.783   3.264   5.073
 7715SOL    HW224045   3.840   3.332   5.209
 7716SOL     OW24046   1.012   6.263   6.195
 7716SOL    HW124047   1.007   6.279   6.294
 7716SOL    HW224048   0.943   6.318   6.149
 7717SOL     OW24049   0.220   2.395   6.352
 7717SOL    HW124050   0.297   2.333   6.364
 7717SOL    HW224051   0.139   2.343   6.324
 7718SOL     OW24052   1.021   3.366   3.206
 7718SOL    HW124053   0.965   3.427   3.262
 7718SOL    HW224054   1.073   3.304   3.266
 7719SOL     OW24055   1.908   5.404   4.795
 7719SOL    HW124056   1.979   5.372   4.732
 7719SOL    HW224057   1.948   5.467   4.861
 7720SOL     OW24058   4.619   1.184   6.686
 7720SOL    HW124059   4.648   1.220   6.774
 7720SOL    HW224060   4.699   1.150   6.636
 7721SOL     OW24061   0.409   6.988   2.698
 7721SOL    HW124062   0.395   6.890   2.681
 7721SOL    HW224063   0.354   0.026   2.633
 7722SOL     OW24064   1.012   5.773   4.019
 7722SOL    HW124065   0.973   5.845   4.076
 7722SOL    HW224066   1.065   5.814   3.944
 7723SOL     OW24067   4.582   4.117   0.033
 7723SOL    HW124068   4.670   4.071   0.026
 7723SOL    HW224069   4.540   4.095   0.122
 7724SOL     OW24070   2.095   3.872   1.228
 7724SOL    HW124071   2.042   3.914   1.154
 7724SOL    HW224072   2.071   3.776   1.236
 7725SOL     OW24073   5.520   3.167   3.858
 7725SOL    HW124074   5.429   3.154   3.818
 7725SOL    HW224075   5.529   3.110   3.940
 7726SOL     OW24076   1.180   3.320   5.330
 7726SOL    HW124077   1.227   3.406   5.347
 7726SOL    HW224078   1.227   3.269   5.258
 7727SOL     OW24079   4.142   0.800   2.162
 7727SOL    HW124080   4.072   0.757   2.104
 7727SOL    HW224081   4.213   0.840   2.104
 7728SOL     OW24082   1.848   3.884   4.731
 7728SOL    HW124083   1.842   3.970   4.782
 7728SOL    HW224084   1.873   3.810   4.793
 7729SOL     OW24085   6.823   1.542   3.252
 7729SOL    HW124086   6.871   1.629   3.257
 7729SOL    HW224087   6.878   1.476   3.200
 7730SOL     OW24088   6.394   4.721   4.950
 7730SOL    HW124089   6.490   4.729   4.922
 7730SOL    HW224090   6.382   4.765   5.039
 7731SOL     OW24091   6.964   6.767   6.237
 7731SOL    HW124092   7.010   6.692   6.189
 7731SOL    HW224093   6.868   6.743   6.250
 7732SOL     OW24094   3.323   6.917   6.501
 7732SOL    HW124095   3.386   6.900   6.425
 7732SOL    HW224096   3.252   6.980   6.472
 7733SOL     OW24097   6.197   5.694   1.674
 7733SOL    HW124098   6.150   5.746   1.603
 7733SOL    HW224099   6.230   5.758   1.744
 7734SOL     OW24100   3.434   3.917   4.555
 7734SOL    HW124101   3.353   3.923   4.614
 7734SOL    HW224102   3.478   4.007   4.551
 7735SOL     OW24103   0.070   6.825   1.075
 7735SOL    HW124104   0.096   6.866   0.988
 7735SOL    HW224105   0.064   6.725   1.065
 7736SOL     OW24106   1.609   3.010   6.254
 7736SOL    HW124107   1.554   2.991   6.335
 7736SOL    HW224108   1.583   2.948   6.180
 7737SOL     OW24109   4.326   4.433   0.460
 7737SOL    HW124110   4.238   4.480   0.462
 7737SOL    HW224111   4.323   4.359   0.393
 7738SOL     OW24112   2.629   0.368   5.703
 7738SOL    HW124113   2.529   0.369   5.704
 7738SOL    HW224114   2.663   0.451   5.658
 7739SOL     OW24115   1.906   1.684   0.882
 7739SOL    HW124116   1.870   1.744   0.810
 7739SOL    HW224117   1.998   1.715   0.907
 7740SOL     OW24118   1.887   0.254   4.988
 7740SOL    HW124119   1.861   0.324   5.055
 7740SOL    HW224120   1.859   0.283   4.897
 7741SOL     OW24121   1.245   4.438   6.246
 7741SOL    HW124122   1.269   4.472   6.155
 7741SOL    HW224123   1.151   4.404   6.246
 7742SOL     OW24124   4.779   1.671   4.253
 7742SOL    HW124125   4.698   1.624   4.220
 7742SOL    HW224126   4.761   1.770   4.258
 7743SOL     OW24127   4.623   1.872   5.837
 7743SOL    HW124128   4.533   1.884   5.795
 7743SOL    HW224129   4.685   1.829   5.771
 7744SOL     OW24130   1.231   6.683   4.697
 7744SOL    HW124131   1.235   6.748   4.773
 7744SOL    HW224132   1.228   6.590   4.733
 7745SOL     OW24133   2.844   6.928   0.896
 7745SOL    HW124134   2.926   6.884   0.859
 7745SOL    HW224135   2.774   6.934   0.825
 7746SOL     OW24136   0.737   6.000   0.881
 7746SOL    HW124137   0.804   5.926   0.884
 7746SOL    HW224138   0.673   5.984   0.805
 7747SOL     OW24139   0.841   6.185   1.049
 7747SOL    HW124140   0.896   6.146   1.122
 7747SOL    HW224141   0.811   6.113   0.987
 7748SOL     OW24142   4.635   2.182   6.030
 7748SOL    HW124143   4.700   2.112   6.001
 7748SOL    HW224144   4.671   2.273   6.008
 7749SOL     OW24145   3.379   3.784   3.926
 7749SOL    HW124146   3.317   3.806   4.001
 7749SOL    HW224147   3.407   3.688   3.934
 7750SOL     OW24148   5.478   3.988   5.693
 7750SOL    HW124149   5.403   3.962   5.753
 7750SOL    HW224150   5.560   3.938   5.720
 7751SOL     OW24151   7.008   1.243   4.570
 7751SOL    HW124152   0.000   1.206   4.663
 7751SOL    HW224153   6.966   1.175   4.511
 7752SOL     OW24154   6.381   5.885   5.533
 7752SOL    HW124155   6.415   5.791   5.530
 7752SOL    HW224156   6.339   5.908   5.445
 7753SOL     OW24157   2.853   1.303   4.772
 7753SOL    HW124158   2.909   1.354   4.706
 7753SOL    HW224159   2.835   1.360   4.851
 7754SOL     OW24160   6.371   0.837   1.864
 7754SOL    HW124161   6.296   0.777   1.894
 7754SOL    HW224162   6.458   0.797   1.890
 7755SOL     OW24163   1.097   5.674   5.146
 7755SOL    HW124164   1.040   5.644   5.070
 7755SOL    HW224165   1.064   5.633   5.231
 7756SOL     OW24166   3.709   5.489   2.664
 7756SOL    HW124167   3.785   5.547   2.634
 7756SOL    HW224168   3.684   5.514   2.758
 7757SOL     OW24169   4.453   6.405   6.088
 7757SOL    HW124170   4.473   6.353   6.005
 7757SOL    HW224171   4.360   6.442   6.083
 7758SOL     OW24172   3.013   2.204   5.657
 7758SOL    HW124173   3.008   2.283   5.719
 7758SOL    HW224174   2.953   2.220   5.578
 7759SOL     OW24175   2.095   0.802   5.250
 7759SOL    HW124176   2.136   0.866   5.316
 7759SOL    HW224177   2.062   0.853   5.170
 7760SOL     OW24178   4.813   1.906   3.084
 7760SOL    HW124179   4.879   1.929   3.154
 7760SOL    HW224180   4.766   1.990   3.054
 7761SOL     OW24181   3.690   6.952   6.739
 7761SOL    HW124182   3.771   6.967   6.682
 7761SOL    HW224183   3.717   6.904   6.823
 7762SOL     OW24184   2.586   1.993   0.969
 7762SOL    HW124185   2.537   2.052   0.905
 7762SOL    HW224186   2.623   1.914   0.920
 7763SOL     OW24187   2.178   1.748   0.936
 7763SOL    HW124188   2.167   1.806   1.016
 7763SOL    HW224189   2.225   1.664   0.962
 7764SOL     OW24190   3.504   2.883   3.076
 7764SOL    HW124191   3.523   2.871   2.979
 7764SOL    HW224192   3.407   2.871   3.093
 7765SOL     OW24193   6.869   2.113   2.541
 7765SOL    HW124194   6.858   2.042   2.611
 7765SOL    HW224195   6.919   2.076   2.464
 7766SOL     OW24196   6.822   3.157   6.933
 7766SOL    HW124197   6.735   3.204   6.944
 7766SOL    HW224198   6.887   3.191   7.001
 7767SOL     OW24199   5.644   4.225   5.314
 7767SOL    HW124200   5.718   4.192   5.372
 7767SOL    HW224201   5.561   4.172   5.332
 7768SOL     OW24202   3.805   5.216   2.212
 7768SOL    HW124203   3.719   5.216   2.162
 7768SOL    HW224204   3.787   5.221   2.310
 7769SOL     OW24205   6.223   1.928   2.015
 7769SOL    HW124206   6.179   1.851   1.968
 7769SOL    HW224207   6.153   1.987   2.055
 7770SOL     OW24208   3.933   5.610   1.440
 7770SOL    HW124209   3.925   5.576   1.534
 7770SOL    HW224210   4.002   5.682   1.436
 7771SOL     OW24211   2.277   1.715   5.353
 7771SOL    HW124212   2.195   1.684   5.401
 7771SOL    HW224213   2.344   1.640   5.349
 7772SOL     OW24214   5.493   1.287   4.803
 7772SOL    HW124215   5.564   1.231   4.846
 7772SOL    HW224216   5.501   1.382   4.835
 7773SOL     OW24217   3.907   4.655   5.253
 7773SOL    HW124218   3.832   4.718   5.273
 7773SOL    HW224219   3.892   4.568   5.300
 7774SOL     OW24220   4.615   1.364   6.282
 7774SOL    HW124221   4.700   1.311   6.287
 7774SOL    HW224222   4.537   1.302   6.285
 7775SOL     OW24223   3.135   7.005   2.069
 7775SOL    HW124224   3.048   0.013   2.027
 7775SOL    HW224225   3.172   0.070   2.116
 7776SOL     OW24226   3.717   3.581   0.308
 7776SOL    HW124227   3.720   3.481   0.320
 7776SOL    HW224228   3.661   3.603   0.228
 7777SOL     OW24229   1.845   0.773   6.915
 7777SOL    HW124230   1.786   0.777   6.834
 7777SOL    HW224231   1.853   0.678   6.945
 7778SOL     OW24232   5.799   0.642   0.878
 7778SOL    HW124233   5.772   0.692   0.796
 7778SOL    HW224234   5.894   0.663   0.901
 7779SOL     OW24235   3.685   3.331   6.750
 7779SOL    HW124236   3.706   3.427   6.763
 7779SOL    HW224237   3.601   3.322   6.696
 7780SOL     OW24238   1.297   0.240   4.277
 7780SOL    HW124239   1.374   0.273   4.223
 7780SOL    HW224240   1.324   0.157   4.327
 7781SOL     OW24241   1.333   4.996   4.981
 7781SOL    HW124242   1.262   5.047   5.029
 7781SOL    HW224243   1.420   5.045   4.986
 7782SOL     OW24244   3.411   4.527   6.625
 7782SOL    HW124245   3.462   4.443   6.641
 7782SOL    HW224246   3.377   4.562   6.713
 7783SOL     OW24247   3.003   5.378   6.128
 7783SOL    HW124248   2.966   5.291   6.162
 7783SOL    HW224249   3.053   5.362   6.043
 7784SOL     OW24250   0.105   2.656   6.959
 7784SOL    HW124251   0.063   2.643   6.870
 7784SOL    HW224252   0.163   2.577   6.981
 7785SOL     OW24253   2.420   5.974   4.142
 7785SOL    HW124254   2.457   5.929   4.222
 7785SOL    HW224255   2.489   5.977   4.070
 7786SOL     OW24256   3.143   3.990   4.604
 7786SOL    HW124257   3.117   4.053   4.676
 7786SOL    HW224258   3.134   3.896   4.636
 7787SOL     OW24259   2.772   2.275   5.445
 7787SOL    HW124260   2.686   2.253   5.491
 7787SOL    HW224261   2.761   2.356   5.388
 7788SOL     OW24262   0.539   1.621   0.177
 7788SOL    HW124263   0.484   1.541   0.154
 7788SOL    HW224264   0.579   1.609   0.268
 7789SOL     OW24265   2.109   6.922   1.320
 7789SOL    HW124266   2.029   6.882   1.274
 7789SOL    HW224267   2.079   6.995   1.381
 7790SOL     OW24268   6.284   3.787   2.697
 7790SOL    HW124269   6.314   3.789   2.792
 7790SOL    HW224270   6.314   3.870   2.650
 7791SOL     OW24271   1.494   4.944   4.725
 7791SOL    HW124272   1.551   4.994   4.660
 7791SOL    HW224273   1.445   5.009   4.783
 7792SOL     OW24274   2.802   5.083   5.725
 7792SOL    HW124275   2.816   5.179   5.701
 7792SOL    HW224276   2.704   5.062   5.721
 7793SOL     OW24277   0.631   0.692   6.532
 7793SOL    HW124278   0.649   0.775   6.585
 7793SOL    HW224279   0.663   0.612   6.583
 7794SOL     OW24280   5.265   5.445   3.744
 7794SOL    HW124281   5.311   5.505   3.678
 7794SOL    HW224282   5.228   5.366   3.696
 7795SOL     OW24283   1.993   4.968   5.211
 7795SOL    HW124284   2.025   4.896   5.274
 7795SOL    HW224285   2.002   5.057   5.255
 7796SOL     OW24286   4.084   3.218   3.587
 7796SOL    HW124287   4.051   3.203   3.680
 7796SOL    HW224288   4.109   3.314   3.575
 7797SOL     OW24289   1.127   0.261   2.521
 7797SOL    HW124290   1.186   0.225   2.593
 7797SOL    HW224291   1.075   0.186   2.479
 7798SOL     OW24292   4.117   5.706   6.735
 7798SOL    HW124293   4.057   5.657   6.798
 7798SOL    HW224294   4.188   5.644   6.701
 7799SOL     OW24295   6.651   5.016   1.105
 7799SOL    HW124296   6.578   5.076   1.137
 7799SOL    HW224297   6.700   4.978   1.184
 7800SOL     OW24298   0.865   5.760   2.283
 7800SOL    HW124299   0.816   5.761   2.371
 7800SOL    HW224300   0.799   5.757   2.209
 7801SOL     OW24301   3.853   2.032   6.527
 7801SOL    HW124302   3.930   2.053   6.588
 7801SOL    HW224303   3.864   2.082   6.441
 7802SOL     OW24304   5.965   1.995   1.523
 7802SOL    HW124305   5.929   1.905   1.546
 7802SOL    HW224306   5.890   2.057   1.499
 7803SOL     OW24307   3.816   4.137   5.646
 7803SOL    HW124308   3.725   4.178   5.658
 7803SOL    HW224309   3.823   4.097   5.554
 7804SOL     OW24310   4.927   1.449   6.459
 7804SOL    HW124311   4.939   1.406   6.369
 7804SOL    HW224312   4.870   1.531   6.449
 7805SOL     OW24313   5.037   3.783   2.324
 7805SOL    HW124314   5.104   3.749   2.258
 7805SOL    HW224315   4.993   3.705   2.369
 7806SOL     OW24316   4.779   2.696   0.015
 7806SOL    HW124317   4.760   2.728   0.108
 7806SOL    HW224318   4.797   2.775   6.971
 7807SOL     OW24319   0.120   3.845   6.606
 7807SOL    HW124320   0.157   3.779   6.672
 7807SOL    HW224321   0.157   3.936   6.627
 7808SOL     OW24322   0.717   1.521   4.861
 7808SOL    HW124323   0.751   1.609   4.894
 7808SOL    HW224324   0.625   1.506   4.895
 7809SOL     OW24325   1.601   5.427   5.262
 7809SOL    HW124326   1.636   5.509   5.308
 7809SOL    HW224327   1.639   5.346   5.307
 7810SOL     OW24328   2.755   1.341   6.999
 7810SOL    HW124329   2.721   1.253   6.965
 7810SOL    HW224330   2.846   1.358   6.961
 7811SOL     OW24331   0.079   4.156   4.349
 7811SOL    HW124332   7.007   4.166   4.397
 7811SOL    HW224333   0.096   4.238   4.294
 7812SOL     OW24334   1.251   1.224   3.575
 7812SOL    HW124335   1.272   1.141   3.627
 7812SOL    HW224336   1.301   1.302   3.613
 7813SOL     OW24337   6.270   2.963   0.538
 7813SOL    HW124338   6.361   2.995   0.564
 7813SOL    HW224339   6.215   3.040   0.505
 7814SOL     OW24340   0.857   3.908   3.463
 7814SOL    HW124341   0.774   3.859   3.489
 7814SOL    HW224342   0.937   3.858   3.495
 7815SOL     OW24343   6.355   1.760   6.168
 7815SOL    HW124344   6.421   1.709   6.224
 7815SOL    HW224345   6.264   1.720   6.179
 7816SOL     OW24346   1.389   4.023   4.985
 7816SOL    HW124347   1.347   3.933   4.994
 7816SOL    HW224348   1.322   4.088   4.949
 7817SOL     OW24349   5.137   3.356   4.923
 7817SOL    HW124350   5.193   3.366   4.840
 7817SOL    HW224351   5.112   3.447   4.957
 7818SOL     OW24352   5.385   5.206   2.472
 7818SOL    HW124353   5.288   5.229   2.463
 7818SOL    HW224354   5.395   5.109   2.492
 7819SOL     OW24355   0.029   1.173   1.250
 7819SOL    HW124356   0.065   1.133   1.166
 7819SOL    HW224357   0.036   1.106   1.325
 7820SOL     OW24358   2.063   0.435   6.286
 7820SOL    HW124359   1.971   0.441   6.323
 7820SOL    HW224360   2.081   0.515   6.228
 7821SOL     OW24361   2.915   5.255   1.254
 7821SOL    HW124362   2.909   5.197   1.335
 7821SOL    HW224363   3.008   5.252   1.217
 7822SOL     OW24364   1.649   5.902   5.364
 7822SOL    HW124365   1.725   5.939   5.311
 7822SOL    HW224366   1.563   5.914   5.314
 7823SOL     OW24367   1.605   4.422   4.883
 7823SOL    HW124368   1.545   4.441   4.961
 7823SOL    HW224369   1.641   4.509   4.848
 7824SOL     OW24370   0.401   3.333   5.368
 7824SOL    HW124371   0.397   3.391   5.449
 7824SOL    HW224372   0.345   3.373   5.295
 7825SOL     OW24373   2.988   1.375   6.808
 7825SOL    HW124374   3.006   1.277   6.807
 7825SOL    HW224375   3.074   1.425   6.814
 7826SOL     OW24376   0.832   3.099   5.999
 7826SOL    HW124377   0.813   3.003   6.019
 7826SOL    HW224378   0.798   3.156   6.074
 7827SOL     OW24379   6.200   5.611   5.028
 7827SOL    HW124380   6.254   5.695   5.026
 7827SOL    HW224381   6.260   5.533   5.006
 7828SOL     OW24382   0.612   5.061   0.143
 7828SOL    HW124383   0.664   4.975   0.141
 7828SOL    HW224384   0.669   5.135   0.109
 7829SOL     OW24385   3.897   3.195   0.830
 7829SOL    HW124386   3.886   3.216   0.927
 7829SOL    HW224387   3.864   3.273   0.776
 7830SOL     OW24388   2.638   5.299   3.780
 7830SOL    HW124389   2.559   5.248   3.745
 7830SOL    HW224390   2.721   5.267   3.735
 7831SOL     OW24391   1.667   0.475   6.587
 7831SOL    HW124392   1.603   0.409   6.547
 7831SOL    HW224393   1.720   0.430   6.660
 7832SOL     OW24394   6.176   1.067   4.860
 7832SOL    HW124395   6.082   1.049   4.832
 7832SOL    HW224396   6.224   1.118   4.788
 7833SOL     OW24397   1.830   0.427   3.449
 7833SOL    HW124398   1.881   0.390   3.527
 7833SOL    HW224399   1.734   0.398   3.456
 7834SOL     OW24400   6.478   3.740   5.056
 7834SOL    HW124401   6.475   3.811   4.986
 7834SOL    HW224402   6.554   3.758   5.118
 7835SOL     OW24403   4.090   2.375   5.389
 7835SOL    HW124404   4.119   2.433   5.313
 7835SOL    HW224405   4.169   2.356   5.448
 7836SOL     OW24406   3.256   3.502   4.033
 7836SOL    HW124407   3.281   3.406   4.020
 7836SOL    HW224408   3.175   3.522   3.977
 7837SOL     OW24409   0.115   5.884   0.589
 7837SOL    HW124410   0.065   5.856   0.671
 7837SOL    HW224411   0.120   5.984   0.586
 7838SOL     OW24412   4.575   5.710   2.182
 7838SOL    HW124413   4.526   5.791   2.149
 7838SOL    HW224414   4.510   5.647   2.224
 7839SOL     OW24415   5.931   2.914   4.007
 7839SOL    HW124416   5.936   3.011   4.030
 7839SOL    HW224417   5.947   2.859   4.089
 7840SOL     OW24418   1.892   3.188   4.184
 7840SOL    HW124419   1.917   3.091   4.196
 7840SOL    HW224420   1.972   3.245   4.205
 7841SOL     OW24421   4.163   1.915   6.329
 7841SOL    HW124422   4.188   1.985   6.262
 7841SOL    HW224423   4.176   1.824   6.289
 7842SOL     OW24424   1.269   0.600   1.886
 7842SOL    HW124425   1.268   0.518   1.942
 7842SOL    HW224426   1.336   0.589   1.812
 7843SOL     OW24427   0.041   6.080   3.514
 7843SOL    HW124428   6.982   6.145   3.530
 7843SOL    HW224429   0.042   6.011   3.586
 7844SOL     OW24430   3.941   1.286   2.352
 7844SOL    HW124431   3.871   1.284   2.280
 7844SOL    HW224432   3.992   1.371   2.346
 7845SOL     OW24433   6.807   3.198   1.127
 7845SOL    HW124434   6.789   3.208   1.225
 7845SOL    HW224435   6.899   3.231   1.106
 7846SOL     OW24436   1.071   1.540   0.669
 7846SOL    HW124437   0.975   1.545   0.640
 7846SOL    HW224438   1.080   1.578   0.761
 7847SOL     OW24439   5.311   3.944   5.905
 7847SOL    HW124440   5.321   3.902   5.995
 7847SOL    HW224441   5.267   4.034   5.915
 7848SOL     OW24442   3.508   4.263   1.195
 7848SOL    HW124443   3.448   4.227   1.266
 7848SOL    HW224444   3.475   4.235   1.105
 7849SOL     OW24445   4.560   4.730   6.966
 7849SOL    HW124446   4.639   4.678   6.999
 7849SOL    HW224447   4.561   4.822   7.007
 7850SOL     OW24448   6.797   1.411   3.884
 7850SOL    HW124449   6.771   1.392   3.979
 7850SOL    HW224450   6.744   1.489   3.850
 7851SOL     OW24451   6.864   5.179   1.233
 7851SOL    HW124452   6.948   5.220   1.270
 7851SOL    HW224453   6.856   5.085   1.268
 7852SOL     OW24454   1.042   3.178   6.486
 7852SOL    HW124455   1.135   3.180   6.523
 7852SOL    HW224456   1.045   3.149   6.391
 7853SOL     OW24457   4.107   2.900   1.711
 7853SOL    HW124458   4.172   2.834   1.673
 7853SOL    HW224459   4.156   2.976   1.752
 7854SOL     OW24460   5.022   1.980   6.620
 7854SOL    HW124461   5.004   1.893   6.666
 7854SOL    HW224462   5.121   1.993   6.610
 7855SOL     OW24463   5.306   6.927   4.492
 7855SOL    HW124464   5.208   6.912   4.502
 7855SOL    HW224465   5.327   0.008   4.513
 7856SOL     OW24466   2.162   6.240   4.566
 7856SOL    HW124467   2.176   6.308   4.494
 7856SOL    HW224468   2.250   6.196   4.588
 7857SOL     OW24469   6.080   4.888   1.478
 7857SOL    HW124470   6.000   4.937   1.445
 7857SOL    HW224471   6.102   4.814   1.415
 7858SOL     OW24472   0.035   4.237   6.403
 7858SOL    HW124473   6.989   4.173   6.450
 7858SOL    HW224474   0.037   4.324   6.453
 7859SOL     OW24475   5.347   2.632   0.887
 7859SOL    HW124476   5.336   2.726   0.856
 7859SOL    HW224477   5.283   2.573   0.838
 7860SOL     OW24478   2.806   1.459   4.992
 7860SOL    HW124479   2.759   1.413   5.068
 7860SOL    HW224480   2.766   1.550   4.978
 7861SOL     OW24481   2.121   6.245   0.211
 7861SOL    HW124482   2.116   6.249   0.112
 7861SOL    HW224483   2.217   6.249   0.240
 7862SOL     OW24484   2.366   5.760   6.873
 7862SOL    HW124485   2.349   5.814   6.956
 7862SOL    HW224486   2.411   5.817   6.805
 7863SOL     OW24487   0.501   3.929   3.340
 7863SOL    HW124488   0.536   3.836   3.346
 7863SOL    HW224489   0.402   3.927   3.328
 7864SOL     OW24490   1.966   5.878   5.644
 7864SOL    HW124491   2.039   5.891   5.576
 7864SOL    HW224492   1.955   5.962   5.697
 7865SOL     OW24493   5.632   4.602   3.701
 7865SOL    HW124494   5.548   4.630   3.653
 7865SOL    HW224495   5.709   4.604   3.637
 7866SOL     OW24496   6.847   0.455   6.434
 7866SOL    HW124497   6.760   0.407   6.442
 7866SOL    HW224498   6.907   0.427   6.509
 7867SOL     OW24499   4.793   4.871   3.551
 7867SOL    HW124500   4.884   4.839   3.524
 7867SOL    HW224501   4.765   4.824   3.635
 7868SOL     OW24502   3.183   6.500   1.547
 7868SOL    HW124503   3.154   6.473   1.639
 7868SOL    HW224504   3.142   6.438   1.480
 7869SOL     OW24505   5.991   4.643   6.473
 7869SOL    HW124506   5.955   4.714   6.412
 7869SOL    HW224507   6.089   4.657   6.486
 7870SOL     OW24508   5.884   5.374   4.523
 7870SOL    HW124509   5.885   5.454   4.463
 7870SOL    HW224510   5.790   5.350   4.546
 7871SOL     OW24511   5.609   1.595   1.001
 7871SOL    HW124512   5.634   1.627   1.092
 7871SOL    HW224513   5.561   1.508   1.009
 7872SOL     OW24514   1.377   5.827   3.294
 7872SOL    HW124515   1.295   5.832   3.351
 7872SOL    HW224516   1.438   5.903   3.316
 7873SOL     OW24517   5.395   2.042   7.003
 7873SOL    HW124518   5.488   2.013   6.981
 7873SOL    HW224519   5.338   1.961   0.001
 7874SOL     OW24520   5.487   2.865   0.412
 7874SOL    HW124521   5.573   2.816   0.420
 7874SOL    HW224522   5.445   2.845   0.324
 7875SOL     OW24523   6.261   4.639   6.391
 7875SOL    HW124524   6.273   4.616   6.295
 7875SOL    HW224525   6.292   4.562   6.448
 7876SOL     OW24526   1.397   0.047   3.777
 7876SOL    HW124527   1.300   0.047   3.802
 7876SOL    HW224528   1.452   0.038   3.860
 7877SOL     OW24529   0.237   2.790   3.274
 7877SOL    HW124530   0.203   2.855   3.206
 7877SOL    HW224531   0.161   2.757   3.329
 7878SOL     OW24532   4.803   4.879   3.084
 7878SOL    HW124533   4.791   4.960   3.141
 7878SOL    HW224534   4.720   4.824   3.086
 7879SOL     OW24535   3.269   4.902   2.746
 7879SOL    HW124536   3.260   4.888   2.845
 7879SOL    HW224537   3.364   4.919   2.723
 7880SOL     OW24538   1.181   4.503   2.287
 7880SOL    HW124539   1.242   4.580   2.268
 7880SOL    HW224540   1.103   4.506   2.225
 7881SOL     OW24541   4.970   4.251   3.727
 7881SOL    HW124542   4.930   4.162   3.748
 7881SOL    HW224543   5.018   4.246   3.640
 7882SOL     OW24544   1.138   3.276   0.009
 7882SOL    HW124545   1.064   3.253   6.961
 7882SOL    HW224546   1.226   3.267   6.978
 7883SOL     OW24547   0.980   0.439   5.256
 7883SOL    HW124548   0.884   0.414   5.266
 7883SOL    HW224549   0.994   0.533   5.287
 7884SOL     OW24550   0.700   2.845   4.202
 7884SOL    HW124551   0.770   2.886   4.143
 7884SOL    HW224552   0.735   2.762   4.244
 7885SOL     OW24553   6.751   6.127   6.387
 7885SOL    HW124554   6.757   6.038   6.431
 7885SOL    HW224555   6.662   6.169   6.409
 7886SOL     OW24556   5.200   4.734   0.776
 7886SOL    HW124557   5.138   4.807   0.748
 7886SOL    HW224558   5.261   4.767   0.848
 7887SOL     OW24559   4.646   2.706   5.908
 7887SOL    HW124560   4.722   2.768   5.924
 7887SOL    HW224561   4.675   2.612   5.927
 7888SOL     OW24562   5.116   0.384   4.498
 7888SOL    HW124563   5.166   0.387   4.584
 7888SOL    HW224564   5.057   0.304   4.496
 7889SOL     OW24565   0.807   5.034   2.290
 7889SOL    HW124566   0.746   5.113   2.280
 7889SOL    HW224567   0.798   4.974   2.211
 7890SOL     OW24568   1.815   2.988   2.626
 7890SOL    HW124569   1.810   2.976   2.527
 7890SOL    HW224570   1.884   2.925   2.663
 7891SOL     OW24571   1.158   4.842   3.125
 7891SOL    HW124572   1.166   4.747   3.156
 7891SOL    HW224573   1.244   4.889   3.142
 7892SOL     OW24574   2.435   2.807   5.607
 7892SOL    HW124575   2.475   2.716   5.613
 7892SOL    HW224576   2.482   2.859   5.535
 7893SOL     OW24577   6.000   6.156   1.785
 7893SOL    HW124578   5.925   6.106   1.741
 7893SOL    HW224579   6.078   6.161   1.722
 7894SOL     OW24580   2.765   0.543   1.735
 7894SOL    HW124581   2.690   0.492   1.777
 7894SOL    HW224582   2.781   0.627   1.786
 7895SOL     OW24583   6.609   1.400   3.375
 7895SOL    HW124584   6.695   1.448   3.357
 7895SOL    HW224585   6.576   1.358   3.291
 7896SOL     OW24586   4.015   1.515   6.086
 7896SOL    HW124587   3.924   1.494   6.119
 7896SOL    HW224588   4.009   1.570   6.003
 7897SOL     OW24589   2.706   2.875   6.340
 7897SOL    HW124590   2.779   2.943   6.338
 7897SOL    HW224591   2.745   2.783   6.331
 7898SOL     OW24592   4.333   2.257   3.818
 7898SOL    HW124593   4.376   2.345   3.837
 7898SOL    HW224594   4.305   2.253   3.722
 7899SOL     OW24595   4.801   0.776   2.890
 7899SOL    HW124596   4.900   0.785   2.893
 7899SOL    HW224597   4.773   0.749   2.798
 7900SOL     OW24598   1.825   5.128   0.964
 7900SOL    HW124599   1.789   5.154   1.054
 7900SOL    HW224600   1.912   5.080   0.976
 7901SOL     OW24601   5.848   5.827   0.709
 7901SOL    HW124602   5.904   5.865   0.783
 7901SOL    HW224603   5.822   5.900   0.647
 7902SOL     OW24604   5.225   4.909   6.632
 7902SOL    HW124605   5.153   4.977   6.617
 7902SOL    HW224606   5.310   4.940   6.588
 7903SOL     OW24607   0.150   2.374   6.908
 7903SOL    HW124608   0.051   2.362   6.912
 7903SOL    HW224609   0.195   2.285   6.912
 7904SOL     OW24610   6.577   1.060   2.512
 7904SOL    HW124611   6.509   1.076   2.584
 7904SOL    HW224612   6.603   0.963   2.513
 7905SOL     OW24613   2.957   2.091   0.968
 7905SOL    HW124614   3.011   2.012   0.996
 7905SOL    HW224615   2.860   2.067   0.966
 7906SOL     OW24616   6.890   5.380   0.223
 7906SOL    HW124617   6.937   5.392   0.136
 7906SOL    HW224618   6.811   5.441   0.227
 7907SOL     OW24619   5.782   2.951   2.340
 7907SOL    HW124620   5.767   2.958   2.438
 7907SOL    HW224621   5.789   3.043   2.300
 7908SOL     OW24622   6.076   1.953   3.168
 7908SOL    HW124623   6.083   2.053   3.175
 7908SOL    HW224624   6.048   1.928   3.076
 7909SOL     OW24625   4.608   5.438   5.602
 7909SOL    HW124626   4.547   5.440   5.523
 7909SOL    HW224627   4.621   5.344   5.633
 7910SOL     OW24628   5.930   3.975   6.194
 7910SOL    HW124629   6.016   3.944   6.153
 7910SOL    HW224630   5.853   3.934   6.144
 7911SOL     OW24631   6.822   5.115   0.260
 7911SOL    HW124632   6.870   5.200   0.281
 7911SOL    HW224633   6.803   5.111   0.162
 7912SOL     OW24634   0.129   5.112   5.410
 7912SOL    HW124635   0.168   5.205   5.408
 7912SOL    HW224636   0.030   5.117   5.398
 7913SOL     OW24637   0.928   6.123   6.620
 7913SOL    HW124638   0.997   6.155   6.555
 7913SOL    HW224639   0.838   6.129   6.578
 7914SOL     OW24640   0.287   3.429   2.398
 7914SOL    HW124641   0.332   3.495   2.458
 7914SOL    HW224642   0.234   3.365   2.453
 7915SOL     OW24643   4.639   1.202   2.003
 7915SOL    HW124644   4.691   1.285   2.020
 7915SOL    HW224645   4.560   1.199   2.066
 7916SOL     OW24646   4.659   3.290   5.329
 7916SOL    HW124647   4.731   3.221   5.321
 7916SOL    HW224648   4.677   3.365   5.265
 7917SOL     OW24649   3.666   4.109   3.514
 7917SOL    HW124650   3.583   4.122   3.568
 7917SOL    HW224651   3.737   4.068   3.572
 7918SOL     OW24652   6.368   2.304   2.084
 7918SOL    HW124653   6.328   2.235   2.144
 7918SOL    HW224654   6.376   2.267   1.992
 7919SOL     OW24655   5.876   4.848   1.788
 7919SOL    HW124656   5.935   4.926   1.766
 7919SOL    HW224657   5.909   4.766   1.741
 7920SOL     OW24658   0.538   6.171   2.151
 7920SOL    HW124659   0.484   6.089   2.170
 7920SOL    HW224660   0.587   6.199   2.234
 7921SOL     OW24661   3.564   6.687   1.848
 7921SOL    HW124662   3.508   6.634   1.911
 7921SOL    HW224663   3.530   6.676   1.755
 7922SOL     OW24664   0.765   4.920   6.569
 7922SOL    HW124665   0.843   4.867   6.535
 7922SOL    HW224666   0.773   4.933   6.668
 7923SOL     OW24667   0.973   1.353   3.001
 7923SOL    HW124668   1.035   1.283   2.965
 7923SOL    HW224669   0.980   1.436   2.944
 7924SOL     OW24670   2.489   0.921   4.010
 7924SOL    HW124671   2.541   0.857   4.068
 7924SOL    HW224672   2.541   0.939   3.927
 7925SOL     OW24673   0.252   0.885   6.694
 7925SOL    HW124674   0.325   0.949   6.673
 7925SOL    HW224675   0.209   0.910   6.781
 7926SOL     OW24676   3.193   0.260   1.912
 7926SOL    HW124677   3.140   0.177   1.895
 7926SOL    HW224678   3.138   0.325   1.964
 7927SOL     OW24679   4.709   4.643   4.078
 7927SOL    HW124680   4.735   4.581   4.004
 7927SOL    HW224681   4.609   4.651   4.081
 7928SOL     OW24682   1.269   4.754   0.355
 7928SOL    HW124683   1.343   4.781   0.293
 7928SOL    HW224684   1.247   4.657   0.340
 7929SOL     OW24685   3.979   3.746   4.504
 7929SOL    HW124686   3.951   3.823   4.447
 7929SOL    HW224687   3.977   3.661   4.451
 7930SOL     OW24688   5.366   5.780   4.200
 7930SOL    HW124689   5.283   5.792   4.145
 7930SOL    HW224690   5.440   5.833   4.160
 7931SOL     OW24691   1.983   3.450   0.635
 7931SOL    HW124692   1.961   3.381   0.704
 7931SOL    HW224693   2.016   3.405   0.552
 7932SOL     OW24694   2.868   6.933   1.166
 7932SOL    HW124695   2.850   6.929   1.068
 7932SOL    HW224696   2.966   6.943   1.182
 7933SOL     OW24697   1.136   0.862   6.404
 7933SOL    HW124698   1.112   0.952   6.440
 7933SOL    HW224699   1.099   0.852   6.312
 7934SOL     OW24700   4.058   3.007   5.575
 7934SOL    HW124701   4.147   3.017   5.620
 7934SOL    HW224702   4.069   2.956   5.489
 7935SOL     OW24703   4.461   6.171   1.352
 7935SOL    HW124704   4.402   6.234   1.402
 7935SOL    HW224705   4.529   6.223   1.300
 7936SOL     OW24706   4.894   5.450   3.121
 7936SOL    HW124707   4.819   5.508   3.089
 7936SOL    HW224708   4.883   5.433   3.219
 7937SOL     OW24709   6.316   6.723   5.877
 7937SOL    HW124710   6.396   6.783   5.888
 7937SOL    HW224711   6.247   6.770   5.821
 7938SOL     OW24712   5.513   4.424   4.447
 7938SOL    HW124713   5.524   4.523   4.445
 7938SOL    HW224714   5.600   4.380   4.425
 7939SOL     OW24715   0.772   6.726   4.700
 7939SOL    HW124716   0.699   6.722   4.632
 7939SOL    HW224717   0.854   6.681   4.664
 7940SOL     OW24718   1.832   5.613   0.802
 7940SOL    HW124719   1.908   5.557   0.837
 7940SOL    HW224720   1.779   5.648   0.879
 7941SOL     OW24721   0.517   0.485   0.284
 7941SOL    HW124722   0.597   0.426   0.289
 7941SOL    HW224723   0.541   0.571   0.240
 7942SOL     OW24724   1.675   1.749   1.171
 7942SOL    HW124725   1.577   1.749   1.193
 7942SOL    HW224726   1.701   1.661   1.132
 7943SOL     OW24727   5.785   2.088   0.454
 7943SOL    HW124728   5.750   2.003   0.495
 7943SOL    HW224729   5.837   2.139   0.523
 7944SOL     OW24730   0.388   4.147   2.095
 7944SOL    HW124731   0.422   4.053   2.089
 7944SOL    HW224732   0.465   4.210   2.109
 7945SOL     OW24733   5.291   6.488   1.592
 7945SOL    HW124734   5.216   6.529   1.540
 7945SOL    HW224735   5.294   6.390   1.573
 7946SOL     OW24736   1.576   1.748   5.770
 7946SOL    HW124737   1.504   1.817   5.769
 7946SOL    HW224738   1.598   1.723   5.864
 7947SOL     OW24739   4.227   4.815   6.460
 7947SOL    HW124740   4.249   4.912   6.447
 7947SOL    HW224741   4.141   4.794   6.415
 7948SOL     OW24742   1.176   5.059   6.924
 7948SOL    HW124743   1.225   5.017   7.001
 7948SOL    HW224744   1.226   5.139   6.892
 7949SOL     OW24745   6.456   4.315   4.294
 7949SOL    HW124746   6.413   4.393   4.249
 7949SOL    HW224747   6.521   4.348   4.363
 7950SOL     OW24748   3.338   4.989   4.338
 7950SOL    HW124749   3.299   5.080   4.327
 7950SOL    HW224750   3.286   4.938   4.407
 7951SOL     OW24751   2.902   3.323   0.820
 7951SOL    HW124752   2.851   3.240   0.795
 7951SOL    HW224753   2.970   3.301   0.889
 7952SOL     OW24754   5.015   4.414   0.382
 7952SOL    HW124755   4.970   4.500   0.360
 7952SOL    HW224756   5.011   4.353   0.303
 7953SOL     OW24757   2.389   2.759   3.193
 7953SOL    HW124758   2.336   2.819   3.252
 7953SOL    HW224759   2.372   2.783   3.097
 7954SOL     OW24760   5.046   5.495   5.218
 7954SOL    HW124761   5.134   5.447   5.213
 7954SOL    HW224762   5.020   5.524   5.126
 7955SOL     OW24763   1.517   0.087   6.283
 7955SOL    HW124764   1.527   0.086   6.183
 7955SOL    HW224765   1.444   0.150   6.309
 7956SOL     OW24766   6.194   6.889   4.088
 7956SOL    HW124767   6.245   6.956   4.143
 7956SOL    HW224768   6.226   6.797   4.110
 7957SOL     OW24769   0.973   2.539   1.314
 7957SOL    HW124770   1.045   2.490   1.363
 7957SOL    HW224771   0.889   2.485   1.315
 7958SOL     OW24772   2.232   5.505   2.823
 7958SOL    HW124773   2.262   5.410   2.820
 7958SOL    HW224774   2.285   5.554   2.892
 7959SOL     OW24775   4.833   5.268   0.734
 7959SOL    HW124776   4.856   5.355   0.778
 7959SOL    HW224777   4.913   5.234   0.685
 7960SOL     OW24778   2.452   2.489   0.658
 7960SOL    HW124779   2.396   2.411   0.629
 7960SOL    HW224780   2.401   2.545   0.723
 7961SOL     OW24781   1.886   5.642   6.873
 7961SOL    HW124782   1.818   5.663   6.943
 7961SOL    HW224783   1.954   5.716   6.870
 7962SOL     OW24784   1.173   0.403   2.039
 7962SOL    HW124785   1.075   0.421   2.041
 7962SOL    HW224786   1.211   0.411   2.131
 7963SOL     OW24787   1.259   6.799   4.459
 7963SOL    HW124788   1.310   6.884   4.467
 7963SOL    HW224789   1.243   6.760   4.549
 7964SOL     OW24790   6.164   5.872   3.445
 7964SOL    HW124791   6.150   5.851   3.348
 7964SOL    HW224792   6.163   5.971   3.459
 7965SOL     OW24793   5.984   1.920   0.604
 7965SOL    HW124794   6.050   1.851   0.634
 7965SOL    HW224795   5.926   1.947   0.682
 7966SOL     OW24796   6.662   6.232   3.698
 7966SOL    HW124797   6.717   6.157   3.736
 7966SOL    HW224798   6.569   6.200   3.682
 7967SOL     OW24799   3.157   6.405   2.912
 7967SOL    HW124800   3.058   6.416   2.910
 7967SOL    HW224801   3.180   6.308   2.901
 7968SOL     OW24802   1.956   1.095   1.521
 7968SOL    HW124803   2.027   1.105   1.451
 7968SOL    HW224804   1.952   0.999   1.551
 7969SOL     OW24805   3.310   2.152   3.556
 7969SOL    HW124806   3.374   2.173   3.482
 7969SOL    HW224807   3.225   2.116   3.518
 7970SOL     OW24808   0.383   5.208   3.338
 7970SOL    HW124809   0.414   5.119   3.370
 7970SOL    HW224810   0.284   5.204   3.321
 7971SOL     OW24811   2.256   1.657   2.284
 7971SOL    HW124812   2.335   1.709   2.251
 7971SOL    HW224813   2.288   1.583   2.343
 7972SOL     OW24814   1.104   4.832   1.980
 7972SOL    HW124815   1.148   4.751   1.941
 7972SOL    HW224816   1.107   4.907   1.913
 7973SOL     OW24817   4.561   2.047   2.338
 7973SOL    HW124818   4.557   2.115   2.412
 7973SOL    HW224819   4.624   1.974   2.363
 7974SOL     OW24820   5.614   6.686   4.267
 7974SOL    HW124821   5.567   6.683   4.355
 7974SOL    HW224822   5.662   6.773   4.258
 7975SOL     OW24823   2.614   0.747   3.356
 7975SOL    HW124824   2.622   0.721   3.260
 7975SOL    HW224825   2.577   0.839   3.363
 7976SOL     OW24826   0.567   6.802   6.157
 7976SOL    HW124827   0.510   6.787   6.238
 7976SOL    HW224828   0.575   6.900   6.140
 7977SOL     OW24829   4.946   6.757   1.898
 7977SOL    HW124830   4.993   6.670   1.916
 7977SOL    HW224831   5.009   6.820   1.853
 7978SOL     OW24832   3.752   2.363   6.461
 7978SOL    HW124833   3.815   2.382   6.385
 7978SOL    HW224834   3.802   2.367   6.547
 7979SOL     OW24835   4.391   6.968   4.403
 7979SOL    HW124836   4.361   6.995   4.312
 7979SOL    HW224837   4.473   6.912   4.396
 7980SOL     OW24838   2.556   0.221   2.109
 7980SOL    HW124839   2.561   0.157   2.185
 7980SOL    HW224840   2.484   0.289   2.127
 7981SOL     OW24841   1.258   6.127   3.056
 7981SOL    HW124842   1.283   6.211   3.102
 7981SOL    HW224843   1.172   6.092   3.093
 7982SOL     OW24844   0.154   2.783   0.779
 7982SOL    HW124845   0.135   2.812   0.873
 7982SOL    HW224846   0.092   2.830   0.716
 7983SOL     OW24847   4.564   2.600   2.005
 7983SOL    HW124848   4.614   2.670   2.055
 7983SOL    HW224849   4.591   2.510   2.039
 7984SOL     OW24850   0.045   0.574   0.411
 7984SOL    HW124851   0.034   0.509   0.336
 7984SOL    HW224852   0.142   0.598   0.421
 7985SOL     OW24853   0.705   1.227   0.845
 7985SOL    HW124854   0.609   1.208   0.827
 7985SOL    HW224855   0.760   1.192   0.769
 7986SOL     OW24856   4.357   2.645   0.462
 7986SOL    HW124857   4.339   2.692   0.548
 7986SOL    HW224858   4.297   2.565   0.454
 7987SOL     OW24859   0.167   2.172   4.844
 7987SOL    HW124860   0.110   2.106   4.795
 7987SOL    HW224861   0.174   2.256   4.791
 7988SOL     OW24862   2.644   1.463   5.594
 7988SOL    HW124863   2.588   1.420   5.666
 7988SOL    HW224864   2.656   1.560   5.616
 7989SOL     OW24865   3.565   3.234   5.343
 7989SOL    HW124866   3.608   3.324   5.330
 7989SOL    HW224867   3.570   3.183   5.257
 7990SOL     OW24868   2.240   2.584   4.786
 7990SOL    HW124869   2.190   2.549   4.866
 7990SOL    HW224870   2.288   2.668   4.811
 7991SOL     OW24871   0.149   3.602   4.625
 7991SOL    HW124872   0.136   3.645   4.715
 7991SOL    HW224873   0.107   3.659   4.555
 7992SOL     OW24874   2.302   0.762   0.542
 7992SOL    HW124875   2.234   0.715   0.485
 7992SOL    HW224876   2.372   0.696   0.571
 7993SOL     OW24877   2.324   6.809   6.396
 7993SOL    HW124878   2.247   6.750   6.372
 7993SOL    HW224879   2.314   6.898   6.353
 7994SOL     OW24880   6.222   0.414   3.997
 7994SOL    HW124881   6.130   0.451   3.984
 7994SOL    HW224882   6.290   0.484   3.977
 7995SOL     OW24883   4.326   4.946   3.083
 7995SOL    HW124884   4.253   5.014   3.086
 7995SOL    HW224885   4.415   4.991   3.082
 7996SOL     OW24886   3.583   0.876   5.216
 7996SOL    HW124887   3.593   0.815   5.295
 7996SOL    HW224888   3.671   0.917   5.194
 7997SOL     OW24889   5.489   2.361   2.303
 7997SOL    HW124890   5.543   2.444   2.282
 7997SOL    HW224891   5.457   2.366   2.398
 7998SOL     OW24892   5.940   5.218   6.725
 7998SOL    HW124893   5.934   5.202   6.626
 7998SOL    HW224894   5.993   5.144   6.767
 7999SOL     OW24895   1.853   0.677   5.636
 7999SOL    HW124896   1.878   0.667   5.540
 7999SOL    HW224897   1.815   0.591   5.670
 8000SOL     OW24898   5.686   0.032   5.831
 8000SOL    HW124899   5.655   0.040   5.737
 8000SOL    HW224900   5.760   0.097   5.847
 8001SOL     OW24901   2.109   6.635   1.272
 8001SOL    HW124902   2.107   6.707   1.340
 8001SOL    HW224903   2.179   6.568   1.296
 8002SOL     OW24904   5.446   3.178   5.780
 8002SOL    HW124905   5.389   3.259   5.793
 8002SOL    HW224906   5.542   3.203   5.787
 8003SOL     OW24907   3.761   4.874   3.385
 8003SOL    HW124908   3.691   4.859   3.315
 8003SOL    HW224909   3.721   4.863   3.475
 8004SOL     OW24910   1.453   3.890   2.134
 8004SOL    HW124911   1.390   3.865   2.207
 8004SOL    HW224912   1.402   3.915   2.052
 8005SOL     OW24913   2.633   1.088   1.818
 8005SOL    HW124914   2.733   1.091   1.827
 8005SOL    HW224915   2.601   0.996   1.843
 8006SOL     OW24916   3.388   6.389   0.923
 8006SOL    HW124917   3.341   6.365   1.008
 8006SOL    HW224918   3.326   6.377   0.846
 8007SOL     OW24919   0.688   0.742   4.146
 8007SOL    HW124920   0.659   0.663   4.199
 8007SOL    HW224921   0.699   0.716   4.050
 8008SOL     OW24922   6.211   5.916   0.587
 8008SOL    HW124923   6.241   5.848   0.653
 8008SOL    HW224924   6.230   5.884   0.494
 8009SOL     OW24925   0.110   0.008   3.854
 8009SOL    HW124926   0.024   6.975   3.872
 8009SOL    HW224927   0.145   6.996   3.765
 8010SOL     OW24928   2.180   2.888   6.798
 8010SOL    HW124929   2.217   2.851   6.713
 8010SOL    HW224930   2.210   2.983   6.809
 8011SOL     OW24931   2.210   2.056   0.982
 8011SOL    HW124932   2.127   2.078   0.930
 8011SOL    HW224933   2.291   2.075   0.926
 8012SOL     OW24934   3.066   6.772   3.007
 8012SOL    HW124935   3.002   6.724   3.066
 8012SOL    HW224936   3.073   6.723   2.919
 8013SOL     OW24937   6.374   5.290   5.224
 8013SOL    HW124938   6.376   5.330   5.132
 8013SOL    HW224939   6.293   5.324   5.272
 8014SOL     OW24940   1.786   0.282   6.789
 8014SOL    HW124941   1.778   0.211   6.859
 8014SOL    HW224942   1.814   0.239   6.703
 8015SOL     OW24943   1.602   2.087   6.540
 8015SOL    HW124944   1.619   2.181   6.570
 8015SOL    HW224945   1.524   2.085   6.478
 8016SOL     OW24946   3.490   6.636   0.984
 8016SOL    HW124947   3.444   6.550   0.961
 8016SOL    HW224948   3.480   6.653   1.082
 8017SOL     OW24949   5.775   4.413   4.690
 8017SOL    HW124950   5.739   4.505   4.674
 8017SOL    HW224951   5.727   4.372   4.767
 8018SOL     OW24952   5.394   2.647   4.577
 8018SOL    HW124953   5.354   2.677   4.664
 8018SOL    HW224954   5.488   2.618   4.592
 8019SOL     OW24955   2.433   5.044   1.634
 8019SOL    HW124956   2.517   5.097   1.631
 8019SOL    HW224957   2.436   4.981   1.712
 8020SOL     OW24958   5.927   6.394   6.300
 8020SOL    HW124959   5.958   6.321   6.240
 8020SOL    HW224960   5.982   6.394   6.384
 8021SOL     OW24961   0.689   0.713   1.195
 8021SOL    HW124962   0.778   0.682   1.162
 8021SOL    HW224963   0.688   0.813   1.199
 8022SOL     OW24964   4.124   5.432   3.418
 8022SOL    HW124965   4.171   5.520   3.409
 8022SOL    HW224966   4.066   5.434   3.500
 8023SOL     OW24967   5.880   6.507   3.786
 8023SOL    HW124968   5.896   6.522   3.884
 8023SOL    HW224969   5.796   6.454   3.774
 8024SOL     OW24970   4.978   5.093   4.575
 8024SOL    HW124971   4.889   5.108   4.619
 8024SOL    HW224972   4.967   5.104   4.476
 8025SOL     OW24973   3.186   5.662   0.464
 8025SOL    HW124974   3.219   5.742   0.414
 8025SOL    HW224975   3.222   5.664   0.557
 8026SOL     OW24976   1.971   2.641   1.026
 8026SOL    HW124977   1.877   2.648   0.992
 8026SOL    HW224978   1.988   2.715   1.092
 8027SOL     OW24979   5.294   3.403   5.816
 8027SOL    HW124980   5.210   3.384   5.867
 8027SOL    HW224981   5.271   3.422   5.720
 8028SOL     OW24982   5.421   5.011   0.241
 8028SOL    HW124983   5.485   5.011   0.164
 8028SOL    HW224984   5.400   4.917   0.267
 8029SOL     OW24985   3.035   4.869   0.515
 8029SOL    HW124986   2.945   4.908   0.532
 8029SOL    HW224987   3.097   4.941   0.484
 8030SOL     OW24988   5.958   4.192   6.971
 8030SOL    HW124989   5.976   4.126   6.898
 8030SOL    HW224990   5.986   4.283   6.941
 8031SOL     OW24991   4.058   6.165   1.589
 8031SOL    HW124992   4.026   6.238   1.648
 8031SOL    HW224993   4.002   6.162   1.506
 8032SOL     OW24994   5.423   5.065   6.253
 8032SOL    HW124995   5.361   5.017   6.191
 8032SOL    HW224996   5.406   5.035   6.347
 8033SOL     OW24997   6.055   2.415   6.958
 8033SOL    HW124998   6.112   2.364   0.007
 8033SOL    HW224999   6.013   2.492   7.006
 8034SOL     OW25000   5.988   1.144   5.322
 8034SOL    HW125001   6.044   1.150   5.404
 8034SOL    HW225002   6.047   1.155   5.241
 8035SOL     OW25003   5.299   6.121   6.990
 8035SOL    HW125004   5.380   6.062   6.996
 8035SOL    HW225005   5.305   6.193   0.043
 8036SOL     OW25006   1.884   4.026   1.481
 8036SOL    HW125007   1.854   4.088   1.554
 8036SOL    HW225008   1.964   3.975   1.512
 8037SOL     OW25009   1.698   3.414   0.841
 8037SOL    HW125010   1.709   3.483   0.912
 8037SOL    HW225011   1.779   3.354   0.840
 8038SOL     OW25012   6.945   1.788   3.872
 8038SOL    HW125013   6.853   1.786   3.912
 8038SOL    HW225014   6.938   1.778   3.773
 8039SOL     OW25015   2.577   6.457   4.677
 8039SOL    HW125016   2.548   6.362   4.685
 8039SOL    HW225017   2.497   6.516   4.666
 8040SOL     OW25018   6.547   5.688   1.067
 8040SOL    HW125019   6.508   5.652   1.151
 8040SOL    HW225020   6.484   5.673   0.991
 8041SOL     OW25021   4.067   1.976   0.319
 8041SOL    HW125022   3.968   1.970   0.306
 8041SOL    HW225023   4.087   2.038   0.395
 8042SOL     OW25024   2.581   3.244   1.141
 8042SOL    HW125025   2.596   3.146   1.155
 8042SOL    HW225026   2.666   3.293   1.158
 8043SOL     OW25027   2.287   0.187   1.741
 8043SOL    HW125028   2.193   0.197   1.771
 8043SOL    HW225029   2.289   0.157   1.645
 8044SOL     OW25030   3.240   3.977   1.885
 8044SOL    HW125031   3.259   3.884   1.853
 8044SOL    HW225032   3.221   3.975   1.984
 8045SOL     OW25033   6.456   2.717   3.065
 8045SOL    HW125034   6.397   2.719   2.984
 8045SOL    HW225035   6.453   2.805   3.112
 8046SOL     OW25036   0.035   5.457   6.088
 8046SOL    HW125037   0.090   5.398   6.030
 8046SOL    HW225038   7.008   5.402   6.161
 8047SOL     OW25039   3.229   5.832   3.971
 8047SOL    HW125040   3.197   5.841   3.877
 8047SOL    HW225041   3.153   5.809   4.031
 8048SOL     OW25042   6.130   0.688   5.788
 8048SOL    HW125043   6.214   0.678   5.841
 8048SOL    HW225044   6.146   0.659   5.694
 8049SOL     OW25045   1.720   5.199   0.504
 8049SOL    HW125046   1.651   5.159   0.444
 8049SOL    HW225047   1.686   5.200   0.598
 8050SOL     OW25048   1.439   2.804   1.607
 8050SOL    HW125049   1.493   2.876   1.652
 8050SOL    HW225050   1.456   2.807   1.508
 8051SOL     OW25051   3.781   1.439   3.360
 8051SOL    HW125052   3.878   1.415   3.369
 8051SOL    HW225053   3.758   1.511   3.426
 8052SOL     OW25054   3.315   2.066   3.008
 8052SOL    HW125055   3.224   2.108   3.010
 8052SOL    HW225056   3.320   1.994   3.078
 8053SOL     OW25057   3.876   3.336   2.094
 8053SOL    HW125058   3.897   3.429   2.065
 8053SOL    HW225059   3.899   3.325   2.191
 8054SOL     OW25060   3.959   6.275   4.707
 8054SOL    HW125061   3.984   6.363   4.667
 8054SOL    HW225062   4.037   6.212   4.700
 8055SOL     OW25063   1.407   0.062   5.430
 8055SOL    HW125064   1.423   7.013   5.355
 8055SOL    HW225065   1.366   0.145   5.394
 8056SOL     OW25066   4.045   1.950   3.002
 8056SOL    HW125067   3.977   1.884   2.971
 8056SOL    HW225068   4.052   1.945   3.102
 8057SOL     OW25069   4.268   6.294   3.782
 8057SOL    HW125070   4.351   6.311   3.835
 8057SOL    HW225071   4.206   6.236   3.835
 8058SOL     OW25072   2.022   0.145   3.299
 8058SOL    HW125073   2.060   0.194   3.221
 8058SOL    HW225074   1.928   0.118   3.279
 8059SOL     OW25075   2.791   1.783   3.829
 8059SOL    HW125076   2.815   1.702   3.776
 8059SOL    HW225077   2.875   1.824   3.866
 8060SOL     OW25078   0.748   1.490   5.225
 8060SOL    HW125079   0.666   1.467   5.172
 8060SOL    HW225080   0.777   1.583   5.204
 8061SOL     OW25081   0.280   5.751   1.400
 8061SOL    HW125082   0.226   5.734   1.482
 8061SOL    HW225083   0.369   5.789   1.427
 8062SOL     OW25084   2.164   3.820   2.324
 8062SOL    HW125085   2.125   3.793   2.412
 8062SOL    HW225086   2.145   3.749   2.256
 8063SOL     OW25087   2.898   2.830   6.983
 8063SOL    HW125088   2.902   2.923   6.947
 8063SOL    HW225089   2.873   2.831   0.064
 8064SOL     OW25090   6.567   3.271   6.982
 8064SOL    HW125091   6.536   3.280   6.887
 8064SOL    HW225092   6.488   3.254   0.026
 8065SOL     OW25093   4.388   0.126   6.101
 8065SOL    HW125094   4.467   0.167   6.055
 8065SOL    HW225095   4.312   0.119   6.036
 8066SOL     OW25096   2.038   0.128   1.448
 8066SOL    HW125097   1.982   0.107   1.528
 8066SOL    HW225098   2.005   0.212   1.405
 8067SOL     OW25099   5.181   2.149   1.761
 8067SOL    HW125100   5.219   2.062   1.731
 8067SOL    HW225101   5.224   2.224   1.711
 8068SOL     OW25102   0.544   4.535   4.156
 8068SOL    HW125103   0.615   4.475   4.194
 8068SOL    HW225104   0.519   4.504   4.065
 8069SOL     OW25105   1.830   6.233   2.230
 8069SOL    HW125106   1.847   6.187   2.143
 8069SOL    HW225107   1.875   6.322   2.231
 8070SOL     OW25108   3.939   0.244   2.109
 8070SOL    HW125109   3.844   0.266   2.129
 8070SOL    HW225110   3.999   0.309   2.156
 8071SOL     OW25111   3.792   6.255   0.138
 8071SOL    HW125112   3.781   6.264   0.039
 8071SOL    HW225113   3.767   6.162   0.166
 8072SOL     OW25114   5.421   0.751   2.001
 8072SOL    HW125115   5.426   0.781   1.905
 8072SOL    HW225116   5.326   0.752   2.031
 8073SOL     OW25117   3.878   6.413   5.498
 8073SOL    HW125118   3.906   6.484   5.563
 8073SOL    HW225119   3.778   6.412   5.491
 8074SOL     OW25120   3.174   3.749   6.991
 8074SOL    HW125121   3.119   3.742   0.058
 8074SOL    HW225122   3.214   3.660   6.970
 8075SOL     OW25123   6.167   1.329   2.288
 8075SOL    HW125124   6.121   1.250   2.249
 8075SOL    HW225125   6.225   1.371   2.218
 8076SOL     OW25126   5.265   2.947   6.571
 8076SOL    HW125127   5.296   3.024   6.626
 8076SOL    HW225128   5.181   2.909   6.611
 8077SOL     OW25129   1.104   1.248   0.370
 8077SOL    HW125130   1.203   1.252   0.358
 8077SOL    HW225131   1.080   1.265   0.465
 8078SOL     OW25132   5.976   3.389   0.301
 8078SOL    HW125133   6.076   3.392   0.298
 8078SOL    HW225134   5.945   3.300   0.334
 8079SOL     OW25135   7.006   1.957   1.828
 8079SOL    HW125136   0.002   1.879   1.767
 8079SOL    HW225137   6.931   2.014   1.796
 8080SOL     OW25138   3.872   5.076   0.122
 8080SOL    HW125139   3.825   5.156   0.159
 8080SOL    HW225140   3.831   5.052   0.034
 8081SOL     OW25141   5.821   0.368   5.629
 8081SOL    HW125142   5.877   0.287   5.615
 8081SOL    HW225143   5.864   0.427   5.697
 8082SOL     OW25144   6.278   3.178   4.207
 8082SOL    HW125145   6.287   3.080   4.226
 8082SOL    HW225146   6.305   3.230   4.287
 8083SOL     OW25147   5.175   2.692   4.391
 8083SOL    HW125148   5.166   2.601   4.350
 8083SOL    HW225149   5.252   2.693   4.454
 8084SOL     OW25150   0.021   0.156   1.799
 8084SOL    HW125151   6.943   0.120   1.808
 8084SOL    HW225152   0.059   0.125   1.712
 8085SOL     OW25153   6.391   2.082   0.846
 8085SOL    HW125154   6.365   1.986   0.857
 8085SOL    HW225155   6.346   2.120   0.765
 8086SOL     OW25156   3.214   6.812   5.770
 8086SOL    HW125157   3.229   6.739   5.837
 8086SOL    HW225158   3.300   6.861   5.755
 8087SOL     OW25159   2.330   3.193   1.303
 8087SOL    HW125160   2.333   3.120   1.371
 8087SOL    HW225161   2.374   3.275   1.340
 8088SOL     OW25162   4.271   0.371   2.738
 8088SOL    HW125163   4.177   0.338   2.727
 8088SOL    HW225164   4.287   0.393   2.834
 8089SOL     OW25165   5.915   2.639   0.892
 8089SOL    HW125166   5.917   2.544   0.921
 8089SOL    HW225167   5.964   2.695   0.960
 8090SOL     OW25168   4.494   2.087   4.819
 8090SOL    HW125169   4.447   2.175   4.827
 8090SOL    HW225170   4.499   2.044   4.910
 8091SOL     OW25171   3.138   5.280   5.882
 8091SOL    HW125172   3.227   5.317   5.854
 8091SOL    HW225173   3.118   5.199   5.829
 8092SOL     OW25174   0.376   1.798   4.178
 8092SOL    HW125175   0.456   1.833   4.226
 8092SOL    HW225176   0.297   1.795   4.240
 8093SOL     OW25177   5.494   5.929   1.063
 8093SOL    HW125178   5.474   5.836   1.094
 8093SOL    HW225179   5.436   5.994   1.112
 8094SOL     OW25180   1.429   3.745   4.329
 8094SOL    HW125181   1.361   3.695   4.382
 8094SOL    HW225182   1.472   3.814   4.387
 8095SOL     OW25183   5.858   3.600   4.669
 8095SOL    HW125184   5.816   3.534   4.606
 8095SOL    HW225185   5.794   3.621   4.743
 8096SOL     OW25186   3.845   0.133   1.079
 8096SOL    HW125187   3.758   0.128   1.030
 8096SOL    HW225188   3.831   0.174   1.169
 8097SOL     OW25189   4.490   0.949   4.721
 8097SOL    HW125190   4.448   0.943   4.812
 8097SOL    HW225191   4.486   1.043   4.689
 8098SOL     OW25192   2.768   0.299   4.236
 8098SOL    HW125193   2.797   0.357   4.313
 8098SOL    HW225194   2.809   0.208   4.247
 8099SOL     OW25195   5.352   6.544   4.990
 8099SOL    HW125196   5.320   6.552   5.084
 8099SOL    HW225197   5.275   6.530   4.928
 8100SOL     OW25198   0.875   6.251   1.379
 8100SOL    HW125199   0.806   6.324   1.376
 8100SOL    HW225200   0.955   6.280   1.327
 8101SOL     OW25201   0.772   5.498   2.695
 8101SOL    HW125202   0.857   5.452   2.719
 8101SOL    HW225203   0.767   5.510   2.596
 8102SOL     OW25204   0.421   6.945   6.376
 8102SOL    HW125205   0.355   6.878   6.412
 8102SOL    HW225206   0.392   0.022   6.401
 8103SOL     OW25207   2.780   1.757   2.440
 8103SOL    HW125208   2.874   1.779   2.414
 8103SOL    HW225209   2.719   1.830   2.407
 8104SOL     OW25210   2.515   6.362   5.884
 8104SOL    HW125211   2.520   6.447   5.831
 8104SOL    HW225212   2.597   6.308   5.867
 8105SOL     OW25213   1.869   2.703   2.448
 8105SOL    HW125214   1.777   2.710   2.487
 8105SOL    HW225215   1.893   2.789   2.403
 8106SOL     OW25216   0.521   3.997   4.418
 8106SOL    HW125217   0.475   3.910   4.435
 8106SOL    HW225218   0.569   4.027   4.501
 8107SOL     OW25219   1.812   6.005   5.906
 8107SOL    HW125220   1.779   6.100   5.905
 8107SOL    HW225221   1.735   5.944   5.885
 8108SOL     OW25222   2.099   3.506   4.380
 8108SOL    HW125223   2.156   3.543   4.453
 8108SOL    HW225224   2.104   3.565   4.299
 8109SOL     OW25225   0.995   5.351   5.456
 8109SOL    HW125226   0.954   5.412   5.389
 8109SOL    HW225227   1.093   5.372   5.465
 8110SOL     OW25228   1.550   4.455   0.465
 8110SOL    HW125229   1.493   4.489   0.391
 8110SOL    HW225230   1.523   4.362   0.488
 8111SOL     OW25231   2.470   5.821   4.367
 8111SOL    HW125232   2.409   5.743   4.381
 8111SOL    HW225233   2.559   5.802   4.409
 8112SOL     OW25234   4.064   0.934   4.605
 8112SOL    HW125235   4.094   1.024   4.638
 8112SOL    HW225236   4.137   0.868   4.620
 8113SOL     OW25237   3.753   3.024   5.946
 8113SOL    HW125238   3.805   2.964   6.008
 8113SOL    HW225239   3.690   3.081   5.999
 8114SOL     OW25240   2.925   4.087   1.732
 8114SOL    HW125241   2.974   4.167   1.698
 8114SOL    HW225242   2.983   4.038   1.797
 8115SOL     OW25243   3.892   2.138   0.846
 8115SOL    HW125244   3.916   2.070   0.914
 8115SOL    HW225245   3.952   2.129   0.766
 8116SOL     OW25246   5.156   0.658   5.764
 8116SOL    HW125247   5.106   0.721   5.825
 8116SOL    HW225248   5.249   0.692   5.751
 8117SOL     OW25249   2.677   1.757   5.655
 8117SOL    HW125250   2.616   1.836   5.649
 8117SOL    HW225251   2.679   1.722   5.748
 8118SOL     OW25252   1.168   2.919   4.294
 8118SOL    HW125253   1.230   2.965   4.230
 8118SOL    HW225254   1.074   2.945   4.273
 8119SOL     OW25255   1.170   5.879   2.449
 8119SOL    HW125256   1.199   5.848   2.358
 8119SOL    HW225257   1.232   5.952   2.480
 8120SOL     OW25258   4.582   4.095   1.501
 8120SOL    HW125259   4.627   4.124   1.585
 8120SOL    HW225260   4.531   4.011   1.518
 8121SOL     OW25261   6.730   6.767   3.300
 8121SOL    HW125262   6.643   6.797   3.340
 8121SOL    HW225263   6.790   6.846   3.289
 8122SOL     OW25264   0.733   5.962   1.819
 8122SOL    HW125265   0.642   5.991   1.790
 8122SOL    HW225266   0.802   6.018   1.774
 8123SOL     OW25267   0.561   5.730   0.328
 8123SOL    HW125268   0.565   5.766   0.421
 8123SOL    HW225269   0.472   5.752   0.288
 8124SOL     OW25270   0.602   6.000   2.779
 8124SOL    HW125271   0.535   6.053   2.726
 8124SOL    HW225272   0.555   5.952   2.853
 8125SOL     OW25273   5.950   5.334   2.921
 8125SOL    HW125274   5.959   5.425   2.962
 8125SOL    HW225275   5.898   5.342   2.835
 8126SOL     OW25276   5.942   4.974   2.216
 8126SOL    HW125277   5.857   4.922   2.215
 8126SOL    HW225278   5.932   5.057   2.161
 8127SOL     OW25279   3.323   4.452   1.081
 8127SOL    HW125280   3.404   4.405   1.114
 8127SOL    HW225281   3.277   4.395   1.012
 8128SOL     OW25282   3.971   2.621   5.455
 8128SOL    HW125283   4.028   2.649   5.532
 8128SOL    HW225284   3.989   2.526   5.432
 8129SOL     OW25285   4.879   6.560   0.113
 8129SOL    HW125286   4.972   6.526   0.093
 8129SOL    HW225287   4.819   6.535   0.037
 8130SOL     OW25288   0.927   0.051   0.927
 8130SOL    HW125289   0.955   0.034   1.022
 8130SOL    HW225290   0.999   0.099   0.878
 8131SOL     OW25291   1.221   1.785   0.194
 8131SOL    HW125292   1.151   1.848   0.226
 8131SOL    HW225293   1.197   1.692   0.219
 8132SOL     OW25294   6.068   4.488   3.195
 8132SOL    HW125295   6.077   4.547   3.115
 8132SOL    HW225296   6.081   4.393   3.169
 8133SOL     OW25297   1.003   5.627   1.911
 8133SOL    HW125298   0.931   5.645   1.844
 8133SOL    HW225299   0.964   5.578   1.989
 8134SOL     OW25300   2.140   2.417   1.884
 8134SOL    HW125301   2.134   2.408   1.785
 8134SOL    HW225302   2.147   2.326   1.925
 8135SOL     OW25303   3.744   6.098   2.572
 8135SOL    HW125304   3.752   6.196   2.557
 8135SOL    HW225305   3.776   6.048   2.491
 8136SOL     OW25306   3.278   5.932   1.452
 8136SOL    HW125307   3.257   6.006   1.516
 8136SOL    HW225308   3.194   5.903   1.406
 8137SOL     OW25309   2.977   3.898   4.950
 8137SOL    HW125310   3.032   3.884   4.868
 8137SOL    HW225311   2.977   3.815   5.005
 8138SOL     OW25312   5.449   0.611   3.926
 8138SOL    HW125313   5.482   0.685   3.985
 8138SOL    HW225314   5.525   0.548   3.907
 8139SOL     OW25315   1.531   2.955   4.511
 8139SOL    HW125316   1.510   3.031   4.449
 8139SOL    HW225317   1.568   2.991   4.597
 8140SOL     OW25318   4.713   0.916   1.340
 8140SOL    HW125319   4.643   0.861   1.294
 8140SOL    HW225320   4.717   0.891   1.436
 8141SOL     OW25321   5.628   0.730   5.467
 8141SOL    HW125322   5.723   0.713   5.491
 8141SOL    HW225323   5.608   0.687   5.379
 8142SOL     OW25324   2.218   5.332   1.710
 8142SOL    HW125325   2.161   5.279   1.647
 8142SOL    HW225326   2.167   5.351   1.794
 8143SOL     OW25327   5.899   5.080   0.873
 8143SOL    HW125328   5.838   5.154   0.902
 8143SOL    HW225329   5.845   5.005   0.836
 8144SOL     OW25330   0.258   5.246   0.357
 8144SOL    HW125331   0.356   5.223   0.361
 8144SOL    HW225332   0.204   5.166   0.381
 8145SOL     OW25333   5.351   5.761   0.097
 8145SOL    HW125334   5.283   5.694   0.066
 8145SOL    HW225335   5.368   5.827   0.025
 8146SOL     OW25336   6.079   0.112   4.677
 8146SOL    HW125337   6.045   0.205   4.665
 8146SOL    HW225338   6.140   0.089   4.601
 8147SOL     OW25339   1.726   0.655   6.121
 8147SOL    HW125340   1.743   0.569   6.169
 8147SOL    HW225341   1.771   0.730   6.171
 8148SOL     OW25342   4.672   4.166   0.523
 8148SOL    HW125343   4.718   4.130   0.442
 8148SOL    HW225344   4.733   4.161   0.601
 8149SOL     OW25345   0.895   0.171   4.947
 8149SOL    HW125346   0.861   0.090   4.899
 8149SOL    HW225347   0.851   0.253   4.911
 8150SOL     OW25348   0.618   4.010   0.550
 8150SOL    HW125349   0.637   4.093   0.603
 8150SOL    HW225350   0.520   4.007   0.529
 8151SOL     OW25351   6.463   6.043   3.083
 8151SOL    HW125352   6.401   6.115   3.114
 8151SOL    HW225353   6.487   6.060   2.987
 8152SOL     OW25354   4.921   1.199   2.924
 8152SOL    HW125355   4.894   1.144   3.004
 8152SOL    HW225356   4.917   1.141   2.842
 8153SOL     OW25357   0.118   1.495   1.850
 8153SOL    HW125358   0.188   1.491   1.779
 8153SOL    HW225359   0.161   1.480   1.940
 8154SOL     OW25360   2.161   1.126   2.728
 8154SOL    HW125361   2.150   1.048   2.789
 8154SOL    HW225362   2.251   1.121   2.684
 8155SOL     OW25363   1.493   5.256   3.224
 8155SOL    HW125364   1.558   5.233   3.151
 8155SOL    HW225365   1.543   5.285   3.305
 8156SOL     OW25366   0.824   4.913   0.942
 8156SOL    HW125367   0.816   4.821   0.905
 8156SOL    HW225368   0.851   4.976   0.869
 8157SOL     OW25369   6.673   4.409   4.817
 8157SOL    HW125370   6.755   4.352   4.819
 8157SOL    HW225371   6.691   4.492   4.764
 8158SOL     OW25372   6.101   5.607   6.412
 8158SOL    HW125373   6.040   5.637   6.339
 8158SOL    HW225374   6.158   5.531   6.379
 8159SOL     OW25375   2.897   6.695   4.885
 8159SOL    HW125376   2.802   6.712   4.912
 8159SOL    HW225377   2.958   6.748   4.944
 8160SOL     OW25378   5.779   1.803   2.027
 8160SOL    HW125379   5.867   1.792   2.074
 8160SOL    HW225380   5.707   1.820   2.094
 8161SOL     OW25381   5.668   2.996   1.653
 8161SOL    HW125382   5.763   3.015   1.678
 8161SOL    HW225383   5.638   2.912   1.699
 8162SOL     OW25384   0.618   5.697   5.163
 8162SOL    HW125385   0.601   5.788   5.202
 8162SOL    HW225386   0.531   5.653   5.143
 8163SOL     OW25387   4.387   4.591   5.586
 8163SOL    HW125388   4.372   4.494   5.606
 8163SOL    HW225389   4.376   4.645   5.669
 8164SOL     OW25390   5.411   1.812   0.881
 8164SOL    HW125391   5.376   1.837   0.791
 8164SOL    HW225392   5.336   1.781   0.939
 8165SOL     OW25393   0.160   1.436   0.016
 8165SOL    HW125394   0.256   1.457   7.013
 8165SOL    HW225395   0.148   1.417   0.113
 8166SOL     OW25396   1.275   1.674   5.794
 8166SOL    HW125397   1.208   1.689   5.867
 8166SOL    HW225398   1.311   1.762   5.764
 8167SOL     OW25399   1.869   3.403   3.718
 8167SOL    HW125400   1.771   3.426   3.718
 8167SOL    HW225401   1.890   3.345   3.797
 8168SOL     OW25402   1.568   0.471   2.158
 8168SOL    HW125403   1.649   0.529   2.152
 8168SOL    HW225404   1.490   0.525   2.189
 8169SOL     OW25405   5.092   3.049   0.640
 8169SOL    HW125406   5.142   3.125   0.599
 8169SOL    HW225407   5.001   3.081   0.668
 8170SOL     OW25408   0.005   4.877   2.457
 8170SOL    HW125409   6.975   4.963   2.482
 8170SOL    HW225410   0.010   4.818   2.538
 8171SOL     OW25411   2.387   1.455   0.489
 8171SOL    HW125412   2.406   1.545   0.450
 8171SOL    HW225413   2.407   1.457   0.587
 8172SOL     OW25414   1.156   2.615   0.389
 8172SOL    HW125415   1.151   2.682   0.463
 8172SOL    HW225416   1.105   2.533   0.415
 8173SOL     OW25417   5.883   1.108   1.578
 8173SOL    HW125418   5.895   1.101   1.479
 8173SOL    HW225419   5.812   1.044   1.608
 8174SOL     OW25420   2.857   5.986   3.211
 8174SOL    HW125421   2.922   6.019   3.143
 8174SOL    HW225422   2.773   6.041   3.207
 8175SOL     OW25423   0.162   1.442   5.654
 8175SOL    HW125424   0.069   1.444   5.618
 8175SOL    HW225425   0.163   1.475   5.748
 8176SOL     OW25426   2.379   4.480   0.363
 8176SOL    HW125427   2.363   4.458   0.459
 8176SOL    HW225428   2.442   4.413   0.324
 8177SOL     OW25429   3.355   1.154   4.097
 8177SOL    HW125430   3.330   1.226   4.163
 8177SOL    HW225431   3.403   1.195   4.019
 8178SOL     OW25432   2.889   6.457   1.187
 8178SOL    HW125433   2.844   6.524   1.128
 8178SOL    HW225434   2.987   6.455   1.167
 8179SOL     OW25435   5.514   0.497   3.166
 8179SOL    HW125436   5.530   0.427   3.096
 8179SOL    HW225437   5.503   0.453   3.255
 8180SOL     OW25438   4.801   6.543   0.362
 8180SOL    HW125439   4.728   6.611   0.359
 8180SOL    HW225440   4.844   6.536   0.272
 8181SOL     OW25441   0.060   0.419   0.174
 8181SOL    HW125442   0.159   0.410   0.162
 8181SOL    HW225443   0.032   0.513   0.154
 8182SOL     OW25444   2.910   3.349   4.198
 8182SOL    HW125445   2.971   3.395   4.263
 8182SOL    HW225446   2.952   3.263   4.170
 8183SOL     OW25447   6.805   0.558   5.558
 8183SOL    HW125448   6.707   0.576   5.568
 8183SOL    HW225449   6.851   0.641   5.525
 8184SOL     OW25450   0.141   5.562   6.333
 8184SOL    HW125451   0.148   5.507   6.416
 8184SOL    HW225452   0.142   5.501   6.253
 8185SOL     OW25453   0.780   6.387   6.122
 8185SOL    HW125454   0.703   6.335   6.161
 8185SOL    HW225455   0.748   6.479   6.099
 8186SOL     OW25456   1.994   5.477   6.596
 8186SOL    HW125457   2.068   5.503   6.658
 8186SOL    HW225458   2.029   5.409   6.531
 8187SOL     OW25459   1.430   0.652   5.701
 8187SOL    HW125460   1.507   0.714   5.692
 8187SOL    HW225461   1.458   0.572   5.754
 8188SOL     OW25462   1.453   3.070   2.661
 8188SOL    HW125463   1.488   3.023   2.742
 8188SOL    HW225464   1.366   3.113   2.683
 8189SOL     OW25465   5.652   5.034   4.111
 8189SOL    HW125466   5.744   5.019   4.076
 8189SOL    HW225467   5.611   4.947   4.137
 8190SOL     OW25468   6.651   3.968   2.985
 8190SOL    HW125469   6.658   3.932   3.078
 8190SOL    HW225470   6.588   3.912   2.932
 8191SOL     OW25471   4.127   5.201   0.882
 8191SOL    HW125472   4.042   5.234   0.923
 8191SOL    HW225473   4.105   5.151   0.798
 8192SOL     OW25474   0.633   6.085   3.611
 8192SOL    HW125475   0.732   6.084   3.623
 8192SOL    HW225476   0.599   5.991   3.608
 8193SOL     OW25477   0.747   4.803   4.312
 8193SOL    HW125478   0.788   4.812   4.222
 8193SOL    HW225479   0.651   4.776   4.303
 8194SOL     OW25480   4.387   6.720   1.845
 8194SOL    HW125481   4.472   6.766   1.869
 8194SOL    HW225482   4.387   6.697   1.748
 8195SOL     OW25483   6.151   6.336   3.745
 8195SOL    HW125484   6.157   6.358   3.842
 8195SOL    HW225485   6.055   6.333   3.717
 8196SOL     OW25486   5.092   1.408   1.794
 8196SOL    HW125487   5.148   1.451   1.865
 8196SOL    HW225488   4.995   1.414   1.820
 8197SOL     OW25489   3.824   2.109   2.658
 8197SOL    HW125490   3.779   2.020   2.645
 8197SOL    HW225491   3.792   2.150   2.743
 8198SOL     OW25492   1.358   6.211   1.652
 8198SOL    HW125493   1.397   6.119   1.659
 8198SOL    HW225494   1.301   6.229   1.733
 8199SOL     OW25495   5.494   2.897   6.936
 8199SOL    HW125496   5.565   2.962   6.909
 8199SOL    HW225497   5.459   2.850   6.855
 8200SOL     OW25498   4.324   3.158   0.849
 8200SOL    HW125499   4.361   3.141   0.940
 8200SOL    HW225500   4.318   3.071   0.799
 8201SOL     OW25501   5.934   6.925   5.284
 8201SOL    HW125502   5.973   6.837   5.257
 8201SOL    HW225503   5.909   6.977   5.202
 8202SOL     OW25504   0.651   6.486   2.053
 8202SOL    HW125505   0.744   6.497   2.090
 8202SOL    HW225506   0.642   6.395   2.015
 8203SOL     OW25507   1.760   3.187   1.223
 8203SOL    HW125508   1.743   3.232   1.310
 8203SOL    HW225509   1.852   3.207   1.192
 8204SOL     OW25510   3.198   2.739   1.133
 8204SOL    HW125511   3.291   2.751   1.099
 8204SOL    HW225512   3.152   2.668   1.078
 8205SOL     OW25513   1.029   3.705   6.992
 8205SOL    HW125514   1.061   3.660   6.908
 8205SOL    HW225515   0.945   3.661   0.008
 8206SOL     OW25516   2.850   0.317   0.467
 8206SOL    HW125517   2.864   0.396   0.528
 8206SOL    HW225518   2.819   0.349   0.378
 8207SOL     OW25519   3.787   4.043   4.614
 8207SOL    HW125520   3.780   3.945   4.633
 8207SOL    HW225521   3.871   4.061   4.563
 8208SOL     OW25522   2.129   0.866   0.237
 8208SOL    HW125523   2.031   0.857   0.217
 8208SOL    HW225524   2.179   0.790   0.195
 8209SOL     OW25525   6.120   1.552   4.901
 8209SOL    HW125526   6.096   1.631   4.958
 8209SOL    HW225527   6.038   1.516   4.857
 8210SOL     OW25528   1.969   2.563   6.327
 8210SOL    HW125529   2.005   2.475   6.358
 8210SOL    HW225530   1.976   2.630   6.401
 8211SOL     OW25531   3.575   4.733   1.563
 8211SOL    HW125532   3.534   4.660   1.507
 8211SOL    HW225533   3.553   4.718   1.659
 8212SOL     OW25534   1.557   2.715   3.325
 8212SOL    HW125535   1.620   2.668   3.264
 8212SOL    HW225536   1.567   2.678   3.418
 8213SOL     OW25537   6.480   5.172   1.297
 8213SOL    HW125538   6.408   5.154   1.365
 8213SOL    HW225539   6.566   5.189   1.344
 8214SOL     OW25540   5.784   3.842   3.708
 8214SOL    HW125541   5.696   3.797   3.716
 8214SOL    HW225542   5.770   3.939   3.688
 8215SOL     OW25543   3.311   5.053   3.207
 8215SOL    HW125544   3.347   5.127   3.264
 8215SOL    HW225545   3.223   5.080   3.168
 8216SOL     OW25546   5.522   3.770   3.756
 8216SOL    HW125547   5.530   3.698   3.825
 8216SOL    HW225548   5.430   3.810   3.760
 8217SOL     OW25549   1.976   5.882   6.966
 8217SOL    HW125550   1.902   5.935   6.926
 8217SOL    HW225551   1.969   5.884   0.050
 8218SOL     OW25552   6.327   2.709   6.855
 8218SOL    HW125553   6.348   2.744   6.946
 8218SOL    HW225554   6.365   2.770   6.786
 8219SOL     OW25555   5.753   1.693   6.965
 8219SOL    HW125556   5.796   1.737   0.029
 8219SOL    HW225557   5.784   1.739   6.882
 8220SOL     OW25558   3.972   3.607   2.013
 8220SOL    HW125559   4.009   3.696   2.039
 8220SOL    HW225560   3.992   3.589   1.916
 8221SOL     OW25561   5.291   6.054   3.540
 8221SOL    HW125562   5.214   6.014   3.589
 8221SOL    HW225563   5.327   5.986   3.475
 8222SOL     OW25564   6.537   2.324   1.688
 8222SOL    HW125565   6.620   2.342   1.635
 8222SOL    HW225566   6.559   2.267   1.767
 8223SOL     OW25567   0.725   5.176   5.705
 8223SOL    HW125568   0.756   5.272   5.705
 8223SOL    HW225569   0.803   5.117   5.727
 8224SOL     OW25570   1.484   3.601   3.868
 8224SOL    HW125571   1.528   3.552   3.792
 8224SOL    HW225572   1.534   3.583   3.953
 8225SOL     OW25573   5.096   1.890   0.474
 8225SOL    HW125574   5.118   1.893   0.572
 8225SOL    HW225575   5.015   1.946   0.456
 8226SOL     OW25576   4.879   0.647   0.458
 8226SOL    HW125577   4.920   0.700   0.384
 8226SOL    HW225578   4.820   0.705   0.513
 8227SOL     OW25579   6.412   3.297   2.809
 8227SOL    HW125580   6.409   3.197   2.812
 8227SOL    HW225581   6.467   3.326   2.730
 8228SOL     OW25582   6.550   2.537   5.199
 8228SOL    HW125583   6.503   2.597   5.134
 8228SOL    HW225584   6.606   2.471   5.149
 8229SOL     OW25585   3.824   5.222   0.625
 8229SOL    HW125586   3.841   5.261   0.715
 8229SOL    HW225587   3.732   5.183   0.622
 8230SOL     OW25588   5.165   0.157   4.076
 8230SOL    HW125589   5.107   0.206   4.011
 8230SOL    HW225590   5.244   0.213   4.098
 8231SOL     OW25591   4.402   5.996   0.629
 8231SOL    HW125592   4.330   6.065   0.618
 8231SOL    HW225593   4.365   5.906   0.607
 8232SOL     OW25594   2.942   2.423   6.133
 8232SOL    HW125595   2.869   2.422   6.201
 8232SOL    HW225596   3.001   2.502   6.150
 8233SOL     OW25597   0.301   5.349   0.113
 8233SOL    HW125598   0.278   5.351   0.210
 8233SOL    HW225599   0.265   5.266   0.071
 8234SOL     OW25600   3.568   2.077   6.603
 8234SOL    HW125601   3.649   2.046   6.553
 8234SOL    HW225602   3.506   2.124   6.540
 8235SOL     OW25603   4.754   2.302   0.460
 8235SOL    HW125604   4.662   2.299   0.498
 8235SOL    HW225605   4.772   2.393   0.421
 8236SOL     OW25606   5.569   3.206   0.642
 8236SOL    HW125607   5.599   3.244   0.730
 8236SOL    HW225608   5.558   3.107   0.651
 8237SOL     OW25609   4.182   6.357   5.523
 8237SOL    HW125610   4.095   6.389   5.559
 8237SOL    HW225611   4.222   6.427   5.464
 8238SOL     OW25612   1.805   1.484   6.429
 8238SOL    HW125613   1.853   1.410   6.475
 8238SOL    HW225614   1.818   1.569   6.480
 8239SOL     OW25615   6.816   1.816   6.264
 8239SOL    HW125616   6.818   1.898   6.321
 8239SOL    HW225617   6.865   1.834   6.178
 8240SOL     OW25618   3.877   4.032   3.710
 8240SOL    HW125619   3.932   3.952   3.682
 8240SOL    HW225620   3.902   4.059   3.802
 8241SOL     OW25621   4.393   6.849   0.706
 8241SOL    HW125622   4.336   6.837   0.625
 8241SOL    HW225623   4.470   6.785   0.703
 8242SOL     OW25624   0.942   4.093   5.524
 8242SOL    HW125625   0.954   4.086   5.425
 8242SOL    HW225626   1.026   4.130   5.564
 8243SOL     OW25627   0.874   3.497   4.848
 8243SOL    HW125628   0.876   3.405   4.808
 8243SOL    HW225629   0.802   3.502   4.917
 8244SOL     OW25630   0.629   6.451   4.377
 8244SOL    HW125631   0.647   6.493   4.288
 8244SOL    HW225632   0.716   6.418   4.416
 8245SOL     OW25633   3.702   2.818   0.626
 8245SOL    HW125634   3.658   2.728   0.618
 8245SOL    HW225635   3.772   2.828   0.556
 8246SOL     OW25636   5.104   3.674   5.840
 8246SOL    HW125637   5.176   3.687   5.772
 8246SOL    HW225638   5.106   3.580   5.873
 8247SOL     OW25639   1.051   0.313   1.413
 8247SOL    HW125640   0.959   0.351   1.403
 8247SOL    HW225641   1.113   0.383   1.448
 8248SOL     OW25642   6.648   4.044   3.504
 8248SOL    HW125643   6.627   4.142   3.496
 8248SOL    HW225644   6.565   3.995   3.533
 8249SOL     OW25645   2.196   5.164   3.151
 8249SOL    HW125646   2.191   5.191   3.055
 8249SOL    HW225647   2.270   5.213   3.196
 8250SOL     OW25648   4.022   3.865   2.640
 8250SOL    HW125649   4.008   3.811   2.723
 8250SOL    HW225650   4.061   3.954   2.664
 8251SOL     OW25651   5.707   1.716   4.871
 8251SOL    HW125652   5.708   1.772   4.954
 8251SOL    HW225653   5.712   1.776   4.791
 8252SOL     OW25654   1.484   3.506   4.535
 8252SOL    HW125655   1.402   3.563   4.533
 8252SOL    HW225656   1.562   3.562   4.563
 8253SOL     OW25657   3.350   3.211   5.503
 8253SOL    HW125658   3.430   3.206   5.444
 8253SOL    HW225659   3.288   3.282   5.469
 8254SOL     OW25660   3.641   5.485   3.648
 8254SOL    HW125661   3.645   5.427   3.567
 8254SOL    HW225662   3.555   5.535   3.650
 8255SOL     OW25663   4.374   5.006   3.985
 8255SOL    HW125664   4.390   5.075   3.914
 8255SOL    HW225665   4.461   4.969   4.016
 8256SOL     OW25666   0.019   2.002   4.024
 8256SOL    HW125667   0.009   1.995   4.123
 8256SOL    HW225668   7.011   1.915   3.982
 8257SOL     OW25669   6.685   4.157   3.938
 8257SOL    HW125670   6.743   4.147   3.857
 8257SOL    HW225671   6.670   4.255   3.955
 8258SOL     OW25672   4.405   1.879   6.813
 8258SOL    HW125673   4.465   1.896   6.891
 8258SOL    HW225674   4.316   1.848   6.846
 8259SOL     OW25675   3.784   1.720   1.785
 8259SOL    HW125676   3.815   1.795   1.843
 8259SOL    HW225677   3.711   1.752   1.725
 8260SOL     OW25678   2.632   5.860   0.533
 8260SOL    HW125679   2.581   5.778   0.559
 8260SOL    HW225680   2.635   5.923   0.610
 8261SOL     OW25681   6.021   1.453   1.477
 8261SOL    HW125682   5.977   1.369   1.507
 8261SOL    HW225683   6.116   1.455   1.510
 8262SOL     OW25684   0.980   2.504   1.024
 8262SOL    HW125685   0.901   2.565   1.023
 8262SOL    HW225686   1.002   2.479   1.119
 8263SOL     OW25687   6.497   1.341   0.496
 8263SOL    HW125688   6.487   1.242   0.488
 8263SOL    HW225689   6.407   1.384   0.496
 8264SOL     OW25690   1.952   5.035   2.714
 8264SOL    HW125691   2.001   4.951   2.691
 8264SOL    HW225692   1.875   5.014   2.773
 8265SOL     OW25693   1.829   0.791   1.491
 8265SOL    HW125694   1.776   0.803   1.407
 8265SOL    HW225695   1.913   0.741   1.470
 8266SOL     OW25696   3.184   0.147   3.156
 8266SOL    HW125697   3.219   0.205   3.083
 8266SOL    HW225698   3.225   0.056   3.150
 8267SOL     OW25699   0.647   3.574   1.091
 8267SOL    HW125700   0.679   3.564   1.185
 8267SOL    HW225701   0.626   3.484   1.053
 8268SOL     OW25702   2.956   6.484   5.628
 8268SOL    HW125703   3.005   6.546   5.567
 8268SOL    HW225704   2.995   6.392   5.622
 8269SOL     OW25705   5.888   1.737   1.518
 8269SOL    HW125706   5.952   1.675   1.474
 8269SOL    HW225707   5.871   1.706   1.612
 8270SOL     OW25708   3.636   5.924   3.547
 8270SOL    HW125709   3.600   6.016   3.562
 8270SOL    HW225710   3.707   5.927   3.477
 8271SOL     OW25711   6.935   2.078   2.286
 8271SOL    HW125712   6.849   2.035   2.261
 8271SOL    HW225713   6.977   2.120   2.206
 8272SOL     OW25714   3.442   1.482   3.581
 8272SOL    HW125715   3.465   1.437   3.495
 8272SOL    HW225716   3.525   1.492   3.636
 8273SOL     OW25717   2.464   6.261   0.693
 8273SOL    HW125718   2.370   6.253   0.663
 8273SOL    HW225719   2.466   6.283   0.791
 8274SOL     OW25720   5.374   5.195   3.144
 8274SOL    HW125721   5.406   5.278   3.190
 8274SOL    HW225722   5.406   5.115   3.195
 8275SOL     OW25723   5.097   2.574   5.838
 8275SOL    HW125724   5.049   2.511   5.899
 8275SOL    HW225725   5.033   2.608   5.769
 8276SOL     OW25726   0.997   1.751   3.511
 8276SOL    HW125727   0.964   1.713   3.597
 8276SOL    HW225728   1.096   1.735   3.503
 8277SOL     OW25729   6.292   0.220   6.547
 8277SOL    HW125730   6.215   0.274   6.581
 8277SOL    HW225731   6.287   0.127   6.584
 8278SOL     OW25732   2.134   2.467   0.488
 8278SOL    HW125733   2.036   2.467   0.505
 8278SOL    HW225734   2.165   2.560   0.469
 8279SOL     OW25735   0.092   6.271   3.751
 8279SOL    HW125736   0.022   6.275   3.680
 8279SOL    HW225737   0.175   6.231   3.714
 8280SOL     OW25738   3.059   2.930   5.831
 8280SOL    HW125739   3.019   2.896   5.745
 8280SOL    HW225740   3.121   3.005   5.812
 8281SOL     OW25741   6.298   5.897   2.160
 8281SOL    HW125742   6.281   5.910   2.258
 8281SOL    HW225743   6.262   5.809   2.131
 8282SOL     OW25744   5.194   2.242   5.375
 8282SOL    HW125745   5.274   2.183   5.371
 8282SOL    HW225746   5.122   2.196   5.428
 8283SOL     OW25747   1.889   4.365   5.591
 8283SOL    HW125748   1.841   4.398   5.672
 8283SOL    HW225749   1.845   4.403   5.509
 8284SOL     OW25750   6.699   4.553   2.405
 8284SOL    HW125751   6.755   4.470   2.413
 8284SOL    HW225752   6.696   4.600   2.493
 8285SOL     OW25753   3.726   3.581   4.813
 8285SOL    HW125754   3.780   3.578   4.898
 8285SOL    HW225755   3.741   3.497   4.761
 8286SOL     OW25756   6.222   1.982   5.936
 8286SOL    HW125757   6.255   2.076   5.944
 8286SOL    HW225758   6.122   1.981   5.938
 8287SOL     OW25759   1.454   5.513   4.638
 8287SOL    HW125760   1.364   5.522   4.597
 8287SOL    HW225761   1.488   5.604   4.663
 8288SOL     OW25762   2.698   2.359   2.871
 8288SOL    HW125763   2.719   2.299   2.947
 8288SOL    HW225764   2.716   2.311   2.785
 8289SOL     OW25765   0.404   6.333   6.708
 8289SOL    HW125766   0.426   6.330   6.805
 8289SOL    HW225767   0.329   6.270   6.689
 8290SOL     OW25768   6.703   2.887   1.144
 8290SOL    HW125769   6.742   2.806   1.188
 8290SOL    HW225770   6.759   2.913   1.065
 8291SOL     OW25771   4.786   0.410   0.510
 8291SOL    HW125772   4.868   0.354   0.503
 8291SOL    HW225773   4.804   0.501   0.473
 8292SOL     OW25774   3.113   0.160   6.766
 8292SOL    HW125775   3.164   0.092   6.820
 8292SOL    HW225776   3.034   0.192   6.818
 8293SOL     OW25777   5.462   6.205   5.893
 8293SOL    HW125778   5.556   6.174   5.881
 8293SOL    HW225779   5.461   6.303   5.914
 8294SOL     OW25780   5.576   2.293   0.330
 8294SOL    HW125781   5.488   2.262   0.294
 8294SOL    HW225782   5.607   2.228   0.400
 8295SOL     OW25783   4.884   3.905   1.217
 8295SOL    HW125784   4.934   3.915   1.132
 8295SOL    HW225785   4.790   3.876   1.197
 8296SOL     OW25786   1.772   5.353   6.807
 8296SOL    HW125787   1.807   5.403   6.886
 8296SOL    HW225788   1.773   5.255   6.826
 8297SOL     OW25789   0.184   2.838   2.882
 8297SOL    HW125790   0.128   2.917   2.907
 8297SOL    HW225791   0.280   2.865   2.876
 8298SOL     OW25792   4.396   1.155   1.459
 8298SOL    HW125793   4.357   1.218   1.393
 8298SOL    HW225794   4.496   1.151   1.447
 8299SOL     OW25795   6.471   2.367   1.408
 8299SOL    HW125796   6.470   2.322   1.497
 8299SOL    HW225797   6.563   2.402   1.390
 8300SOL     OW25798   0.783   4.907   3.633
 8300SOL    HW125799   0.826   4.993   3.660
 8300SOL    HW225800   0.849   4.851   3.583
 8301SOL     OW25801   3.854   3.050   6.642
 8301SOL    HW125802   3.807   3.015   6.561
 8301SOL    HW225803   3.952   3.035   6.632
 8302SOL     OW25804   5.846   6.121   6.465
 8302SOL    HW125805   5.814   6.183   6.394
 8302SOL    HW225806   5.784   6.126   6.544
 8303SOL     OW25807   0.504   0.688   4.895
 8303SOL    HW125808   0.473   0.656   4.984
 8303SOL    HW225809   0.590   0.643   4.872
 8304SOL     OW25810   1.227   3.659   6.480
 8304SOL    HW125811   1.168   3.616   6.412
 8304SOL    HW225812   1.321   3.632   6.464
 8305SOL     OW25813   3.546   5.794   3.165
 8305SOL    HW125814   3.608   5.719   3.189
 8305SOL    HW225815   3.454   5.774   3.199
 8306SOL     OW25816   0.811   3.299   4.184
 8306SOL    HW125817   0.713   3.307   4.162
 8306SOL    HW225818   0.824   3.313   4.282
 8307SOL     OW25819   3.690   5.649   1.321
 8307SOL    HW125820   3.752   5.654   1.399
 8307SOL    HW225821   3.743   5.644   1.236
 8308SOL     OW25822   3.732   6.334   2.440
 8308SOL    HW125823   3.663   6.327   2.367
 8308SOL    HW225824   3.706   6.408   2.502
 8309SOL     OW25825   4.914   6.054   1.909
 8309SOL    HW125826   4.905   6.108   1.993
 8309SOL    HW225827   4.867   5.966   1.922
 8310SOL     OW25828   0.269   4.399   0.501
 8310SOL    HW125829   0.224   4.465   0.441
 8310SOL    HW225830   0.271   4.434   0.595
 8311SOL     OW25831   6.364   0.632   0.216
 8311SOL    HW125832   6.280   0.584   0.191
 8311SOL    HW225833   6.377   0.628   0.315
 8312SOL     OW25834   5.790   6.840   1.590
 8312SOL    HW125835   5.810   6.745   1.565
 8312SOL    HW225836   5.864   6.874   1.649
 8313SOL     OW25837   3.504   1.261   2.485
 8313SOL    HW125838   3.543   1.276   2.576
 8313SOL    HW225839   3.573   1.278   2.415
 8314SOL     OW25840   6.591   0.398   2.789
 8314SOL    HW125841   6.667   0.336   2.769
 8314SOL    HW225842   6.627   0.483   2.829
 8315SOL     OW25843   5.315   4.118   6.698
 8315SOL    HW125844   5.376   4.059   6.751
 8315SOL    HW225845   5.369   4.173   6.634
 8316SOL     OW25846   2.224   4.122   6.947
 8316SOL    HW125847   2.190   4.043   6.997
 8316SOL    HW225848   2.238   4.097   6.851
 8317SOL     OW25849   1.967   4.331   2.001
 8317SOL    HW125850   2.052   4.282   2.018
 8317SOL    HW225851   1.986   4.416   1.952
 8318SOL     OW25852   3.894   1.709   4.934
 8318SOL    HW125853   3.940   1.667   5.012
 8318SOL    HW225854   3.809   1.752   4.964
 8319SOL     OW25855   3.278   1.239   4.924
 8319SOL    HW125856   3.348   1.193   4.979
 8319SOL    HW225857   3.206   1.275   4.984
 8320SOL     OW25858   3.350   4.442   1.556
 8320SOL    HW125859   3.430   4.417   1.611
 8320SOL    HW225860   3.340   4.376   1.481
 8321SOL     OW25861   0.591   0.600   1.454
 8321SOL    HW125862   0.669   0.592   1.516
 8321SOL    HW225863   0.619   0.649   1.372
 8322SOL     OW25864   6.478   6.598   6.917
 8322SOL    HW125865   6.437   6.607   6.826
 8322SOL    HW225866   6.408   6.615   6.987
 8323SOL     OW25867   1.069   1.848   1.761
 8323SOL    HW125868   0.990   1.875   1.817
 8323SOL    HW225869   1.107   1.762   1.796
 8324SOL     OW25870   6.434   1.232   2.352
 8324SOL    HW125871   6.501   1.180   2.405
 8324SOL    HW225872   6.385   1.170   2.290
 8325SOL     OW25873   3.588   3.561   3.848
 8325SOL    HW125874   3.613   3.658   3.856
 8325SOL    HW225875   3.521   3.550   3.775
 8326SOL     OW25876   3.859   3.538   5.738
 8326SOL    HW125877   3.956   3.517   5.754
 8326SOL    HW225878   3.803   3.468   5.782
 8327SOL     OW25879   5.492   2.111   5.890
 8327SOL    HW125880   5.485   2.180   5.962
 8327SOL    HW225881   5.476   2.154   5.801
 8328SOL     OW25882   2.414   2.349   5.204
 8328SOL    HW125883   2.364   2.329   5.288
 8328SOL    HW225884   2.465   2.434   5.215
 8329SOL     OW25885   6.815   3.166   5.427
 8329SOL    HW125886   6.739   3.169   5.362
 8329SOL    HW225887   6.863   3.254   5.427
 8330SOL     OW25888   2.801   6.457   0.075
 8330SOL    HW125889   2.727   6.520   0.098
 8330SOL    HW225890   2.790   6.427   6.995
 8331SOL     OW25891   2.185   6.653   0.393
 8331SOL    HW125892   2.259   6.719   0.407
 8331SOL    HW225893   2.209   6.590   0.319
 8332SOL     OW25894   5.114   5.485   2.544
 8332SOL    HW125895   5.091   5.405   2.489
 8332SOL    HW225896   5.068   5.479   2.633
 8333SOL     OW25897   0.306   5.819   6.576
 8333SOL    HW125898   0.206   5.830   6.572
 8333SOL    HW225899   0.344   5.833   6.485
 8334SOL     OW25900   6.285   1.845   3.787
 8334SOL    HW125901   6.308   1.834   3.884
 8334SOL    HW225902   6.335   1.923   3.750
 8335SOL     OW25903   5.330   6.838   6.110
 8335SOL    HW125904   5.385   6.793   6.181
 8335SOL    HW225905   5.335   6.937   6.123
 8336SOL     OW25906   0.201   1.890   2.208
 8336SOL    HW125907   0.174   1.977   2.249
 8336SOL    HW225908   0.257   1.907   2.127
 8337SOL     OW25909   0.883   6.392   2.705
 8337SOL    HW125910   0.862   6.298   2.732
 8337SOL    HW225911   0.958   6.392   2.638
 8338SOL     OW25912   1.653   4.747   1.247
 8338SOL    HW125913   1.691   4.737   1.155
 8338SOL    HW225914   1.705   4.817   1.296
 8339SOL     OW25915   5.562   1.132   2.806
 8339SOL    HW125916   5.657   1.162   2.802
 8339SOL    HW225917   5.502   1.208   2.783
 8340SOL     OW25918   4.955   3.640   0.988
 8340SOL    HW125919   5.008   3.670   1.067
 8340SOL    HW225920   5.017   3.596   0.923
 8341SOL     OW25921   2.564   6.015   0.748
 8341SOL    HW125922   2.535   6.105   0.714
 8341SOL    HW225923   2.502   5.987   0.822
 8342SOL     OW25924   4.358   0.740   0.507
 8342SOL    HW125925   4.285   0.698   0.561
 8342SOL    HW225926   4.445   0.733   0.556
 8343SOL     OW25927   1.418   5.656   6.316
 8343SOL    HW125928   1.420   5.562   6.353
 8343SOL    HW225929   1.355   5.660   6.239
 8344SOL     OW25930   4.320   6.175   5.704
 8344SOL    HW125931   4.246   6.133   5.756
 8344SOL    HW225932   4.283   6.231   5.631
 8345SOL     OW25933   6.344   1.127   2.654
 8345SOL    HW125934   6.364   1.115   2.751
 8345SOL    HW225935   6.321   1.223   2.636
 8346SOL     OW25936   3.204   5.552   1.253
 8346SOL    HW125937   3.304   5.555   1.256
 8346SOL    HW225938   3.172   5.470   1.299
 8347SOL     OW25939   3.297   6.206   5.153
 8347SOL    HW125940   3.255   6.198   5.243
 8347SOL    HW225941   3.341   6.296   5.145
 8348SOL     OW25942   1.431   0.606   0.393
 8348SOL    HW125943   1.373   0.680   0.428
 8348SOL    HW225944   1.388   0.565   0.313
 8349SOL     OW25945   5.268   5.115   1.640
 8349SOL    HW125946   5.222   5.161   1.716
 8349SOL    HW225947   5.352   5.072   1.672
 8350SOL     OW25948   6.115   0.745   4.798
 8350SOL    HW125949   6.089   0.841   4.799
 8350SOL    HW225950   6.204   0.735   4.753
 8351SOL     OW25951   3.408   6.221   3.352
 8351SOL    HW125952   3.481   6.227   3.285
 8351SOL    HW225953   3.444   6.242   3.443
 8352SOL     OW25954   6.961   5.778   2.220
 8352SOL    HW125955   6.904   5.703   2.254
 8352SOL    HW225956   6.961   5.777   2.120
 8353SOL     OW25957   0.223   3.614   2.113
 8353SOL    HW125958   0.255   3.577   2.200
 8353SOL    HW225959   0.188   3.706   2.128
 8354SOL     OW25960   2.575   1.414   6.794
 8354SOL    HW125961   2.521   1.495   6.773
 8354SOL    HW225962   2.635   1.432   6.871
 8355SOL     OW25963   2.769   0.684   0.460
 8355SOL    HW125964   2.763   0.633   0.374
 8355SOL    HW225965   2.752   0.781   0.443
 8356SOL     OW25966   2.309   5.401   6.941
 8356SOL    HW125967   2.362   5.340   6.881
 8356SOL    HW225968   2.266   5.472   6.886
 8357SOL     OW25969   4.560   5.565   4.914
 8357SOL    HW125970   4.605   5.626   4.848
 8357SOL    HW225971   4.546   5.476   4.872
 8358SOL     OW25972   2.183   3.001   5.503
 8358SOL    HW125973   2.215   2.951   5.423
 8358SOL    HW225974   2.113   2.947   5.550
 8359SOL     OW25975   4.309   5.570   4.378
 8359SOL    HW125976   4.367   5.492   4.352
 8359SOL    HW225977   4.228   5.537   4.426
 8360SOL     OW25978   4.814   0.310   3.150
 8360SOL    HW125979   4.768   0.388   3.107
 8360SOL    HW225980   4.763   0.227   3.133
 8361SOL     OW25981   1.930   0.544   2.574
 8361SOL    HW125982   1.845   0.562   2.625
 8361SOL    HW225983   1.936   0.447   2.552
 8362SOL     OW25984   3.012   2.121   0.276
 8362SOL    HW125985   2.962   2.104   0.361
 8362SOL    HW225986   3.024   2.035   0.226
 8363SOL     OW25987   6.972   3.185   0.832
 8363SOL    HW125988   7.009   3.204   0.741
 8363SOL    HW225989   6.919   3.263   0.864
 8364SOL     OW25990   6.701   3.761   3.870
 8364SOL    HW125991   6.656   3.672   3.873
 8364SOL    HW225992   6.690   3.806   3.959
 8365SOL     OW25993   2.486   3.493   5.983
 8365SOL    HW125994   2.417   3.485   6.055
 8365SOL    HW225995   2.443   3.478   5.894
 8366SOL     OW25996   2.908   6.327   2.860
 8366SOL    HW125997   2.851   6.245   2.870
 8366SOL    HW225998   2.850   6.404   2.834
 8367SOL     OW25999   5.689   5.847   3.852
 8367SOL    HW126000   5.612   5.898   3.814
 8367SOL    HW226001   5.654   5.776   3.915
 8368SOL     OW26002   3.285   5.157   6.102
 8368SOL    HW126003   3.244   5.203   6.023
 8368SOL    HW226004   3.334   5.224   6.157
 8369SOL     OW26005   1.946   1.261   0.707
 8369SOL    HW126006   1.855   1.228   0.681
 8369SOL    HW226007   2.009   1.252   0.630
 8370SOL     OW26008   1.335   1.694   6.395
 8370SOL    HW126009   1.363   1.767   6.332
 8370SOL    HW226010   1.353   1.605   6.353
 8371SOL     OW26011   2.132   3.314   0.450
 8371SOL    HW126012   2.206   3.299   0.515
 8371SOL    HW226013   2.167   3.309   0.357
 8372SOL     OW26014   0.055   1.115   2.602
 8372SOL    HW126015   6.989   1.156   2.562
 8372SOL    HW226016   0.125   1.185   2.614
 8373SOL     OW26017   1.710   6.494   5.071
 8373SOL    HW126018   1.645   6.476   5.144
 8373SOL    HW226019   1.673   6.567   5.012
 8374SOL     OW26020   6.685   6.897   6.749
 8374SOL    HW126021   6.754   6.949   6.699
 8374SOL    HW226022   6.658   6.817   6.695
 8375SOL     OW26023   3.239   0.396   6.674
 8375SOL    HW126024   3.299   0.438   6.742
 8375SOL    HW226025   3.224   0.300   6.697
 8376SOL     OW26026   3.217   0.459   4.448
 8376SOL    HW126027   3.162   0.408   4.381
 8376SOL    HW226028   3.312   0.429   4.442
 8377SOL     OW26029   5.705   4.344   1.306
 8377SOL    HW126030   5.616   4.354   1.351
 8377SOL    HW226031   5.761   4.425   1.324
 8378SOL     OW26032   4.819   2.424   2.888
 8378SOL    HW126033   4.725   2.396   2.871
 8378SOL    HW226034   4.868   2.352   2.937
 8379SOL     OW26035   6.142   2.360   2.471
 8379SOL    HW126036   6.074   2.429   2.498
 8379SOL    HW226037   6.234   2.397   2.484
 8380SOL     OW26038   4.511   1.477   3.411
 8380SOL    HW126039   4.424   1.450   3.452
 8380SOL    HW226040   4.513   1.576   3.400
 8381SOL     OW26041   1.826   5.721   4.627
 8381SOL    HW126042   1.879   5.668   4.561
 8381SOL    HW226043   1.889   5.771   4.687
 8382SOL     OW26044   1.220   2.887   2.185
 8382SOL    HW126045   1.247   2.912   2.092
 8382SOL    HW226046   1.172   2.964   2.227
 8383SOL     OW26047   2.728   2.573   6.321
 8383SOL    HW126048   2.719   2.474   6.336
 8383SOL    HW226049   2.671   2.600   6.244
 8384SOL     OW26050   0.492   0.124   2.118
 8384SOL    HW126051   0.497   0.215   2.077
 8384SOL    HW226052   0.430   0.067   2.065
 8385SOL     OW26053   5.041   1.991   1.432
 8385SOL    HW126054   5.130   2.033   1.412
 8385SOL    HW226055   5.010   2.019   1.523
 8386SOL     OW26056   1.007   4.450   2.487
 8386SOL    HW126057   1.071   4.504   2.432
 8386SOL    HW226058   0.977   4.371   2.434
 8387SOL     OW26059   0.515   2.683   1.463
 8387SOL    HW126060   0.454   2.745   1.513
 8387SOL    HW226061   0.605   2.682   1.507
 8388SOL     OW26062   1.695   0.302   2.339
 8388SOL    HW126063   1.791   0.275   2.333
 8388SOL    HW226064   1.675   0.369   2.268
 8389SOL     OW26065   5.144   2.514   2.478
 8389SOL    HW126066   5.052   2.513   2.517
 8389SOL    HW226067   5.152   2.591   2.413
 8390SOL     OW26068   5.314   1.547   5.626
 8390SOL    HW126069   5.294   1.498   5.541
 8390SOL    HW226070   5.411   1.536   5.648
 8391SOL     OW26071   6.507   6.881   1.323
 8391SOL    HW126072   6.437   6.945   1.293
 8391SOL    HW226073   6.547   6.836   1.243
 8392SOL     OW26074   5.108   2.937   4.764
 8392SOL    HW126075   5.088   2.929   4.666
 8392SOL    HW226076   5.024   2.924   4.816
 8393SOL     OW26077   5.063   0.241   1.455
 8393SOL    HW126078   5.045   0.294   1.372
 8393SOL    HW226079   4.983   0.244   1.514
 8394SOL     OW26080   5.910   3.448   1.931
 8394SOL    HW126081   5.861   3.404   1.855
 8394SOL    HW226082   5.846   3.495   1.990
 8395SOL     OW26083   1.491   1.421   4.746
 8395SOL    HW126084   1.528   1.513   4.730
 8395SOL    HW226085   1.554   1.353   4.708
 8396SOL     OW26086   4.023   5.754   4.404
 8396SOL    HW126087   4.118   5.755   4.436
 8396SOL    HW226088   3.991   5.848   4.391
 8397SOL     OW26089   6.416   1.088   2.907
 8397SOL    HW126090   6.430   1.159   2.977
 8397SOL    HW226091   6.356   1.017   2.944
 8398SOL     OW26092   4.410   2.226   5.843
 8398SOL    HW126093   4.448   2.214   5.935
 8398SOL    HW226094   4.454   2.303   5.798
 8399SOL     OW26095   6.579   5.083   0.820
 8399SOL    HW126096   6.587   5.036   0.908
 8399SOL    HW226097   6.636   5.165   0.821
 8400SOL     OW26098   1.438   2.618   4.765
 8400SOL    HW126099   1.438   2.670   4.680
 8400SOL    HW226100   1.523   2.566   4.774
 8401SOL     OW26101   2.946   0.166   6.283
 8401SOL    HW126102   2.976   0.238   6.220
 8401SOL    HW226103   2.954   0.077   6.238
 8402SOL     OW26104   3.605   0.570   5.960
 8402SOL    HW126105   3.587   0.476   5.989
 8402SOL    HW226106   3.651   0.619   6.034
 8403SOL     OW26107   6.094   4.871   4.522
 8403SOL    HW126108   6.061   4.797   4.464
 8403SOL    HW226109   6.125   4.833   4.610
 8404SOL     OW26110   1.408   2.093   6.381
 8404SOL    HW126111   1.418   2.074   6.284
 8404SOL    HW226112   1.312   2.089   6.407
 8405SOL     OW26113   3.802   0.784   5.838
 8405SOL    HW126114   3.852   0.771   5.924
 8405SOL    HW226115   3.715   0.735   5.843
 8406SOL     OW26116   4.961   0.459   5.836
 8406SOL    HW126117   4.913   0.540   5.870
 8406SOL    HW226118   5.036   0.488   5.776
 8407SOL     OW26119   3.316   6.802   4.112
 8407SOL    HW126120   3.332   6.704   4.105
 8407SOL    HW226121   3.403   6.850   4.121
 8408SOL     OW26122   3.996   1.186   1.587
 8408SOL    HW126123   4.088   1.210   1.618
 8408SOL    HW226124   3.929   1.241   1.638
 8409SOL     OW26125   4.181   2.167   2.198
 8409SOL    HW126126   4.084   2.149   2.214
 8409SOL    HW226127   4.213   2.238   2.261
 8410SOL     OW26128   6.646   1.981   1.438
 8410SOL    HW126129   6.603   1.891   1.426
 8410SOL    HW226130   6.580   2.052   1.414
 8411SOL     OW26131   2.022   5.409   0.826
 8411SOL    HW126132   2.074   5.364   0.899
 8411SOL    HW226133   2.026   5.354   0.743
 8412SOL     OW26134   2.203   2.404   6.186
 8412SOL    HW126135   2.189   2.440   6.278
 8412SOL    HW226136   2.176   2.474   6.119
 8413SOL     OW26137   4.379   5.769   4.945
 8413SOL    HW126138   4.421   5.849   4.986
 8413SOL    HW226139   4.436   5.688   4.963
 8414SOL     OW26140   1.383   1.044   1.781
 8414SOL    HW126141   1.315   1.011   1.716
 8414SOL    HW226142   1.381   0.986   1.863
 8415SOL     OW26143   2.456   1.031   5.286
 8415SOL    HW126144   2.537   1.013   5.341
 8415SOL    HW226145   2.378   0.978   5.322
 8416SOL     OW26146   6.647   1.452   5.184
 8416SOL    HW126147   6.640   1.377   5.250
 8416SOL    HW226148   6.649   1.539   5.233
 8417SOL     OW26149   1.374   3.729   5.258
 8417SOL    HW126150   1.463   3.700   5.224
 8417SOL    HW226151   1.344   3.668   5.331
 8418SOL     OW26152   0.583   5.981   2.413
 8418SOL    HW126153   0.643   6.054   2.380
 8418SOL    HW226154   0.632   5.924   2.478
 8419SOL     OW26155   4.097   1.666   4.140
 8419SOL    HW126156   4.004   1.631   4.155
 8419SOL    HW226157   4.105   1.697   4.045
 8420SOL     OW26158   3.473   0.288   2.498
 8420SOL    HW126159   3.391   0.342   2.517
 8420SOL    HW226160   3.523   0.272   2.583
 8421SOL     OW26161   4.806   6.341   6.405
 8421SOL    HW126162   4.839   6.251   6.378
 8421SOL    HW226163   4.709   6.349   6.380
 8422SOL     OW26164   4.797   2.316   3.206
 8422SOL    HW126165   4.718   2.373   3.227
 8422SOL    HW226166   4.768   2.221   3.193
 8423SOL     OW26167   6.767   5.535   6.263
 8423SOL    HW126168   6.735   5.533   6.168
 8423SOL    HW226169   6.864   5.560   6.265
 8424SOL     OW26170   2.648   0.010   3.920
 8424SOL    HW126171   2.675   0.106   3.915
 8424SOL    HW226172   2.645   6.996   4.015
 8425SOL     OW26173   3.826   4.080   2.772
 8425SOL    HW126174   3.741   4.117   2.807
 8425SOL    HW226175   3.817   4.060   2.675
 8426SOL     OW26176   3.851   2.934   1.864
 8426SOL    HW126177   3.920   2.977   1.807
 8426SOL    HW226178   3.867   2.958   1.960
 8427SOL     OW26179   3.686   3.845   3.812
 8427SOL    HW126180   3.663   3.832   3.715
 8427SOL    HW226181   3.745   3.925   3.821
 8428SOL     OW26182   6.441   0.069   0.572
 8428SOL    HW126183   6.519   0.106   0.623
 8428SOL    HW226184   6.448   0.098   0.476
 8429SOL     OW26185   2.618   5.523   5.682
 8429SOL    HW126186   2.550   5.462   5.720
 8429SOL    HW226187   2.706   5.475   5.675
 8430SOL     OW26188   4.127   6.666   5.112
 8430SOL    HW126189   4.111   6.724   5.031
 8430SOL    HW226190   4.135   6.571   5.083
 8431SOL     OW26191   2.972   3.545   6.535
 8431SOL    HW126192   3.054   3.506   6.493
 8431SOL    HW226193   2.892   3.520   6.481
 8432SOL     OW26194   6.462   5.093   6.319
 8432SOL    HW126195   6.477   5.185   6.355
 8432SOL    HW226196   6.430   5.034   6.393
 8433SOL     OW26197   5.593   2.651   1.118
 8433SOL    HW126198   5.561   2.586   1.049
 8433SOL    HW226199   5.693   2.655   1.116
 8434SOL     OW26200   2.199   6.235   5.336
 8434SOL    HW126201   2.147   6.185   5.268
 8434SOL    HW226202   2.136   6.285   5.397
 8435SOL     OW26203   4.865   1.076   3.197
 8435SOL    HW126204   4.888   1.137   3.273
 8435SOL    HW226205   4.936   1.005   3.188
 8436SOL     OW26206   2.484   5.958   2.646
 8436SOL    HW126207   2.537   5.892   2.594
 8436SOL    HW226208   2.517   5.962   2.740
 8437SOL     OW26209   1.456   4.259   1.885
 8437SOL    HW126210   1.543   4.219   1.857
 8437SOL    HW226211   1.472   4.323   1.960
 8438SOL     OW26212   0.973   4.173   2.444
 8438SOL    HW126213   1.014   4.087   2.414
 8438SOL    HW226214   0.938   4.162   2.537
 8439SOL     OW26215   5.896   5.067   3.565
 8439SOL    HW126216   5.831   5.056   3.490
 8439SOL    HW226217   5.956   5.145   3.546
 8440SOL     OW26218   2.201   1.515   3.222
 8440SOL    HW126219   2.214   1.446   3.293
 8440SOL    HW226220   2.113   1.500   3.176
 8441SOL     OW26221   6.168   1.484   4.599
 8441SOL    HW126222   6.213   1.423   4.665
 8441SOL    HW226223   6.206   1.576   4.606
 8442SOL     OW26224   3.489   1.329   6.289
 8442SOL    HW126225   3.464   1.393   6.362
 8442SOL    HW226226   3.425   1.253   6.288
 8443SOL     OW26227   0.966   3.761   3.189
 8443SOL    HW126228   0.866   3.759   3.182
 8443SOL    HW226229   0.993   3.737   3.282
 8444SOL     OW26230   5.174   5.273   4.597
 8444SOL    HW126231   5.106   5.203   4.618
 8444SOL    HW226232   5.260   5.251   4.643
 8445SOL     OW26233   4.806   5.824   6.885
 8445SOL    HW126234   4.714   5.799   6.854
 8445SOL    HW226235   4.847   5.888   6.819
 8446SOL     OW26236   6.724   5.427   4.991
 8446SOL    HW126237   6.787   5.350   5.004
 8446SOL    HW226238   6.759   5.486   4.918
 8447SOL     OW26239   4.059   2.160   3.437
 8447SOL    HW126240   3.981   2.153   3.500
 8447SOL    HW226241   4.052   2.088   3.368
 8448SOL     OW26242   3.496   6.752   3.250
 8448SOL    HW126243   3.495   6.652   3.256
 8448SOL    HW226244   3.477   6.791   3.341
 8449SOL     OW26245   2.306   2.338   2.953
 8449SOL    HW126246   2.328   2.280   2.875
 8449SOL    HW226247   2.326   2.433   2.931
 8450SOL     OW26248   6.917   1.117   0.084
 8450SOL    HW126249   6.846   1.117   0.014
 8450SOL    HW226250   6.913   1.204   0.135
 8451SOL     OW26251   4.533   2.583   0.990
 8451SOL    HW126252   4.517   2.559   1.085
 8451SOL    HW226253   4.452   2.630   0.953
 8452SOL     OW26254   4.985   2.117   5.511
 8452SOL    HW126255   4.901   2.153   5.552
 8452SOL    HW226256   4.961   2.058   5.433
 8453SOL     OW26257   0.542   6.283   1.056
 8453SOL    HW126258   0.503   6.192   1.070
 8453SOL    HW226259   0.637   6.284   1.086
 8454SOL     OW26260   6.296   4.157   6.853
 8454SOL    HW126261   6.326   4.116   6.939
 8454SOL    HW226262   6.364   4.141   6.782
 8455SOL     OW26263   0.198   0.818   3.106
 8455SOL    HW126264   0.124   0.849   3.046
 8455SOL    HW226265   0.174   0.836   3.201
 8456SOL     OW26266   6.143   0.623   3.545
 8456SOL    HW126267   6.066   0.571   3.582
 8456SOL    HW226268   6.228   0.572   3.563
 8457SOL     OW26269   6.811   6.825   5.169
 8457SOL    HW126270   6.809   6.897   5.099
 8457SOL    HW226271   6.898   6.778   5.165
 8458SOL     OW26272   6.948   6.270   0.054
 8458SOL    HW126273   6.976   6.334   0.126
 8458SOL    HW226274   6.875   6.211   0.089
 8459SOL     OW26275   1.447   5.572   3.199
 8459SOL    HW126276   1.365   5.522   3.171
 8459SOL    HW226277   1.422   5.666   3.222
 8460SOL     OW26278   3.451   4.114   3.691
 8460SOL    HW126279   3.508   4.168   3.753
 8460SOL    HW226280   3.357   4.116   3.724
 8461SOL     OW26281   6.510   3.575   3.961
 8461SOL    HW126282   6.529   3.543   4.054
 8461SOL    HW226283   6.452   3.656   3.965
 8462SOL     OW26284   2.134   3.012   2.126
 8462SOL    HW126285   2.209   2.958   2.163
 8462SOL    HW226286   2.101   3.076   2.196
 8463SOL     OW26287   4.968   1.325   2.095
 8463SOL    HW126288   5.043   1.378   2.057
 8463SOL    HW226289   4.993   1.228   2.094
 8464SOL     OW26290   6.403   1.998   4.564
 8464SOL    HW126291   6.406   2.048   4.477
 8464SOL    HW226292   6.481   2.027   4.620
 8465SOL     OW26293   1.635   2.261   0.262
 8465SOL    HW126294   1.688   2.343   0.282
 8465SOL    HW226295   1.537   2.281   0.273
 8466SOL     OW26296   0.723   6.970   3.826
 8466SOL    HW126297   0.783   7.013   3.758
 8466SOL    HW226298   0.637   0.006   3.832
 8467SOL     OW26299   2.767   5.299   0.628
 8467SOL    HW126300   2.708   5.367   0.671
 8467SOL    HW226301   2.830   5.345   0.565
 8468SOL     OW26302   4.837   2.005   0.686
 8468SOL    HW126303   4.756   1.968   0.641
 8468SOL    HW226304   4.896   2.049   0.618
 8469SOL     OW26305   3.899   2.346   6.682
 8469SOL    HW126306   3.984   2.372   6.728
 8469SOL    HW226307   3.821   2.378   6.735
 8470SOL     OW26308   2.308   2.573   6.400
 8470SOL    HW126309   2.371   2.631   6.349
 8470SOL    HW226310   2.322   2.587   6.498
 8471SOL     OW26311   4.152   1.110   3.550
 8471SOL    HW126312   4.079   1.136   3.614
 8471SOL    HW226313   4.238   1.102   3.599
 8472SOL     OW26314   1.525   6.014   3.575
 8472SOL    HW126315   1.430   6.023   3.604
 8472SOL    HW226316   1.547   5.917   3.562
 8473SOL     OW26317   6.350   5.829   0.062
 8473SOL    HW126318   6.302   5.772   7.011
 8473SOL    HW226319   6.447   5.804   0.063
 8474SOL     OW26320   4.555   4.785   0.878
 8474SOL    HW126321   4.653   4.768   0.869
 8474SOL    HW226322   4.521   4.744   0.963
 8475SOL     OW26323   4.550   1.090   3.286
 8475SOL    HW126324   4.601   1.104   3.201
 8475SOL    HW226325   4.609   1.113   3.364
 8476SOL     OW26326   4.510   0.235   2.659
 8476SOL    HW126327   4.442   0.292   2.704
 8476SOL    HW226328   4.570   0.194   2.728
 8477SOL     OW26329   2.743   1.083   2.093
 8477SOL    HW126330   2.728   1.118   2.185
 8477SOL    HW226331   2.678   1.125   2.030
 8478SOL     OW26332   2.108   0.283   5.874
 8478SOL    HW126333   2.161   0.367   5.887
 8478SOL    HW226334   2.098   0.265   5.776
 8479SOL     OW26335   4.740   0.958   2.115
 8479SOL    HW126336   4.676   1.018   2.067
 8479SOL    HW226337   4.833   0.978   2.086
 8480SOL     OW26338   1.433   1.532   1.376
 8480SOL    HW126339   1.471   1.562   1.464
 8480SOL    HW226340   1.340   1.567   1.367
 8481SOL     OW26341   4.005   6.968   4.308
 8481SOL    HW126342   3.966   6.925   4.226
 8481SOL    HW226343   4.073   0.021   4.281
 8482SOL     OW26344   0.899   0.463   2.083
 8482SOL    HW126345   0.816   0.421   2.047
 8482SOL    HW226346   0.882   0.497   2.175
 8483SOL     OW26347   4.187   6.005   2.176
 8483SOL    HW126348   4.164   6.084   2.233
 8483SOL    HW226349   4.136   6.010   2.090
 8484SOL     OW26350   0.659   4.870   4.759
 8484SOL    HW126351   0.637   4.778   4.726
 8484SOL    HW226352   0.714   4.862   4.843
 8485SOL     OW26353   3.068   3.402   6.033
 8485SOL    HW126354   3.047   3.487   5.986
 8485SOL    HW226355   3.148   3.359   5.991
 8486SOL     OW26356   4.479   0.676   2.147
 8486SOL    HW126357   4.431   0.678   2.235
 8486SOL    HW226358   4.491   0.770   2.114
 8487SOL     OW26359   4.366   6.961   0.947
 8487SOL    HW126360   4.368   6.949   0.848
 8487SOL    HW226361   4.346   6.873   0.991
 8488SOL     OW26362   5.044   3.160   4.506
 8488SOL    HW126363   5.139   3.190   4.495
 8488SOL    HW226364   5.005   3.205   4.587
 8489SOL     OW26365   4.363   4.901   2.822
 8489SOL    HW126366   4.288   4.966   2.807
 8489SOL    HW226367   4.361   4.869   2.916
 8490SOL     OW26368   3.685   5.496   2.942
 8490SOL    HW126369   3.754   5.541   2.998
 8490SOL    HW226370   3.604   5.477   2.997
 8491SOL     OW26371   1.913   0.985   2.432
 8491SOL    HW126372   1.958   0.909   2.479
 8491SOL    HW226373   1.817   0.962   2.415
 8492SOL     OW26374   5.734   3.721   4.426
 8492SOL    HW126375   5.806   3.744   4.492
 8492SOL    HW226376   5.646   3.716   4.473
 8493SOL     OW26377   3.642   2.243   0.896
 8493SOL    HW126378   3.634   2.241   0.995
 8493SOL    HW226379   3.729   2.202   0.868
 8494SOL     OW26380   3.310   5.554   6.931
 8494SOL    HW126381   3.301   5.611   7.013
 8494SOL    HW226382   3.385   5.588   6.874
 8495SOL     OW26383   0.337   2.864   0.238
 8495SOL    HW126384   0.412   2.899   0.182
 8495SOL    HW226385   0.367   2.782   0.287
 8496SOL     OW26386   6.971   2.972   3.259
 8496SOL    HW126387   6.879   2.953   3.292
 8496SOL    HW226388   6.970   2.975   3.159
 8497SOL     OW26389   6.009   5.445   3.295
 8497SOL    HW126390   6.087   5.415   3.240
 8497SOL    HW226391   5.955   5.511   3.242
 8498SOL     OW26392   6.940   1.104   0.629
 8498SOL    HW126393   6.881   1.027   0.652
 8498SOL    HW226394   6.892   1.189   0.648
 8499SOL     OW26395   3.304   4.083   6.698
 8499SOL    HW126396   3.214   4.053   6.731
 8499SOL    HW226397   3.293   4.162   6.638
 8500SOL     OW26398   3.068   0.919   6.429
 8500SOL    HW126399   3.165   0.896   6.434
 8500SOL    HW226400   3.056   1.017   6.447
 8501SOL     OW26401   2.144   4.468   5.981
 8501SOL    HW126402   2.050   4.454   6.012
 8501SOL    HW226403   2.144   4.503   5.887
 8502SOL     OW26404   0.323   0.158   2.462
 8502SOL    HW126405   0.394   0.095   2.430
 8502SOL    HW226406   0.309   0.229   2.393
 8503SOL     OW26407   2.862   5.221   3.232
 8503SOL    HW126408   2.940   5.191   3.177
 8503SOL    HW226409   2.883   5.310   3.274
 8504SOL     OW26410   0.503   5.771   2.951
 8504SOL    HW126411   0.597   5.747   2.925
 8504SOL    HW226412   0.472   5.708   3.022
 8505SOL     OW26413   4.867   2.950   3.626
 8505SOL    HW126414   4.804   2.874   3.640
 8505SOL    HW226415   4.825   3.017   3.566
 8506SOL     OW26416   1.005   6.486   0.426
 8506SOL    HW126417   0.941   6.535   0.486
 8506SOL    HW226418   0.994   6.517   0.332
 8507SOL     OW26419   2.031   0.988   5.056
 8507SOL    HW126420   1.944   1.017   5.096
 8507SOL    HW226421   2.040   1.026   4.964
 8508SOL     OW26422   1.049   2.773   5.940
 8508SOL    HW126423   1.105   2.856   5.933
 8508SOL    HW226424   1.105   2.694   5.914
 8509SOL     OW26425   6.034   1.753   4.528
 8509SOL    HW126426   5.994   1.669   4.563
 8509SOL    HW226427   5.962   1.820   4.509
 8510SOL     OW26428   4.984   0.145   2.774
 8510SOL    HW126429   5.079   0.127   2.746
 8510SOL    HW226430   4.974   0.243   2.792
 8511SOL     OW26431   6.812   4.822   1.802
 8511SOL    HW126432   6.881   4.757   1.834
 8511SOL    HW226433   6.727   4.807   1.853
 8512SOL     OW26434   4.578   1.962   0.576
 8512SOL    HW126435   4.574   2.037   0.510
 8512SOL    HW226436   4.487   1.920   0.584
 8513SOL     OW26437   6.957   4.461   0.951
 8513SOL    HW126438   6.975   4.412   1.036
 8513SOL    HW226439   0.013   4.440   0.884
 8514SOL     OW26440   2.910   2.632   5.632
 8514SOL    HW126441   2.862   2.590   5.710
 8514SOL    HW226442   2.883   2.727   5.623
 8515SOL     OW26443   1.204   0.256   1.177
 8515SOL    HW126444   1.147   0.310   1.115
 8515SOL    HW226445   1.164   0.258   1.269
 8516SOL     OW26446   5.497   2.225   3.426
 8516SOL    HW126447   5.484   2.129   3.449
 8516SOL    HW226448   5.485   2.238   3.328
 8517SOL     OW26449   2.033   1.948   5.392
 8517SOL    HW126450   2.033   1.859   5.437
 8517SOL    HW226451   2.121   1.993   5.406
 8518SOL     OW26452   5.293   4.756   0.324
 8518SOL    HW126453   5.238   4.674   0.341
 8518SOL    HW226454   5.260   4.801   0.241
 8519SOL     OW26455   1.445   3.357   0.923
 8519SOL    HW126456   1.540   3.367   0.893
 8519SOL    HW226457   1.432   3.402   1.011
 8520SOL     OW26458   4.039   4.067   6.040
 8520SOL    HW126459   3.944   4.085   6.014
 8520SOL    HW226460   4.092   4.151   6.032
 8521SOL     OW26461   1.667   6.545   5.739
 8521SOL    HW126462   1.705   6.561   5.648
 8521SOL    HW226463   1.625   6.630   5.774
 8522SOL     OW26464   0.698   6.798   0.386
 8522SOL    HW126465   0.625   6.792   0.318
 8522SOL    HW226466   0.663   6.840   0.469
 8523SOL     OW26467   3.027   1.377   0.140
 8523SOL    HW126468   3.101   1.343   0.082
 8523SOL    HW226469   2.979   1.299   0.182
 8524SOL     OW26470   2.261   5.659   4.402
 8524SOL    HW126471   2.216   5.648   4.490
 8524SOL    HW226472   2.193   5.655   4.329
 8525SOL     OW26473   6.312   5.078   1.499
 8525SOL    HW126474   6.371   5.079   1.579
 8525SOL    HW226475   6.268   4.989   1.490
 8526SOL     OW26476   0.980   5.859   0.909
 8526SOL    HW126477   1.031   5.933   0.865
 8526SOL    HW226478   0.993   5.774   0.859
 8527SOL     OW26479   2.989   0.846   5.533
 8527SOL    HW126480   2.909   0.828   5.475
 8527SOL    HW226481   2.978   0.796   5.619
 8528SOL     OW26482   5.348   1.740   0.585
 8528SOL    HW126483   5.290   1.820   0.570
 8528SOL    HW226484   5.383   1.707   0.497
 8529SOL     OW26485   1.100   6.249   6.454
 8529SOL    HW126486   1.112   6.329   6.514
 8529SOL    HW226487   1.189   6.204   6.440
 8530SOL     OW26488   2.997   3.828   4.031
 8530SOL    HW126489   3.079   3.856   4.080
 8530SOL    HW226490   2.936   3.780   4.093
 8531SOL     OW26491   6.645   5.270   4.133
 8531SOL    HW126492   6.718   5.317   4.183
 8531SOL    HW226493   6.674   5.254   4.039
 8532SOL     OW26494   2.651   5.147   5.433
 8532SOL    HW126495   2.591   5.086   5.484
 8532SOL    HW226496   2.609   5.237   5.424
 8533SOL     OW26497   2.174   5.965   5.439
 8533SOL    HW126498   2.261   6.009   5.463
 8533SOL    HW226499   2.185   5.915   5.353
 8534SOL     OW26500   2.699   2.436   4.109
 8534SOL    HW126501   2.747   2.367   4.054
 8534SOL    HW226502   2.663   2.393   4.192
 8535SOL     OW26503   6.133   0.593   2.676
 8535SOL    HW126504   6.200   0.605   2.750
 8535SOL    HW226505   6.064   0.527   2.704
 8536SOL     OW26506   0.810   1.285   4.766
 8536SOL    HW126507   0.894   1.275   4.818
 8536SOL    HW226508   0.782   1.381   4.767
 8537SOL     OW26509   6.812   1.199   2.510
 8537SOL    HW126510   6.735   1.150   2.552
 8537SOL    HW226511   6.815   1.293   2.545
 8538SOL     OW26512   1.364   2.392   0.271
 8538SOL    HW126513   1.267   2.412   0.282
 8538SOL    HW226514   1.407   2.464   0.216
 8539SOL     OW26515   6.033   2.556   3.253
 8539SOL    HW126516   5.978   2.511   3.183
 8539SOL    HW226517   6.045   2.653   3.230
 8540SOL     OW26518   3.745   0.262   0.744
 8540SOL    HW126519   3.827   0.304   0.783
 8540SOL    HW226520   3.693   0.216   0.816
 8541SOL     OW26521   2.012   2.765   4.416
 8541SOL    HW126522   1.959   2.742   4.497
 8541SOL    HW226523   2.108   2.780   4.442
 8542SOL     OW26524   3.591   5.089   0.654
 8542SOL    HW126525   3.612   5.011   0.595
 8542SOL    HW226526   3.495   5.083   0.683
 8543SOL     OW26527   2.498   2.368   6.182
 8543SOL    HW126528   2.490   2.289   6.244
 8543SOL    HW226529   2.418   2.427   6.194
 8544SOL     OW26530   6.640   3.083   3.253
 8544SOL    HW126531   6.678   3.006   3.202
 8544SOL    HW226532   6.610   3.154   3.190
 8545SOL     OW26533   4.815   6.408   5.003
 8545SOL    HW126534   4.850   6.431   4.913
 8545SOL    HW226535   4.891   6.396   5.067
 8546SOL     OW26536   4.365   1.700   6.096
 8546SOL    HW126537   4.329   1.751   6.018
 8546SOL    HW226538   4.293   1.641   6.133
 8547SOL     OW26539   0.799   4.719   3.032
 8547SOL    HW126540   0.857   4.703   3.111
 8547SOL    HW226541   0.707   4.745   3.062
 8548SOL     OW26542   5.983   1.504   5.674
 8548SOL    HW126543   6.004   1.542   5.764
 8548SOL    HW226544   5.974   1.405   5.681
 8549SOL     OW26545   5.686   3.298   5.024
 8549SOL    HW126546   5.591   3.276   5.004
 8549SOL    HW226547   5.695   3.321   5.121
 8550SOL     OW26548   1.055   4.216   6.790
 8550SOL    HW126549   1.088   4.158   6.715
 8550SOL    HW226550   1.071   4.170   6.877
 8551SOL     OW26551   3.395   3.972   0.217
 8551SOL    HW126552   3.394   3.872   0.217
 8551SOL    HW226553   3.483   4.005   0.250
 8552SOL     OW26554   3.188   6.326   4.010
 8552SOL    HW126555   3.212   6.243   4.060
 8552SOL    HW226556   3.094   6.320   3.977
 8553SOL     OW26557   5.582   6.053   0.342
 8553SOL    HW126558   5.570   5.968   0.290
 8553SOL    HW226559   5.658   6.105   0.304
 8554SOL     OW26560   6.235   4.392   7.014
 8554SOL    HW126561   6.271   4.309   6.972
 8554SOL    HW226562   6.182   4.368   0.080
 8555SOL     OW26563   0.913   6.973   4.258
 8555SOL    HW126564   0.910   0.011   4.342
 8555SOL    HW226565   0.893   6.877   4.278
 8556SOL     OW26566   6.591   0.132   3.812
 8556SOL    HW126567   6.580   0.206   3.878
 8556SOL    HW226568   6.527   0.058   3.834
 8557SOL     OW26569   0.374   0.780   0.676
 8557SOL    HW126570   0.309   0.712   0.642
 8557SOL    HW226571   0.443   0.799   0.606
 8558SOL     OW26572   0.934   5.272   2.032
 8558SOL    HW126573   1.009   5.247   1.971
 8558SOL    HW226574   0.956   5.357   2.079
 8559SOL     OW26575   0.417   1.217   5.981
 8559SOL    HW126576   0.459   1.132   6.013
 8559SOL    HW226577   0.488   1.281   5.953
 8560SOL     OW26578   6.399   2.610   6.247
 8560SOL    HW126579   6.403   2.635   6.150
 8560SOL    HW226580   6.492   2.593   6.280
 8561SOL     OW26581   4.693   6.498   4.486
 8561SOL    HW126582   4.746   6.503   4.401
 8561SOL    HW226583   4.654   6.406   4.495
 8562SOL     OW26584   3.605   6.796   4.466
 8562SOL    HW126585   3.524   6.737   4.468
 8562SOL    HW226586   3.687   6.741   4.456
 8563SOL     OW26587   2.662   2.709   6.061
 8563SOL    HW126588   2.588   2.725   5.996
 8563SOL    HW226589   2.713   2.794   6.076
 8564SOL     OW26590   0.464   0.038   3.771
 8564SOL    HW126591   0.451   6.957   3.793
 8564SOL    HW226592   0.476   0.048   3.672
 8565SOL     OW26593   4.477   0.441   1.567
 8565SOL    HW126594   4.529   0.384   1.631
 8565SOL    HW226595   4.539   0.497   1.513
 8566SOL     OW26596   2.121   3.593   3.166
 8566SOL    HW126597   2.057   3.522   3.196
 8566SOL    HW226598   2.167   3.563   3.083
 8567SOL     OW26599   5.206   6.810   0.845
 8567SOL    HW126600   5.175   6.775   0.934
 8567SOL    HW226601   5.144   6.778   0.773
 8568SOL     OW26602   5.404   1.211   0.232
 8568SOL    HW126603   5.402   1.241   0.137
 8568SOL    HW226604   5.499   1.200   0.261
 8569SOL     OW26605   4.342   1.344   4.939
 8569SOL    HW126606   4.303   1.263   4.896
 8569SOL    HW226607   4.387   1.400   4.868
 8570SOL     OW26608   1.019   4.754   6.892
 8570SOL    HW126609   1.024   4.706   6.979
 8570SOL    HW226610   1.067   4.842   6.900
 8571SOL     OW26611   0.180   4.597   4.945
 8571SOL    HW126612   0.139   4.527   4.887
 8571SOL    HW226613   0.228   4.663   4.889
 8572SOL     OW26614   3.039   5.085   5.150
 8572SOL    HW126615   2.974   5.086   5.226
 8572SOL    HW226616   3.065   4.990   5.130
 8573SOL     OW26617   4.081   5.491   4.868
 8573SOL    HW126618   4.050   5.399   4.891
 8573SOL    HW226619   4.097   5.543   4.952
 8574SOL     OW26620   0.438   3.857   4.863
 8574SOL    HW126621   0.404   3.807   4.943
 8574SOL    HW226622   0.455   3.792   4.789
 8575SOL     OW26623   3.436   3.258   6.660
 8575SOL    HW126624   3.416   3.347   6.619
 8575SOL    HW226625   3.373   3.242   6.737
 8576SOL     OW26626   1.610   6.906   1.831
 8576SOL    HW126627   1.511   6.914   1.844
 8576SOL    HW226628   1.627   6.852   1.748
 8577SOL     OW26629   6.376   5.476   3.339
 8577SOL    HW126630   6.455   5.423   3.372
 8577SOL    HW226631   6.362   5.555   3.399
 8578SOL     OW26632   4.531   6.553   3.674
 8578SOL    HW126633   4.518   6.491   3.751
 8578SOL    HW226634   4.628   6.576   3.665
 8579SOL     OW26635   0.621   6.110   3.073
 8579SOL    HW126636   0.710   6.133   3.033
 8579SOL    HW226637   0.552   6.172   3.037
 8580SOL     OW26638   2.740   4.383   6.473
 8580SOL    HW126639   2.690   4.338   6.400
 8580SOL    HW226640   2.817   4.326   6.502
 8581SOL     OW26641   3.241   2.746   1.419
 8581SOL    HW126642   3.326   2.694   1.416
 8581SOL    HW226643   3.206   2.758   1.326
 8582SOL     OW26644   4.562   4.177   1.253
 8582SOL    HW126645   4.656   4.190   1.222
 8582SOL    HW226646   4.562   4.136   1.344
 8583SOL     OW26647   5.784   0.058   6.231
 8583SOL    HW126648   5.796   6.998   6.166
 8583SOL    HW226649   5.730   0.026   6.309
 8584SOL     OW26650   6.961   5.325   6.306
 8584SOL    HW126651   0.009   5.249   6.325
 8584SOL    HW226652   6.894   5.331   6.380
 8585SOL     OW26653   0.671   1.505   0.894
 8585SOL    HW126654   0.686   1.409   0.870
 8585SOL    HW226655   0.666   1.514   0.993
 8586SOL     OW26656   4.302   5.345   4.023
 8586SOL    HW126657   4.283   5.297   4.109
 8586SOL    HW226658   4.239   5.315   3.952
 8587SOL     OW26659   0.090   1.520   1.075
 8587SOL    HW126660   0.009   1.494   1.129
 8587SOL    HW226661   0.155   1.444   1.075
 8588SOL     OW26662   4.518   2.054   0.301
 8588SOL    HW126663   4.438   1.996   0.286
 8588SOL    HW226664   4.516   2.131   0.238
 8589SOL     OW26665   2.745   1.632   4.692
 8589SOL    HW126666   2.694   1.690   4.756
 8589SOL    HW226667   2.691   1.552   4.668
 8590SOL     OW26668   6.236   5.407   5.794
 8590SOL    HW126669   6.195   5.472   5.730
 8590SOL    HW226670   6.170   5.335   5.815
 8591SOL     OW26671   0.942   3.025   0.088
 8591SOL    HW126672   0.933   3.081   0.006
 8591SOL    HW226673   0.915   2.931   0.068
 8592SOL     OW26674   6.532   5.692   6.294
 8592SOL    HW126675   6.601   5.621   6.307
 8592SOL    HW226676   6.522   5.744   6.379
 8593SOL     OW26677   0.836   0.398   3.073
 8593SOL    HW126678   0.787   0.337   3.011
 8593SOL    HW226679   0.776   0.473   3.101
 8594SOL     OW26680   3.168   3.772   3.479
 8594SOL    HW126681   3.178   3.829   3.560
 8594SOL    HW226682   3.089   3.711   3.490
 8595SOL     OW26683   1.831   2.697   1.548
 8595SOL    HW126684   1.790   2.774   1.499
 8595SOL    HW226685   1.906   2.730   1.605
 8596SOL     OW26686   6.405   4.825   2.262
 8596SOL    HW126687   6.308   4.801   2.252
 8596SOL    HW226688   6.461   4.753   2.219
 8597SOL     OW26689   1.594   1.718   0.704
 8597SOL    HW126690   1.652   1.715   0.623
 8597SOL    HW226691   1.650   1.705   0.786
 8598SOL     OW26692   5.292   4.390   0.827
 8598SOL    HW126693   5.371   4.440   0.862
 8598SOL    HW226694   5.291   4.298   0.867
 8599SOL     OW26695   1.092   3.350   2.512
 8599SOL    HW126696   1.099   3.450   2.520
 8599SOL    HW226697   1.149   3.319   2.436
 8600SOL     OW26698   6.388   3.675   6.240
 8600SOL    HW126699   6.382   3.621   6.324
 8600SOL    HW226700   6.400   3.772   6.264
 8601SOL     OW26701   0.157   0.566   4.371
 8601SOL    HW126702   0.255   0.584   4.379
 8601SOL    HW226703   0.142   0.489   4.309
 8602SOL     OW26704   3.416   6.667   2.132
 8602SOL    HW126705   3.424   6.725   2.213
 8602SOL    HW226706   3.405   6.572   2.159
 8603SOL     OW26707   4.426   3.617   1.043
 8603SOL    HW126708   4.356   3.684   1.022
 8603SOL    HW226709   4.425   3.544   0.975
 8604SOL     OW26710   5.364   2.398   2.839
 8604SOL    HW126711   5.462   2.413   2.856
 8604SOL    HW226712   5.343   2.301   2.847
 8605SOL     OW26713   2.948   6.635   2.150
 8605SOL    HW126714   3.004   6.553   2.155
 8605SOL    HW226715   3.005   6.715   2.169
 8606SOL     OW26716   4.025   4.963   5.765
 8606SOL    HW126717   4.105   5.012   5.799
 8606SOL    HW226718   4.054   4.899   5.693
 8607SOL     OW26719   3.628   6.225   1.710
 8607SOL    HW126720   3.697   6.293   1.731
 8607SOL    HW226721   3.577   6.253   1.628
 8608SOL     OW26722   4.996   6.133   2.630
 8608SOL    HW126723   5.050   6.049   2.629
 8608SOL    HW226724   5.003   6.175   2.721
 8609SOL     OW26725   3.896   0.336   5.951
 8609SOL    HW126726   3.955   0.406   5.912
 8609SOL    HW226727   3.845   0.290   5.878
 8610SOL     OW26728   0.078   6.876   4.379
 8610SOL    HW126729   0.122   6.879   4.469
 8610SOL    HW226730   0.108   6.795   4.329
 8611SOL     OW26731   1.506   1.807   3.124
 8611SOL    HW126732   1.485   1.730   3.064
 8611SOL    HW226733   1.598   1.798   3.159
 8612SOL     OW26734   4.474   2.921   5.310
 8612SOL    HW126735   4.562   2.905   5.263
 8612SOL    HW226736   4.410   2.848   5.284
 8613SOL     OW26737   1.018   1.578   0.263
 8613SOL    HW126738   0.964   1.661   0.274
 8613SOL    HW226739   1.066   1.558   0.348
 8614SOL     OW26740   0.842   1.420   3.449
 8614SOL    HW126741   0.895   1.336   3.440
 8614SOL    HW226742   0.813   1.451   3.358
 8615SOL     OW26743   4.590   2.516   5.325
 8615SOL    HW126744   4.531   2.559   5.257
 8615SOL    HW226745   4.580   2.417   5.319
 8616SOL     OW26746   1.680   3.539   6.505
 8616SOL    HW126747   1.655   3.442   6.513
 8616SOL    HW226748   1.779   3.549   6.518
 8617SOL     OW26749   6.044   3.438   1.227
 8617SOL    HW126750   6.122   3.442   1.164
 8617SOL    HW226751   6.034   3.344   1.262
 8618SOL     OW26752   4.721   0.618   3.702
 8618SOL    HW126753   4.716   0.538   3.641
 8618SOL    HW226754   4.647   0.613   3.769
 8619SOL     OW26755   4.478   5.608   0.436
 8619SOL    HW126756   4.434   5.563   0.358
 8619SOL    HW226757   4.568   5.566   0.451
 8620SOL     OW26758   6.006   6.334   3.135
 8620SOL    HW126759   5.974   6.426   3.108
 8620SOL    HW226760   5.958   6.305   3.217
 8621SOL     OW26761   5.944   0.841   3.057
 8621SOL    HW126762   5.871   0.835   2.989
 8621SOL    HW226763   5.917   0.790   3.139
 8622SOL     OW26764   5.486   5.316   6.783
 8622SOL    HW126765   5.499   5.290   6.879
 8622SOL    HW226766   5.391   5.301   6.757
 8623SOL     OW26767   6.336   2.946   2.558
 8623SOL    HW126768   6.425   2.975   2.524
 8623SOL    HW226769   6.270   2.947   2.483
 8624SOL     OW26770   0.519   5.270   3.701
 8624SOL    HW126771   0.538   5.270   3.799
 8624SOL    HW226772   0.471   5.354   3.676
 8625SOL     OW26773   3.891   0.719   5.576
 8625SOL    HW126774   3.853   0.753   5.663
 8625SOL    HW226775   3.982   0.757   5.563
 8626SOL     OW26776   2.871   3.326   2.502
 8626SOL    HW126777   2.904   3.235   2.480
 8626SOL    HW226778   2.842   3.372   2.418
 8627SOL     OW26779   2.363   0.366   6.617
 8627SOL    HW126780   2.271   0.396   6.593
 8627SOL    HW226781   2.427   0.442   6.607
 8628SOL     OW26782   5.765   1.219   0.098
 8628SOL    HW126783   5.766   1.185   0.003
 8628SOL    HW226784   5.855   1.258   0.119
 8629SOL     OW26785   0.924   5.128   3.685
 8629SOL    HW126786   0.959   5.215   3.650
 8629SOL    HW226787   1.001   5.068   3.709
 8630SOL     OW26788   5.506   4.793   4.123
 8630SOL    HW126789   5.485   4.804   4.026
 8630SOL    HW226790   5.426   4.757   4.171
 8631SOL     OW26791   3.687   5.789   4.127
 8631SOL    HW126792   3.714   5.885   4.137
 8631SOL    HW226793   3.606   5.784   4.068
 8632SOL     OW26794   4.993   0.213   3.531
 8632SOL    HW126795   5.027   0.260   3.449
 8632SOL    HW226796   5.065   0.211   3.600
 8633SOL     OW26797   6.408   0.624   4.042
 8633SOL    HW126798   6.387   0.654   4.135
 8633SOL    HW226799   6.493   0.665   4.012
 8634SOL     OW26800   6.460   5.493   1.956
 8634SOL    HW126801   6.528   5.420   1.966
 8634SOL    HW226802   6.422   5.490   1.863
 8635SOL     OW26803   6.348   4.141   5.214
 8635SOL    HW126804   6.298   4.220   5.248
 8635SOL    HW226805   6.442   4.169   5.191
 8636SOL     OW26806   5.188   5.852   0.327
 8636SOL    HW126807   5.256   5.841   0.255
 8636SOL    HW226808   5.212   5.930   0.384
 8637SOL     OW26809   1.487   0.411   1.659
 8637SOL    HW126810   1.557   0.448   1.598
 8637SOL    HW226811   1.524   0.407   1.752
 8638SOL     OW26812   4.168   5.188   0.336
 8638SOL    HW126813   4.076   5.204   0.299
 8638SOL    HW226814   4.168   5.104   0.389
 8639SOL     OW26815   6.912   3.043   2.242
 8639SOL    HW126816   6.856   2.969   2.206
 8639SOL    HW226817   6.983   3.006   2.301
 8640SOL     OW26818   5.351   6.426   1.295
 8640SOL    HW126819   5.427   6.396   1.239
 8640SOL    HW226820   5.274   6.363   1.283
 8641SOL     OW26821   5.591   4.912   3.811
 8641SOL    HW126822   5.578   5.005   3.778
 8641SOL    HW226823   5.688   4.898   3.834
 8642SOL     OW26824   4.979   1.706   1.842
 8642SOL    HW126825   5.030   1.789   1.866
 8642SOL    HW226826   4.981   1.693   1.743
 8643SOL     OW26827   4.862   1.161   6.006
 8643SOL    HW126828   4.820   1.076   6.038
 8643SOL    HW226829   4.794   1.233   6.003
 8644SOL     OW26830   6.428   3.300   5.251
 8644SOL    HW126831   6.513   3.247   5.261
 8644SOL    HW226832   6.356   3.258   5.307
 8645SOL     OW26833   5.909   4.457   1.578
 8645SOL    HW126834   5.998   4.469   1.621
 8645SOL    HW226835   5.868   4.371   1.609
 8646SOL     OW26836   5.360   0.774   0.455
 8646SOL    HW126837   5.448   0.819   0.438
 8646SOL    HW226838   5.327   0.799   0.546
 8647SOL     OW26839   4.475   5.222   1.755
 8647SOL    HW126840   4.462   5.271   1.841
 8647SOL    HW226841   4.388   5.179   1.729
 8648SOL     OW26842   5.345   1.903   4.569
 8648SOL    HW126843   5.332   1.824   4.508
 8648SOL    HW226844   5.443   1.917   4.583
 8649SOL     OW26845   6.982   4.487   5.633
 8649SOL    HW126846   7.009   4.410   5.692
 8649SOL    HW226847   0.048   4.531   5.597
 8650SOL     OW26848   1.581   4.635   2.295
 8650SOL    HW126849   1.616   4.543   2.314
 8650SOL    HW226850   1.505   4.630   2.231
 8651SOL     OW26851   3.022   1.931   1.332
 8651SOL    HW126852   3.119   1.906   1.337
 8651SOL    HW226853   3.008   1.997   1.258
 8652SOL     OW26854   1.409   4.110   3.882
 8652SOL    HW126855   1.432   4.036   3.945
 8652SOL    HW226856   1.335   4.081   3.822
 8653SOL     OW26857   6.241   3.178   6.478
 8653SOL    HW126858   6.204   3.269   6.496
 8653SOL    HW226859   6.317   3.186   6.414
 8654SOL     OW26860   0.094   6.834   3.081
 8654SOL    HW126861   0.017   6.822   3.018
 8654SOL    HW226862   0.156   6.904   3.045
 8655SOL     OW26863   5.777   5.980   4.165
 8655SOL    HW126864   5.768   6.034   4.249
 8655SOL    HW226865   5.848   6.019   4.108
 8656SOL     OW26866   6.205   2.446   1.538
 8656SOL    HW126867   6.176   2.378   1.605
 8656SOL    HW226868   6.302   2.433   1.518
 8657SOL     OW26869   3.208   4.202   0.264
 8657SOL    HW126870   3.229   4.284   0.211
 8657SOL    HW226871   3.273   4.129   0.239
 8658SOL     OW26872   6.626   5.397   0.601
 8658SOL    HW126873   6.651   5.494   0.593
 8658SOL    HW226874   6.626   5.355   0.511
 8659SOL     OW26875   5.198   0.590   4.140
 8659SOL    HW126876   5.183   0.597   4.042
 8659SOL    HW226877   5.263   0.660   4.169
 8660SOL     OW26878   5.825   4.615   1.384
 8660SOL    HW126879   5.788   4.703   1.411
 8660SOL    HW226880   5.841   4.558   1.465
 8661SOL     OW26881   6.261   3.824   1.639
 8661SOL    HW126882   6.170   3.865   1.651
 8661SOL    HW226883   6.253   3.739   1.588
 8662SOL     OW26884   0.111   0.361   0.601
 8662SOL    HW126885   0.167   0.410   0.667
 8662SOL    HW226886   0.060   0.426   0.545
 8663SOL     OW26887   2.470   5.659   0.597
 8663SOL    HW126888   2.442   5.570   0.560
 8663SOL    HW226889   2.396   5.695   0.655
 8664SOL     OW26890   4.223   5.280   1.367
 8664SOL    HW126891   4.261   5.273   1.275
 8664SOL    HW226892   4.294   5.313   1.430
 8665SOL     OW26893   5.044   5.386   5.705
 8665SOL    HW126894   5.132   5.375   5.658
 8665SOL    HW226895   4.978   5.320   5.668
 8666SOL     OW26896   5.308   3.773   4.317
 8666SOL    HW126897   5.371   3.838   4.360
 8666SOL    HW226898   5.224   3.821   4.291
 8667SOL     OW26899   5.039   1.440   3.576
 8667SOL    HW126900   5.112   1.503   3.552
 8667SOL    HW226901   4.963   1.490   3.618
 8668SOL     OW26902   3.406   1.785   4.122
 8668SOL    HW126903   3.370   1.807   4.212
 8668SOL    HW226904   3.506   1.777   4.126
 8669SOL     OW26905   4.049   0.902   6.213
 8669SOL    HW126906   4.019   0.889   6.307
 8669SOL    HW226907   4.138   0.858   6.200
 8670SOL     OW26908   3.922   4.894   4.521
 8670SOL    HW126909   3.828   4.870   4.498
 8670SOL    HW226910   3.929   4.910   4.619
 8671SOL     OW26911   5.577   6.469   2.846
 8671SOL    HW126912   5.564   6.462   2.945
 8671SOL    HW226913   5.675   6.464   2.825
 8672SOL     OW26914   3.018   4.838   5.043
 8672SOL    HW126915   2.982   4.902   4.974
 8672SOL    HW226916   2.965   4.753   5.040
 8673SOL     OW26917   5.893   1.894   1.272
 8673SOL    HW126918   5.932   1.976   1.228
 8673SOL    HW226919   5.902   1.902   1.371
 8674SOL     OW26920   0.712   0.198   2.933
 8674SOL    HW126921   0.748   0.106   2.949
 8674SOL    HW226922   0.672   0.203   2.842
 8675SOL     OW26923   2.252   1.263   2.940
 8675SOL    HW126924   2.235   1.206   2.860
 8675SOL    HW226925   2.310   1.213   3.005
 8676SOL     OW26926   4.674   6.898   3.771
 8676SOL    HW126927   4.751   6.835   3.762
 8676SOL    HW226928   4.613   6.886   3.693
 8677SOL     OW26929   2.450   4.291   5.254
 8677SOL    HW126930   2.376   4.231   5.222
 8677SOL    HW226931   2.523   4.235   5.294
 8678SOL     OW26932   1.180   0.507   6.569
 8678SOL    HW126933   1.177   0.593   6.621
 8678SOL    HW226934   1.246   0.516   6.494
 8679SOL     OW26935   6.917   2.591   4.547
 8679SOL    HW126936   6.930   2.577   4.645
 8679SOL    HW226937   6.841   2.655   4.532
 8680SOL     OW26938   1.497   3.023   0.032
 8680SOL    HW126939   1.553   3.059   0.107
 8680SOL    HW226940   1.436   2.953   0.067
 8681SOL     OW26941   4.244   3.835   1.019
 8681SOL    HW126942   4.301   3.886   1.083
 8681SOL    HW226943   4.172   3.894   0.984
 8682SOL     OW26944   2.143   6.189   2.668
 8682SOL    HW126945   2.087   6.272   2.658
 8682SOL    HW226946   2.103   6.115   2.615
 8683SOL     OW26947   6.638   3.421   6.497
 8683SOL    HW126948   6.715   3.485   6.493
 8683SOL    HW226949   6.561   3.458   6.444
 8684SOL     OW26950   6.471   2.733   3.925
 8684SOL    HW126951   6.561   2.718   3.966
 8684SOL    HW226952   6.401   2.725   3.995
 8685SOL     OW26953   0.717   2.269   5.411
 8685SOL    HW126954   0.729   2.363   5.441
 8685SOL    HW226955   0.641   2.228   5.460
 8686SOL     OW26956   6.448   2.276   3.157
 8686SOL    HW126957   6.380   2.349   3.167
 8686SOL    HW226958   6.413   2.192   3.197
 8687SOL     OW26959   4.139   6.983   3.015
 8687SOL    HW126960   4.062   6.924   2.992
 8687SOL    HW226961   4.107   0.062   3.025
 8688SOL     OW26962   1.976   0.115   2.217
 8688SOL    HW126963   1.988   0.087   2.122
 8688SOL    HW226964   1.904   0.060   2.260
 8689SOL     OW26965   4.306   5.773   0.554
 8689SOL    HW126966   4.236   5.775   0.482
 8689SOL    HW226967   4.372   5.701   0.535
 8690SOL     OW26968   0.693   1.555   2.916
 8690SOL    HW126969   0.630   1.572   2.992
 8690SOL    HW226970   0.692   1.458   2.894
 8691SOL     OW26971   5.786   1.829   0.822
 8691SOL    HW126972   5.738   1.873   0.746
 8691SOL    HW226973   5.722   1.770   0.872
 8692SOL     OW26974   1.889   1.429   4.052
 8692SOL    HW126975   1.795   1.401   4.036
 8692SOL    HW226976   1.941   1.351   4.089
 8693SOL     OW26977   5.603   2.278   0.849
 8693SOL    HW126978   5.606   2.375   0.823
 8693SOL    HW226979   5.510   2.255   0.880
 8694SOL     OW26980   4.441   6.697   5.958
 8694SOL    HW126981   4.468   6.773   5.899
 8694SOL    HW226982   4.464   6.717   6.053
 8695SOL     OW26983   3.919   4.371   5.764
 8695SOL    HW126984   3.896   4.288   5.715
 8695SOL    HW226985   3.837   4.427   5.776
 8696SOL     OW26986   2.079   5.245   1.492
 8696SOL    HW126987   2.035   5.156   1.491
 8696SOL    HW226988   2.170   5.238   1.450
 8697SOL     OW26989   6.101   4.600   1.336
 8697SOL    HW126990   6.011   4.615   1.377
 8697SOL    HW226991   6.125   4.503   1.343
 8698SOL     OW26992   5.618   5.429   4.547
 8698SOL    HW126993   5.590   5.482   4.467
 8698SOL    HW226994   5.539   5.377   4.582
 8699SOL     OW26995   1.232   1.444   5.424
 8699SOL    HW126996   1.148   1.405   5.386
 8699SOL    HW226997   1.311   1.401   5.382
 8700SOL     OW26998   2.728   1.068   5.377
 8700SOL    HW126999   2.778   1.147   5.413
 8700SOL    HW227000   2.775   1.031   5.298
 8701SOL     OW27001   1.259   1.676   4.668
 8701SOL    HW127002   1.173   1.716   4.700
 8701SOL    HW227003   1.332   1.699   4.732
 8702SOL     OW27004   4.646   6.058   6.986
 8702SOL    HW127005   4.646   5.993   6.910
 8702SOL    HW227006   4.728   6.044   0.026
 8703SOL     OW27007   2.678   5.533   0.775
 8703SOL    HW127008   2.703   5.623   0.812
 8703SOL    HW227009   2.605   5.544   0.708
 8704SOL     OW27010   0.289   4.081   1.346
 8704SOL    HW127011   0.342   3.998   1.327
 8704SOL    HW227012   0.267   4.084   1.443
 8705SOL     OW27013   4.627   0.171   5.673
 8705SOL    HW127014   4.707   0.231   5.670
 8705SOL    HW227015   4.618   0.122   5.587
 8706SOL     OW27016   5.166   1.743   1.030
 8706SOL    HW127017   5.157   1.712   1.124
 8706SOL    HW227018   5.077   1.770   0.994
 8707SOL     OW27019   4.871   2.873   5.909
 8707SOL    HW127020   4.822   2.950   5.950
 8707SOL    HW227021   4.924   2.906   5.831
 8708SOL     OW27022   4.141   1.648   1.064
 8708SOL    HW127023   4.051   1.672   1.030
 8708SOL    HW227024   4.132   1.581   1.138
 8709SOL     OW27025   0.222   3.619   0.940
 8709SOL    HW127026   0.250   3.540   0.885
 8709SOL    HW227027   0.134   3.599   0.983
 8710SOL     OW27028   1.375   3.293   2.984
 8710SOL    HW127029   1.436   3.269   3.059
 8710SOL    HW227030   1.423   3.351   2.918
 8711SOL     OW27031   0.578   1.206   4.087
 8711SOL    HW127032   0.537   1.180   4.000
 8711SOL    HW227033   0.562   1.133   4.154
 8712SOL     OW27034   3.524   1.556   5.637
 8712SOL    HW127035   3.535   1.655   5.649
 8712SOL    HW227036   3.614   1.514   5.629
 8713SOL     OW27037   0.030   4.568   3.584
 8713SOL    HW127038   0.023   4.589   3.486
 8713SOL    HW227039   0.094   4.632   3.627
 8714SOL     OW27040   1.622   1.692   4.813
 8714SOL    HW127041   1.642   1.765   4.879
 8714SOL    HW227042   1.659   1.718   4.723
 8715SOL     OW27043   6.267   1.637   1.251
 8715SOL    HW127044   6.327   1.691   1.310
 8715SOL    HW227045   6.308   1.547   1.236
 8716SOL     OW27046   1.624   2.005   1.456
 8716SOL    HW127047   1.657   2.100   1.446
 8716SOL    HW227048   1.525   2.003   1.441
 8717SOL     OW27049   3.067   3.242   1.056
 8717SOL    HW127050   3.009   3.248   1.137
 8717SOL    HW227051   3.149   3.299   1.069
 8718SOL     OW27052   6.139   3.193   5.018
 8718SOL    HW127053   6.143   3.225   5.113
 8718SOL    HW227054   6.214   3.233   4.966
 8719SOL     OW27055   6.698   0.702   6.424
 8719SOL    HW127056   6.621   0.642   6.400
 8719SOL    HW227057   6.778   0.646   6.445
 8720SOL     OW27058   4.780   3.986   6.188
 8720SOL    HW127059   4.860   3.953   6.138
 8720SOL    HW227060   4.726   3.909   6.220
 8721SOL     OW27061   0.228   2.468   4.253
 8721SOL    HW127062   0.218   2.420   4.166
 8721SOL    HW227063   0.321   2.503   4.261
 8722SOL     OW27064   3.585   2.517   0.351
 8722SOL    HW127065   3.524   2.596   0.343
 8722SOL    HW227066   3.558   2.447   0.285
 8723SOL     OW27067   0.031   3.982   1.142
 8723SOL    HW127068   0.008   4.017   1.233
 8723SOL    HW227069   0.114   3.927   1.147
 8724SOL     OW27070   4.949   6.897   6.620
 8724SOL    HW127071   4.872   6.859   6.569
 8724SOL    HW227072   4.958   6.851   6.708
 8725SOL     OW27073   2.918   5.633   0.523
 8725SOL    HW127074   3.014   5.649   0.499
 8725SOL    HW227075   2.864   5.628   0.439
 8726SOL     OW27076   5.696   0.486   1.608
 8726SOL    HW127077   5.643   0.491   1.693
 8726SOL    HW227078   5.753   0.404   1.609
 8727SOL     OW27079   6.045   6.127   1.389
 8727SOL    HW127080   6.101   6.085   1.318
 8727SOL    HW227081   5.993   6.203   1.350
 8728SOL     OW27082   2.369   0.184   4.910
 8728SOL    HW127083   2.332   0.153   4.998
 8728SOL    HW227084   2.331   0.129   4.836
 8729SOL     OW27085   5.857   6.193   4.720
 8729SOL    HW127086   5.951   6.165   4.740
 8729SOL    HW227087   5.850   6.220   4.624
 8730SOL     OW27088   0.020   6.268   1.530
 8730SOL    HW127089   6.945   6.278   1.571
 8730SOL    HW227090   0.044   6.352   1.481
 8731SOL     OW27091   0.996   1.497   2.639
 8731SOL    HW127092   1.058   1.553   2.584
 8731SOL    HW227093   0.977   1.542   2.726
 8732SOL     OW27094   5.062   4.802   1.341
 8732SOL    HW127095   5.030   4.883   1.390
 8732SOL    HW227096   5.023   4.802   1.248
 8733SOL     OW27097   0.668   6.298   1.729
 8733SOL    HW127098   0.599   6.257   1.788
 8733SOL    HW227099   0.732   6.228   1.699
 8734SOL     OW27100   6.315   5.320   0.894
 8734SOL    HW127101   6.247   5.336   0.965
 8734SOL    HW227102   6.356   5.230   0.907
 8735SOL     OW27103   6.683   2.247   6.655
 8735SOL    HW127104   6.700   2.194   6.738
 8735SOL    HW227105   6.603   2.209   6.607
 8736SOL     OW27106   0.414   4.691   6.633
 8736SOL    HW127107   0.452   4.706   6.542
 8736SOL    HW227108   0.390   4.595   6.643
 8737SOL     OW27109   3.558   5.917   6.261
 8737SOL    HW127110   3.642   5.937   6.211
 8737SOL    HW227111   3.485   5.977   6.228
 8738SOL     OW27112   0.992   3.811   4.370
 8738SOL    HW127113   0.976   3.875   4.295
 8738SOL    HW227114   1.066   3.847   4.428
 8739SOL     OW27115   1.049   3.157   4.881
 8739SOL    HW127116   1.018   3.224   4.949
 8739SOL    HW227117   1.040   3.065   4.919
 8740SOL     OW27118   1.897   6.254   1.200
 8740SOL    HW127119   1.833   6.177   1.201
 8740SOL    HW227120   1.880   6.312   1.279
 8741SOL     OW27121   1.572   3.430   2.104
 8741SOL    HW127122   1.592   3.525   2.126
 8741SOL    HW227123   1.616   3.406   2.017
 8742SOL     OW27124   4.771   0.234   2.085
 8742SOL    HW127125   4.690   0.291   2.100
 8742SOL    HW227126   4.834   0.243   2.162
 8743SOL     OW27127   2.504   5.024   2.729
 8743SOL    HW127128   2.517   5.121   2.752
 8743SOL    HW227129   2.589   4.988   2.689
 8744SOL     OW27130   3.378   2.746   5.603
 8744SOL    HW127131   3.348   2.667   5.657
 8744SOL    HW227132   3.299   2.791   5.563
 8745SOL     OW27133   6.314   2.254   5.965
 8745SOL    HW127134   6.407   2.270   5.933
 8745SOL    HW227135   6.290   2.321   6.035
 8746SOL     OW27136   5.121   4.387   5.547
 8746SOL    HW127137   5.202   4.375   5.604
 8746SOL    HW227138   5.112   4.483   5.521
 8747SOL     OW27139   1.948   2.557   3.951
 8747SOL    HW127140   1.992   2.471   3.925
 8747SOL    HW227141   1.849   2.542   3.960
 8748SOL     OW27142   2.122   0.297   6.823
 8748SOL    HW127143   2.053   0.269   6.889
 8748SOL    HW227144   2.078   0.325   6.738
 8749SOL     OW27145   4.161   0.939   3.342
 8749SOL    HW127146   4.144   1.000   3.420
 8749SOL    HW227147   4.247   0.890   3.357
 8750SOL     OW27148   2.564   1.112   5.041
 8750SOL    HW127149   2.618   1.036   5.005
 8750SOL    HW227150   2.516   1.083   5.124
 8751SOL     OW27151   2.047   0.177   2.856
 8751SOL    HW127152   2.129   0.163   2.913
 8751SOL    HW227153   2.063   0.254   2.794
 8752SOL     OW27154   1.522   2.307   6.042
 8752SOL    HW127155   1.502   2.402   6.018
 8752SOL    HW227156   1.576   2.305   6.126
 8753SOL     OW27157   5.140   1.181   5.141
 8753SOL    HW127158   5.170   1.203   5.048
 8753SOL    HW227159   5.077   1.251   5.173
 8754SOL     OW27160   1.331   1.205   5.740
 8754SOL    HW127161   1.392   1.126   5.746
 8754SOL    HW227162   1.255   1.184   5.677
 8755SOL     OW27163   2.124   1.863   1.172
 8755SOL    HW127164   2.026   1.864   1.192
 8755SOL    HW227165   2.145   1.937   1.108
 8756SOL     OW27166   2.249   3.024   4.370
 8756SOL    HW127167   2.281   2.980   4.286
 8756SOL    HW227168   2.245   2.955   4.443
 8757SOL     OW27169   5.116   5.897   4.920
 8757SOL    HW127170   5.144   5.802   4.926
 8757SOL    HW227171   5.074   5.924   5.007
 8758SOL     OW27172   5.884   6.219   2.040
 8758SOL    HW127173   5.906   6.182   1.949
 8758SOL    HW227174   5.812   6.288   2.031
 8759SOL     OW27175   5.066   0.857   5.942
 8759SOL    HW127176   5.119   0.925   5.993
 8759SOL    HW227177   4.980   0.897   5.911
 8760SOL     OW27178   1.985   2.597   3.615
 8760SOL    HW127179   2.078   2.614   3.582
 8760SOL    HW227180   1.943   2.684   3.641
 8761SOL     OW27181   4.683   6.702   0.760
 8761SOL    HW127182   4.725   6.783   0.718
 8761SOL    HW227183   4.722   6.619   0.721
 8762SOL     OW27184   0.779   4.081   1.074
 8762SOL    HW127185   0.805   4.124   1.160
 8762SOL    HW227186   0.717   4.141   1.024
 8763SOL     OW27187   0.217   6.335   5.871
 8763SOL    HW127188   0.211   6.286   5.958
 8763SOL    HW227189   0.305   6.381   5.864
 8764SOL     OW27190   3.787   1.985   4.759
 8764SOL    HW127191   3.835   1.949   4.680
 8764SOL    HW227192   3.690   1.961   4.754
 8765SOL     OW27193   6.930   0.553   4.521
 8765SOL    HW127194   0.005   0.553   4.479
 8765SOL    HW227195   6.913   0.642   4.564
 8766SOL     OW27196   2.293   4.326   2.458
 8766SOL    HW127197   2.285   4.239   2.409
 8766SOL    HW227198   2.209   4.378   2.448
 8767SOL     OW27199   5.041   1.675   4.385
 8767SOL    HW127200   5.025   1.694   4.482
 8767SOL    HW227201   4.962   1.704   4.332
 8768SOL     OW27202   1.574   3.368   6.785
 8768SOL    HW127203   1.652   3.357   6.724
 8768SOL    HW227204   1.606   3.398   6.875
 8769SOL     OW27205   2.030   0.280   5.274
 8769SOL    HW127206   2.025   0.351   5.203
 8769SOL    HW227207   2.115   0.229   5.263
 8770SOL     OW27208   5.537   2.089   2.293
 8770SOL    HW127209   5.527   2.188   2.288
 8770SOL    HW227210   5.552   2.062   2.388
 8771SOL     OW27211   1.351   2.387   6.376
 8771SOL    HW127212   1.285   2.365   6.448
 8771SOL    HW227213   1.378   2.304   6.329
 8772SOL     OW27214   5.483   0.153   7.005
 8772SOL    HW127215   5.385   0.171   7.002
 8772SOL    HW227216   5.516   0.127   6.914
 8773SOL     OW27217   2.851   2.298   3.122
 8773SOL    HW127218   2.864   2.397   3.118
 8773SOL    HW227219   2.754   2.278   3.136
 8774SOL     OW27220   1.039   0.879   6.974
 8774SOL    HW127221   0.998   0.937   6.904
 8774SOL    HW227222   1.133   0.909   6.991
 8775SOL     OW27223   6.370   0.026   4.237
 8775SOL    HW127224   6.467   0.001   4.239
 8775SOL    HW227225   6.361   0.124   4.223
 8776SOL     OW27226   3.462   3.202   4.672
 8776SOL    HW127227   3.473   3.118   4.725
 8776SOL    HW227228   3.395   3.261   4.717
 8777SOL     OW27229   6.411   5.502   1.687
 8777SOL    HW127230   6.476   5.525   1.614
 8777SOL    HW227231   6.332   5.563   1.683
 8778SOL     OW27232   0.720   2.432   3.010
 8778SOL    HW127233   0.817   2.417   2.988
 8778SOL    HW227234   0.713   2.472   3.102
 8779SOL     OW27235   1.756   4.102   0.428
 8779SOL    HW127236   1.668   4.125   0.471
 8779SOL    HW227237   1.740   4.063   0.337
 8780SOL     OW27238   1.578   5.858   4.167
 8780SOL    HW127239   1.676   5.862   4.186
 8780SOL    HW227240   1.536   5.785   4.222
 8781SOL     OW27241   0.627   2.103   2.020
 8781SOL    HW127242   0.626   2.175   2.089
 8781SOL    HW227243   0.544   2.047   2.030
 8782SOL     OW27244   4.403   1.556   2.480
 8782SOL    HW127245   4.339   1.630   2.498
 8782SOL    HW227246   4.391   1.484   2.548
 8783SOL     OW27247   5.359   3.533   5.164
 8783SOL    HW127248   5.402   3.454   5.120
 8783SOL    HW227249   5.268   3.547   5.124
 8784SOL     OW27250   5.437   4.070   5.432
 8784SOL    HW127251   5.342   4.078   5.404
 8784SOL    HW227252   5.441   4.033   5.526
 8785SOL     OW27253   5.749   4.673   0.131
 8785SOL    HW127254   5.765   4.628   0.219
 8785SOL    HW227255   5.699   4.611   0.070
 8786SOL     OW27256   1.554   6.056   0.523
 8786SOL    HW127257   1.631   6.082   0.582
 8786SOL    HW227258   1.521   6.137   0.474
 8787SOL     OW27259   1.137   2.964   0.260
 8787SOL    HW127260   1.068   2.980   0.190
 8787SOL    HW227261   1.092   2.950   0.348
 8788SOL     OW27262   1.009   2.043   5.586
 8788SOL    HW127263   1.063   1.991   5.520
 8788SOL    HW227264   1.060   2.124   5.616
 8789SOL     OW27265   0.060   0.141   6.628
 8789SOL    HW127266   0.057   0.239   6.611
 8789SOL    HW227267   0.080   0.125   6.725
 8790SOL     OW27268   5.637   1.932   6.876
 8790SOL    HW127269   5.591   1.856   6.830
 8790SOL    HW227270   5.690   1.897   6.954
 8791SOL     OW27271   4.965   6.567   5.382
 8791SOL    HW127272   4.874   6.597   5.410
 8791SOL    HW227273   5.019   6.646   5.353
 8792SOL     OW27274   4.622   6.942   2.512
 8792SOL    HW127275   4.584   0.019   2.503
 8792SOL    HW227276   4.707   6.946   2.565
 8793SOL     OW27277   0.988   5.418   4.522
 8793SOL    HW127278   1.037   5.498   4.557
 8793SOL    HW227279   0.943   5.371   4.598
 8794SOL     OW27280   2.950   6.830   2.666
 8794SOL    HW127281   2.915   6.891   2.738
 8794SOL    HW227282   2.992   6.750   2.708
 8795SOL     OW27283   1.801   6.333   5.410
 8795SOL    HW127284   1.805   6.306   5.314
 8795SOL    HW227285   1.712   6.308   5.448
 8796SOL     OW27286   5.285   2.723   4.816
 8796SOL    HW127287   5.365   2.748   4.871
 8796SOL    HW227288   5.224   2.802   4.809
 8797SOL     OW27289   0.318   6.387   0.126
 8797SOL    HW127290   0.347   6.475   0.087
 8797SOL    HW227291   0.231   6.399   0.174
 8798SOL     OW27292   4.632   3.739   5.890
 8798SOL    HW127293   4.602   3.678   5.816
 8798SOL    HW227294   4.719   3.782   5.865
 8799SOL     OW27295   3.752   6.078   2.936
 8799SOL    HW127296   3.677   6.067   2.871
 8799SOL    HW227297   3.715   6.114   3.023
 8800SOL     OW27298   4.319   5.059   6.791
 8800SOL    HW127299   4.290   5.112   6.871
 8800SOL    HW227300   4.238   5.020   6.747
 8801SOL     OW27301   2.996   0.105   4.918
 8801SOL    HW127302   2.998   0.115   4.819
 8801SOL    HW227303   2.919   0.156   4.956
 8802SOL     OW27304   2.860   0.257   2.180
 8802SOL    HW127305   2.928   0.277   2.110
 8802SOL    HW227306   2.768   0.264   2.141
 8803SOL     OW27307   3.534   6.030   0.435
 8803SOL    HW127308   3.561   6.118   0.474
 8803SOL    HW227309   3.503   5.969   0.508
 8804SOL     OW27310   4.272   0.406   0.768
 8804SOL    HW127311   4.337   0.407   0.693
 8804SOL    HW227312   4.186   0.449   0.739
 8805SOL     OW27313   0.173   0.245   2.888
 8805SOL    HW127314   0.162   0.291   2.977
 8805SOL    HW227315   0.227   0.304   2.827
 8806SOL     OW27316   2.212   5.055   6.720
 8806SOL    HW127317   2.122   5.014   6.703
 8806SOL    HW227318   2.262   5.060   6.633
 8807SOL     OW27319   1.518   6.121   6.314
 8807SOL    HW127320   1.565   6.208   6.298
 8807SOL    HW227321   1.484   6.085   6.227
 8808SOL     OW27322   6.348   1.462   0.825
 8808SOL    HW127323   6.270   1.501   0.874
 8808SOL    HW227324   6.330   1.366   0.803
 8809SOL     OW27325   6.201   3.854   1.060
 8809SOL    HW127326   6.241   3.786   1.122
 8809SOL    HW227327   6.257   3.858   0.976
 8810SOL     OW27328   5.226   1.234   3.649
 8810SOL    HW127329   5.207   1.209   3.744
 8810SOL    HW227330   5.157   1.298   3.616
 8811SOL     OW27331   1.195   1.499   4.020
 8811SOL    HW127332   1.206   1.514   3.922
 8811SOL    HW227333   1.109   1.450   4.036
 8812SOL     OW27334   1.487   0.550   0.845
 8812SOL    HW127335   1.587   0.558   0.842
 8812SOL    HW227336   1.451   0.611   0.915
 8813SOL     OW27337   1.567   4.881   1.484
 8813SOL    HW127338   1.649   4.926   1.449
 8813SOL    HW227339   1.490   4.899   1.423
 8814SOL     OW27340   5.201   0.367   6.995
 8814SOL    HW127341   5.249   0.423   6.927
 8814SOL    HW227342   5.230   0.394   0.071
 8815SOL     OW27343   0.174   6.185   3.068
 8815SOL    HW127344   0.201   6.092   3.045
 8815SOL    HW227345   0.126   6.185   3.156
 8816SOL     OW27346   1.000   5.829   1.571
 8816SOL    HW127347   0.933   5.755   1.571
 8816SOL    HW227348   1.092   5.790   1.560
 8817SOL     OW27349   2.903   5.025   5.368
 8817SOL    HW127350   2.820   5.053   5.416
 8817SOL    HW227351   2.908   4.925   5.366
 8818SOL     OW27352   6.893   5.370   4.277
 8818SOL    HW127353   6.934   5.449   4.232
 8818SOL    HW227354   6.966   5.311   4.313
 8819SOL     OW27355   5.448   0.152   4.569
 8819SOL    HW127356   5.540   0.124   4.595
 8819SOL    HW227357   5.452   0.229   4.505
 8820SOL     OW27358   1.733   3.005   3.919
 8820SOL    HW127359   1.773   3.096   3.908
 8820SOL    HW227360   1.803   2.935   3.900
 8821SOL     OW27361   1.854   0.830   6.308
 8821SOL    HW127362   1.890   0.753   6.361
 8821SOL    HW227363   1.919   0.905   6.309
 8822SOL     OW27364   0.114   2.367   3.665
 8822SOL    HW127365   0.094   2.270   3.677
 8822SOL    HW227366   0.197   2.390   3.717
 8823SOL     OW27367   2.609   5.820   2.102
 8823SOL    HW127368   2.678   5.775   2.158
 8823SOL    HW227369   2.524   5.768   2.104
 8824SOL     OW27370   4.138   3.561   0.902
 8824SOL    HW127371   4.144   3.654   0.939
 8824SOL    HW227372   4.042   3.538   0.886
 8825SOL     OW27373   1.362   1.932   1.507
 8825SOL    HW127374   1.277   1.961   1.551
 8825SOL    HW227375   1.340   1.885   1.421
 8826SOL     OW27376   5.677   1.081   6.897
 8826SOL    HW127377   5.657   1.002   6.954
 8826SOL    HW227378   5.704   1.049   6.805
 8827SOL     OW27379   1.403   1.005   3.709
 8827SOL    HW127380   1.328   1.017   3.775
 8827SOL    HW227381   1.411   0.908   3.685
 8828SOL     OW27382   1.991   6.419   2.577
 8828SOL    HW127383   2.027   6.496   2.629
 8828SOL    HW227384   2.044   6.408   2.493
 8829SOL     OW27385   0.435   1.846   0.127
 8829SOL    HW127386   0.511   1.906   0.151
 8829SOL    HW227387   0.466   1.751   0.125
 8830SOL     OW27388   0.513   2.374   0.534
 8830SOL    HW127389   0.432   2.431   0.544
 8830SOL    HW227390   0.567   2.378   0.619
 8831SOL     OW27391   6.931   0.916   2.682
 8831SOL    HW127392   6.840   0.942   2.714
 8831SOL    HW227393   6.982   0.998   2.656
 8832SOL     OW27394   0.479   0.894   2.378
 8832SOL    HW127395   0.562   0.920   2.428
 8832SOL    HW227396   0.399   0.931   2.425
 8833SOL     OW27397   1.800   4.736   3.476
 8833SOL    HW127398   1.876   4.787   3.516
 8833SOL    HW227399   1.819   4.716   3.380
 8834SOL     OW27400   5.708   4.200   4.873
 8834SOL    HW127401   5.739   4.108   4.897
 8834SOL    HW227402   5.622   4.193   4.821
 8835SOL     OW27403   0.284   6.707   6.650
 8835SOL    HW127404   0.257   6.783   6.709
 8835SOL    HW227405   0.361   6.658   6.691
 8836SOL     OW27406   4.835   2.145   0.914
 8836SOL    HW127407   4.824   2.075   0.984
 8836SOL    HW227408   4.879   2.105   0.834
 8837SOL     OW27409   1.146   1.696   2.493
 8837SOL    HW127410   1.143   1.656   2.402
 8837SOL    HW227411   1.086   1.776   2.497
 8838SOL     OW27412   2.255   5.720   3.490
 8838SOL    HW127413   2.317   5.793   3.519
 8838SOL    HW227414   2.309   5.637   3.474
 8839SOL     OW27415   6.586   6.674   4.085
 8839SOL    HW127416   6.601   6.603   4.017
 8839SOL    HW227417   6.674   6.713   4.112
 8840SOL     OW27418   5.550   1.810   2.176
 8840SOL    HW127419   5.567   1.907   2.197
 8840SOL    HW227420   5.455   1.787   2.199
 8841SOL     OW27421   2.096   0.545   4.741
 8841SOL    HW127422   2.190   0.529   4.771
 8841SOL    HW227423   2.086   0.640   4.711
 8842SOL     OW27424   2.154   2.988   2.493
 8842SOL    HW127425   2.159   2.939   2.406
 8842SOL    HW227426   2.061   3.018   2.510
 8843SOL     OW27427   0.285   3.263   4.452
 8843SOL    HW127428   0.338   3.298   4.375
 8843SOL    HW227429   0.336   3.190   4.498
 8844SOL     OW27430   5.997   1.574   6.522
 8844SOL    HW127431   5.989   1.616   6.612
 8844SOL    HW227432   5.925   1.505   6.511
 8845SOL     OW27433   5.863   3.959   0.312
 8845SOL    HW127434   5.906   3.869   0.305
 8845SOL    HW227435   5.922   4.020   0.364
 8846SOL     OW27436   2.234   4.977   2.824
 8846SOL    HW127437   2.174   4.922   2.766
 8846SOL    HW227438   2.324   4.986   2.780
 8847SOL     OW27439   2.696   0.889   2.556
 8847SOL    HW127440   2.654   0.891   2.466
 8847SOL    HW227441   2.732   0.980   2.579
 8848SOL     OW27442   1.515   0.110   2.890
 8848SOL    HW127443   1.468   0.108   2.978
 8848SOL    HW227444   1.614   0.102   2.904
 8849SOL     OW27445   2.727   6.642   1.423
 8849SOL    HW127446   2.775   6.615   1.340
 8849SOL    HW227447   2.724   6.742   1.428
 8850SOL     OW27448   2.920   2.481   7.010
 8850SOL    HW127449   2.834   2.482   0.046
 8850SOL    HW227450   2.901   2.475   6.912
 8851SOL     OW27451   1.407   3.408   2.393
 8851SOL    HW127452   1.460   3.364   2.465
 8851SOL    HW227453   1.356   3.339   2.342
 8852SOL     OW27454   0.990   2.217   5.984
 8852SOL    HW127455   1.026   2.213   5.891
 8852SOL    HW227456   0.923   2.143   5.997
 8853SOL     OW27457   5.617   1.441   1.405
 8853SOL    HW127458   5.519   1.439   1.384
 8853SOL    HW227459   5.645   1.535   1.427
 8854SOL     OW27460   0.852   2.015   4.850
 8854SOL    HW127461   0.912   2.039   4.773
 8854SOL    HW227462   0.866   1.920   4.875
 8855SOL     OW27463   5.189   5.344   1.105
 8855SOL    HW127464   5.096   5.344   1.066
 8855SOL    HW227465   5.241   5.268   1.066
 8856SOL     OW27466   6.535   0.662   5.595
 8856SOL    HW127467   6.454   0.604   5.600
 8856SOL    HW227468   6.537   0.725   5.672
 8857SOL     OW27469   6.144   2.130   6.332
 8857SOL    HW127470   6.221   2.139   6.269
 8857SOL    HW227471   6.101   2.220   6.345
 8858SOL     OW27472   6.462   6.285   4.795
 8858SOL    HW127473   6.372   6.304   4.756
 8858SOL    HW227474   6.486   6.357   4.859
 8859SOL     OW27475   0.602   6.396   3.759
 8859SOL    HW127476   0.669   6.330   3.724
 8859SOL    HW227477   0.634   6.489   3.742
 8860SOL     OW27478   0.209   4.042   2.924
 8860SOL    HW127479   0.186   3.948   2.949
 8860SOL    HW227480   0.177   4.061   2.831
 8861SOL     OW27481   4.034   2.846   0.922
 8861SOL    HW127482   4.002   2.931   0.880
 8861SOL    HW227483   4.092   2.867   1.000
 8862SOL     OW27484   4.719   4.692   4.934
 8862SOL    HW127485   4.634   4.660   4.892
 8862SOL    HW227486   4.795   4.675   4.872
 8863SOL     OW27487   2.121   3.946   3.200
 8863SOL    HW127488   2.152   3.852   3.189
 8863SOL    HW227489   2.157   3.982   3.286
 8864SOL     OW27490   6.238   1.905   5.001
 8864SOL    HW127491   6.159   1.849   5.025
 8864SOL    HW227492   6.320   1.869   5.045
 8865SOL     OW27493   2.929   1.399   0.838
 8865SOL    HW127494   2.850   1.457   0.854
 8865SOL    HW227495   2.899   1.312   0.798
 8866SOL     OW27496   5.835   6.613   2.280
 8866SOL    HW127497   5.784   6.527   2.279
 8866SOL    HW227498   5.821   6.659   2.368
 8867SOL     OW27499   6.613   3.430   2.622
 8867SOL    HW127500   6.683   3.478   2.676
 8867SOL    HW227501   6.534   3.489   2.610
 8868SOL     OW27502   6.872   3.162   3.507
 8868SOL    HW127503   6.790   3.211   3.477
 8868SOL    HW227504   6.855   3.063   3.504
 8869SOL     OW27505   4.145   6.656   3.246
 8869SOL    HW127506   4.201   6.635   3.325
 8869SOL    HW227507   4.201   6.702   3.176
 8870SOL     OW27508   1.693   0.629   2.708
 8870SOL    HW127509   1.678   0.560   2.778
 8870SOL    HW227510   1.731   0.711   2.750
 8871SOL     OW27511   6.673   6.977   2.481
 8871SOL    HW127512   6.687   6.998   2.384
 8871SOL    HW227513   6.630   6.887   2.490
 8872SOL     OW27514   6.750   3.812   3.591
 8872SOL    HW127515   6.748   3.806   3.691
 8872SOL    HW227516   6.719   3.903   3.563
 8873SOL     OW27517   2.447   2.039   2.900
 8873SOL    HW127518   2.387   2.049   2.821
 8873SOL    HW227519   2.471   1.942   2.910
 8874SOL     OW27520   2.863   6.405   0.730
 8874SOL    HW127521   2.823   6.339   0.793
 8874SOL    HW227522   2.950   6.438   0.768
 8875SOL     OW27523   6.604   3.142   4.399
 8875SOL    HW127524   6.655   3.190   4.471
 8875SOL    HW227525   6.520   3.193   4.379
 8876SOL     OW27526   4.511   0.138   6.589
 8876SOL    HW127527   4.413   0.127   6.576
 8876SOL    HW227528   4.528   0.208   6.658
 8877SOL     OW27529   0.905   4.696   1.176
 8877SOL    HW127530   0.961   4.733   1.101
 8877SOL    HW227531   0.818   4.745   1.180
 8878SOL     OW27532   4.817   4.352   1.147
 8878SOL    HW127533   4.896   4.291   1.146
 8878SOL    HW227534   4.789   4.371   1.053
 8879SOL     OW27535   6.706   4.379   3.023
 8879SOL    HW127536   6.649   4.403   2.945
 8879SOL    HW227537   6.775   4.313   2.995
 8880SOL     OW27538   4.135   1.543   3.193
 8880SOL    HW127539   4.138   1.470   3.262
 8880SOL    HW227540   4.130   1.503   3.102
 8881SOL     OW27541   3.908   4.876   4.018
 8881SOL    HW127542   3.954   4.913   3.938
 8881SOL    HW227543   3.947   4.917   4.101
 8882SOL     OW27544   4.209   0.914   0.320
 8882SOL    HW127545   4.111   0.915   0.301
 8882SOL    HW227546   4.223   0.909   0.419
 8883SOL     OW27547   0.112   6.555   4.482
 8883SOL    HW127548   0.097   6.578   4.386
 8883SOL    HW227549   0.193   6.497   4.491
 8884SOL     OW27550   4.907   3.436   5.680
 8884SOL    HW127551   4.899   3.479   5.770
 8884SOL    HW227552   4.821   3.392   5.656
 8885SOL     OW27553   5.720   6.074   1.027
 8885SOL    HW127554   5.803   6.025   1.002
 8885SOL    HW227555   5.644   6.009   1.036
 8886SOL     OW27556   3.791   6.069   6.525
 8886SOL    HW127557   3.708   6.087   6.472
 8886SOL    HW227558   3.860   6.139   6.505
 8887SOL     OW27559   4.841   0.206   1.629
 8887SOL    HW127560   4.853   0.189   1.727
 8887SOL    HW227561   4.803   0.298   1.615
 8888SOL     OW27562   3.306   2.129   2.631
 8888SOL    HW127563   3.228   2.089   2.679
 8888SOL    HW227564   3.391   2.096   2.672
 8889SOL     OW27565   1.409   5.386   6.381
 8889SOL    HW127566   1.451   5.319   6.442
 8889SOL    HW227567   1.317   5.356   6.357
 8890SOL     OW27568   0.686   6.385   0.451
 8890SOL    HW127569   0.658   6.406   0.357
 8890SOL    HW227570   0.716   6.470   0.496
 8891SOL     OW27571   6.374   4.163   5.646
 8891SOL    HW127572   6.398   4.198   5.736
 8891SOL    HW227573   6.275   4.168   5.634
 8892SOL     OW27574   2.629   5.287   4.474
 8892SOL    HW127575   2.697   5.255   4.407
 8892SOL    HW227576   2.619   5.219   4.546
 8893SOL     OW27577   1.143   5.175   5.091
 8893SOL    HW127578   1.222   5.214   5.139
 8893SOL    HW227579   1.136   5.217   5.000
 8894SOL     OW27580   4.563   1.914   1.047
 8894SOL    HW127581   4.481   1.910   1.104
 8894SOL    HW227582   4.549   1.979   0.972
 8895SOL     OW27583   6.650   3.550   0.585
 8895SOL    HW127584   6.750   3.548   0.593
 8895SOL    HW227585   6.610   3.577   0.672
 8896SOL     OW27586   0.733   2.222   3.932
 8896SOL    HW127587   0.667   2.203   4.005
 8896SOL    HW227588   0.707   2.171   3.850
 8897SOL     OW27589   1.800   4.964   3.896
 8897SOL    HW127590   1.850   5.005   3.973
 8897SOL    HW227591   1.864   4.911   3.840
 8898SOL     OW27592   4.846   4.112   2.467
 8898SOL    HW127593   4.812   4.041   2.529
 8898SOL    HW227594   4.945   4.117   2.473
 8899SOL     OW27595   1.647   3.875   3.386
 8899SOL    HW127596   1.557   3.900   3.349
 8899SOL    HW227597   1.640   3.866   3.485
 8900SOL     OW27598   4.888   2.200   4.215
 8900SOL    HW127599   4.975   2.161   4.245
 8900SOL    HW227600   4.905   2.278   4.155
 8901SOL     OW27601   1.434   4.554   4.289
 8901SOL    HW127602   1.431   4.637   4.233
 8901SOL    HW227603   1.345   4.538   4.330
 8902SOL     OW27604   0.586   4.477   0.582
 8902SOL    HW127605   0.532   4.399   0.611
 8902SOL    HW227606   0.678   4.446   0.558
 8903SOL     OW27607   1.084   0.206   5.132
 8903SOL    HW127608   1.056   0.287   5.183
 8903SOL    HW227609   1.010   0.180   5.069
 8904SOL     OW27610   0.332   0.994   3.568
 8904SOL    HW127611   0.324   1.093   3.576
 8904SOL    HW227612   0.253   0.951   3.613
 8905SOL     OW27613   1.123   3.686   2.839
 8905SOL    HW127614   1.201   3.746   2.850
 8905SOL    HW227615   1.138   3.601   2.889
 8906SOL     OW27616   5.818   0.056   0.070
 8906SOL    HW127617   5.884   6.998   0.087
 8906SOL    HW227618   5.828   0.127   0.139
 8907SOL     OW27619   3.001   3.621   5.083
 8907SOL    HW127620   3.092   3.586   5.102
 8907SOL    HW227621   2.945   3.548   5.042
 8908SOL     OW27622   1.645   4.420   6.934
 8908SOL    HW127623   1.693   4.353   6.991
 8908SOL    HW227624   1.709   4.492   6.907
 8909SOL     OW27625   1.333   6.369   1.413
 8909SOL    HW127626   1.275   6.445   1.441
 8909SOL    HW227627   1.348   6.308   1.491
 8910SOL     OW27628   1.961   0.335   3.679
 8910SOL    HW127629   1.987   0.402   3.749
 8910SOL    HW227630   2.044   0.298   3.637
 8911SOL     OW27631   4.192   2.258   4.749
 8911SOL    HW127632   4.190   2.307   4.836
 8911SOL    HW227633   4.126   2.183   4.752
 8912SOL     OW27634   3.844   3.702   4.006
 8912SOL    HW127635   3.818   3.739   3.917
 8912SOL    HW227636   3.764   3.663   4.051
 8913SOL     OW27637   5.116   6.405   7.000
 8913SOL    HW127638   5.048   6.347   6.955
 8913SOL    HW227639   5.163   6.353   0.056
 8914SOL     OW27640   5.110   4.991   6.371
 8914SOL    HW127641   5.150   4.928   6.305
 8914SOL    HW227642   5.017   5.015   6.343
 8915SOL     OW27643   1.435   0.702   3.090
 8915SOL    HW127644   1.412   0.625   3.149
 8915SOL    HW227645   1.384   0.783   3.119
 8916SOL     OW27646   4.998   1.050   0.991
 8916SOL    HW127647   5.090   1.035   0.955
 8916SOL    HW227648   4.991   1.142   1.027
 8917SOL     OW27649   5.920   2.101   0.206
 8917SOL    HW127650   5.970   2.188   0.208
 8917SOL    HW227651   5.856   2.097   0.282
 8918SOL     OW27652   0.693   3.638   2.843
 8918SOL    HW127653   0.604   3.598   2.820
 8918SOL    HW227654   0.764   3.570   2.825
 8919SOL     OW27655   6.330   3.391   1.671
 8919SOL    HW127656   6.328   3.384   1.771
 8919SOL    HW227657   6.302   3.305   1.631
 8920SOL     OW27658   6.403   0.988   6.929
 8920SOL    HW127659   6.373   0.949   0.001
 8920SOL    HW227660   6.369   0.932   6.853
 8921SOL     OW27661   2.124   3.414   2.423
 8921SOL    HW127662   2.206   3.469   2.408
 8921SOL    HW227663   2.126   3.376   2.516
 8922SOL     OW27664   4.199   5.598   4.116
 8922SOL    HW127665   4.211   5.522   4.052
 8922SOL    HW227666   4.222   5.568   4.208
 8923SOL     OW27667   2.267   1.375   4.450
 8923SOL    HW127668   2.331   1.330   4.512
 8923SOL    HW227669   2.183   1.320   4.443
 8924SOL     OW27670   6.556   5.168   5.483
 8924SOL    HW127671   6.536   5.082   5.530
 8924SOL    HW227672   6.586   5.236   5.550
 8925SOL     OW27673   1.084   6.400   2.524
 8925SOL    HW127674   1.073   6.332   2.452
 8925SOL    HW227675   1.152   6.467   2.496
 8926SOL     OW27676   5.663   1.226   6.313
 8926SOL    HW127677   5.601   1.148   6.307
 8926SOL    HW227678   5.621   1.306   6.269
 8927SOL     OW27679   1.520   1.009   5.829
 8927SOL    HW127680   1.561   0.937   5.772
 8927SOL    HW227681   1.474   0.966   5.907
 8928SOL     OW27682   0.592   6.527   5.257
 8928SOL    HW127683   0.581   6.582   5.174
 8928SOL    HW227684   0.543   6.440   5.246
 8929SOL     OW27685   0.456   1.749   3.808
 8929SOL    HW127686   0.476   1.703   3.722
 8929SOL    HW227687   0.457   1.683   3.883
 8930SOL     OW27688   2.092   4.914   3.233
 8930SOL    HW127689   2.134   5.004   3.219
 8930SOL    HW227690   2.102   4.888   3.329
 8931SOL     OW27691   4.460   2.924   0.455
 8931SOL    HW127692   4.528   2.852   0.466
 8931SOL    HW227693   4.503   3.005   0.415
 8932SOL     OW27694   0.883   3.560   3.785
 8932SOL    HW127695   0.791   3.525   3.799
 8932SOL    HW227696   0.887   3.607   3.697
 8933SOL     OW27697   3.798   2.067   5.045
 8933SOL    HW127698   3.781   2.021   4.957
 8933SOL    HW227699   3.892   2.101   5.047
 8934SOL     OW27700   2.616   5.608   2.993
 8934SOL    HW127701   2.528   5.655   3.004
 8934SOL    HW227702   2.631   5.586   2.897
 8935SOL     OW27703   0.173   4.375   0.844
 8935SOL    HW127704   0.217   4.464   0.855
 8935SOL    HW227705   0.234   4.303   0.876
 8936SOL     OW27706   3.394   2.854   0.704
 8936SOL    HW127707   3.368   2.831   0.798
 8936SOL    HW227708   3.494   2.849   0.696
 8937SOL     OW27709   0.563   6.437   6.348
 8937SOL    HW127710   0.474   6.459   6.309
 8937SOL    HW227711   0.569   6.338   6.364
 8938SOL     OW27712   5.097   6.254   1.713
 8938SOL    HW127713   4.999   6.236   1.708
 8938SOL    HW227714   5.141   6.226   1.628
 8939SOL     OW27715   4.314   1.958   4.602
 8939SOL    HW127716   4.376   2.003   4.666
 8939SOL    HW227717   4.236   2.017   4.584
 8940SOL     OW27718   5.845   0.760   2.421
 8940SOL    HW127719   5.829   0.675   2.471
 8940SOL    HW227720   5.763   0.818   2.427
 8941SOL     OW27721   5.019   1.812   5.918
 8941SOL    HW127722   5.037   1.805   5.820
 8941SOL    HW227723   5.062   1.735   5.965
 8942SOL     OW27724   0.993   3.333   5.099
 8942SOL    HW127725   0.977   3.291   5.188
 8942SOL    HW227726   0.991   3.432   5.108
 8943SOL     OW27727   5.347   3.749   0.868
 8943SOL    HW127728   5.433   3.707   0.840
 8943SOL    HW227729   5.357   3.788   0.960
 8944SOL     OW27730   4.129   5.454   0.709
 8944SOL    HW127731   4.194   5.516   0.754
 8944SOL    HW227732   4.116   5.373   0.765
 8945SOL     OW27733   2.273   1.044   4.358
 8945SOL    HW127734   2.289   0.987   4.277
 8945SOL    HW227735   2.175   1.054   4.373
 8946SOL     OW27736   3.853   1.501   4.265
 8946SOL    HW127737   3.784   1.455   4.321
 8946SOL    HW227738   3.869   1.449   4.181
 8947SOL     OW27739   3.901   3.987   5.062
 8947SOL    HW127740   3.966   4.022   5.129
 8947SOL    HW227741   3.951   3.945   4.986
 8948SOL     OW27742   6.495   5.070   2.655
 8948SOL    HW127743   6.537   5.021   2.578
 8948SOL    HW227744   6.518   5.167   2.648
 8949SOL     OW27745   2.224   5.751   0.178
 8949SOL    HW127746   2.159   5.795   0.239
 8949SOL    HW227747   2.275   5.820   0.126
 8950SOL     OW27748   4.555   2.554   4.513
 8950SOL    HW127749   4.479   2.619   4.515
 8950SOL    HW227750   4.520   2.461   4.529
 8951SOL     OW27751   2.733   2.499   5.816
 8951SOL    HW127752   2.772   2.408   5.823
 8951SOL    HW227753   2.706   2.531   5.908
 8952SOL     OW27754   6.804   0.725   3.099
 8952SOL    HW127755   6.876   0.722   3.030
 8952SOL    HW227756   6.838   0.690   3.186
 8953SOL     OW27757   1.812   4.095   6.822
 8953SOL    HW127758   1.850   4.002   6.818
 8953SOL    HW227759   1.788   4.116   6.917
 8954SOL     OW27760   1.691   5.790   5.788
 8954SOL    HW127761   1.782   5.772   5.750
 8954SOL    HW227762   1.633   5.832   5.718
 8955SOL     OW27763   5.985   3.533   3.263
 8955SOL    HW127764   6.019   3.515   3.356
 8955SOL    HW227765   5.889   3.508   3.258
 8956SOL     OW27766   1.117   0.859   5.762
 8956SOL    HW127767   1.160   0.914   5.690
 8956SOL    HW227768   1.156   0.767   5.761
 8957SOL     OW27769   2.730   5.052   1.963
 8957SOL    HW127770   2.756   5.069   2.058
 8957SOL    HW227771   2.755   5.130   1.906
 8958SOL     OW27772   2.524   0.368   4.167
 8958SOL    HW127773   2.624   0.377   4.160
 8958SOL    HW227774   2.489   0.319   4.087
 8959SOL     OW27775   2.488   4.614   1.516
 8959SOL    HW127776   2.528   4.573   1.598
 8959SOL    HW227777   2.560   4.657   1.461
 8960SOL     OW27778   3.897   6.097   1.387
 8960SOL    HW127779   3.989   6.061   1.371
 8960SOL    HW227780   3.829   6.030   1.356
 8961SOL     OW27781   1.497   2.373   3.830
 8961SOL    HW127782   1.423   2.308   3.850
 8961SOL    HW227783   1.564   2.329   3.771
 8962SOL     OW27784   4.979   6.923   3.899
 8962SOL    HW127785   4.992   0.003   3.927
 8962SOL    HW227786   5.053   6.867   3.937
 8963SOL     OW27787   6.963   0.656   3.709
 8963SOL    HW127788   6.976   0.686   3.804
 8963SOL    HW227789   6.992   0.560   3.701
 8964SOL     OW27790   6.184   4.812   3.011
 8964SOL    HW127791   6.260   4.841   2.953
 8964SOL    HW227792   6.131   4.892   3.039
 8965SOL     OW27793   1.301   5.509   1.180
 8965SOL    HW127794   1.235   5.548   1.244
 8965SOL    HW227795   1.253   5.448   1.117
 8966SOL     OW27796   2.871   2.987   5.343
 8966SOL    HW127797   2.899   3.068   5.395
 8966SOL    HW227798   2.948   2.957   5.286
 8967SOL     OW27799   4.430   0.399   0.543
 8967SOL    HW127800   4.524   0.433   0.550
 8967SOL    HW227801   4.431   0.306   0.505
 8968SOL     OW27802   5.471   5.506   2.679
 8968SOL    HW127803   5.456   5.551   2.767
 8968SOL    HW227804   5.463   5.407   2.690
 8969SOL     OW27805   6.096   1.183   4.218
 8969SOL    HW127806   6.047   1.140   4.142
 8969SOL    HW227807   6.076   1.281   4.220
 8970SOL     OW27808   3.838   2.285   1.417
 8970SOL    HW127809   3.832   2.367   1.361
 8970SOL    HW227810   3.846   2.311   1.513
 8971SOL     OW27811   4.163   5.680   2.735
 8971SOL    HW127812   4.186   5.657   2.829
 8971SOL    HW227813   4.191   5.606   2.674
 8972SOL     OW27814   5.534   0.692   4.524
 8972SOL    HW127815   5.596   0.763   4.557
 8972SOL    HW227816   5.446   0.698   4.572
 8973SOL     OW27817   1.367   5.009   0.099
 8973SOL    HW127818   1.422   4.926   0.102
 8973SOL    HW227819   1.342   5.037   0.191
 8974SOL     OW27820   0.291   2.856   4.168
 8974SOL    HW127821   0.245   2.807   4.242
 8974SOL    HW227822   0.383   2.882   4.198
 8975SOL     OW27823   2.341   6.863   0.573
 8975SOL    HW127824   2.241   6.861   0.569
 8975SOL    HW227825   2.373   6.791   0.635
 8976SOL     OW27826   0.286   5.349   4.518
 8976SOL    HW127827   0.381   5.345   4.549
 8976SOL    HW227828   0.269   5.438   4.475
 8977SOL     OW27829   5.977   1.396   6.071
 8977SOL    HW127830   6.033   1.313   6.067
 8977SOL    HW227831   5.882   1.372   6.050
 8978SOL     OW27832   5.518   6.206   0.732
 8978SOL    HW127833   5.601   6.221   0.785
 8978SOL    HW227834   5.468   6.292   0.723
 8979SOL     OW27835   1.625   5.128   4.525
 8979SOL    HW127836   1.720   5.096   4.531
 8979SOL    HW227837   1.612   5.203   4.589
 8980SOL     OW27838   3.989   3.061   4.098
 8980SOL    HW127839   4.012   2.970   4.131
 8980SOL    HW227840   3.890   3.068   4.087
 8981SOL     OW27841   3.424   1.544   5.205
 8981SOL    HW127842   3.468   1.486   5.273
 8981SOL    HW227843   3.327   1.552   5.225
 8982SOL     OW27844   3.458   4.592   0.703
 8982SOL    HW127845   3.433   4.664   0.768
 8982SOL    HW227846   3.378   4.566   0.649
 8983SOL     OW27847   4.845   5.126   0.419
 8983SOL    HW127848   4.819   5.165   0.330
 8983SOL    HW227849   4.938   5.156   0.442
 8984SOL     OW27850   1.902   5.676   3.100
 8984SOL    HW127851   1.846   5.658   3.180
 8984SOL    HW227852   1.857   5.743   3.042
 8985SOL     OW27853   3.592   3.195   6.085
 8985SOL    HW127854   3.658   3.253   6.134
 8985SOL    HW227855   3.523   3.161   6.149
 8986SOL     OW27856   3.538   6.116   2.757
 8986SOL    HW127857   3.606   6.099   2.686
 8986SOL    HW227858   3.509   6.212   2.754
 8987SOL     OW27859   5.458   6.469   1.809
 8987SOL    HW127860   5.433   6.398   1.875
 8987SOL    HW227861   5.382   6.483   1.745
 8988SOL     OW27862   0.454   5.501   5.034
 8988SOL    HW127863   0.358   5.500   5.007
 8988SOL    HW227864   0.498   5.417   5.002
 8989SOL     OW27865   3.549   3.032   6.831
 8989SOL    HW127866   3.596   3.081   6.904
 8989SOL    HW227867   3.521   3.096   6.759
 8990SOL     OW27868   0.180   6.010   4.096
 8990SOL    HW127869   0.145   6.032   4.004
 8990SOL    HW227870   0.134   6.068   4.163
 8991SOL     OW27871   0.906   2.131   5.296
 8991SOL    HW127872   0.825   2.183   5.325
 8991SOL    HW227873   0.987   2.169   5.341
 8992SOL     OW27874   6.111   2.458   6.660
 8992SOL    HW127875   6.131   2.549   6.697
 8992SOL    HW227876   6.085   2.397   6.734
 8993SOL     OW27877   4.791   2.219   6.957
 8993SOL    HW127878   4.875   2.166   6.968
 8993SOL    HW227879   4.737   2.180   6.882
 8994SOL     OW27880   2.147   5.709   3.938
 8994SOL    HW127881   2.213   5.778   3.909
 8994SOL    HW227882   2.153   5.630   3.877
 8995SOL     OW27883   6.912   1.613   0.608
 8995SOL    HW127884   6.950   1.631   0.517
 8995SOL    HW227885   6.984   1.622   0.677
 8996SOL     OW27886   4.484   4.968   6.083
 8996SOL    HW127887   4.493   4.942   5.987
 8996SOL    HW227888   4.441   5.058   6.089
 8997SOL     OW27889   6.172   0.603   5.029
 8997SOL    HW127890   6.149   0.652   4.945
 8997SOL    HW227891   6.251   0.544   5.013
 8998SOL     OW27892   6.017   3.140   4.431
 8998SOL    HW127893   6.033   3.213   4.365
 8998SOL    HW227894   5.940   3.164   4.489
 8999SOL     OW27895   3.848   0.248   6.201
 8999SOL    HW127896   3.908   0.169   6.214
 8999SOL    HW227897   3.870   0.292   6.114
 9000SOL     OW27898   1.473   3.953   1.329
 9000SOL    HW127899   1.484   3.939   1.427
 9000SOL    HW227900   1.484   4.050   1.308
 9001SOL     OW27901   1.195   5.214   2.679
 9001SOL    HW127902   1.133   5.287   2.706
 9001SOL    HW227903   1.237   5.237   2.591
 9002SOL     OW27904   0.971   4.496   0.055
 9002SOL    HW127905   0.990   4.444   0.138
 9002SOL    HW227906   0.875   4.524   0.054
 9003SOL     OW27907   5.538   0.443   1.257
 9003SOL    HW127908   5.624   0.473   1.215
 9003SOL    HW227909   5.462   0.489   1.211
 9004SOL     OW27910   4.100   4.629   0.474
 9004SOL    HW127911   4.042   4.686   0.415
 9004SOL    HW227912   4.069   4.635   0.568
 9005SOL     OW27913   4.961   1.317   4.816
 9005SOL    HW127914   5.052   1.282   4.840
 9005SOL    HW227915   4.970   1.403   4.766
 9006SOL     OW27916   3.389   5.927   0.626
 9006SOL    HW127917   3.387   5.962   0.719
 9006SOL    HW227918   3.371   5.829   0.626
 9007SOL     OW27919   2.928   0.892   2.724
 9007SOL    HW127920   2.962   0.974   2.677
 9007SOL    HW227921   2.832   0.878   2.701
 9008SOL     OW27922   0.186   5.633   2.781
 9008SOL    HW127923   0.148   5.710   2.832
 9008SOL    HW227924   0.276   5.657   2.746
 9009SOL     OW27925   3.798   5.675   1.073
 9009SOL    HW127926   3.892   5.695   1.047
 9009SOL    HW227927   3.745   5.649   0.992
 9010SOL     OW27928   1.812   6.133   4.261
 9010SOL    HW127929   1.758   6.217   4.272
 9010SOL    HW227930   1.770   6.059   4.312
 9011SOL     OW27931   2.924   1.775   2.122
 9011SOL    HW127932   2.887   1.848   2.180
 9011SOL    HW227933   3.019   1.797   2.098
 9012SOL     OW27934   1.785   6.364   6.406
 9012SOL    HW127935   1.724   6.441   6.425
 9012SOL    HW227936   1.819   6.370   6.312
 9013SOL     OW27937   2.091   6.554   4.042
 9013SOL    HW127938   2.097   6.566   3.942
 9013SOL    HW227939   2.126   6.464   4.066
 9014SOL     OW27940   5.501   2.856   3.259
 9014SOL    HW127941   5.494   2.756   3.262
 9014SOL    HW227942   5.490   2.892   3.352
 9015SOL     OW27943   5.244   1.608   6.980
 9015SOL    HW127944   5.290   1.633   6.894
 9015SOL    HW227945   5.213   1.692   0.010
 9016SOL     OW27946   5.810   5.888   6.667
 9016SOL    HW127947   5.885   5.939   6.625
 9016SOL    HW227948   5.732   5.885   6.604
 9017SOL     OW27949   4.009   0.523   4.329
 9017SOL    HW127950   3.963   0.611   4.341
 9017SOL    HW227951   4.011   0.475   4.417
 9018SOL     OW27952   4.214   4.016   6.355
 9018SOL    HW127953   4.291   4.010   6.291
 9018SOL    HW227954   4.136   4.059   6.310
 9019SOL     OW27955   0.629   3.740   3.813
 9019SOL    HW127956   0.611   3.642   3.816
 9019SOL    HW227957   0.634   3.775   3.907
 9020SOL     OW27958   5.705   6.366   2.241
 9020SOL    HW127959   5.695   6.307   2.161
 9020SOL    HW227960   5.640   6.338   2.311
 9021SOL     OW27961   0.440   0.665   4.335
 9021SOL    HW127962   0.415   0.673   4.238
 9021SOL    HW227963   0.471   0.754   4.368
 9022SOL     OW27964   4.082   2.850   6.356
 9022SOL    HW127965   4.177   2.864   6.330
 9022SOL    HW227966   4.073   2.762   6.402
 9023SOL     OW27967   5.571   4.117   0.706
 9023SOL    HW127968   5.667   4.092   0.699
 9023SOL    HW227969   5.537   4.147   0.617
 9024SOL     OW27970   1.458   5.390   6.112
 9024SOL    HW127971   1.490   5.398   6.207
 9024SOL    HW227972   1.510   5.452   6.054
 9025SOL     OW27973   1.048   5.541   1.331
 9025SOL    HW127974   1.094   5.618   1.374
 9025SOL    HW227975   1.038   5.466   1.397
 9026SOL     OW27976   4.522   1.568   0.219
 9026SOL    HW127977   4.611   1.601   0.251
 9026SOL    HW227978   4.533   1.478   0.178
 9027SOL     OW27979   0.697   4.117   3.224
 9027SOL    HW127980   0.695   4.063   3.308
 9027SOL    HW227981   0.655   4.065   3.149
 9028SOL     OW27982   3.314   4.282   5.604
 9028SOL    HW127983   3.285   4.350   5.537
 9028SOL    HW227984   3.320   4.192   5.560
 9029SOL     OW27985   4.062   6.565   4.799
 9029SOL    HW127986   4.092   6.645   4.851
 9029SOL    HW227987   3.964   6.551   4.814
 9030SOL     OW27988   2.505   1.760   2.643
 9030SOL    HW127989   2.528   1.823   2.569
 9030SOL    HW227990   2.420   1.712   2.621
 9031SOL     OW27991   4.370   6.894   4.792
 9031SOL    HW127992   4.393   6.825   4.724
 9031SOL    HW227993   4.413   6.872   4.879
 9032SOL     OW27994   4.807   3.974   1.720
 9032SOL    HW127995   4.774   3.891   1.766
 9032SOL    HW227996   4.826   4.044   1.789
 9033SOL     OW27997   0.753   6.394   3.158
 9033SOL    HW127998   0.832   6.362   3.106
 9033SOL    HW227999   0.767   6.373   3.255
 9034SOL     OW28000   4.108   6.088   3.949
 9034SOL    HW128001   4.059   6.001   3.937
 9034SOL    HW228002   4.191   6.072   4.003
 9035SOL     OW28003   1.663   4.768   6.642
 9035SOL    HW128004   1.615   4.817   6.715
 9035SOL    HW228005   1.623   4.677   6.631
 9036SOL     OW28006   1.509   4.075   5.507
 9036SOL    HW128007   1.569   4.038   5.435
 9036SOL    HW228008   1.428   4.018   5.516
 9037SOL     OW28009   1.243   1.911   2.684
 9037SOL    HW128010   1.192   1.900   2.769
 9037SOL    HW228011   1.180   1.922   2.608
 9038SOL     OW28012   4.214   3.713   5.105
 9038SOL    HW128013   4.204   3.711   5.006
 9038SOL    HW228014   4.149   3.649   5.147
 9039SOL     OW28015   4.163   5.823   6.476
 9039SOL    HW128016   4.245   5.875   6.500
 9039SOL    HW228017   4.134   5.767   6.554
 9040SOL     OW28018   2.447   1.619   1.020
 9040SOL    HW128019   2.393   1.614   1.104
 9040SOL    HW228020   2.505   1.700   1.023
 9041SOL     OW28021   6.789   2.327   1.591
 9041SOL    HW128022   6.782   2.374   1.504
 9041SOL    HW228023   6.884   2.302   1.609
 9042SOL     OW28024   3.564   5.782   0.046
 9042SOL    HW128025   3.516   5.860   0.006
 9042SOL    HW228026   3.647   5.763   7.008
 9043SOL     OW28027   3.089   1.865   0.156
 9043SOL    HW128028   3.037   1.780   0.145
 9043SOL    HW228029   3.137   1.863   0.244
 9044SOL     OW28030   1.021   1.000   0.324
 9044SOL    HW128031   1.071   0.949   0.254
 9044SOL    HW228032   1.058   1.093   0.331
 9045SOL     OW28033   3.997   1.426   3.638
 9045SOL    HW128034   3.953   1.338   3.624
 9045SOL    HW228035   3.933   1.500   3.615
 9046SOL     OW28036   3.281   3.950   2.696
 9046SOL    HW128037   3.202   3.929   2.753
 9046SOL    HW228038   3.353   3.883   2.713
 9047SOL     OW28039   1.418   3.547   5.763
 9047SOL    HW128040   1.464   3.567   5.850
 9047SOL    HW228041   1.487   3.539   5.691
 9048SOL     OW28042   6.410   2.040   6.243
 9048SOL    HW128043   6.402   1.941   6.234
 9048SOL    HW228044   6.487   2.072   6.188
 9049SOL     OW28045   3.118   0.093   6.495
 9049SOL    HW128046   3.033   0.118   6.449
 9049SOL    HW228047   3.117   0.127   6.589
 9050SOL     OW28048   0.511   5.168   0.412
 9050SOL    HW128049   0.526   5.133   0.505
 9050SOL    HW228050   0.554   5.107   0.346
 9051SOL     OW28051   2.467   1.119   1.181
 9051SOL    HW128052   2.418   1.152   1.262
 9051SOL    HW228053   2.417   1.043   1.140
 9052SOL     OW28054   1.493   2.213   5.472
 9052SOL    HW128055   1.539   2.281   5.529
 9052SOL    HW228056   1.539   2.125   5.481
 9053SOL     OW28057   1.859   0.882   0.162
 9053SOL    HW128058   1.798   0.825   0.216
 9053SOL    HW228059   1.843   0.865   0.064
 9054SOL     OW28060   2.378   5.707   2.975
 9054SOL    HW128061   2.342   5.727   3.067
 9054SOL    HW228062   2.358   5.784   2.914
 9055SOL     OW28063   0.201   3.965   4.511
 9055SOL    HW128064   0.169   4.046   4.460
 9055SOL    HW228065   0.191   3.884   4.453
 9056SOL     OW28066   6.022   2.540   2.836
 9056SOL    HW128067   6.005   2.537   2.738
 9056SOL    HW228068   5.991   2.627   2.873
 9057SOL     OW28069   3.786   1.982   4.116
 9057SOL    HW128070   3.734   1.973   4.032
 9057SOL    HW228071   3.759   1.910   4.180
 9058SOL     OW28072   2.276   0.923   5.462
 9058SOL    HW128073   2.180   0.913   5.486
 9058SOL    HW228074   2.328   0.948   5.544
 9059SOL     OW28075   1.050   1.908   2.884
 9059SOL    HW128076   1.115   1.898   2.959
 9059SOL    HW228077   0.979   1.974   2.910
 9060SOL     OW28078   5.496   2.755   5.368
 9060SOL    HW128079   5.481   2.690   5.442
 9060SOL    HW228080   5.409   2.787   5.333
 9061SOL     OW28081   3.418   6.044   3.087
 9061SOL    HW128082   3.452   5.958   3.125
 9061SOL    HW228083   3.477   6.119   3.117
 9062SOL     OW28084   1.662   5.198   1.207
 9062SOL    HW128085   1.671   5.278   1.267
 9062SOL    HW228086   1.584   5.211   1.145
 9063SOL     OW28087   3.062   1.279   2.318
 9063SOL    HW128088   3.059   1.367   2.270
 9063SOL    HW228089   2.973   1.234   2.311
 9064SOL     OW28090   5.470   3.503   0.339
 9064SOL    HW128091   5.548   3.444   0.359
 9064SOL    HW228092   5.451   3.560   0.419
 9065SOL     OW28093   2.421   1.305   0.208
 9065SOL    HW128094   2.454   1.211   0.210
 9065SOL    HW228095   2.413   1.341   0.301
 9066SOL     OW28096   5.125   6.674   0.387
 9066SOL    HW128097   5.118   6.708   0.293
 9066SOL    HW228098   5.160   6.747   0.446
 9067SOL     OW28099   1.264   6.446   2.832
 9067SOL    HW128100   1.192   6.510   2.806
 9067SOL    HW228101   1.267   6.438   2.931
 9068SOL     OW28102   1.781   6.060   6.852
 9068SOL    HW128103   1.744   6.059   6.760
 9068SOL    HW228104   1.779   6.153   6.889
 9069SOL     OW28105   1.491   2.586   6.534
 9069SOL    HW128106   1.437   2.558   6.455
 9069SOL    HW228107   1.569   2.641   6.503
 9070SOL     OW28108   1.240   4.135   3.174
 9070SOL    HW128109   1.170   4.152   3.244
 9070SOL    HW228110   1.326   4.177   3.201
 9071SOL     OW28111   4.958   6.265   0.311
 9071SOL    HW128112   5.024   6.319   0.364
 9071SOL    HW228113   4.936   6.181   0.361
 9072SOL     OW28114   5.204   5.356   6.704
 9072SOL    HW128115   5.173   5.450   6.688
 9072SOL    HW228116   5.153   5.294   6.645
 9073SOL     OW28117   1.840   0.418   1.696
 9073SOL    HW128118   1.784   0.453   1.621
 9073SOL    HW228119   1.780   0.388   1.771
 9074SOL     OW28120   1.243   0.122   3.349
 9074SOL    HW128121   1.208   0.195   3.409
 9074SOL    HW228122   1.256   0.039   3.402
 9075SOL     OW28123   1.086   0.873   2.614
 9075SOL    HW128124   1.174   0.826   2.607
 9075SOL    HW228125   1.013   0.810   2.587
 9076SOL     OW28126   6.600   1.696   5.311
 9076SOL    HW128127   6.691   1.735   5.321
 9076SOL    HW228128   6.543   1.725   5.388
 9077SOL     OW28129   5.668   6.373   1.967
 9077SOL    HW128130   5.569   6.356   1.975
 9077SOL    HW228131   5.690   6.398   1.873
 9078SOL     OW28132   3.419   2.945   4.785
 9078SOL    HW128133   3.418   2.863   4.843
 9078SOL    HW228134   3.500   2.943   4.727
 9079SOL     OW28135   3.453   0.938   5.995
 9079SOL    HW128136   3.551   0.957   5.993
 9079SOL    HW228137   3.420   0.921   5.902
 9080SOL     OW28138   5.195   1.370   0.744
 9080SOL    HW128139   5.120   1.417   0.698
 9080SOL    HW228140   5.269   1.435   0.762
 9081SOL     OW28141   5.529   6.843   2.410
 9081SOL    HW128142   5.508   6.747   2.390
 9081SOL    HW228143   5.540   6.892   2.324
 9082SOL     OW28144   3.306   0.857   3.174
 9082SOL    HW128145   3.315   0.941   3.228
 9082SOL    HW228146   3.386   0.799   3.189
 9083SOL     OW28147   4.386   4.953   4.518
 9083SOL    HW128148   4.324   4.875   4.521
 9083SOL    HW228149   4.481   4.920   4.514
 9084SOL     OW28150   3.674   3.180   2.761
 9084SOL    HW128151   3.721   3.102   2.721
 9084SOL    HW228152   3.607   3.215   2.695
 9085SOL     OW28153   1.245   2.300   0.990
 9085SOL    HW128154   1.302   2.326   0.912
 9085SOL    HW228155   1.156   2.344   0.983
 9086SOL     OW28156   0.380   3.791   0.287
 9086SOL    HW128157   0.448   3.861   0.266
 9086SOL    HW228158   0.289   3.824   0.263
 9087SOL     OW28159   4.979   3.842   1.991
 9087SOL    HW128160   4.941   3.935   1.990
 9087SOL    HW228161   4.908   3.778   2.019
 9088SOL     OW28162   5.058   6.726   1.073
 9088SOL    HW128163   5.036   6.709   1.169
 9088SOL    HW228164   4.974   6.748   1.023
 9089SOL     OW28165   4.151   0.104   5.906
 9089SOL    HW128166   4.214   0.153   5.846
 9089SOL    HW228167   4.067   0.083   5.855
 9090SOL     OW28168   5.526   1.351   3.171
 9090SOL    HW128169   5.618   1.360   3.210
 9090SOL    HW228170   5.458   1.348   3.244
 9091SOL     OW28171   2.898   2.671   6.537
 9091SOL    HW128172   2.868   2.626   6.453
 9091SOL    HW228173   2.820   2.715   6.582
 9092SOL     OW28174   6.836   3.012   6.278
 9092SOL    HW128175   6.910   2.947   6.260
 9092SOL    HW228176   6.813   3.059   6.193
 9093SOL     OW28177   1.914   6.031   5.356
 9093SOL    HW128178   1.961   6.010   5.271
 9093SOL    HW228179   1.980   6.036   5.431
 9094SOL     OW28180   0.918   3.677   1.434
 9094SOL    HW128181   0.898   3.774   1.423
 9094SOL    HW228182   0.946   3.659   1.528
 9095SOL     OW28183   6.673   6.680   5.662
 9095SOL    HW128184   6.586   6.637   5.684
 9095SOL    HW228185   6.665   6.730   5.576
 9096SOL     OW28186   6.727   5.142   3.877
 9096SOL    HW128187   6.801   5.116   3.939
 9096SOL    HW228188   6.676   5.061   3.851
 9097SOL     OW28189   1.135   2.205   6.211
 9097SOL    HW128190   1.085   2.250   6.284
 9097SOL    HW228191   1.079   2.205   6.128
 9098SOL     OW28192   2.023   4.449   3.790
 9098SOL    HW128193   1.989   4.357   3.773
 9098SOL    HW228194   2.109   4.463   3.740
 9099SOL     OW28195   2.261   2.124   0.031
 9099SOL    HW128196   2.221   2.052   6.989
 9099SOL    HW228197   2.272   2.208   6.993
 9100SOL     OW28198   1.235   4.420   3.372
 9100SOL    HW128199   1.286   4.346   3.415
 9100SOL    HW228200   1.278   4.508   3.396
 9101SOL     OW28201   0.564   2.793   0.444
 9101SOL    HW128202   0.638   2.860   0.449
 9101SOL    HW228203   0.512   2.794   0.529
 9102SOL     OW28204   4.067   6.635   2.725
 9102SOL    HW128205   4.158   6.635   2.767
 9102SOL    HW228206   4.075   6.636   2.626
 9103SOL     OW28207   6.326   0.770   1.212
 9103SOL    HW128208   6.399   0.803   1.151
 9103SOL    HW228209   6.353   0.786   1.307
 9104SOL     OW28210   5.865   1.780   6.328
 9104SOL    HW128211   5.903   1.852   6.270
 9104SOL    HW228212   5.939   1.733   6.375
 9105SOL     OW28213   2.052   1.256   5.540
 9105SOL    HW128214   2.151   1.263   5.532
 9105SOL    HW228215   2.025   1.270   5.635
 9106SOL     OW28216   1.380   3.595   6.832
 9106SOL    HW128217   1.294   3.590   6.781
 9106SOL    HW228218   1.404   3.505   6.867
 9107SOL     OW28219   3.113   1.882   0.448
 9107SOL    HW128220   3.153   1.822   0.517
 9107SOL    HW228221   3.159   1.971   0.450
 9108SOL     OW28222   6.321   5.645   6.122
 9108SOL    HW128223   6.395   5.662   6.188
 9108SOL    HW228224   6.318   5.719   6.056
 9109SOL     OW28225   5.628   3.790   2.588
 9109SOL    HW128226   5.720   3.829   2.595
 9109SOL    HW228227   5.569   3.830   2.658
 9110SOL     OW28228   1.868   6.067   3.339
 9110SOL    HW128229   1.921   6.016   3.407
 9110SOL    HW228230   1.909   6.157   3.326
 9111SOL     OW28231   4.295   2.226   6.386
 9111SOL    HW128232   4.323   2.130   6.391
 9111SOL    HW228233   4.366   2.284   6.426
 9112SOL     OW28234   1.098   5.214   1.383
 9112SOL    HW128235   1.059   5.252   1.466
 9112SOL    HW228236   1.120   5.117   1.398
 9113SOL     OW28237   5.617   0.929   4.250
 9113SOL    HW128238   5.624   1.016   4.299
 9113SOL    HW228239   5.709   0.891   4.238
 9114SOL     OW28240   1.297   6.371   6.165
 9114SOL    HW128241   1.205   6.336   6.183
 9114SOL    HW228242   1.308   6.390   6.067
 9115SOL     OW28243   4.675   4.271   4.697
 9115SOL    HW128244   4.633   4.220   4.623
 9115SOL    HW228245   4.608   4.334   4.738
 9116SOL     OW28246   1.972   0.517   3.239
 9116SOL    HW128247   1.915   0.493   3.318
 9116SOL    HW228248   1.955   0.451   3.166
 9117SOL     OW28249   2.382   6.208   0.141
 9117SOL    HW128250   2.383   6.280   0.071
 9117SOL    HW228251   2.469   6.209   0.191
 9118SOL     OW28252   6.488   4.025   2.373
 9118SOL    HW128253   6.478   4.013   2.472
 9118SOL    HW228254   6.582   4.006   2.347
 9119SOL     OW28255   3.151   0.426   0.301
 9119SOL    HW128256   3.167   0.343   0.355
 9119SOL    HW228257   3.131   0.502   0.363
 9120SOL     OW28258   6.406   3.927   4.871
 9120SOL    HW128259   6.375   3.894   4.782
 9120SOL    HW228260   6.327   3.960   4.923
 9121SOL     OW28261   4.040   0.365   4.568
 9121SOL    HW128262   4.016   0.362   4.665
 9121SOL    HW228263   4.104   0.291   4.547
 9122SOL     OW28264   1.152   3.358   1.444
 9122SOL    HW128265   1.171   3.445   1.490
 9122SOL    HW228266   1.219   3.290   1.473
 9123SOL     OW28267   6.841   6.750   4.160
 9123SOL    HW128268   6.828   6.763   4.258
 9123SOL    HW228269   6.922   6.694   4.144
 9124SOL     OW28270   2.914   5.169   0.265
 9124SOL    HW128271   2.969   5.233   0.318
 9124SOL    HW228272   2.826   5.155   0.309
 9125SOL     OW28273   5.846   6.438   1.709
 9125SOL    HW128274   5.832   6.340   1.698
 9125SOL    HW228275   5.801   6.487   1.634
 9126SOL     OW28276   4.358   4.778   0.701
 9126SOL    HW128277   4.434   4.793   0.765
 9126SOL    HW228278   4.393   4.779   0.608
 9127SOL     OW28279   6.656   4.854   5.276
 9127SOL    HW128280   6.600   4.920   5.226
 9127SOL    HW228281   6.597   4.796   5.332
 9128SOL     OW28282   5.873   4.208   5.815
 9128SOL    HW128283   5.789   4.237   5.861
 9128SOL    HW228284   5.874   4.109   5.806
 9129SOL     OW28285   0.965   2.617   0.690
 9129SOL    HW128286   0.996   2.530   0.731
 9129SOL    HW228287   1.045   2.675   0.673
 9130SOL     OW28288   2.890   3.365   4.987
 9130SOL    HW128289   2.803   3.362   4.937
 9130SOL    HW228290   2.957   3.309   4.940
 9131SOL     OW28291   5.138   2.795   0.489
 9131SOL    HW128292   5.078   2.716   0.506
 9131SOL    HW228293   5.125   2.863   0.561
 9132SOL     OW28294   0.836   3.940   3.854
 9132SOL    HW128295   0.823   4.023   3.801
 9132SOL    HW228296   0.776   3.868   3.819
 9133SOL     OW28297   5.715   0.132   1.175
 9133SOL    HW128298   5.793   0.183   1.210
 9133SOL    HW228299   5.631   0.162   1.219
 9134SOL     OW28300   4.975   4.947   0.774
 9134SOL    HW128301   5.020   5.016   0.831
 9134SOL    HW228302   4.896   4.911   0.823
 9135SOL     OW28303   6.282   6.260   3.151
 9135SOL    HW128304   6.185   6.270   3.126
 9135SOL    HW228305   6.335   6.333   3.106
 9136SOL     OW28306   6.778   4.702   0.401
 9136SOL    HW128307   6.740   4.640   0.470
 9136SOL    HW228308   6.835   4.771   0.445
 9137SOL     OW28309   5.254   6.568   5.292
 9137SOL    HW128310   5.245   6.609   5.382
 9137SOL    HW228311   5.308   6.484   5.299
 9138SOL     OW28312   2.014   4.038   6.578
 9138SOL    HW128313   2.098   4.088   6.558
 9138SOL    HW228314   1.938   4.101   6.585
 9139SOL     OW28315   6.478   6.952   1.600
 9139SOL    HW128316   6.471   6.943   1.501
 9139SOL    HW228317   6.393   6.921   1.643
 9140SOL     OW28318   2.031   3.671   2.539
 9140SOL    HW128319   1.936   3.667   2.507
 9140SOL    HW228320   2.072   3.580   2.529
 9141SOL     OW28321   0.032   5.720   4.954
 9141SOL    HW128322   6.963   5.675   4.926
 9141SOL    HW228323   0.048   5.800   4.896
 9142SOL     OW28324   0.824   4.870   4.069
 9142SOL    HW128325   0.856   4.829   3.984
 9142SOL    HW228326   0.876   4.953   4.087
 9143SOL     OW28327   6.271   3.950   3.135
 9143SOL    HW128328   6.364   3.918   3.150
 9143SOL    HW228329   6.236   3.994   3.218
 9144SOL     OW28330   3.063   4.328   5.282
 9144SOL    HW128331   3.009   4.409   5.256
 9144SOL    HW228332   3.041   4.253   5.220
 9145SOL     OW28333   1.281   5.765   5.803
 9145SOL    HW128334   1.371   5.795   5.774
 9145SOL    HW228335   1.249   5.692   5.743
 9146SOL     OW28336   5.851   2.886   3.363
 9146SOL    HW128337   5.828   2.841   3.277
 9146SOL    HW228338   5.767   2.923   3.404
 9147SOL     OW28339   4.013   0.248   5.666
 9147SOL    HW128340   3.958   0.181   5.717
 9147SOL    HW228341   4.012   0.224   5.568
 9148SOL     OW28342   5.033   5.961   1.202
 9148SOL    HW128343   4.999   5.874   1.236
 9148SOL    HW228344   4.987   5.984   1.116
 9149SOL     OW28345   0.232   3.762   0.703
 9149SOL    HW128346   0.156   3.754   0.639
 9149SOL    HW228347   0.232   3.684   0.766
 9150SOL     OW28348   2.600   3.119   6.821
 9150SOL    HW128349   2.650   3.088   6.902
 9150SOL    HW228350   2.538   3.047   6.791
 9151SOL     OW28351   1.673   3.004   3.562
 9151SOL    HW128352   1.718   2.916   3.576
 9151SOL    HW228353   1.646   3.042   3.650
 9152SOL     OW28354   2.209   4.040   2.684
 9152SOL    HW128355   2.149   4.088   2.620
 9152SOL    HW228356   2.273   4.106   2.725
 9153SOL     OW28357   0.301   2.963   6.008
 9153SOL    HW128358   0.267   2.882   5.960
 9153SOL    HW228359   0.225   3.018   6.040
 9154SOL     OW28360   5.457   4.971   3.287
 9154SOL    HW128361   5.458   4.871   3.295
 9154SOL    HW228362   5.425   5.011   3.372
 9155SOL     OW28363   1.034   6.006   2.651
 9155SOL    HW128364   1.063   5.957   2.568
 9155SOL    HW228365   1.115   6.043   2.696
 9156SOL     OW28366   6.865   3.890   5.601
 9156SOL    HW128367   6.950   3.841   5.621
 9156SOL    HW228368   6.887   3.980   5.562
 9157SOL     OW28369   1.626   4.836   5.606
 9157SOL    HW128370   1.582   4.877   5.686
 9157SOL    HW228371   1.612   4.737   5.607
 9158SOL     OW28372   6.565   3.559   4.648
 9158SOL    HW128373   6.482   3.614   4.645
 9158SOL    HW228374   6.580   3.526   4.741
 9159SOL     OW28375   2.125   1.367   3.753
 9159SOL    HW128376   2.126   1.271   3.781
 9159SOL    HW228377   2.190   1.419   3.808
 9160SOL     OW28378   1.377   3.231   6.897
 9160SOL    HW128379   1.427   3.154   6.938
 9160SOL    HW228380   1.438   3.283   6.838
 9161SOL     OW28381   6.389   3.570   2.575
 9161SOL    HW128382   6.336   3.541   2.495
 9161SOL    HW228383   6.349   3.654   2.612
 9162SOL     OW28384   3.909   2.302   1.701
 9162SOL    HW128385   4.004   2.270   1.710
 9162SOL    HW228386   3.864   2.296   1.790
 9163SOL     OW28387   2.604   2.310   4.326
 9163SOL    HW128388   2.614   2.219   4.285
 9163SOL    HW228389   2.553   2.303   4.412
 9164SOL     OW28390   2.259   0.268   6.170
 9164SOL    HW128391   2.228   0.229   6.083
 9164SOL    HW228392   2.181   0.312   6.215
 9165SOL     OW28393   5.419   1.671   6.039
 9165SOL    HW128394   5.378   1.757   6.009
 9165SOL    HW228395   5.507   1.690   6.084
 9166SOL     OW28396   4.482   6.142   1.746
 9166SOL    HW128397   4.532   6.228   1.736
 9166SOL    HW228398   4.398   6.158   1.798
 9167SOL     OW28399   1.714   1.291   4.329
 9167SOL    HW128400   1.712   1.277   4.230
 9167SOL    HW228401   1.644   1.358   4.354
 9168SOL     OW28402   6.736   6.189   4.991
 9168SOL    HW128403   6.745   6.239   4.905
 9168SOL    HW228404   6.653   6.219   5.039
 9169SOL     OW28405   6.615   5.920   0.875
 9169SOL    HW128406   6.655   6.012   0.876
 9169SOL    HW228407   6.663   5.862   0.941
 9170SOL     OW28408   1.674   1.099   5.508
 9170SOL    HW128409   1.692   1.187   5.465
 9170SOL    HW228410   1.643   1.113   5.602
 9171SOL     OW28411   3.331   5.408   6.531
 9171SOL    HW128412   3.336   5.507   6.519
 9171SOL    HW228413   3.418   5.374   6.565
 9172SOL     OW28414   4.545   1.669   5.394
 9172SOL    HW128415   4.506   1.608   5.463
 9172SOL    HW228416   4.628   1.711   5.430
 9173SOL     OW28417   5.703   3.636   5.143
 9173SOL    HW128418   5.752   3.640   5.056
 9173SOL    HW228419   5.709   3.544   5.181
 9174SOL     OW28420   6.618   4.731   1.525
 9174SOL    HW128421   6.656   4.709   1.615
 9174SOL    HW228422   6.518   4.729   1.530
 9175SOL     OW28423   2.215   6.660   0.976
 9175SOL    HW128424   2.244   6.752   0.949
 9175SOL    HW228425   2.189   6.661   1.072
 9176SOL     OW28426   1.580   0.661   1.927
 9176SOL    HW128427   1.517   0.666   2.004
 9176SOL    HW228428   1.655   0.726   1.940
 9177SOL     OW28429   0.492   6.794   3.919
 9177SOL    HW128430   0.419   6.736   3.883
 9177SOL    HW228431   0.517   6.763   4.011
 9178SOL     OW28432   1.357   4.773   1.016
 9178SOL    HW128433   1.416   4.853   1.001
 9178SOL    HW228434   1.402   4.691   0.981
 9179SOL     OW28435   3.858   5.109   3.803
 9179SOL    HW128436   3.924   5.148   3.867
 9179SOL    HW228437   3.900   5.100   3.713
 9180SOL     OW28438   0.115   0.982   5.446
 9180SOL    HW128439   0.209   1.001   5.420
 9180SOL    HW228440   0.053   1.045   5.399
 9181SOL     OW28441   2.597   2.458   3.805
 9181SOL    HW128442   2.512   2.510   3.805
 9181SOL    HW228443   2.674   2.521   3.810
 9182SOL     OW28444   0.506   2.061   2.412
 9182SOL    HW128445   0.580   2.114   2.455
 9182SOL    HW228446   0.418   2.092   2.448
 9183SOL     OW28447   1.794   1.585   6.186
 9183SOL    HW128448   1.807   1.552   6.279
 9183SOL    HW228449   1.884   1.600   6.143
 9184SOL     OW28450   3.351   3.631   1.079
 9184SOL    HW128451   3.387   3.703   1.138
 9184SOL    HW228452   3.251   3.638   1.075
 9185SOL     OW28453   1.404   0.320   5.868
 9185SOL    HW128454   1.357   0.265   5.937
 9185SOL    HW228455   1.456   0.393   5.913
 9186SOL     OW28456   4.608   0.028   6.917
 9186SOL    HW128457   4.521   0.077   6.923
 9186SOL    HW228458   4.682   0.093   6.901
 9187SOL     OW28459   5.613   2.550   0.801
 9187SOL    HW128460   5.680   2.613   0.762
 9187SOL    HW228461   5.540   2.601   0.845
 9188SOL     OW28462   1.641   0.085   1.432
 9188SOL    HW128463   1.579   0.010   1.458
 9188SOL    HW228464   1.708   0.098   1.505
 9189SOL     OW28465   3.347   0.442   5.723
 9189SOL    HW128466   3.336   0.492   5.809
 9189SOL    HW228467   3.357   0.344   5.743
 9190SOL     OW28468   4.480   0.989   5.002
 9190SOL    HW128469   4.412   1.052   4.966
 9190SOL    HW228470   4.532   1.034   5.076
 9191SOL     OW28471   5.656   0.008   1.824
 9191SOL    HW128472   5.621   0.080   1.884
 9191SOL    HW228473   5.753   0.026   1.803
 9192SOL     OW28474   4.858   3.780   4.391
 9192SOL    HW128475   4.880   3.712   4.461
 9192SOL    HW228476   4.935   3.789   4.328
 9193SOL     OW28477   4.097   3.362   3.130
 9193SOL    HW128478   4.073   3.452   3.093
 9193SOL    HW228479   4.071   3.291   3.063
 9194SOL     OW28480   3.742   4.929   2.982
 9194SOL    HW128481   3.690   4.915   2.898
 9194SOL    HW228482   3.680   4.922   3.061
 9195SOL     OW28483   0.579   2.792   2.997
 9195SOL    HW128484   0.669   2.807   2.958
 9195SOL    HW228485   0.529   2.725   2.942
 9196SOL     OW28486   5.019   6.501   4.472
 9196SOL    HW128487   5.040   6.534   4.565
 9196SOL    HW228488   5.101   6.459   4.433
 9197SOL     OW28489   4.668   1.595   6.434
 9197SOL    HW128490   4.669   1.513   6.377
 9197SOL    HW228491   4.718   1.668   6.387
 9198SOL     OW28492   6.038   2.119   5.303
 9198SOL    HW128493   6.093   2.143   5.224
 9198SOL    HW228494   6.068   2.172   5.383
 9199SOL     OW28495   1.343   3.132   6.059
 9199SOL    HW128496   1.425   3.176   6.024
 9199SOL    HW228497   1.301   3.190   6.128
 9200SOL     OW28498   4.811   6.059   0.857
 9200SOL    HW128499   4.825   6.058   0.758
 9200SOL    HW228500   4.862   5.984   0.899
 9201SOL     OW28501   0.452   3.814   2.366
 9201SOL    HW128502   0.448   3.872   2.284
 9201SOL    HW228503   0.538   3.762   2.366
 9202SOL     OW28504   2.410   5.931   3.561
 9202SOL    HW128505   2.350   6.010   3.548
 9202SOL    HW228506   2.465   5.917   3.479
 9203SOL     OW28507   4.994   0.897   0.297
 9203SOL    HW128508   4.948   0.931   0.379
 9203SOL    HW228509   5.088   0.931   0.295
 9204SOL     OW28510   5.424   4.452   2.715
 9204SOL    HW128511   5.396   4.386   2.645
 9204SOL    HW228512   5.515   4.428   2.749
 9205SOL     OW28513   4.591   2.439   1.483
 9205SOL    HW128514   4.588   2.472   1.577
 9205SOL    HW228515   4.686   2.420   1.457
 9206SOL     OW28516   6.379   6.139   4.342
 9206SOL    HW128517   6.440   6.207   4.382
 9206SOL    HW228518   6.431   6.055   4.322
 9207SOL     OW28519   3.786   6.144   6.886
 9207SOL    HW128520   3.769   6.045   6.892
 9207SOL    HW228521   3.875   6.160   6.843
 9208SOL     OW28522   4.291   4.097   1.658
 9208SOL    HW128523   4.381   4.122   1.694
 9208SOL    HW228524   4.237   4.180   1.642
 9209SOL     OW28525   3.841   0.142   2.863
 9209SOL    HW128526   3.877   0.052   2.838
 9209SOL    HW228527   3.904   0.213   2.831
 9210SOL     OW28528   0.810   6.618   0.578
 9210SOL    HW128529   0.736   6.612   0.644
 9210SOL    HW228530   0.806   6.705   0.530
 9211SOL     OW28531   4.893   1.357   6.213
 9211SOL    HW128532   4.890   1.451   6.180
 9211SOL    HW228533   4.928   1.297   6.140
 9212SOL     OW28534   5.884   4.244   5.516
 9212SOL    HW128535   5.884   4.155   5.469
 9212SOL    HW228536   5.900   4.230   5.613
 9213SOL     OW28537   6.580   6.117   2.289
 9213SOL    HW128538   6.567   6.183   2.215
 9213SOL    HW228539   6.500   6.117   2.348
 9214SOL     OW28540   2.228   1.734   5.720
 9214SOL    HW128541   2.240   1.831   5.740
 9214SOL    HW228542   2.305   1.683   5.758
 9215SOL     OW28543   0.515   3.614   3.377
 9215SOL    HW128544   0.442   3.616   3.308
 9215SOL    HW228545   0.595   3.569   3.339
 9216SOL     OW28546   2.404   6.275   3.122
 9216SOL    HW128547   2.347   6.260   3.041
 9216SOL    HW228548   2.490   6.225   3.112
 9217SOL     OW28549   4.112   1.637   7.011
 9217SOL    HW128550   4.112   1.718   6.953
 9217SOL    HW228551   4.019   1.610   0.017
 9218SOL     OW28552   5.593   5.464   6.579
 9218SOL    HW128553   5.549   5.420   6.658
 9218SOL    HW228554   5.634   5.550   6.607
 9219SOL     OW28555   3.053   2.639   5.415
 9219SOL    HW128556   3.034   2.729   5.376
 9219SOL    HW228557   3.003   2.629   5.501
 9220SOL     OW28558   0.449   6.466   3.189
 9220SOL    HW128559   0.549   6.457   3.186
 9220SOL    HW228560   0.416   6.504   3.103
 9221SOL     OW28561   2.847   1.678   1.194
 9221SOL    HW128562   2.884   1.682   1.286
 9221SOL    HW228563   2.843   1.582   1.164
 9222SOL     OW28564   1.229   5.029   4.109
 9222SOL    HW128565   1.319   5.031   4.066
 9222SOL    HW228566   1.231   4.966   4.186
 9223SOL     OW28567   6.372   3.340   4.400
 9223SOL    HW128568   6.384   3.438   4.381
 9223SOL    HW228569   6.318   3.330   4.484
 9224SOL     OW28570   2.099   4.791   2.673
 9224SOL    HW128571   2.194   4.764   2.656
 9224SOL    HW228572   2.043   4.709   2.685
 9225SOL     OW28573   6.395   5.339   6.016
 9225SOL    HW128574   6.330   5.348   5.941
 9225SOL    HW228575   6.423   5.430   6.046
 9226SOL     OW28576   1.250   0.393   6.151
 9226SOL    HW128577   1.151   0.404   6.151
 9226SOL    HW228578   1.272   0.299   6.123
 9227SOL     OW28579   3.281   4.060   0.731
 9227SOL    HW128580   3.216   4.092   0.800
 9227SOL    HW228581   3.235   4.050   0.643
 9228SOL     OW28582   3.769   2.863   4.889
 9228SOL    HW128583   3.693   2.874   4.954
 9228SOL    HW228584   3.829   2.789   4.920
 9229SOL     OW28585   6.743   5.317   0.831
 9229SOL    HW128586   6.755   5.398   0.888
 9229SOL    HW228587   6.700   5.343   0.745
 9230SOL     OW28588   4.438   0.818   5.357
 9230SOL    HW128589   4.534   0.818   5.328
 9230SOL    HW228590   4.403   0.725   5.357
 9231SOL     OW28591   6.245   5.951   1.847
 9231SOL    HW128592   6.163   6.009   1.858
 9231SOL    HW228593   6.310   5.972   1.919
 9232SOL     OW28594   1.071   5.174   1.780
 9232SOL    HW128595   0.993   5.148   1.723
 9232SOL    HW228596   1.125   5.093   1.803
 9233SOL     OW28597   1.329   6.656   5.913
 9233SOL    HW128598   1.309   6.683   6.007
 9233SOL    HW228599   1.350   6.558   5.910
 9234SOL     OW28600   2.690   4.132   5.941
 9234SOL    HW128601   2.608   4.128   5.998
 9234SOL    HW228602   2.758   4.191   5.984
 9235SOL     OW28603   2.344   1.739   2.886
 9235SOL    HW128604   2.270   1.728   2.820
 9235SOL    HW228605   2.308   1.781   2.970
 9236SOL     OW28606   1.471   3.222   5.665
 9236SOL    HW128607   1.498   3.276   5.585
 9236SOL    HW228608   1.384   3.176   5.647
 9237SOL     OW28609   6.299   5.362   2.820
 9237SOL    HW128610   6.210   5.405   2.802
 9237SOL    HW228611   6.346   5.345   2.734
 9238SOL     OW28612   1.859   2.629   4.617
 9238SOL    HW128613   1.925   2.654   4.688
 9238SOL    HW228614   1.886   2.543   4.574
 9239SOL     OW28615   0.958   4.793   6.053
 9239SOL    HW128616   0.951   4.715   5.991
 9239SOL    HW228617   0.910   4.774   6.138
 9240SOL     OW28618   3.955   1.882   3.629
 9240SOL    HW128619   3.904   1.963   3.657
 9240SOL    HW228620   4.019   1.906   3.556
 9241SOL     OW28621   5.641   6.507   0.217
 9241SOL    HW128622   5.557   6.559   0.204
 9241SOL    HW228623   5.720   6.566   0.199
 9242SOL     OW28624   1.709   2.363   0.914
 9242SOL    HW128625   1.631   2.344   0.974
 9242SOL    HW228626   1.792   2.368   0.969
 9243SOL     OW28627   1.453   0.232   6.921
 9243SOL    HW128628   1.538   0.195   6.959
 9243SOL    HW228629   1.466   0.328   6.897
 9244SOL     OW28630   2.454   6.279   6.288
 9244SOL    HW128631   2.546   6.256   6.322
 9244SOL    HW228632   2.433   6.373   6.312
 9245SOL     OW28633   1.084   5.161   2.971
 9245SOL    HW128634   1.045   5.238   2.922
 9245SOL    HW228635   1.145   5.194   3.042
 9246SOL     OW28636   4.975   6.439   6.591
 9246SOL    HW128637   4.945   6.358   6.642
 9246SOL    HW228638   4.903   6.468   6.529
 9247SOL     OW28639   3.575   6.265   3.065
 9247SOL    HW128640   3.638   6.281   3.142
 9247SOL    HW228641   3.608   6.313   2.984
 9248SOL     OW28642   2.544   0.812   6.748
 9248SOL    HW128643   2.562   0.905   6.714
 9248SOL    HW228644   2.573   0.805   6.843
 9249SOL     OW28645   2.519   0.004   0.018
 9249SOL    HW128646   2.503   6.929   0.057
 9249SOL    HW228647   2.452   0.022   6.961
 9250SOL     OW28648   0.530   3.141   3.393
 9250SOL    HW128649   0.525   3.219   3.331
 9250SOL    HW228650   0.520   3.056   3.341
 9251SOL     OW28651   3.301   1.927   1.406
 9251SOL    HW128652   3.318   1.836   1.445
 9251SOL    HW228653   3.387   1.977   1.398
 9252SOL     OW28654   5.862   1.361   4.541
 9252SOL    HW128655   5.870   1.366   4.641
 9252SOL    HW228656   5.952   1.339   4.502
 9253SOL     OW28657   1.573   5.768   4.703
 9253SOL    HW128658   1.660   5.742   4.661
 9253SOL    HW228659   1.576   5.863   4.731
 9254SOL     OW28660   0.437   5.388   2.322
 9254SOL    HW128661   0.367   5.411   2.255
 9254SOL    HW228662   0.429   5.449   2.401
 9255SOL     OW28663   6.498   4.102   0.934
 9255SOL    HW128664   6.507   4.202   0.937
 9255SOL    HW228665   6.461   4.074   0.846
 9256SOL     OW28666   2.727   6.638   0.743
 9256SOL    HW128667   2.770   6.549   0.754
 9256SOL    HW228668   2.788   6.699   0.693
 9257SOL     OW28669   5.934   5.841   4.692
 9257SOL    HW128670   5.875   5.762   4.676
 9257SOL    HW228671   6.025   5.823   4.655
 9258SOL     OW28672   4.007   5.521   1.726
 9258SOL    HW128673   3.967   5.431   1.708
 9258SOL    HW228674   3.955   5.567   1.798
 9259SOL     OW28675   0.541   2.320   6.456
 9259SOL    HW128676   0.567   2.412   6.427
 9259SOL    HW228677   0.597   2.253   6.409
 9260SOL     OW28678   4.835   3.943   4.761
 9260SOL    HW128679   4.741   3.964   4.787
 9260SOL    HW228680   4.847   3.844   4.758
 9261SOL     OW28681   1.845   2.259   1.688
 9261SOL    HW128682   1.802   2.169   1.691
 9261SOL    HW228683   1.809   2.315   1.763
 9262SOL     OW28684   6.504   6.555   6.295
 9262SOL    HW128685   6.551   6.500   6.226
 9262SOL    HW228686   6.414   6.515   6.314
 9263SOL     OW28687   2.164   4.798   3.005
 9263SOL    HW128688   2.188   4.853   2.925
 9263SOL    HW228689   2.170   4.856   3.087
 9264SOL     OW28690   5.621   3.682   6.352
 9264SOL    HW128691   5.624   3.583   6.366
 9264SOL    HW228692   5.535   3.719   6.387
 9265SOL     OW28693   5.095   0.784   1.352
 9265SOL    HW128694   5.041   0.727   1.414
 9265SOL    HW228695   5.035   0.821   1.281
 9266SOL     OW28696   1.907   4.148   0.676
 9266SOL    HW128697   1.848   4.122   0.600
 9266SOL    HW228698   1.939   4.066   0.723
 9267SOL     OW28699   0.906   0.970   4.076
 9267SOL    HW128700   0.813   0.964   4.113
 9267SOL    HW228701   0.909   0.930   3.984
 9268SOL     OW28702   0.615   1.079   1.774
 9268SOL    HW128703   0.657   1.070   1.865
 9268SOL    HW228704   0.670   1.140   1.718
 9269SOL     OW28705   4.345   1.130   0.195
 9269SOL    HW128706   4.377   1.134   0.100
 9269SOL    HW228707   4.283   1.052   0.205
 9270SOL     OW28708   2.890   0.870   6.223
 9270SOL    HW128709   2.961   0.879   6.293
 9270SOL    HW228710   2.874   0.959   6.181
 9271SOL     OW28711   1.322   4.594   5.750
 9271SOL    HW128712   1.303   4.691   5.766
 9271SOL    HW228713   1.405   4.585   5.694
 9272SOL     OW28714   6.200   6.328   6.027
 9272SOL    HW128715   6.238   6.402   5.971
 9272SOL    HW228716   6.267   6.254   6.034
 9273SOL     OW28717   5.877   3.341   3.623
 9273SOL    HW128718   5.927   3.427   3.634
 9273SOL    HW228719   5.837   3.314   3.711
 9274SOL     OW28720   0.622   3.338   0.926
 9274SOL    HW128721   0.694   3.375   0.867
 9274SOL    HW228722   0.613   3.240   0.910
 9275SOL     OW28723   5.602   0.805   0.951
 9275SOL    HW128724   5.664   0.883   0.944
 9275SOL    HW228725   5.655   0.720   0.947
 9276SOL     OW28726   2.684   4.943   6.918
 9276SOL    HW128727   2.674   4.880   6.841
 9276SOL    HW228728   2.723   5.029   6.886
 9277SOL     OW28729   4.743   5.197   2.305
 9277SOL    HW128730   4.759   5.129   2.376
 9277SOL    HW228731   4.664   5.169   2.249
 9278SOL     OW28732   0.273   0.167   5.888
 9278SOL    HW128733   0.221   0.087   5.859
 9278SOL    HW228734   0.213   0.232   5.935
 9279SOL     OW28735   2.897   6.422   1.855
 9279SOL    HW128736   2.836   6.461   1.924
 9279SOL    HW228737   2.882   6.468   1.767
 9280SOL     OW28738   1.275   5.591   2.843
 9280SOL    HW128739   1.289   5.685   2.875
 9280SOL    HW228740   1.355   5.536   2.866
 9281SOL     OW28741   1.569   5.098   0.713
 9281SOL    HW128742   1.503   5.024   0.704
 9281SOL    HW228743   1.580   5.121   0.810
 9282SOL     OW28744   2.842   6.480   4.702
 9282SOL    HW128745   2.743   6.474   4.712
 9282SOL    HW228746   2.871   6.575   4.719
 9283SOL     OW28747   4.404   6.475   0.931
 9283SOL    HW128748   4.491   6.468   0.882
 9283SOL    HW228749   4.355   6.388   0.925
 9284SOL     OW28750   4.071   4.927   6.764
 9284SOL    HW128751   4.100   4.852   6.824
 9284SOL    HW228752   3.987   4.899   6.715
 9285SOL     OW28753   0.384   6.219   3.344
 9285SOL    HW128754   0.305   6.243   3.288
 9285SOL    HW228755   0.454   6.290   3.336
 9286SOL     OW28756   4.475   0.051   1.831
 9286SOL    HW128757   4.539   6.989   1.835
 9286SOL    HW228758   4.398   0.027   1.773
 9287SOL     OW28759   4.425   3.726   6.059
 9287SOL    HW128760   4.491   3.734   5.984
 9287SOL    HW228761   4.335   3.704   6.022
 9288SOL     OW28762   3.673   1.809   2.140
 9288SOL    HW128763   3.651   1.768   2.052
 9288SOL    HW228764   3.628   1.898   2.148
 9289SOL     OW28765   4.760   6.692   1.051
 9289SOL    HW128766   4.718   6.661   0.966
 9289SOL    HW228767   4.783   6.613   1.108
 9290SOL     OW28768   6.279   1.244   3.579
 9290SOL    HW128769   6.289   1.157   3.530
 9290SOL    HW228770   6.306   1.320   3.519
 9291SOL     OW28771   0.482   3.939   5.720
 9291SOL    HW128772   0.566   3.992   5.707
 9291SOL    HW228773   0.461   3.934   5.817
 9292SOL     OW28774   0.259   1.545   6.567
 9292SOL    HW128775   0.271   1.549   6.666
 9292SOL    HW228776   0.296   1.459   6.532
 9293SOL     OW28777   4.600   1.771   4.817
 9293SOL    HW128778   4.616   1.676   4.790
 9293SOL    HW228779   4.523   1.774   4.881
 9294SOL     OW28780   4.486   6.897   6.477
 9294SOL    HW128781   4.479   6.990   6.513
 9294SOL    HW228782   4.432   6.890   6.393
 9295SOL     OW28783   5.862   1.481   4.170
 9295SOL    HW128784   5.956   1.498   4.198
 9295SOL    HW228785   5.803   1.471   4.250
 9296SOL     OW28786   2.218   4.861   5.887
 9296SOL    HW128787   2.238   4.863   5.790
 9296SOL    HW228788   2.169   4.944   5.913
 9297SOL     OW28789   6.851   5.087   2.549
 9297SOL    HW128790   6.789   5.008   2.554
 9297SOL    HW228791   6.824   5.145   2.473
 9298SOL     OW28792   1.322   3.916   6.237
 9298SOL    HW128793   1.235   3.869   6.255
 9298SOL    HW228794   1.369   3.933   6.324
 9299SOL     OW28795   2.739   2.357   4.818
 9299SOL    HW128796   2.771   2.408   4.898
 9299SOL    HW228797   2.643   2.381   4.799
 9300SOL     OW28798   2.229   6.423   4.333
 9300SOL    HW128799   2.178   6.341   4.310
 9300SOL    HW228800   2.317   6.423   4.285
 9301SOL     OW28801   0.696   4.382   4.328
 9301SOL    HW128802   0.747   4.300   4.305
 9301SOL    HW228803   0.755   4.445   4.380
 9302SOL     OW28804   2.182   4.863   4.195
 9302SOL    HW128805   2.197   4.922   4.274
 9302SOL    HW228806   2.196   4.915   4.111
 9303SOL     OW28807   2.448   4.064   0.115
 9303SOL    HW128808   2.494   4.008   0.046
 9303SOL    HW228809   2.378   4.120   0.071
 9304SOL     OW28810   5.364   5.475   6.429
 9304SOL    HW128811   5.450   5.444   6.470
 9304SOL    HW228812   5.364   5.575   6.426
 9305SOL     OW28813   1.809   1.807   1.398
 9305SOL    HW128814   1.776   1.786   1.306
 9305SOL    HW228815   1.762   1.889   1.432
 9306SOL     OW28816   6.858   6.398   4.809
 9306SOL    HW128817   6.942   6.344   4.804
 9306SOL    HW228818   6.854   6.445   4.896
 9307SOL     OW28819   1.621   3.877   1.092
 9307SOL    HW128820   1.664   3.952   1.042
 9307SOL    HW228821   1.577   3.913   1.175
 9308SOL     OW28822   2.216   3.169   1.898
 9308SOL    HW128823   2.208   3.267   1.919
 9308SOL    HW228824   2.196   3.116   1.980
 9309SOL     OW28825   4.909   5.334   6.548
 9309SOL    HW128826   4.850   5.393   6.493
 9309SOL    HW228827   4.995   5.318   6.499
 9310SOL     OW28828   5.830   5.833   5.797
 9310SOL    HW128829   5.889   5.779   5.857
 9310SOL    HW228830   5.879   5.855   5.713
 9311SOL     OW28831   4.864   4.083   0.727
 9311SOL    HW128832   4.955   4.045   0.740
 9311SOL    HW228833   4.796   4.021   0.766
 9312SOL     OW28834   0.309   2.846   3.547
 9312SOL    HW128835   0.408   2.857   3.548
 9312SOL    HW228836   0.277   2.835   3.453
 9313SOL     OW28837   0.832   0.610   2.614
 9313SOL    HW128838   0.924   0.570   2.618
 9313SOL    HW228839   0.825   0.682   2.683
 9314SOL     OW28840   5.402   5.165   1.125
 9314SOL    HW128841   5.479   5.226   1.106
 9314SOL    HW228842   5.367   5.183   1.217
 9315SOL     OW28843   5.623   6.350   6.269
 9315SOL    HW128844   5.714   6.383   6.291
 9315SOL    HW228845   5.596   6.380   6.178
 9316SOL     OW28846   5.004   0.019   0.599
 9316SOL    HW128847   5.051   0.055   0.680
 9316SOL    HW228848   4.985   0.093   0.535
 9317SOL     OW28849   2.971   5.802   3.411
 9317SOL    HW128850   2.940   5.850   3.493
 9317SOL    HW228851   2.920   5.835   3.332
 9318SOL     OW28852   3.603   6.913   1.981
 9318SOL    HW128853   3.556   6.839   1.932
 9318SOL    HW228854   3.547   6.995   1.978
 9319SOL     OW28855   4.476   1.952   0.037
 9319SOL    HW128856   4.417   1.930   0.115
 9319SOL    HW228857   4.493   2.050   0.035
 9320SOL     OW28858   6.821   6.716   6.960
 9320SOL    HW128859   6.916   6.684   6.960
 9320SOL    HW228860   6.809   6.781   6.885
 9321SOL     OW28861   0.631   3.604   4.212
 9321SOL    HW128862   0.544   3.556   4.202
 9321SOL    HW228863   0.688   3.557   4.278
 9322SOL     OW28864   5.229   3.719   0.038
 9322SOL    HW128865   5.166   3.658   0.086
 9322SOL    HW228866   5.207   3.719   6.956
 9323SOL     OW28867   0.767   2.390   6.016
 9323SOL    HW128868   0.744   2.472   6.068
 9323SOL    HW228869   0.867   2.380   6.013
 9324SOL     OW28870   0.309   4.411   1.447
 9324SOL    HW128871   0.274   4.353   1.373
 9324SOL    HW228872   0.384   4.467   1.412
 9325SOL     OW28873   0.781   4.355   3.288
 9325SOL    HW128874   0.739   4.271   3.254
 9325SOL    HW228875   0.854   4.332   3.353
 9326SOL     OW28876   4.697   4.412   0.881
 9326SOL    HW128877   4.623   4.350   0.908
 9326SOL    HW228878   4.713   4.404   0.783
 9327SOL     OW28879   3.109   1.435   3.345
 9327SOL    HW128880   3.154   1.359   3.298
 9327SOL    HW228881   3.012   1.412   3.359
 9328SOL     OW28882   1.907   0.688   3.537
 9328SOL    HW128883   2.002   0.657   3.547
 9328SOL    HW228884   1.850   0.612   3.506
 9329SOL     OW28885   0.861   5.299   6.835
 9329SOL    HW128886   0.870   5.361   6.757
 9329SOL    HW228887   0.769   5.259   6.836
 9330SOL     OW28888   0.524   6.708   0.179
 9330SOL    HW128889   0.434   6.710   0.135
 9330SOL    HW228890   0.550   6.613   0.197
 9331SOL     OW28891   2.197   3.930   4.051
 9331SOL    HW128892   2.258   3.998   4.009
 9331SOL    HW228893   2.146   3.882   3.980
 9332SOL     OW28894   6.320   5.169   0.633
 9332SOL    HW128895   6.410   5.169   0.676
 9332SOL    HW228896   6.316   5.240   0.563
 9333SOL     OW28897   3.146   3.825   1.434
 9333SOL    HW128898   3.069   3.781   1.481
 9333SOL    HW228899   3.183   3.898   1.491
 9334SOL     OW28900   6.736   5.834   6.133
 9334SOL    HW128901   6.819   5.783   6.153
 9334SOL    HW228902   6.656   5.776   6.150
 9335SOL     OW28903   0.546   3.680   1.462
 9335SOL    HW128904   0.602   3.614   1.412
 9335SOL    HW228905   0.472   3.632   1.509
 9336SOL     OW28906   5.347   6.946   6.426
 9336SOL    HW128907   5.261   6.970   6.380
 9336SOL    HW228908   5.338   6.856   6.468
 9337SOL     OW28909   2.506   1.261   5.726
 9337SOL    HW128910   2.569   1.188   5.701
 9337SOL    HW228911   2.428   1.262   5.663
 9338SOL     OW28912   5.556   6.317   0.406
 9338SOL    HW128913   5.569   6.358   0.316
 9338SOL    HW228914   5.546   6.218   0.397
 9339SOL     OW28915   0.272   4.422   5.158
 9339SOL    HW128916   0.254   4.503   5.101
 9339SOL    HW228917   0.364   4.388   5.138
 9340SOL     OW28918   2.444   4.933   1.883
 9340SOL    HW128919   2.527   4.968   1.925
 9340SOL    HW228920   2.365   4.981   1.920
 9341SOL     OW28921   5.838   5.278   6.471
 9341SOL    HW128922   5.871   5.326   6.390
 9341SOL    HW228923   5.753   5.320   6.503
 9342SOL     OW28924   3.402   0.147   4.795
 9342SOL    HW128925   3.462   0.125   4.719
 9342SOL    HW228926   3.409   0.245   4.816
 9343SOL     OW28927   4.655   3.568   0.393
 9343SOL    HW128928   4.696   3.658   0.409
 9343SOL    HW228929   4.583   3.552   0.461
 9344SOL     OW28930   5.386   0.910   5.382
 9344SOL    HW128931   5.337   0.983   5.429
 9344SOL    HW228932   5.482   0.910   5.411
 9345SOL     OW28933   0.410   4.567   0.160
 9345SOL    HW128934   0.420   4.611   0.250
 9345SOL    HW228935   0.313   4.551   0.142
 9346SOL     OW28936   5.346   0.051   2.043
 9346SOL    HW128937   5.427   0.001   2.072
 9346SOL    HW228938   5.325   0.029   1.948
 9347SOL     OW28939   3.929   6.389   0.926
 9347SOL    HW128940   3.921   6.301   0.880
 9347SOL    HW228941   3.898   6.462   0.865
 9348SOL     OW28942   2.266   5.568   1.544
 9348SOL    HW128943   2.254   5.472   1.569
 9348SOL    HW228944   2.349   5.578   1.489
 9349SOL     OW28945   6.773   6.335   1.618
 9349SOL    HW128946   6.767   6.430   1.587
 9349SOL    HW228947   6.706   6.280   1.568
 9350SOL     OW28948   6.684   0.734   0.157
 9350SOL    HW128949   6.728   0.814   0.199
 9350SOL    HW228950   6.601   0.711   0.207
 9351SOL     OW28951   4.443   3.046   5.892
 9351SOL    HW128952   4.436   2.950   5.920
 9351SOL    HW228953   4.374   3.065   5.823
 9352SOL     OW28954   2.821   2.456   6.756
 9352SOL    HW128955   2.837   2.365   6.716
 9352SOL    HW228956   2.874   2.524   6.707
 9353SOL     OW28957   0.564   3.192   1.679
 9353SOL    HW128958   0.642   3.253   1.687
 9353SOL    HW228959   0.480   3.242   1.701
 9354SOL     OW28960   5.335   1.734   1.857
 9354SOL    HW128961   5.335   1.655   1.796
 9354SOL    HW228962   5.422   1.737   1.906
 9355SOL     OW28963   6.441   1.471   2.222
 9355SOL    HW128964   6.412   1.385   2.266
 9355SOL    HW228965   6.518   1.509   2.273
 9356SOL     OW28966   5.301   3.405   2.329
 9356SOL    HW128967   5.207   3.370   2.330
 9356SOL    HW228968   5.308   3.481   2.265
 9357SOL     OW28969   3.209   3.655   0.718
 9357SOL    HW128970   3.288   3.706   0.684
 9357SOL    HW228971   3.234   3.560   0.733
 9358SOL     OW28972   5.033   4.277   1.957
 9358SOL    HW128973   4.948   4.227   1.939
 9358SOL    HW228974   5.060   4.328   1.875
 9359SOL     OW28975   5.540   4.569   6.198
 9359SOL    HW128976   5.474   4.528   6.135
 9359SOL    HW228977   5.558   4.505   6.273
 9360SOL     OW28978   1.241   0.676   5.192
 9360SOL    HW128979   1.249   0.624   5.277
 9360SOL    HW228980   1.194   0.621   5.123
 9361SOL     OW28981   2.128   1.459   2.148
 9361SOL    HW128982   2.151   1.544   2.195
 9361SOL    HW228983   2.181   1.383   2.186
 9362SOL     OW28984   1.386   1.557   2.989
 9362SOL    HW128985   1.447   1.520   3.059
 9362SOL    HW228986   1.305   1.596   3.032
 9363SOL     OW28987   2.068   6.568   1.816
 9363SOL    HW128988   2.136   6.636   1.843
 9363SOL    HW228989   1.979   6.594   1.852
 9364SOL     OW28990   5.865   4.997   1.299
 9364SOL    HW128991   5.808   5.078   1.311
 9364SOL    HW228992   5.928   5.011   1.222
 9365SOL     OW28993   2.167   1.293   5.214
 9365SOL    HW128994   2.125   1.203   5.222
 9365SOL    HW228995   2.095   1.362   5.205
 9366SOL     OW28996   3.322   1.278   1.892
 9366SOL    HW128997   3.236   1.251   1.935
 9366SOL    HW228998   3.351   1.208   1.827
 9367SOL     OW28999   6.459   6.309   4.058
 9367SOL    HW129000   6.504   6.368   3.991
 9367SOL    HW229001   6.401   6.365   4.118
 9368SOL     OW29002   4.881   2.631   1.336
 9368SOL    HW129003   4.883   2.531   1.345
 9368SOL    HW229004   4.789   2.660   1.310
 9369SOL     OW29005   6.429   2.159   5.599
 9369SOL    HW129006   6.512   2.204   5.632
 9369SOL    HW229007   6.433   2.149   5.500
 9370SOL     OW29008   6.168   6.808   3.204
 9370SOL    HW129009   6.165   6.900   3.241
 9370SOL    HW229010   6.229   6.752   3.260
 9371SOL     OW29011   0.900   6.694   0.254
 9371SOL    HW129012   0.808   6.715   0.287
 9371SOL    HW229013   0.967   6.744   0.310
 9372SOL     OW29014   6.121   6.540   6.785
 9372SOL    HW129015   6.107   6.468   6.853
 9372SOL    HW229016   6.035   6.590   6.772
 9373SOL     OW29017   4.264   2.365   4.261
 9373SOL    HW129018   4.325   2.436   4.226
 9373SOL    HW229019   4.254   2.375   4.360
 9374SOL     OW29020   5.263   4.167   0.363
 9374SOL    HW129021   5.275   4.211   0.274
 9374SOL    HW229022   5.168   4.175   0.391
 9375SOL     OW29023   0.755   1.386   3.960
 9375SOL    HW129024   0.687   1.326   4.001
 9375SOL    HW229025   0.753   1.476   4.004
 9376SOL     OW29026   1.897   2.987   2.352
 9376SOL    HW129027   1.878   3.081   2.326
 9376SOL    HW229028   1.885   2.927   2.273
 9377SOL     OW29029   6.091   5.139   2.808
 9377SOL    HW129030   6.182   5.156   2.845
 9377SOL    HW229031   6.027   5.206   2.845
 9378SOL     OW29032   3.692   6.279   1.231
 9378SOL    HW129033   3.600   6.263   1.268
 9378SOL    HW229034   3.759   6.235   1.290
 9379SOL     OW29035   5.098   4.640   5.499
 9379SOL    HW129036   5.134   4.679   5.414
 9379SOL    HW229037   4.998   4.642   5.497
 9380SOL     OW29038   6.290   6.028   6.405
 9380SOL    HW129039   6.228   6.006   6.330
 9380SOL    HW229040   6.238   6.067   6.481
 9381SOL     OW29041   2.396   0.952   0.089
 9381SOL    HW129042   2.403   1.011   0.008
 9381SOL    HW229043   2.435   0.863   0.068
 9382SOL     OW29044   5.589   2.042   2.548
 9382SOL    HW129045   5.538   1.983   2.610
 9382SOL    HW229046   5.628   2.119   2.599
 9383SOL     OW29047   5.514   5.748   5.602
 9383SOL    HW129048   5.488   5.834   5.646
 9383SOL    HW229049   5.460   5.673   5.640
 9384SOL     OW29050   4.296   6.230   1.921
 9384SOL    HW129051   4.284   6.309   1.861
 9384SOL    HW229052   4.216   6.171   1.915
 9385SOL     OW29053   3.890   1.110   3.983
 9385SOL    HW129054   3.962   1.166   4.023
 9385SOL    HW229055   3.803   1.158   3.988
 9386SOL     OW29056   4.097   0.094   4.768
 9386SOL    HW129057   4.031   0.081   4.694
 9386SOL    HW229058   4.189   0.071   4.737
 9387SOL     OW29059   3.884   6.609   0.464
 9387SOL    HW129060   3.857   6.562   0.547
 9387SOL    HW229061   3.888   6.544   0.388
 9388SOL     OW29062   6.900   6.581   2.631
 9388SOL    HW129063   6.828   6.547   2.570
 9388SOL    HW229064   6.890   6.680   2.641
 9389SOL     OW29065   3.245   1.196   6.991
 9389SOL    HW129066   3.325   1.186   6.931
 9389SOL    HW229067   3.274   1.191   0.071
 9390SOL     OW29068   2.777   6.843   2.071
 9390SOL    HW129069   2.837   6.767   2.095
 9390SOL    HW229070   2.682   6.818   2.090
 9391SOL     OW29071   0.610   1.063   5.427
 9391SOL    HW129072   0.643   1.099   5.515
 9391SOL    HW229073   0.610   0.963   5.430
 9392SOL     OW29074   1.754   6.425   3.955
 9392SOL    HW129075   1.744   6.504   3.895
 9392SOL    HW229076   1.815   6.449   4.031
 9393SOL     OW29077   3.836   2.295   5.542
 9393SOL    HW129078   3.794   2.227   5.481
 9393SOL    HW229079   3.922   2.327   5.502
 9394SOL     OW29080   5.810   2.063   2.197
 9394SOL    HW129081   5.727   2.114   2.222
 9394SOL    HW229082   5.814   1.978   2.249
 9395SOL     OW29083   1.627   2.353   6.616
 9395SOL    HW129084   1.596   2.353   6.711
 9395SOL    HW229085   1.596   2.436   6.571
 9396SOL     OW29086   6.272   0.266   6.838
 9396SOL    HW129087   6.300   0.357   6.810
 9396SOL    HW229088   6.317   0.198   6.780
 9397SOL     OW29089   2.673   1.188   0.883
 9397SOL    HW129090   2.628   1.252   0.946
 9397SOL    HW229091   2.627   1.191   0.795
 9398SOL     OW29092   1.959   1.851   0.148
 9398SOL    HW129093   1.962   1.935   0.202
 9398SOL    HW229094   1.897   1.864   0.071
 9399SOL     OW29095   6.693   0.853   5.291
 9399SOL    HW129096   6.736   0.914   5.224
 9399SOL    HW229097   6.704   0.758   5.261
 9400SOL     OW29098   4.417   1.872   3.639
 9400SOL    HW129099   4.344   1.884   3.706
 9400SOL    HW229100   4.401   1.934   3.562
 9401SOL     OW29101   3.969   0.181   3.116
 9401SOL    HW129102   3.904   0.172   3.041
 9401SOL    HW229103   3.935   0.132   3.196
 9402SOL     OW29104   2.166   5.208   0.039
 9402SOL    HW129105   2.224   5.275   7.008
 9402SOL    HW229106   2.071   5.221   0.011
 9403SOL     OW29107   5.535   1.452   4.399
 9403SOL    HW129108   5.499   1.379   4.457
 9403SOL    HW229109   5.499   1.540   4.430
 9404SOL     OW29110   0.668   4.146   5.662
 9404SOL    HW129111   0.767   4.139   5.668
 9404SOL    HW229112   0.641   4.242   5.670
 9405SOL     OW29113   6.328   6.987   1.149
 9405SOL    HW129114   6.234   0.005   1.138
 9405SOL    HW229115   6.349   6.924   1.075
 9406SOL     OW29116   6.930   0.866   6.027
 9406SOL    HW129117   6.982   0.796   5.978
 9406SOL    HW229118   6.879   0.922   5.962
 9407SOL     OW29119   3.498   5.810   2.762
 9407SOL    HW129120   3.586   5.799   2.715
 9407SOL    HW229121   3.498   5.897   2.811
 9408SOL     OW29122   3.683   1.837   6.440
 9408SOL    HW129123   3.728   1.751   6.414
 9408SOL    HW229124   3.752   1.901   6.475
 9409SOL     OW29125   5.557   3.708   3.163
 9409SOL    HW129126   5.542   3.695   3.261
 9409SOL    HW229127   5.470   3.731   3.119
 9410SOL     OW29128   4.967   6.468   2.193
 9410SOL    HW129129   5.050   6.481   2.139
 9410SOL    HW229130   4.975   6.517   2.280
 9411SOL     OW29131   4.615   5.596   0.995
 9411SOL    HW129132   4.589   5.500   1.002
 9411SOL    HW229133   4.538   5.649   0.962
 9412SOL     OW29134   6.415   3.207   1.441
 9412SOL    HW129135   6.338   3.172   1.387
 9412SOL    HW229136   6.501   3.177   1.400
 9413SOL     OW29137   3.441   5.495   5.172
 9413SOL    HW129138   3.433   5.512   5.073
 9413SOL    HW229139   3.423   5.579   5.222
 9414SOL     OW29140   2.644   1.437   2.163
 9414SOL    HW129141   2.591   1.380   2.100
 9414SOL    HW229142   2.688   1.511   2.111
 9415SOL     OW29143   2.878   0.744   1.904
 9415SOL    HW129144   2.865   0.820   1.840
 9415SOL    HW229145   2.972   0.743   1.937
 9416SOL     OW29146   0.767   2.153   1.374
 9416SOL    HW129147   0.736   2.227   1.433
 9416SOL    HW229148   0.838   2.100   1.421
 9417SOL     OW29149   2.329   6.563   4.585
 9417SOL    HW129150   2.337   6.547   4.487
 9417SOL    HW229151   2.241   6.528   4.617
 9418SOL     OW29152   3.639   4.485   0.911
 9418SOL    HW129153   3.564   4.446   0.857
 9418SOL    HW229154   3.668   4.420   0.981
 9419SOL     OW29155   4.056   5.834   5.059
 9419SOL    HW129156   4.122   5.760   5.072
 9419SOL    HW229157   4.031   5.872   5.148
 9420SOL     OW29158   0.890   1.590   4.523
 9420SOL    HW129159   0.971   1.549   4.564
 9420SOL    HW229160   0.879   1.557   4.430
 9421SOL     OW29161   1.884   5.007   4.478
 9421SOL    HW129162   1.911   4.915   4.506
 9421SOL    HW229163   1.960   5.070   4.495
 9422SOL     OW29164   3.898   1.477   1.801
 9422SOL    HW129165   3.938   1.457   1.891
 9422SOL    HW229166   3.849   1.564   1.805
 9423SOL     OW29167   4.577   0.732   4.536
 9423SOL    HW129168   4.569   0.668   4.612
 9423SOL    HW229169   4.559   0.825   4.570
 9424SOL     OW29170   3.113   6.333   4.400
 9424SOL    HW129171   3.029   6.314   4.451
 9424SOL    HW229172   3.191   6.295   4.449
 9425SOL     OW29173   1.315   4.383   3.762
 9425SOL    HW129174   1.329   4.373   3.861
 9425SOL    HW229175   1.403   4.376   3.716
 9426SOL     OW29176   3.278   6.384   0.199
 9426SOL    HW129177   3.318   6.371   0.108
 9426SOL    HW229178   3.264   6.295   0.242
 9427SOL     OW29179   2.840   4.837   4.053
 9427SOL    HW129180   2.918   4.799   4.102
 9427SOL    HW229181   2.755   4.810   4.099
 9428SOL     OW29182   4.355   6.273   2.456
 9428SOL    HW129183   4.374   6.182   2.417
 9428SOL    HW229184   4.290   6.321   2.398
 9429SOL     OW29185   0.108   3.750   2.497
 9429SOL    HW129186   0.049   3.805   2.556
 9429SOL    HW229187   0.189   3.720   2.548
 9430SOL     OW29188   6.469   6.941   2.165
 9430SOL    HW129189   6.410   6.952   2.084
 9430SOL    HW229190   6.423   6.978   2.245
 9431SOL     OW29191   6.576   4.630   2.152
 9431SOL    HW129192   6.597   4.547   2.101
 9431SOL    HW229193   6.604   4.618   2.247
 9432SOL     OW29194   6.800   6.828   4.426
 9432SOL    HW129195   6.771   6.763   4.496
 9432SOL    HW229196   6.877   6.882   4.461
 9433SOL     OW29197   2.529   4.622   5.010
 9433SOL    HW129198   2.505   4.599   5.105
 9433SOL    HW229199   2.626   4.602   4.995
 9434SOL     OW29200   5.600   5.157   2.749
 9434SOL    HW129201   5.615   5.085   2.682
 9434SOL    HW229202   5.672   5.226   2.740
 9435SOL     OW29203   1.489   0.963   4.533
 9435SOL    HW129204   1.479   0.873   4.575
 9435SOL    HW229205   1.420   0.976   4.463
 9436SOL     OW29206   1.797   2.686   6.106
 9436SOL    HW129207   1.835   2.668   6.197
 9436SOL    HW229208   1.861   2.740   6.053
 9437SOL     OW29209   0.506   5.230   3.976
 9437SOL    HW129210   0.516   5.295   4.050
 9437SOL    HW229211   0.411   5.199   3.971
 9438SOL     OW29212   1.357   6.412   2.184
 9438SOL    HW129213   1.344   6.475   2.108
 9438SOL    HW229214   1.302   6.442   2.262
 9439SOL     OW29215   0.779   2.687   1.563
 9439SOL    HW129216   0.722   2.698   1.644
 9439SOL    HW229217   0.842   2.764   1.557
 9440SOL     OW29218   4.614   6.037   5.604
 9440SOL    HW129219   4.546   6.000   5.668
 9440SOL    HW229220   4.567   6.072   5.523
 9441SOL     OW29221   1.587   4.701   4.786
 9441SOL    HW129222   1.580   4.801   4.787
 9441SOL    HW229223   1.597   4.669   4.691
 9442SOL     OW29224   0.720   3.520   1.348
 9442SOL    HW129225   0.783   3.584   1.391
 9442SOL    HW229226   0.738   3.427   1.383
 9443SOL     OW29227   1.811   3.311   1.463
 9443SOL    HW129228   1.725   3.291   1.509
 9443SOL    HW229229   1.887   3.286   1.524
 9444SOL     OW29230   0.081   3.556   6.048
 9444SOL    HW129231   0.149   3.548   6.120
 9444SOL    HW229232   0.115   3.614   5.975
 9445SOL     OW29233   6.307   3.640   1.243
 9445SOL    HW129234   6.241   3.617   1.315
 9445SOL    HW229235   6.399   3.645   1.283
 9446SOL     OW29236   5.825   5.382   1.295
 9446SOL    HW129237   5.820   5.313   1.368
 9446SOL    HW229238   5.896   5.448   1.317
 9447SOL     OW29239   6.113   2.951   1.665
 9447SOL    HW129240   6.127   2.852   1.675
 9447SOL    HW229241   6.202   2.996   1.662
 9448SOL     OW29242   6.255   6.367   0.392
 9448SOL    HW129243   6.284   6.319   0.309
 9448SOL    HW229244   6.303   6.455   0.397
 9449SOL     OW29245   6.960   5.406   5.224
 9449SOL    HW129246   6.990   5.361   5.139
 9449SOL    HW229247   6.875   5.365   5.256
 9450SOL     OW29248   2.596   5.039   4.281
 9450SOL    HW129249   2.638   4.949   4.268
 9450SOL    HW229250   2.667   5.107   4.300
 9451SOL     OW29251   4.091   4.387   5.972
 9451SOL    HW129252   4.029   4.410   6.047
 9451SOL    HW229253   4.038   4.371   5.889
 9452SOL     OW29254   3.067   4.247   1.306
 9452SOL    HW129255   2.993   4.183   1.324
 9452SOL    HW229256   3.029   4.336   1.282
 9453SOL     OW29257   3.375   4.940   2.072
 9453SOL    HW129258   3.303   4.947   2.003
 9453SOL    HW229259   3.431   4.860   2.054
 9454SOL     OW29260   2.311   2.622   5.079
 9454SOL    HW129261   2.408   2.634   5.099
 9454SOL    HW229262   2.296   2.531   5.040
 9455SOL     OW29263   3.333   1.545   2.359
 9455SOL    HW129264   3.322   1.611   2.285
 9455SOL    HW229265   3.386   1.467   2.328
 9456SOL     OW29266   1.811   2.977   1.034
 9456SOL    HW129267   1.786   3.026   1.118
 9456SOL    HW229268   1.728   2.946   0.987
 9457SOL     OW29269   0.059   3.262   0.584
 9457SOL    HW129270   0.036   3.356   0.556
 9457SOL    HW229271   0.158   3.249   0.577
 9458SOL     OW29272   0.207   5.988   4.539
 9458SOL    HW129273   0.172   6.065   4.486
 9458SOL    HW229274   0.231   5.913   4.478
 9459SOL     OW29275   4.615   5.823   1.744
 9459SOL    HW129276   4.664   5.821   1.656
 9459SOL    HW229277   4.563   5.908   1.751
 9460SOL     OW29278   0.481   2.085   5.113
 9460SOL    HW129279   0.467   2.159   5.178
 9460SOL    HW229280   0.573   2.091   5.075
 9461SOL     OW29281   1.429   0.544   3.337
 9461SOL    HW129282   1.338   0.562   3.300
 9461SOL    HW229283   1.421   0.483   3.416
 9462SOL     OW29284   0.656   3.209   2.837
 9462SOL    HW129285   0.707   3.182   2.919
 9462SOL    HW229286   0.714   3.196   2.756
 9463SOL     OW29287   5.281   1.505   0.373
 9463SOL    HW129288   5.272   1.409   0.349
 9463SOL    HW229289   5.190   1.547   0.377
 9464SOL     OW29290   4.811   0.096   6.109
 9464SOL    HW129291   4.758   0.079   6.192
 9464SOL    HW229292   4.830   0.008   6.064
 9465SOL     OW29293   5.763   0.529   4.595
 9465SOL    HW129294   5.769   0.557   4.691
 9465SOL    HW229295   5.669   0.538   4.563
 9466SOL     OW29296   2.544   2.206   6.695
 9466SOL    HW129297   2.456   2.159   6.689
 9466SOL    HW229298   2.569   2.218   6.791
 9467SOL     OW29299   1.968   3.394   2.000
 9467SOL    HW129300   2.065   3.411   1.983
 9467SOL    HW229301   1.922   3.481   2.022
 9468SOL     OW29302   6.924   2.413   6.047
 9468SOL    HW129303   6.975   2.373   5.970
 9468SOL    HW229304   6.957   2.372   6.132
 9469SOL     OW29305   6.407   4.279   2.296
 9469SOL    HW129306   6.316   4.295   2.257
 9469SOL    HW229307   6.411   4.186   2.334
 9470SOL     OW29308   5.064   3.991   0.987
 9470SOL    HW129309   5.012   3.912   0.955
 9470SOL    HW229310   5.137   4.011   0.922
 9471SOL     OW29311   6.716   2.247   6.308
 9471SOL    HW129312   6.666   2.220   6.225
 9471SOL    HW229313   6.685   2.338   6.337
 9472SOL     OW29314   6.864   3.618   4.656
 9472SOL    HW129315   6.903   3.566   4.580
 9472SOL    HW229316   6.777   3.658   4.627
 9473SOL     OW29317   3.689   5.184   4.761
 9473SOL    HW129318   3.618   5.114   4.767
 9473SOL    HW229319   3.658   5.258   4.701
 9474SOL     OW29320   4.108   5.432   2.632
 9474SOL    HW129321   4.100   5.372   2.553
 9474SOL    HW229322   4.055   5.394   2.708
 9475SOL     OW29323   1.426   3.691   1.343
 9475SOL    HW129324   1.424   3.791   1.353
 9475SOL    HW229325   1.505   3.654   1.391
 9476SOL     OW29326   3.673   3.619   5.536
 9476SOL    HW129327   3.711   3.583   5.621
 9476SOL    HW229328   3.710   3.711   5.519
 9477SOL     OW29329   1.213   3.243   0.844
 9477SOL    HW129330   1.176   3.215   0.932
 9477SOL    HW229331   1.300   3.292   0.859
 9478SOL     OW29332   5.317   4.827   5.203
 9478SOL    HW129333   5.364   4.915   5.201
 9478SOL    HW229334   5.367   4.764   5.262
 9479SOL     OW29335   6.816   5.993   5.627
 9479SOL    HW129336   6.846   5.956   5.539
 9479SOL    HW229337   6.886   5.976   5.696
 9480SOL     OW29338   6.106   4.829   0.336
 9480SOL    HW129339   6.016   4.795   0.362
 9480SOL    HW229340   6.111   4.841   0.237
 9481SOL     OW29341   6.774   3.429   2.150
 9481SOL    HW129342   6.783   3.372   2.232
 9481SOL    HW229343   6.834   3.508   2.158
 9482SOL     OW29344   3.664   0.564   2.683
 9482SOL    HW129345   3.708   0.576   2.772
 9482SOL    HW229346   3.647   0.654   2.641
 9483SOL     OW29347   1.662   1.831   6.984
 9483SOL    HW129348   1.596   1.810   0.041
 9483SOL    HW229349   1.626   1.799   6.896
 9484SOL     OW29350   6.583   1.474   2.851
 9484SOL    HW129351   6.650   1.421   2.904
 9484SOL    HW229352   6.496   1.476   2.900
 9485SOL     OW29353   1.174   0.584   3.209
 9485SOL    HW129354   1.122   0.571   3.124
 9485SOL    HW229355   1.173   0.680   3.235
 9486SOL     OW29356   3.315   6.141   1.882
 9486SOL    HW129357   3.383   6.085   1.835
 9486SOL    HW229358   3.303   6.109   1.976
 9487SOL     OW29359   3.098   3.059   3.642
 9487SOL    HW129360   3.137   3.147   3.615
 9487SOL    HW229361   3.165   3.007   3.695
 9488SOL     OW29362   1.463   0.313   1.336
 9488SOL    HW129363   1.466   0.335   1.239
 9488SOL    HW229364   1.465   0.214   1.348
 9489SOL     OW29365   3.666   4.011   0.283
 9489SOL    HW129366   3.701   4.009   0.189
 9489SOL    HW229367   3.710   3.939   0.336
 9490SOL     OW29368   5.136   1.108   0.488
 9490SOL    HW129369   5.133   1.167   0.407
 9490SOL    HW229370   5.215   1.133   0.544
 9491SOL     OW29371   6.281   5.389   6.382
 9491SOL    HW129372   6.261   5.345   6.294
 9491SOL    HW229373   6.379   5.380   6.401
 9492SOL     OW29374   2.963   3.828   2.099
 9492SOL    HW129375   2.894   3.893   2.131
 9492SOL    HW229376   3.053   3.857   2.131
 9493SOL     OW29377   4.973   6.183   3.236
 9493SOL    HW129378   4.986   6.116   3.309
 9493SOL    HW229379   5.030   6.264   3.255
 9494SOL     OW29380   4.298   3.413   5.387
 9494SOL    HW129381   4.385   3.462   5.379
 9494SOL    HW229382   4.314   3.323   5.427
 9495SOL     OW29383   5.790   2.833   5.400
 9495SOL    HW129384   5.837   2.910   5.357
 9495SOL    HW229385   5.697   2.825   5.363
 9496SOL     OW29386   5.642   3.916   0.459
 9496SOL    HW129387   5.724   3.912   0.401
 9496SOL    HW229388   5.637   3.833   0.514
 9497SOL     OW29389   0.002   6.287   5.690
 9497SOL    HW129390   0.072   6.282   5.761
 9497SOL    HW229391   7.003   6.382   5.662
 9498SOL     OW29392   4.346   0.206   5.704
 9498SOL    HW129393   4.445   0.194   5.704
 9498SOL    HW229394   4.325   0.303   5.719
 9499SOL     OW29395   4.338   4.454   5.931
 9499SOL    HW129396   4.246   4.431   5.965
 9499SOL    HW229397   4.367   4.384   5.866
 9500SOL     OW29398   5.042   5.800   1.723
 9500SOL    HW129399   5.050   5.719   1.782
 9500SOL    HW229400   5.023   5.880   1.780
 9501SOL     OW29401   2.983   1.788   4.507
 9501SOL    HW129402   2.903   1.848   4.505
 9501SOL    HW229403   2.999   1.756   4.600
 9502SOL     OW29404   5.637   3.290   5.486
 9502SOL    HW129405   5.648   3.293   5.586
 9502SOL    HW229406   5.600   3.201   5.460
 9503SOL     OW29407   1.533   6.535   0.886
 9503SOL    HW129408   1.492   6.564   0.973
 9503SOL    HW229409   1.618   6.485   0.905
 9504SOL     OW29410   0.833   3.115   6.636
 9504SOL    HW129411   0.754   3.129   6.577
 9504SOL    HW229412   0.917   3.126   6.582
 9505SOL     OW29413   5.673   3.310   2.687
 9505SOL    HW129414   5.698   3.405   2.670
 9505SOL    HW229415   5.591   3.287   2.634
 9506SOL     OW29416   6.250   3.454   0.309
 9506SOL    HW129417   6.315   3.430   0.381
 9506SOL    HW229418   6.298   3.505   0.237
 9507SOL     OW29419   1.241   2.269   3.849
 9507SOL    HW129420   1.178   2.297   3.777
 9507SOL    HW229421   1.301   2.197   3.815
 9508SOL     OW29422   5.171   1.983   0.709
 9508SOL    HW129423   5.175   2.071   0.661
 9508SOL    HW229424   5.195   1.997   0.806
 9509SOL     OW29425   2.567   6.617   5.332
 9509SOL    HW129426   2.593   6.571   5.417
 9509SOL    HW229427   2.616   6.703   5.325
 9510SOL     OW29428   6.109   4.612   3.449
 9510SOL    HW129429   6.076   4.567   3.366
 9510SOL    HW229430   6.174   4.553   3.496
 9511SOL     OW29431   1.080   1.273   0.643
 9511SOL    HW129432   1.072   1.371   0.659
 9511SOL    HW229433   1.142   1.233   0.711
 9512SOL     OW29434   1.451   2.420   4.209
 9512SOL    HW129435   1.463   2.507   4.256
 9512SOL    HW229436   1.381   2.430   4.138
 9513SOL     OW29437   2.280   4.421   3.646
 9513SOL    HW129438   2.259   4.476   3.566
 9513SOL    HW229439   2.269   4.324   3.624
 9514SOL     OW29440   2.289   2.979   6.187
 9514SOL    HW129441   2.243   2.970   6.276
 9514SOL    HW229442   2.342   3.063   6.185
 9515SOL     OW29443   2.445   5.744   6.096
 9515SOL    HW129444   2.350   5.728   6.069
 9515SOL    HW229445   2.487   5.810   6.033
 9516SOL     OW29446   5.200   3.517   4.683
 9516SOL    HW129447   5.205   3.604   4.731
 9516SOL    HW229448   5.173   3.532   4.588
 9517SOL     OW29449   0.514   5.695   2.353
 9517SOL    HW129450   0.425   5.730   2.321
 9517SOL    HW229451   0.549   5.629   2.287
 9518SOL     OW29452   0.684   2.507   5.543
 9518SOL    HW129453   0.596   2.533   5.503
 9518SOL    HW229454   0.733   2.590   5.571
 9519SOL     OW29455   3.527   3.228   3.252
 9519SOL    HW129456   3.535   3.129   3.264
 9519SOL    HW229457   3.597   3.273   3.307
 9520SOL     OW29458   5.245   0.350   6.230
 9520SOL    HW129459   5.258   0.436   6.181
 9520SOL    HW229460   5.186   0.290   6.177
 9521SOL     OW29461   3.571   0.554   0.966
 9521SOL    HW129462   3.534   0.644   0.988
 9521SOL    HW229463   3.635   0.562   0.889
 9522SOL     OW29464   3.456   6.785   2.387
 9522SOL    HW129465   3.552   6.771   2.409
 9522SOL    HW229466   3.430   6.879   2.410
 9523SOL     OW29467   2.913   4.885   3.802
 9523SOL    HW129468   3.011   4.900   3.812
 9523SOL    HW229469   2.876   4.852   3.889
 9524SOL     OW29470   2.815   4.111   1.276
 9524SOL    HW129471   2.814   4.011   1.281
 9524SOL    HW229472   2.732   4.147   1.320
 9525SOL     OW29473   2.170   3.191   5.189
 9525SOL    HW129474   2.242   3.141   5.142
 9525SOL    HW229475   2.194   3.288   5.194
 9526SOL     OW29476   5.050   5.297   6.958
 9526SOL    HW129477   5.085   5.344   0.023
 9526SOL    HW229478   5.090   5.337   6.875
 9527SOL     OW29479   4.171   0.056   3.302
 9527SOL    HW129480   4.121   0.016   3.225
 9527SOL    HW229481   4.241   0.118   3.268
 9528SOL     OW29482   5.761   2.267   1.175
 9528SOL    HW129483   5.666   2.289   1.153
 9528SOL    HW229484   5.786   2.181   1.131
 9529SOL     OW29485   6.354   1.059   1.417
 9529SOL    HW129486   6.442   1.103   1.398
 9529SOL    HW229487   6.370   0.969   1.458
 9530SOL     OW29488   1.024   5.500   4.085
 9530SOL    HW129489   1.018   5.592   4.045
 9530SOL    HW229490   1.021   5.432   4.011
 9531SOL     OW29491   3.442   5.197   2.437
 9531SOL    HW129492   3.380   5.256   2.490
 9531SOL    HW229493   3.388   5.140   2.375
 9532SOL     OW29494   6.498   4.987   3.164
 9532SOL    HW129495   6.411   5.035   3.176
 9532SOL    HW229496   6.500   4.946   3.072
 9533SOL     OW29497   1.863   4.083   3.278
 9533SOL    HW129498   1.952   4.049   3.245
 9533SOL    HW229499   1.796   4.077   3.204
 9534SOL     OW29500   5.577   4.766   4.508
 9534SOL    HW129501   5.535   4.848   4.469
 9534SOL    HW229502   5.545   4.753   4.602
 9535SOL     OW29503   0.885   1.230   5.606
 9535SOL    HW129504   0.858   1.314   5.560
 9535SOL    HW229505   0.805   1.189   5.650
 9536SOL     OW29506   3.729   4.199   5.164
 9536SOL    HW129507   3.787   4.145   5.103
 9536SOL    HW229508   3.634   4.195   5.132
 9537SOL     OW29509   0.535   1.649   3.568
 9537SOL    HW129510   0.605   1.697   3.515
 9537SOL    HW229511   0.578   1.578   3.623
 9538SOL     OW29512   4.505   0.788   5.731
 9538SOL    HW129513   4.444   0.762   5.656
 9538SOL    HW229514   4.590   0.735   5.724
 9539SOL     OW29515   3.393   3.632   2.330
 9539SOL    HW129516   3.336   3.605   2.407
 9539SOL    HW229517   3.354   3.596   2.245
 9540SOL     OW29518   4.319   4.581   3.531
 9540SOL    HW129519   4.245   4.636   3.490
 9540SOL    HW229520   4.356   4.519   3.462
 9541SOL     OW29521   2.250   5.285   5.961
 9541SOL    HW129522   2.232   5.330   6.049
 9541SOL    HW229523   2.163   5.264   5.916
 9542SOL     OW29524   6.174   3.938   4.174
 9542SOL    HW129525   6.144   3.882   4.251
 9542SOL    HW229526   6.109   3.927   4.098
 9543SOL     OW29527   2.808   0.129   5.283
 9543SOL    HW129528   2.769   0.037   5.280
 9543SOL    HW229529   2.907   0.123   5.273
 9544SOL     OW29530   5.970   3.480   4.176
 9544SOL    HW129531   6.027   3.430   4.110
 9544SOL    HW229532   6.027   3.546   4.225
 9545SOL     OW29533   0.777   4.681   1.597
 9545SOL    HW129534   0.765   4.593   1.550
 9545SOL    HW229535   0.870   4.686   1.633
 9546SOL     OW29536   2.601   2.645   6.918
 9546SOL    HW129537   2.638   2.573   6.859
 9546SOL    HW229538   2.638   2.636   7.010
 9547SOL     OW29539   4.148   6.462   4.121
 9547SOL    HW129540   4.071   6.519   4.150
 9547SOL    HW229541   4.164   6.474   4.023
 9548SOL     OW29542   1.549   4.805   0.073
 9548SOL    HW129543   1.530   4.783   6.993
 9548SOL    HW229544   1.616   4.740   0.110
 9549SOL     OW29545   4.973   2.768   1.071
 9549SOL    HW129546   4.939   2.736   1.160
 9549SOL    HW229547   4.913   2.732   0.999
 9550SOL     OW29548   5.429   3.083   1.557
 9550SOL    HW129549   5.525   3.060   1.575
 9550SOL    HW229550   5.425   3.165   1.500
 9551SOL     OW29551   6.489   3.201   6.351
 9551SOL    HW129552   6.547   3.270   6.308
 9551SOL    HW229553   6.543   3.120   6.371
 9552SOL     OW29554   2.838   1.991   6.793
 9552SOL    HW129555   2.772   1.958   6.861
 9552SOL    HW229556   2.800   2.070   6.745
 9553SOL     OW29557   5.244   1.357   6.759
 9553SOL    HW129558   5.249   1.388   6.664
 9553SOL    HW229559   5.153   1.320   6.777
 9554SOL     OW29560   2.754   6.738   3.846
 9554SOL    HW129561   2.824   6.806   3.866
 9554SOL    HW229562   2.664   6.781   3.850
 9555SOL     OW29563   6.428   0.524   3.584
 9555SOL    HW129564   6.521   0.542   3.553
 9555SOL    HW229565   6.377   0.476   3.511
 9556SOL     OW29566   2.062   4.359   6.831
 9556SOL    HW129567   2.016   4.431   6.884
 9556SOL    HW229568   2.102   4.292   6.894
 9557SOL     OW29569   4.988   0.983   1.753
 9557SOL    HW129570   5.024   0.890   1.751
 9557SOL    HW229571   5.042   1.037   1.818
 9558SOL     OW29572   4.688   6.732   6.515
 9558SOL    HW129573   4.606   6.784   6.493
 9558SOL    HW229574   4.717   6.680   6.435
 9559SOL     OW29575   1.415   3.901   0.075
 9559SOL    HW129576   1.367   3.816   0.096
 9559SOL    HW229577   1.416   3.916   6.992
 9560SOL     OW29578   3.312   6.813   1.933
 9560SOL    HW129579   3.373   6.772   2.000
 9560SOL    HW229580   3.260   6.887   1.976
 9561SOL     OW29581   0.711   0.440   0.682
 9561SOL    HW129582   0.724   0.447   0.781
 9561SOL    HW229583   0.779   0.377   0.644
 9562SOL     OW29584   3.184   5.887   3.287
 9562SOL    HW129585   3.114   5.851   3.347
 9562SOL    HW229586   3.185   5.835   3.201
 9563SOL     OW29587   0.384   6.454   1.287
 9563SOL    HW129588   0.384   6.546   1.327
 9563SOL    HW229589   0.411   6.459   1.191
 9564SOL     OW29590   1.017   0.634   0.054
 9564SOL    HW129591   1.072   0.584   7.002
 9564SOL    HW229592   1.027   0.732   0.039
 9565SOL     OW29593   3.144   1.603   3.586
 9565SOL    HW129594   3.241   1.597   3.608
 9565SOL    HW229595   3.128   1.559   3.497
 9566SOL     OW29596   3.287   0.725   0.190
 9566SOL    HW129597   3.350   0.797   0.161
 9566SOL    HW229598   3.256   0.743   0.283
 9567SOL     OW29599   6.603   3.996   1.152
 9567SOL    HW129600   6.602   3.897   1.142
 9567SOL    HW229601   6.561   4.038   1.072
 9568SOL     OW29602   4.822   1.552   0.135
 9568SOL    HW129603   4.901   1.505   0.095
 9568SOL    HW229604   4.744   1.489   0.138
 9569SOL     OW29605   5.848   0.996   1.992
 9569SOL    HW129606   5.944   0.969   1.995
 9569SOL    HW229607   5.810   0.973   1.902
 9570SOL     OW29608   0.503   3.091   1.432
 9570SOL    HW129609   0.470   2.997   1.444
 9570SOL    HW229610   0.549   3.121   1.515
 9571SOL     OW29611   2.291   2.135   6.653
 9571SOL    HW129612   2.229   2.075   6.704
 9571SOL    HW229613   2.239   2.211   6.614
 9572SOL     OW29614   2.214   4.133   3.708
 9572SOL    HW129615   2.252   4.165   3.794
 9572SOL    HW229616   2.115   4.151   3.706
 9573SOL     OW29617   6.158   1.110   4.462
 9573SOL    HW129618   6.135   1.140   4.369
 9573SOL    HW229619   6.151   1.011   4.468
 9574SOL     OW29620   3.448   3.197   1.259
 9574SOL    HW129621   3.527   3.195   1.320
 9574SOL    HW229622   3.370   3.153   1.304
 9575SOL     OW29623   6.092   6.498   1.457
 9575SOL    HW129624   6.142   6.577   1.425
 9575SOL    HW229625   6.083   6.502   1.557
 9576SOL     OW29626   0.613   6.448   0.197
 9576SOL    HW129627   0.528   6.395   0.190
 9576SOL    HW229628   0.688   6.396   0.157
 9577SOL     OW29629   6.250   5.254   2.271
 9577SOL    HW129630   6.189   5.320   2.314
 9577SOL    HW229631   6.272   5.182   2.337
 9578SOL     OW29632   2.125   2.911   3.185
 9578SOL    HW129633   2.066   2.955   3.253
 9578SOL    HW229634   2.154   2.979   3.118
 9579SOL     OW29635   5.654   5.953   1.918
 9579SOL    HW129636   5.620   6.000   1.999
 9579SOL    HW229637   5.727   5.890   1.944
 9580SOL     OW29638   5.332   4.691   2.654
 9580SOL    HW129639   5.260   4.674   2.587
 9580SOL    HW229640   5.382   4.606   2.672
 9581SOL     OW29641   6.285   1.294   0.074
 9581SOL    HW129642   6.315   1.199   0.086
 9581SOL    HW229643   6.361   1.356   0.095
 9582SOL     OW29644   4.907   6.211   4.393
 9582SOL    HW129645   4.848   6.281   4.354
 9582SOL    HW229646   5.000   6.247   4.401
 9583SOL     OW29647   3.556   4.380   1.719
 9583SOL    HW129648   3.552   4.466   1.769
 9583SOL    HW229649   3.540   4.304   1.783
 9584SOL     OW29650   2.000   5.642   4.916
 9584SOL    HW129651   2.079   5.629   4.976
 9584SOL    HW229652   1.919   5.661   4.972
 9585SOL     OW29653   4.050   5.740   0.996
 9585SOL    HW129654   4.127   5.677   1.008
 9585SOL    HW229655   4.055   5.781   0.905
 9586SOL     OW29656   4.491   5.144   2.217
 9586SOL    HW129657   4.406   5.193   2.202
 9586SOL    HW229658   4.480   5.048   2.191
 9587SOL     OW29659   2.940   5.940   1.698
 9587SOL    HW129660   2.976   5.971   1.610
 9587SOL    HW229661   2.931   6.018   1.759
 9588SOL     OW29662   6.152   5.349   0.398
 9588SOL    HW129663   6.154   5.256   0.361
 9588SOL    HW229664   6.080   5.401   0.351
 9589SOL     OW29665   1.816   3.761   6.264
 9589SOL    HW129666   1.782   3.674   6.229
 9589SOL    HW229667   1.862   3.811   6.191
 9590SOL     OW29668   5.614   1.700   1.563
 9590SOL    HW129669   5.699   1.741   1.530
 9590SOL    HW229670   5.608   1.711   1.662
 9591SOL     OW29671   3.697   0.563   6.832
 9591SOL    HW129672   3.717   0.471   6.864
 9591SOL    HW229673   3.706   0.566   6.733
 9592SOL     OW29674   2.493   5.318   5.827
 9592SOL    HW129675   2.406   5.313   5.875
 9592SOL    HW229676   2.519   5.227   5.796
 9593SOL     OW29677   1.888   1.540   4.603
 9593SOL    HW129678   1.977   1.586   4.596
 9593SOL    HW229679   1.819   1.593   4.553
 9594SOL     OW29680   0.400   6.266   3.908
 9594SOL    HW129681   0.455   6.309   3.837
 9594SOL    HW229682   0.312   6.314   3.916
 9595SOL     OW29683   0.499   3.208   3.653
 9595SOL    HW129684   0.517   3.171   3.562
 9595SOL    HW229685   0.418   3.267   3.649
 9596SOL     OW29686   0.310   6.940   1.178
 9596SOL    HW129687   0.374   6.973   1.108
 9596SOL    HW229688   0.219   6.929   1.138
 9597SOL     OW29689   0.687   3.653   2.328
 9597SOL    HW129690   0.672   3.605   2.242
 9597SOL    HW229691   0.742   3.597   2.389
 9598SOL     OW29692   1.217   4.018   3.485
 9598SOL    HW129693   1.164   3.997   3.567
 9598SOL    HW229694   1.162   4.000   3.404
 9599SOL     OW29695   4.219   6.813   4.013
 9599SOL    HW129696   4.173   6.874   3.949
 9599SOL    HW229697   4.161   6.733   4.031
 9600SOL     OW29698   3.186   0.735   1.384
 9600SOL    HW129699   3.254   0.805   1.363
 9600SOL    HW229700   3.232   0.648   1.402
 9601SOL     OW29701   6.958   4.299   1.184
 9601SOL    HW129702   6.951   4.352   1.268
 9601SOL    HW229703   6.885   4.231   1.181
 9602SOL     OW29704   4.861   4.557   5.974
 9602SOL    HW129705   4.765   4.572   5.952
 9602SOL    HW229706   4.891   4.625   6.042
 9603SOL     OW29707   5.685   6.009   5.590
 9603SOL    HW129708   5.737   5.946   5.648
 9603SOL    HW229709   5.587   6.001   5.610
 9604SOL     OW29710   5.323   6.920   0.268
 9604SOL    HW129711   5.400   6.971   0.307
 9604SOL    HW229712   5.272   6.877   0.343
 9605SOL     OW29713   6.415   6.106   3.661
 9605SOL    HW129714   6.348   6.119   3.589
 9605SOL    HW229715   6.369   6.084   3.747
 9606SOL     OW29716   1.395   1.642   6.649
 9606SOL    HW129717   1.365   1.656   6.554
 9606SOL    HW229718   1.323   1.593   6.699
 9607SOL     OW29719   3.149   2.608   6.236
 9607SOL    HW129720   3.178   2.652   6.151
 9607SOL    HW229721   3.228   2.563   6.278
 9608SOL     OW29722   6.832   3.582   3.475
 9608SOL    HW129723   6.818   3.671   3.519
 9608SOL    HW229724   6.749   3.527   3.483
 9609SOL     OW29725   4.015   2.518   5.902
 9609SOL    HW129726   3.951   2.515   5.979
 9609SOL    HW229727   4.075   2.438   5.906
 9610SOL     OW29728   1.349   4.043   2.671
 9610SOL    HW129729   1.263   4.079   2.636
 9610SOL    HW229730   1.407   4.017   2.594
 9611SOL     OW29731   1.260   0.359   0.605
 9611SOL    HW129732   1.220   0.428   0.544
 9611SOL    HW229733   1.340   0.318   0.562
 9612SOL     OW29734   0.493   2.916   3.240
 9612SOL    HW129735   0.537   2.882   3.157
 9612SOL    HW229736   0.400   2.878   3.247
 9613SOL     OW29737   5.716   5.579   3.487
 9613SOL    HW129738   5.794   5.561   3.547
 9613SOL    HW229739   5.631   5.573   3.539
 9614SOL     OW29740   5.036   2.472   3.151
 9614SOL    HW129741   4.936   2.477   3.152
 9614SOL    HW229742   5.068   2.416   3.227
 9615SOL     OW29743   2.262   2.949   1.158
 9615SOL    HW129744   2.289   3.040   1.190
 9615SOL    HW229745   2.315   2.879   1.207
 9616SOL     OW29746   3.834   2.726   7.000
 9616SOL    HW129747   3.914   2.718   6.941
 9616SOL    HW229748   3.831   2.649   0.048
 9617SOL     OW29749   2.309   2.402   4.026
 9617SOL    HW129750   2.295   2.405   4.125
 9617SOL    HW229751   2.358   2.318   4.002
 9618SOL     OW29752   2.819   0.976   0.710
 9618SOL    HW129753   2.787   1.059   0.756
 9618SOL    HW229754   2.774   0.967   0.622
 9619SOL     OW29755   2.468   0.935   4.759
 9619SOL    HW129756   2.557   0.892   4.772
 9619SOL    HW229757   2.411   0.919   4.840
 9620SOL     OW29758   5.613   0.029   5.541
 9620SOL    HW129759   5.651   0.066   5.457
 9620SOL    HW229760   5.528   6.996   5.521
 9621SOL     OW29761   1.747   2.590   3.114
 9621SOL    HW129762   1.812   2.575   3.188
 9621SOL    HW229763   1.781   2.662   3.054
 9622SOL     OW29764   5.910   0.340   1.587
 9622SOL    HW129765   5.986   0.282   1.616
 9622SOL    HW229766   5.896   0.329   1.488
 9623SOL     OW29767   3.338   3.836   6.445
 9623SOL    HW129768   3.318   3.760   6.383
 9623SOL    HW229769   3.345   3.802   6.539
 9624SOL     OW29770   5.963   3.150   3.131
 9624SOL    HW129771   6.050   3.186   3.163
 9624SOL    HW229772   5.889   3.210   3.160
 9625SOL     OW29773   5.987   5.946   0.038
 9625SOL    HW129774   5.984   5.871   6.987
 9625SOL    HW229775   5.986   6.033   7.004
 9626SOL     OW29776   3.627   6.662   6.477
 9626SOL    HW129777   3.596   6.726   6.547
 9626SOL    HW229778   3.670   6.583   6.520
 9627SOL     OW29779   1.353   6.521   6.779
 9627SOL    HW129780   1.281   6.492   6.716
 9627SOL    HW229781   1.330   6.609   6.819
 9628SOL     OW29782   4.066   6.068   1.894
 9628SOL    HW129783   4.064   6.082   1.795
 9628SOL    HW229784   3.980   6.029   1.924
 9629SOL     OW29785   2.694   6.611   1.021
 9629SOL    HW129786   2.690   6.637   0.924
 9629SOL    HW229787   2.601   6.607   1.058
 9630SOL     OW29788   6.086   1.056   5.817
 9630SOL    HW129789   6.014   1.124   5.802
 9630SOL    HW229790   6.047   0.964   5.813
 9631SOL     OW29791   5.966   5.751   6.849
 9631SOL    HW129792   5.917   5.795   6.774
 9631SOL    HW229793   5.943   5.653   6.850
 9632SOL     OW29794   1.669   6.413   1.923
 9632SOL    HW129795   1.606   6.371   1.988
 9632SOL    HW229796   1.761   6.374   1.935
 9633SOL     OW29797   6.506   5.355   6.651
 9633SOL    HW129798   6.574   5.397   6.711
 9633SOL    HW229799   6.418   5.400   6.664
 9634SOL     OW29800   0.906   6.137   4.653
 9634SOL    HW129801   0.979   6.103   4.713
 9634SOL    HW229802   0.825   6.078   4.662
 9635SOL     OW29803   2.049   5.201   5.361
 9635SOL    HW129804   2.037   5.282   5.419
 9635SOL    HW229805   2.142   5.200   5.324
 9636SOL     OW29806   4.258   1.527   6.296
 9636SOL    HW129807   4.164   1.498   6.311
 9636SOL    HW229808   4.302   1.541   6.385
 9637SOL     OW29809   2.127   1.699   6.772
 9637SOL    HW129810   2.080   1.632   6.830
 9637SOL    HW229811   2.063   1.733   6.703
 9638SOL     OW29812   6.425   2.106   5.336
 9638SOL    HW129813   6.425   2.006   5.335
 9638SOL    HW229814   6.373   2.141   5.258
 9639SOL     OW29815   4.220   1.034   2.557
 9639SOL    HW129816   4.237   1.042   2.459
 9639SOL    HW229817   4.304   1.054   2.607
 9640SOL     OW29818   2.142   2.160   1.990
 9640SOL    HW129819   2.238   2.185   1.999
 9640SOL    HW229820   2.131   2.101   1.909
 9641SOL     OW29821   6.258   5.888   0.318
 9641SOL    HW129822   6.159   5.878   0.306
 9641SOL    HW229823   6.303   5.871   0.231
 9642SOL     OW29824   3.426   0.188   4.157
 9642SOL    HW129825   3.412   0.287   4.152
 9642SOL    HW229826   3.435   0.151   4.065
 9643SOL     OW29827   4.396   4.618   3.770
 9643SOL    HW129828   4.317   4.643   3.827
 9643SOL    HW229829   4.367   4.611   3.675
 9644SOL     OW29830   2.282   1.724   6.158
 9644SOL    HW129831   2.256   1.821   6.167
 9644SOL    HW229832   2.352   1.702   6.226
 9645SOL     OW29833   3.121   5.339   5.247
 9645SOL    HW129834   3.034   5.348   5.297
 9645SOL    HW229835   3.118   5.257   5.191
 9646SOL     OW29836   4.627   4.671   3.048
 9646SOL    HW129837   4.720   4.635   3.050
 9646SOL    HW229838   4.565   4.607   3.094
 9647SOL     OW29839   6.470   3.247   0.233
 9647SOL    HW129840   6.394   3.186   0.210
 9647SOL    HW229841   6.449   3.297   0.317
 9648SOL     OW29842   4.563   2.906   1.138
 9648SOL    HW129843   4.637   2.962   1.176
 9648SOL    HW229844   4.479   2.961   1.132
 9649SOL     OW29845   2.025   5.908   0.689
 9649SOL    HW129846   1.953   5.861   0.638
 9649SOL    HW229847   2.053   5.990   0.638
 9650SOL     OW29848   6.769   6.621   1.923
 9650SOL    HW129849   6.720   6.658   1.845
 9650SOL    HW229850   6.830   6.547   1.892
 9651SOL     OW29851   0.263   1.826   5.612
 9651SOL    HW129852   0.210   1.777   5.681
 9651SOL    HW229853   0.336   1.878   5.656
 9652SOL     OW29854   0.773   5.942   3.251
 9652SOL    HW129855   0.720   5.992   3.182
 9652SOL    HW229856   0.712   5.882   3.303
 9653SOL     OW29857   6.163   5.116   4.453
 9653SOL    HW129858   6.148   5.019   4.471
 9653SOL    HW229859   6.147   5.168   4.537
 9654SOL     OW29860   2.271   2.827   2.269
 9654SOL    HW129861   2.254   2.728   2.261
 9654SOL    HW229862   2.356   2.841   2.320
 9655SOL     OW29863   6.334   2.915   6.636
 9655SOL    HW129864   6.266   2.886   6.569
 9655SOL    HW229865   6.424   2.923   6.591
 9656SOL     OW29866   3.500   1.015   2.703
 9656SOL    HW129867   3.462   0.981   2.789
 9656SOL    HW229868   3.567   1.087   2.721
 9657SOL     OW29869   6.938   0.404   4.824
 9657SOL    HW129870   6.890   0.491   4.839
 9657SOL    HW229871   6.923   0.374   4.730
 9658SOL     OW29872   6.373   2.081   2.840
 9658SOL    HW129873   6.456   2.136   2.853
 9658SOL    HW229874   6.294   2.132   2.875
 9659SOL     OW29875   0.581   5.168   6.811
 9659SOL    HW129876   0.559   5.083   6.859
 9659SOL    HW229877   0.560   5.158   6.714
 9660SOL     OW29878   0.661   5.484   0.205
 9660SOL    HW129879   0.616   5.437   0.129
 9660SOL    HW229880   0.619   5.573   0.219
 9661SOL     OW29881   4.338   6.706   1.079
 9661SOL    HW129882   4.354   6.636   1.009
 9661SOL    HW229883   4.250   6.690   1.124
 9662SOL     OW29884   5.335   0.774   4.285
 9662SOL    HW129885   5.426   0.768   4.326
 9662SOL    HW229886   5.268   0.794   4.357
 9663SOL     OW29887   2.520   5.569   2.388
 9663SOL    HW129888   2.494   5.555   2.293
 9663SOL    HW229889   2.444   5.544   2.448
 9664SOL     OW29890   2.627   6.168   1.654
 9664SOL    HW129891   2.670   6.253   1.625
 9664SOL    HW229892   2.676   6.131   1.733
 9665SOL     OW29893   5.030   4.130   4.661
 9665SOL    HW129894   4.984   4.217   4.645
 9665SOL    HW229895   4.966   4.064   4.700
 9666SOL     OW29896   6.042   4.686   4.325
 9666SOL    HW129897   5.946   4.661   4.310
 9666SOL    HW229898   6.101   4.620   4.280
 9667SOL     OW29899   4.151   3.548   3.695
 9667SOL    HW129900   4.160   3.550   3.596
 9667SOL    HW229901   4.058   3.522   3.720
 9668SOL     OW29902   0.649   1.097   5.146
 9668SOL    HW129903   0.707   1.025   5.107
 9668SOL    HW229904   0.644   1.086   5.245
 9669SOL     OW29905   1.872   5.716   0.559
 9669SOL    HW129906   1.928   5.647   0.513
 9669SOL    HW229907   1.857   5.688   0.654
 9670SOL     OW29908   5.528   4.911   0.589
 9670SOL    HW129909   5.430   4.912   0.570
 9670SOL    HW229910   5.568   4.828   0.550
 9671SOL     OW29911   0.131   6.958   6.263
 9671SOL    HW129912   0.058   6.891   6.272
 9671SOL    HW229913   0.219   6.912   6.275
 9672SOL     OW29914   0.918   6.792   5.028
 9672SOL    HW129915   0.895   6.722   5.096
 9672SOL    HW229916   0.839   6.806   4.967
 9673SOL     OW29917   2.693   3.149   6.300
 9673SOL    HW129918   2.626   3.116   6.234
 9673SOL    HW229919   2.776   3.179   6.253
 9674SOL     OW29920   3.065   6.863   2.278
 9674SOL    HW129921   3.086   6.915   2.195
 9674SOL    HW229922   2.977   6.893   2.314
 9675SOL     OW29923   6.909   2.479   2.369
 9675SOL    HW129924   6.990   2.428   2.399
 9675SOL    HW229925   6.886   2.454   2.275
 9676SOL     OW29926   0.419   3.673   4.650
 9676SOL    HW129927   0.329   3.631   4.661
 9676SOL    HW229928   0.469   3.626   4.577
 9677SOL     OW29929   2.156   3.516   4.937
 9677SOL    HW129930   2.210   3.438   4.905
 9677SOL    HW229931   2.080   3.483   4.993
 9678SOL     OW29932   2.947   3.212   2.980
 9678SOL    HW129933   2.873   3.147   2.997
 9678SOL    HW229934   2.969   3.211   2.882
 9679SOL     OW29935   0.881   3.278   1.480
 9679SOL    HW129936   0.860   3.213   1.407
 9679SOL    HW229937   0.977   3.305   1.474
 9680SOL     OW29938   6.002   5.161   3.818
 9680SOL    HW129939   5.944   5.112   3.752
 9680SOL    HW229940   6.097   5.157   3.788
 9681SOL     OW29941   1.450   0.954   3.348
 9681SOL    HW129942   1.352   0.970   3.360
 9681SOL    HW229943   1.481   0.884   3.412
 9682SOL     OW29944   6.347   4.420   3.029
 9682SOL    HW129945   6.302   4.479   2.963
 9682SOL    HW229946   6.340   4.460   3.121
 9683SOL     OW29947   4.519   6.330   6.835
 9683SOL    HW129948   4.604   6.355   6.882
 9683SOL    HW229949   4.460   6.411   6.827
 9684SOL     OW29950   1.296   4.283   4.067
 9684SOL    HW129951   1.371   4.316   4.125
 9684SOL    HW229952   1.332   4.225   3.995
 9685SOL     OW29953   1.865   2.177   0.115
 9685SOL    HW129954   1.771   2.180   0.149
 9685SOL    HW229955   1.924   2.133   0.184
 9686SOL     OW29956   5.799   0.841   1.756
 9686SOL    HW129957   5.884   0.795   1.730
 9686SOL    HW229958   5.747   0.862   1.673
 9687SOL     OW29959   3.426   6.904   3.839
 9687SOL    HW129960   3.332   6.872   3.854
 9687SOL    HW229961   3.470   6.848   3.769
 9688SOL     OW29962   0.426   1.749   3.257
 9688SOL    HW129963   0.423   1.729   3.355
 9688SOL    HW229964   0.513   1.793   3.234
 9689SOL     OW29965   2.044   5.914   5.987
 9689SOL    HW129966   2.110   5.976   5.944
 9689SOL    HW229967   1.951   5.940   5.960
 9690SOL     OW29968   6.443   4.386   1.238
 9690SOL    HW129969   6.517   4.374   1.304
 9690SOL    HW229970   6.479   4.378   1.145
 9691SOL     OW29971   1.347   4.411   1.457
 9691SOL    HW129972   1.437   4.452   1.447
 9691SOL    HW229973   1.333   4.343   1.385
 9692SOL     OW29974   2.703   5.822   0.904
 9692SOL    HW129975   2.675   5.918   0.908
 9692SOL    HW229976   2.742   5.796   0.993
 9693SOL     OW29977   5.204   5.992   1.418
 9693SOL    HW129978   5.161   5.968   1.330
 9693SOL    HW229979   5.156   5.945   1.492
 9694SOL     OW29980   2.091   2.330   0.234
 9694SOL    HW129981   2.167   2.318   0.169
 9694SOL    HW229982   2.119   2.395   0.305
 9695SOL     OW29983   6.353   4.017   1.328
 9695SOL    HW129984   6.313   3.973   1.247
 9695SOL    HW229985   6.446   4.047   1.308
 9696SOL     OW29986   4.304   3.316   1.327
 9696SOL    HW129987   4.353   3.265   1.398
 9696SOL    HW229988   4.323   3.414   1.338
 9697SOL     OW29989   0.589   6.026   0.014
 9697SOL    HW129990   0.689   6.015   0.013
 9697SOL    HW229991   0.552   5.999   6.941
 9698SOL     OW29992   5.653   1.852   5.104
 9698SOL    HW129993   5.681   1.865   5.199
 9698SOL    HW229994   5.563   1.807   5.102
 9699SOL     OW29995   1.894   3.121   0.416
 9699SOL    HW129996   1.837   3.154   0.341
 9699SOL    HW229997   1.967   3.187   0.434
 9700SOL     OW29998   3.470   4.184   4.228
 9700SOL    HW129999   3.544   4.146   4.171
 9700SOL    HW230000   3.509   4.218   4.314
 9701SOL     OW30001   5.404   4.496   4.835
 9701SOL    HW130002   5.489   4.549   4.833
 9701SOL    HW230003   5.360   4.500   4.746
 9702SOL     OW30004   4.363   0.846   0.907
 9702SOL    HW130005   4.357   0.806   0.998
 9702SOL    HW230006   4.291   0.808   0.849
 9703SOL     OW30007   2.963   6.336   3.830
 9703SOL    HW130008   3.035   6.381   3.777
 9703SOL    HW230009   2.936   6.251   3.786
 9704SOL     OW30010   2.933   0.425   3.213
 9704SOL    HW130011   2.866   0.461   3.278
 9704SOL    HW230012   3.001   0.371   3.262
 9705SOL     OW30013   3.442   3.741   0.631
 9705SOL    HW130014   3.518   3.698   0.582
 9705SOL    HW230015   3.478   3.790   0.711
 9706SOL     OW30016   5.599   2.650   2.840
 9706SOL    HW130017   5.616   2.552   2.838
 9706SOL    HW230018   5.563   2.676   2.930
 9707SOL     OW30019   2.592   5.295   2.670
 9707SOL    HW130020   2.541   5.251   2.596
 9707SOL    HW230021   2.529   5.327   2.740
 9708SOL     OW30022   2.759   1.567   2.695
 9708SOL    HW130023   2.670   1.612   2.685
 9708SOL    HW230024   2.825   1.610   2.634
 9709SOL     OW30025   1.993   5.272   2.566
 9709SOL    HW130026   2.089   5.257   2.541
 9709SOL    HW230027   1.952   5.185   2.594
 9710SOL     OW30028   0.217   0.453   3.312
 9710SOL    HW130029   0.139   0.474   3.254
 9710SOL    HW230030   0.268   0.537   3.331
 9711SOL     OW30031   0.740   4.195   5.215
 9711SOL    HW130032   0.700   4.130   5.152
 9711SOL    HW230033   0.836   4.173   5.231
 9712SOL     OW30034   4.445   2.154   4.314
 9712SOL    HW130035   4.380   2.230   4.303
 9712SOL    HW230036   4.395   2.068   4.308
 9713SOL     OW30037   6.749   4.754   2.592
 9713SOL    HW130038   6.691   4.734   2.671
 9713SOL    HW230039   6.841   4.776   2.623
 9714SOL     OW30040   1.678   1.961   1.713
 9714SOL    HW130041   1.636   1.983   1.625
 9714SOL    HW230042   1.750   1.893   1.701
 9715SOL     OW30043   5.507   5.443   4.961
 9715SOL    HW130044   5.540   5.350   4.976
 9715SOL    HW230045   5.577   5.509   4.987
 9716SOL     OW30046   4.352   1.614   6.553
 9716SOL    HW130047   4.434   1.637   6.501
 9716SOL    HW230048   4.327   1.691   6.611
 9717SOL     OW30049   5.973   4.693   4.004
 9717SOL    HW130050   5.942   4.778   3.962
 9717SOL    HW230051   5.896   4.646   4.046
 9718SOL     OW30052   4.572   3.446   1.555
 9718SOL    HW130053   4.630   3.365   1.569
 9718SOL    HW230054   4.622   3.512   1.499
 9719SOL     OW30055   0.241   1.815   0.298
 9719SOL    HW130056   0.260   1.789   0.393
 9719SOL    HW230057   0.327   1.822   0.248
 9720SOL     OW30058   0.117   0.145   2.073
 9720SOL    HW130059   0.095   0.160   1.976
 9720SOL    HW230060   0.189   0.075   2.079
 9721SOL     OW30061   6.917   3.955   2.699
 9721SOL    HW130062   6.838   3.997   2.743
 9721SOL    HW230063   6.906   3.958   2.600
 9722SOL     OW30064   0.488   0.191   3.984
 9722SOL    HW130065   0.466   0.144   3.898
 9722SOL    HW230066   0.543   0.131   4.042
 9723SOL     OW30067   7.007   1.311   3.756
 9723SOL    HW130068   6.926   1.350   3.799
 9723SOL    HW230069   0.019   1.229   3.805
 9724SOL     OW30070   3.912   2.751   1.371
 9724SOL    HW130071   4.011   2.758   1.354
 9724SOL    HW230072   3.879   2.837   1.410
 9725SOL     OW30073   4.349   3.026   5.617
 9725SOL    HW130074   4.396   3.088   5.555
 9725SOL    HW230075   4.406   2.945   5.634
 9726SOL     OW30076   5.754   6.534   5.172
 9726SOL    HW130077   5.691   6.607   5.199
 9726SOL    HW230078   5.738   6.510   5.076
 9727SOL     OW30079   1.735   2.199   5.912
 9727SOL    HW130080   1.668   2.271   5.928
 9727SOL    HW230081   1.805   2.231   5.849
 9728SOL     OW30082   3.199   5.113   6.712
 9728SOL    HW130083   3.130   5.049   6.745
 9728SOL    HW230084   3.161   5.206   6.712
 9729SOL     OW30085   3.263   5.393   2.579
 9729SOL    HW130086   3.261   5.479   2.528
 9729SOL    HW230087   3.173   5.377   2.620
 9730SOL     OW30088   6.572   3.276   3.075
 9730SOL    HW130089   6.504   3.259   3.004
 9730SOL    HW230090   6.577   3.375   3.093
 9731SOL     OW30091   4.589   5.120   0.873
 9731SOL    HW130092   4.652   5.170   0.815
 9731SOL    HW230093   4.523   5.071   0.816
 9732SOL     OW30094   6.618   5.785   3.250
 9732SOL    HW130095   6.573   5.790   3.339
 9732SOL    HW230096   6.585   5.859   3.191
 9733SOL     OW30097   5.586   4.427   6.446
 9733SOL    HW130098   5.680   4.393   6.448
 9733SOL    HW230099   5.534   4.385   6.520
 9734SOL     OW30100   5.077   2.659   5.031
 9734SOL    HW130101   5.026   2.575   5.046
 9734SOL    HW230102   5.146   2.645   4.960
 9735SOL     OW30103   1.384   3.952   0.567
 9735SOL    HW130104   1.344   3.938   0.658
 9735SOL    HW230105   1.429   3.868   0.537
 9736SOL     OW30106   3.303   1.473   0.941
 9736SOL    HW130107   3.224   1.422   0.975
 9736SOL    HW230108   3.381   1.458   1.002
 9737SOL     OW30109   4.082   2.087   5.071
 9737SOL    HW130110   4.068   2.051   5.164
 9737SOL    HW230111   4.144   2.165   5.075
 9738SOL     OW30112   1.960   0.282   2.522
 9738SOL    HW130113   2.037   0.256   2.463
 9738SOL    HW230114   1.935   0.205   2.580
 9739SOL     OW30115   5.450   4.973   1.742
 9739SOL    HW130116   5.444   4.976   1.842
 9739SOL    HW230117   5.462   4.878   1.713
 9740SOL     OW30118   6.941   4.062   3.246
 9740SOL    HW130119   6.980   3.981   3.291
 9740SOL    HW230120   6.918   4.130   3.315
 9741SOL     OW30121   4.390   2.274   1.524
 9741SOL    HW130122   4.463   2.329   1.483
 9741SOL    HW230123   4.417   2.247   1.616
 9742SOL     OW30124   4.795   1.948   4.331
 9742SOL    HW130125   4.867   2.016   4.326
 9742SOL    HW230126   4.762   1.940   4.425
 9743SOL     OW30127   1.910   2.537   5.594
 9743SOL    HW130128   1.847   2.542   5.517
 9743SOL    HW230129   1.975   2.613   5.589
 9744SOL     OW30130   1.638   0.396   1.900
 9744SOL    HW130131   1.635   0.494   1.922
 9744SOL    HW230132   1.593   0.344   1.973
 9745SOL     OW30133   0.364   1.939   4.595
 9745SOL    HW130134   0.370   1.844   4.564
 9745SOL    HW230135   0.438   1.958   4.659
 9746SOL     OW30136   5.731   1.653   4.473
 9746SOL    HW130137   5.772   1.684   4.387
 9746SOL    HW230138   5.746   1.555   4.484
 9747SOL     OW30139   0.490   0.083   6.849
 9747SOL    HW130140   0.578   0.099   6.803
 9747SOL    HW230141   0.426   0.155   6.824
 9748SOL     OW30142   6.919   6.033   4.191
 9748SOL    HW130143   6.961   6.067   4.107
 9748SOL    HW230144   6.834   6.082   4.209
 9749SOL     OW30145   0.765   4.145   4.565
 9749SOL    HW130146   0.807   4.137   4.475
 9749SOL    HW230147   0.796   4.069   4.622
 9750SOL     OW30148   4.137   4.725   3.399
 9750SOL    HW130149   4.136   4.680   3.310
 9750SOL    HW230150   4.179   4.816   3.389
 9751SOL     OW30151   1.869   2.469   0.542
 9751SOL    HW130152   1.861   2.474   0.442
 9751SOL    HW230153   1.782   2.438   0.581
 9752SOL     OW30154   3.458   1.502   5.956
 9752SOL    HW130155   3.367   1.525   5.922
 9752SOL    HW230156   3.476   1.405   5.940
 9753SOL     OW30157   6.581   6.054   5.267
 9753SOL    HW130158   6.506   6.014   5.215
 9753SOL    HW230159   6.630   5.981   5.316
 9754SOL     OW30160   6.999   2.229   6.294
 9754SOL    HW130161   6.906   2.194   6.292
 9754SOL    HW230162   0.046   2.159   6.327
 9755SOL     OW30163   4.030   4.903   5.113
 9755SOL    HW130164   3.951   4.942   5.066
 9755SOL    HW230165   4.007   4.811   5.146
 9756SOL     OW30166   6.000   2.375   5.792
 9756SOL    HW130167   6.087   2.357   5.838
 9756SOL    HW230168   5.972   2.470   5.810
 9757SOL     OW30169   6.176   2.464   3.614
 9757SOL    HW130170   6.117   2.543   3.597
 9757SOL    HW230171   6.214   2.470   3.706
 9758SOL     OW30172   2.402   0.484   0.263
 9758SOL    HW130173   2.366   0.394   0.241
 9758SOL    HW230174   2.343   0.529   0.330
 9759SOL     OW30175   3.472   6.054   1.320
 9759SOL    HW130176   3.407   5.991   1.364
 9759SOL    HW230177   3.538   6.001   1.266
 9760SOL     OW30178   5.568   4.134   6.563
 9760SOL    HW130179   5.651   4.098   6.606
 9760SOL    HW230180   5.562   4.102   6.469
 9761SOL     OW30181   5.771   5.857   2.787
 9761SOL    HW130182   5.745   5.916   2.710
 9761SOL    HW230183   5.775   5.912   2.870
 9762SOL     OW30184   2.257   1.982   3.811
 9762SOL    HW130185   2.294   1.956   3.722
 9762SOL    HW230186   2.159   2.000   3.802
 9763SOL     OW30187   2.297   1.548   1.530
 9763SOL    HW130188   2.311   1.612   1.454
 9763SOL    HW230189   2.199   1.531   1.542
 9764SOL     OW30190   1.507   2.300   1.952
 9764SOL    HW130191   1.590   2.326   1.903
 9764SOL    HW230192   1.443   2.257   1.889
 9765SOL     OW30193   6.947   1.386   5.508
 9765SOL    HW130194   6.854   1.350   5.505
 9765SOL    HW230195   6.949   1.478   5.467
 9766SOL     OW30196   2.727   0.708   2.125
 9766SOL    HW130197   2.733   0.622   2.177
 9766SOL    HW230198   2.802   0.711   2.058
 9767SOL     OW30199   4.765   0.452   5.201
 9767SOL    HW130200   4.842   0.435   5.141
 9767SOL    HW230201   4.746   0.550   5.204
 9768SOL     OW30202   4.554   2.380   2.874
 9768SOL    HW130203   4.571   2.454   2.809
 9768SOL    HW230204   4.573   2.411   2.967
 9769SOL     OW30205   0.277   2.034   1.860
 9769SOL    HW130206   0.314   1.976   1.932
 9769SOL    HW230207   0.179   2.015   1.848
 9770SOL     OW30208   6.301   4.259   6.371
 9770SOL    HW130209   6.340   4.312   6.296
 9770SOL    HW230210   6.271   4.321   6.443
 9771SOL     OW30211   3.779   5.710   5.285
 9771SOL    HW130212   3.806   5.715   5.381
 9771SOL    HW230213   3.775   5.802   5.246
 9772SOL     OW30214   6.637   0.254   2.041
 9772SOL    HW130215   6.666   0.328   1.981
 9772SOL    HW230216   6.678   0.168   2.010
 9773SOL     OW30217   5.405   5.453   3.295
 9773SOL    HW130218   5.413   5.493   3.386
 9773SOL    HW230219   5.333   5.501   3.244
 9774SOL     OW30220   6.859   4.907   3.373
 9774SOL    HW130221   6.955   4.882   3.383
 9774SOL    HW230222   6.849   4.976   3.301
 9775SOL     OW30223   2.821   2.324   5.109
 9775SOL    HW130224   2.769   2.239   5.113
 9775SOL    HW230225   2.917   2.303   5.090
 9776SOL     OW30226   0.227   5.005   4.804
 9776SOL    HW130227   0.240   4.953   4.888
 9776SOL    HW230228   0.315   5.041   4.773
 9777SOL     OW30229   5.762   4.905   6.864
 9777SOL    HW130230   5.702   4.977   6.831
 9777SOL    HW230231   5.792   4.848   6.788
 9778SOL     OW30232   4.160   0.708   3.592
 9778SOL    HW130233   4.153   0.614   3.556
 9778SOL    HW230234   4.074   0.756   3.574
 9779SOL     OW30235   2.884   2.042   6.095
 9779SOL    HW130236   2.917   2.029   6.001
 9779SOL    HW230237   2.958   2.023   6.159
 9780SOL     OW30238   3.543   4.448   0.389
 9780SOL    HW130239   3.635   4.411   0.377
 9780SOL    HW230240   3.486   4.381   0.438
 9781SOL     OW30241   1.918   5.887   3.964
 9781SOL    HW130242   2.003   5.834   3.957
 9781SOL    HW230243   1.892   5.895   4.060
 9782SOL     OW30244   6.638   0.498   1.575
 9782SOL    HW130245   6.707   0.563   1.545
 9782SOL    HW230246   6.548   0.541   1.573
 9783SOL     OW30247   5.218   1.354   2.661
 9783SOL    HW130248   5.288   1.390   2.599
 9783SOL    HW230249   5.256   1.343   2.753
 9784SOL     OW30250   5.200   0.982   4.107
 9784SOL    HW130251   5.284   0.928   4.118
 9784SOL    HW230252   5.172   1.018   4.196
 9785SOL     OW30253   1.044   2.924   0.969
 9785SOL    HW130254   1.100   3.002   0.996
 9785SOL    HW230255   1.033   2.862   1.046
 9786SOL     OW30256   2.713   6.896   5.008
 9786SOL    HW130257   2.613   6.896   5.009
 9786SOL    HW230258   2.747   6.865   5.097
 9787SOL     OW30259   5.559   4.564   1.934
 9787SOL    HW130260   5.528   4.655   1.960
 9787SOL    HW230261   5.547   4.551   1.835
 9788SOL     OW30262   0.358   1.086   5.312
 9788SOL    HW130263   0.323   1.179   5.317
 9788SOL    HW230264   0.455   1.085   5.337
 9789SOL     OW30265   1.231   6.085   4.512
 9789SOL    HW130266   1.302   6.153   4.528
 9789SOL    HW230267   1.192   6.056   4.599
 9790SOL     OW30268   6.525   1.753   4.396
 9790SOL    HW130269   6.591   1.800   4.337
 9790SOL    HW230270   6.571   1.720   4.478
 9791SOL     OW30271   1.064   2.666   1.608
 9791SOL    HW130272   1.046   2.714   1.694
 9791SOL    HW230273   0.977   2.640   1.565
 9792SOL     OW30274   4.051   5.771   1.988
 9792SOL    HW130275   3.981   5.842   1.988
 9792SOL    HW230276   4.102   5.774   1.903
 9793SOL     OW30277   5.105   5.862   2.538
 9793SOL    HW130278   5.087   5.826   2.447
 9793SOL    HW230279   5.049   5.813   2.605
 9794SOL     OW30280   3.844   3.334   6.524
 9794SOL    HW130281   3.784   3.320   6.602
 9794SOL    HW230282   3.881   3.246   6.494
 9795SOL     OW30283   2.403   4.376   4.095
 9795SOL    HW130284   2.479   4.413   4.150
 9795SOL    HW230285   2.317   4.419   4.125
 9796SOL     OW30286   3.500   4.948   0.364
 9796SOL    HW130287   3.420   4.980   0.415
 9796SOL    HW230288   3.490   4.973   0.267
 9797SOL     OW30289   4.777   2.961   4.728
 9797SOL    HW130290   4.685   2.965   4.690
 9797SOL    HW230291   4.842   2.936   4.657
 9798SOL     OW30292   2.116   1.999   1.768
 9798SOL    HW130293   2.089   1.915   1.816
 9798SOL    HW230294   2.189   1.979   1.704
 9799SOL     OW30295   3.222   3.935   2.158
 9799SOL    HW130296   3.208   3.973   2.249
 9799SOL    HW230297   3.319   3.917   2.143
 9800SOL     OW30298   3.662   4.843   0.020
 9800SOL    HW130299   3.567   4.832   0.048
 9800SOL    HW230300   3.674   4.931   6.990
 9801SOL     OW30301   4.601   5.537   6.845
 9801SOL    HW130302   4.681   5.478   6.838
 9801SOL    HW230303   4.525   5.485   6.884
 9802SOL     OW30304   0.446   4.718   1.147
 9802SOL    HW130305   0.462   4.774   1.228
 9802SOL    HW230306   0.359   4.669   1.158
 9803SOL     OW30307   5.575   0.521   6.870
 9803SOL    HW130308   5.489   0.519   6.819
 9803SOL    HW230309   5.556   0.506   6.967
 9804SOL     OW30310   6.089   5.274   4.191
 9804SOL    HW130311   6.095   5.213   4.269
 9804SOL    HW230312   6.038   5.356   4.216
 9805SOL     OW30313   3.162   4.245   1.004
 9805SOL    HW130314   3.096   4.237   0.930
 9805SOL    HW230315   3.118   4.218   1.090
 9806SOL     OW30316   6.659   2.209   2.839
 9806SOL    HW130317   6.637   2.281   2.905
 9806SOL    HW230318   6.677   2.250   2.750
 9807SOL     OW30319   3.610   2.569   0.953
 9807SOL    HW130320   3.709   2.556   0.947
 9807SOL    HW230321   3.590   2.644   1.016
 9808SOL     OW30322   1.248   1.982   5.130
 9808SOL    HW130323   1.336   1.976   5.083
 9808SOL    HW230324   1.232   2.076   5.158
 9809SOL     OW30325   0.778   0.722   4.439
 9809SOL    HW130326   0.870   0.746   4.410
 9809SOL    HW230327   0.740   0.654   4.375
 9810SOL     OW30328   3.872   1.183   3.515
 9810SOL    HW130329   3.879   1.185   3.415
 9810SOL    HW230330   3.776   1.191   3.541
 9811SOL     OW30331   1.219   6.976   2.640
 9811SOL    HW130332   1.221   0.057   2.664
 9811SOL    HW230333   1.302   6.952   2.590
 9812SOL     OW30334   5.111   2.927   5.075
 9812SOL    HW130335   5.024   2.937   5.027
 9812SOL    HW230336   5.125   2.831   5.099
 9813SOL     OW30337   6.733   4.841   0.896
 9813SOL    HW130338   6.734   4.890   0.983
 9813SOL    HW230339   6.752   4.905   0.821
 9814SOL     OW30340   6.518   1.077   5.304
 9814SOL    HW130341   6.422   1.096   5.325
 9814SOL    HW230342   6.543   0.987   5.340
 9815SOL     OW30343   6.868   4.146   3.011
 9815SOL    HW130344   6.916   4.112   3.092
 9815SOL    HW230345   6.787   4.089   2.995
 9816SOL     OW30346   6.513   0.765   6.051
 9816SOL    HW130347   6.591   0.742   6.109
 9816SOL    HW230348   6.471   0.682   6.016
 9817SOL     OW30349   2.103   0.590   0.099
 9817SOL    HW130350   2.188   0.567   0.051
 9817SOL    HW230351   2.031   0.527   0.069
 9818SOL     OW30352   0.931   6.982   3.037
 9818SOL    HW130353   0.900   6.894   3.074
 9818SOL    HW230354   0.913   0.039   3.103
 9819SOL     OW30355   6.651   2.674   4.280
 9819SOL    HW130356   6.690   2.680   4.372
 9819SOL    HW230357   6.636   2.766   4.244
 9820SOL     OW30358   3.630   2.576   5.909
 9820SOL    HW130359   3.641   2.665   5.866
 9820SOL    HW230360   3.659   2.505   5.845
 9821SOL     OW30361   3.655   2.936   1.537
 9821SOL    HW130362   3.751   2.958   1.518
 9821SOL    HW230363   3.612   3.013   1.584
 9822SOL     OW30364   3.341   6.315   4.702
 9822SOL    HW130365   3.250   6.355   4.712
 9822SOL    HW230366   3.391   6.325   4.788
 9823SOL     OW30367   3.881   6.770   3.306
 9823SOL    HW130368   3.844   6.765   3.214
 9823SOL    HW230369   3.979   6.748   3.304
 9824SOL     OW30370   1.144   6.013   5.827
 9824SOL    HW130371   1.181   5.922   5.808
 9824SOL    HW230372   1.045   6.012   5.815
 9825SOL     OW30373   0.001   6.658   5.140
 9825SOL    HW130374   0.079   6.622   5.089
 9825SOL    HW230375   6.976   6.584   5.196
 9826SOL     OW30376   2.210   5.586   5.321
 9826SOL    HW130377   2.175   5.498   5.353
 9826SOL    HW230378   2.279   5.620   5.384
 9827SOL     OW30379   1.775   4.757   1.651
 9827SOL    HW130380   1.845   4.734   1.583
 9827SOL    HW230381   1.686   4.765   1.605
 9828SOL     OW30382   4.384   1.760   4.978
 9828SOL    HW130383   4.385   1.699   5.057
 9828SOL    HW230384   4.305   1.740   4.921
 9829SOL     OW30385   4.966   5.026   5.471
 9829SOL    HW130386   5.057   5.000   5.505
 9829SOL    HW230387   4.955   4.992   5.378
 9830SOL     OW30388   5.448   1.550   3.674
 9830SOL    HW130389   5.441   1.457   3.637
 9830SOL    HW230390   5.387   1.558   3.754
 9831SOL     OW30391   0.586   4.200   2.603
 9831SOL    HW130392   0.675   4.170   2.636
 9831SOL    HW230393   0.519   4.126   2.613
 9832SOL     OW30394   4.425   5.893   4.623
 9832SOL    HW130395   4.343   5.839   4.642
 9832SOL    HW230396   4.501   5.832   4.600
 9833SOL     OW30397   3.892   3.723   3.557
 9833SOL    HW130398   3.797   3.698   3.569
 9833SOL    HW230399   3.928   3.682   3.473
 9834SOL     OW30400   2.636   6.182   5.541
 9834SOL    HW130401   2.663   6.277   5.523
 9834SOL    HW230402   2.638   6.166   5.640
 9835SOL     OW30403   4.114   3.731   4.143
 9835SOL    HW130404   4.020   3.733   4.109
 9835SOL    HW230405   4.113   3.723   4.243
 9836SOL     OW30406   6.844   3.482   5.785
 9836SOL    HW130407   6.912   3.411   5.769
 9836SOL    HW230408   6.836   3.499   5.883
 9837SOL     OW30409   5.873   1.750   3.504
 9837SOL    HW130410   5.968   1.764   3.531
 9837SOL    HW230411   5.862   1.776   3.408
 9838SOL     OW30412   1.128   6.297   1.232
 9838SOL    HW130413   1.208   6.315   1.288
 9838SOL    HW230414   1.153   6.302   1.135
 9839SOL     OW30415   5.067   6.544   3.928
 9839SOL    HW130416   5.143   6.521   3.867
 9839SOL    HW230417   5.095   6.616   3.991
 9840SOL     OW30418   6.507   1.857   6.566
 9840SOL    HW130419   6.560   1.797   6.506
 9840SOL    HW230420   6.535   1.952   6.552
 9841SOL     OW30421   6.674   6.118   3.320
 9841SOL    HW130422   6.653   6.105   3.223
 9841SOL    HW230423   6.671   6.215   3.342
 9842SOL     OW30424   3.439   0.249   0.110
 9842SOL    HW130425   3.455   0.348   0.111
 9842SOL    HW230426   3.500   0.206   0.043
 9843SOL     OW30427   0.039   0.428   1.725
 9843SOL    HW130428   0.050   0.336   1.762
 9843SOL    HW230429   0.033   0.494   1.800
 9844SOL     OW30430   4.550   0.331   4.536
 9844SOL    HW130431   4.478   0.344   4.467
 9844SOL    HW230432   4.566   0.417   4.584
 9845SOL     OW30433   1.122   3.844   1.921
 9845SOL    HW130434   1.139   3.790   2.003
 9845SOL    HW230435   1.122   3.941   1.944
 9846SOL     OW30436   6.117   2.287   1.308
 9846SOL    HW130437   6.050   2.287   1.382
 9846SOL    HW230438   6.188   2.354   1.328
 9847SOL     OW30439   4.113   3.834   6.615
 9847SOL    HW130440   4.032   3.867   6.567
 9847SOL    HW230441   4.087   3.766   6.683
 9848SOL     OW30442   3.184   3.695   5.734
 9848SOL    HW130443   3.119   3.665   5.804
 9848SOL    HW230444   3.179   3.794   5.725
 9849SOL     OW30445   1.223   2.437   4.738
 9849SOL    HW130446   1.304   2.491   4.758
 9849SOL    HW230447   1.200   2.444   4.641
 9850SOL     OW30448   1.835   6.982   4.047
 9850SOL    HW130449   1.902   0.023   3.998
 9850SOL    HW230450   1.883   6.923   4.112
 9851SOL     OW30451   3.633   5.259   3.776
 9851SOL    HW130452   3.650   5.352   3.745
 9851SOL    HW230453   3.714   5.203   3.762
 9852SOL     OW30454   1.703   6.848   0.331
 9852SOL    HW130455   1.628   6.856   0.265
 9852SOL    HW230456   1.669   6.812   0.417
 9853SOL     OW30457   0.259   4.597   3.418
 9853SOL    HW130458   0.251   4.531   3.493
 9853SOL    HW230459   0.333   4.568   3.356
 9854SOL     OW30460   0.389   3.730   6.380
 9854SOL    HW130461   0.319   3.672   6.339
 9854SOL    HW230462   0.389   3.819   6.334
 9855SOL     OW30463   0.911   5.497   0.373
 9855SOL    HW130464   0.821   5.495   0.331
 9855SOL    HW230465   0.940   5.592   0.386
 9856SOL     OW30466   5.256   3.276   3.074
 9856SOL    HW130467   5.205   3.255   2.991
 9856SOL    HW230468   5.235   3.208   3.145
 9857SOL     OW30469   4.608   0.207   5.222
 9857SOL    HW130470   4.670   0.270   5.174
 9857SOL    HW230471   4.514   0.236   5.209
 9858SOL     OW30472   6.176   6.126   2.066
 9858SOL    HW130473   6.081   6.154   2.085
 9858SOL    HW230474   6.189   6.032   2.096
 9859SOL     OW30475   0.121   5.677   3.112
 9859SOL    HW130476   0.119   5.774   3.087
 9859SOL    HW230477   0.051   5.627   3.061
 9860SOL     OW30478   1.647   3.312   3.974
 9860SOL    HW130479   1.624   3.244   4.043
 9860SOL    HW230480   1.672   3.398   4.018
 9861SOL     OW30481   3.738   2.088   2.964
 9861SOL    HW130482   3.816   2.150   2.978
 9861SOL    HW230483   3.772   1.997   2.938
 9862SOL     OW30484   1.580   3.812   6.448
 9862SOL    HW130485   1.643   3.771   6.513
 9862SOL    HW230486   1.607   3.787   6.355
 9863SOL     OW30487   3.957   0.039   1.945
 9863SOL    HW130488   3.954   0.109   2.016
 9863SOL    HW230489   3.938   0.081   1.856
 9864SOL     OW30490   2.399   5.880   5.820
 9864SOL    HW130491   2.354   5.855   5.735
 9864SOL    HW230492   2.497   5.858   5.814
 9865SOL     OW30493   1.668   5.180   5.426
 9865SOL    HW130494   1.643   5.113   5.355
 9865SOL    HW230495   1.754   5.154   5.468
 9866SOL     OW30496   6.906   5.235   5.617
 9866SOL    HW130497   6.984   5.174   5.631
 9866SOL    HW230498   6.863   5.255   5.705
 9867SOL     OW30499   4.099   1.162   1.885
 9867SOL    HW130500   4.081   1.247   1.935
 9867SOL    HW230501   4.162   1.180   1.810
 9868SOL     OW30502   2.239   4.636   3.454
 9868SOL    HW130503   2.190   4.711   3.498
 9868SOL    HW230504   2.301   4.673   3.384
 9869SOL     OW30505   0.316   2.407   1.412
 9869SOL    HW130506   0.374   2.435   1.489
 9869SOL    HW230507   0.319   2.308   1.403
 9870SOL     OW30508   2.256   2.397   2.619
 9870SOL    HW130509   2.340   2.433   2.579
 9870SOL    HW230510   2.177   2.438   2.575
 9871SOL     OW30511   5.672   5.438   3.185
 9871SOL    HW130512   5.598   5.460   3.248
 9871SOL    HW230513   5.735   5.515   3.179
 9872SOL     OW30514   0.875   4.955   5.855
 9872SOL    HW130515   0.896   4.896   5.932
 9872SOL    HW230516   0.902   4.910   5.770
 9873SOL     OW30517   1.036   1.054   5.285
 9873SOL    HW130518   0.989   1.141   5.268
 9873SOL    HW230519   1.130   1.060   5.251
 9874SOL     OW30520   0.594   1.852   4.324
 9874SOL    HW130521   0.673   1.792   4.334
 9874SOL    HW230522   0.610   1.936   4.376
 9875SOL     OW30523   6.701   6.124   0.606
 9875SOL    HW130524   6.690   6.159   0.699
 9875SOL    HW230525   6.612   6.094   0.571
 9876SOL     OW30526   0.482   6.773   3.498
 9876SOL    HW130527   0.562   6.714   3.510
 9876SOL    HW230528   0.412   6.726   3.445
 9877SOL     OW30529   1.241   6.288   5.716
 9877SOL    HW130530   1.250   6.230   5.635
 9877SOL    HW230531   1.223   6.231   5.796
 9878SOL     OW30532   3.227   2.629   6.618
 9878SOL    HW130533   3.138   2.611   6.577
 9878SOL    HW230534   3.219   2.701   6.687
 9879SOL     OW30535   6.913   5.551   5.568
 9879SOL    HW130536   7.005   5.567   5.603
 9879SOL    HW230537   6.896   5.452   5.562
 9880SOL     OW30538   2.736   1.056   1.165
 9880SOL    HW130539   2.639   1.062   1.138
 9880SOL    HW230540   2.782   1.142   1.140
 9881SOL     OW30541   6.020   1.306   3.467
 9881SOL    HW130542   6.038   1.303   3.369
 9881SOL    HW230543   6.075   1.236   3.513
 9882SOL     OW30544   3.717   3.181   4.486
 9882SOL    HW130545   3.798   3.122   4.495
 9882SOL    HW230546   3.647   3.151   4.550
 9883SOL     OW30547   1.949   6.707   2.521
 9883SOL    HW130548   2.000   6.780   2.476
 9883SOL    HW230549   1.991   6.686   2.610
 9884SOL     OW30550   3.220   3.123   5.717
 9884SOL    HW130551   3.305   3.158   5.679
 9884SOL    HW230552   3.157   3.199   5.733
 9885SOL     OW30553   4.846   2.577   5.339
 9885SOL    HW130554   4.870   2.524   5.257
 9885SOL    HW230555   4.747   2.570   5.355
 9886SOL     OW30556   3.706   5.912   1.221
 9886SOL    HW130557   3.748   5.925   1.131
 9886SOL    HW230558   3.690   5.814   1.236
 9887SOL     OW30559   3.074   2.040   6.956
 9887SOL    HW130560   3.061   1.981   0.020
 9887SOL    HW230561   2.999   2.027   6.891
 9888SOL     OW30562   6.392   6.462   3.569
 9888SOL    HW130563   6.355   6.400   3.638
 9888SOL    HW230564   6.491   6.467   3.578
 9889SOL     OW30565   6.656   5.520   2.756
 9889SOL    HW130566   6.657   5.471   2.844
 9889SOL    HW230567   6.709   5.604   2.764
 9890SOL     OW30568   0.796   3.487   2.495
 9890SOL    HW130569   0.806   3.390   2.520
 9890SOL    HW230570   0.843   3.543   2.563
 9891SOL     OW30571   4.858   6.416   1.885
 9891SOL    HW130572   4.951   6.449   1.903
 9891SOL    HW230573   4.814   6.391   1.971
 9892SOL     OW30574   1.431   5.592   3.799
 9892SOL    HW130575   1.502   5.661   3.805
 9892SOL    HW230576   1.420   5.548   3.888
 9893SOL     OW30577   5.639   4.660   4.832
 9893SOL    HW130578   5.738   4.674   4.826
 9893SOL    HW230579   5.599   4.732   4.889
 9894SOL     OW30580   4.492   3.595   5.306
 9894SOL    HW130581   4.445   3.652   5.238
 9894SOL    HW230582   4.583   3.571   5.272
 9895SOL     OW30583   5.577   1.888   6.515
 9895SOL    HW130584   5.481   1.892   6.543
 9895SOL    HW230585   5.583   1.874   6.417
 9896SOL     OW30586   3.826   3.367   0.117
 9896SOL    HW130587   3.769   3.355   0.198
 9896SOL    HW230588   3.922   3.376   0.143
 9897SOL     OW30589   6.901   1.283   3.461
 9897SOL    HW130590   6.927   1.360   3.518
 9897SOL    HW230591   6.949   1.288   3.374
 9898SOL     OW30592   2.096   4.734   6.716
 9898SOL    HW130593   2.130   4.742   6.810
 9898SOL    HW230594   2.018   4.795   6.704
 9899SOL     OW30595   4.967   5.154   2.671
 9899SOL    HW130596   4.883   5.125   2.625
 9899SOL    HW230597   5.018   5.074   2.702
 9900SOL     OW30598   1.923   4.174   3.960
 9900SOL    HW130599   1.839   4.130   3.991
 9900SOL    HW230600   1.969   4.218   4.038
 9901SOL     OW30601   2.681   1.811   6.486
 9901SOL    HW130602   2.611   1.773   6.427
 9901SOL    HW230603   2.771   1.775   6.459
 9902SOL     OW30604   4.810   3.934   6.679
 9902SOL    HW130605   4.879   3.920   6.608
 9902SOL    HW230606   4.730   3.879   6.659
 9903SOL     OW30607   3.605   1.269   1.704
 9903SOL    HW130608   3.528   1.208   1.684
 9903SOL    HW230609   3.634   1.315   1.620
 9904SOL     OW30610   0.657   0.459   1.746
 9904SOL    HW130611   0.695   0.548   1.772
 9904SOL    HW230612   0.710   0.421   1.670
 9905SOL     OW30613   1.883   6.680   6.231
 9905SOL    HW130614   1.788   6.649   6.241
 9905SOL    HW230615   1.890   6.775   6.262
 9906SOL     OW30616   3.797   3.729   5.924
 9906SOL    HW130617   3.892   3.760   5.933
 9906SOL    HW230618   3.789   3.669   5.845
 9907SOL     OW30619   1.163   6.967   2.901
 9907SOL    HW130620   1.074   6.958   2.944
 9907SOL    HW230621   1.156   6.946   2.803
 9908SOL     OW30622   6.886   3.499   4.906
 9908SOL    HW130623   6.887   3.583   4.960
 9908SOL    HW230624   6.900   3.522   4.809
 9909SOL     OW30625   3.407   0.031   2.447
 9909SOL    HW130626   3.324   0.002   2.495
 9909SOL    HW230627   3.441   0.115   2.489
 9910SOL     OW30628   0.794   4.623   0.852
 9910SOL    HW130629   0.838   4.645   0.765
 9910SOL    HW230630   0.770   4.525   0.854
 9911SOL     OW30631   3.951   5.257   2.791
 9911SOL    HW130632   3.975   5.208   2.874
 9911SOL    HW230633   3.851   5.260   2.781
 9912SOL     OW30634   3.995   6.928   1.093
 9912SOL    HW130635   4.030   6.933   1.000
 9912SOL    HW230636   3.938   7.008   1.112
 9913SOL     OW30637   4.301   2.216   2.665
 9913SOL    HW130638   4.221   2.158   2.678
 9913SOL    HW230639   4.326   2.259   2.752
 9914SOL     OW30640   2.317   5.159   5.277
 9914SOL    HW130641   2.282   5.122   5.191
 9914SOL    HW230642   2.407   5.199   5.261
 9915SOL     OW30643   6.184   3.735   3.833
 9915SOL    HW130644   6.115   3.776   3.894
 9915SOL    HW230645   6.275   3.762   3.864
 9916SOL     OW30646   2.875   3.027   0.655
 9916SOL    HW130647   2.971   3.051   0.636
 9916SOL    HW230648   2.857   2.934   0.623
 9917SOL     OW30649   2.363   2.815   4.805
 9917SOL    HW130650   2.376   2.887   4.873
 9917SOL    HW230651   2.442   2.810   4.745
 9918SOL     OW30652   2.462   0.639   5.070
 9918SOL    HW130653   2.438   0.564   5.008
 9918SOL    HW230654   2.432   0.726   5.030
 9919SOL     OW30655   0.682   5.473   2.220
 9919SOL    HW130656   0.594   5.448   2.262
 9919SOL    HW230657   0.755   5.462   2.287
 9920SOL     OW30658   3.873   6.483   2.825
 9920SOL    HW130659   3.934   6.544   2.774
 9920SOL    HW230660   3.904   6.389   2.816
 9921SOL     OW30661   5.103   6.817   3.414
 9921SOL    HW130662   5.053   6.763   3.345
 9921SOL    HW230663   5.039   6.851   3.482
 9922SOL     OW30664   5.162   3.033   1.948
 9922SOL    HW130665   5.115   2.962   1.896
 9922SOL    HW230666   5.222   3.084   1.887
 9923SOL     OW30667   6.280   0.896   6.256
 9923SOL    HW130668   6.285   0.803   6.291
 9923SOL    HW230669   6.333   0.903   6.171
 9924SOL     OW30670   4.420   0.835   3.342
 9924SOL    HW130671   4.459   0.918   3.304
 9924SOL    HW230672   4.465   0.755   3.302
 9925SOL     OW30673   3.506   2.040   4.786
 9925SOL    HW130674   3.550   2.071   4.870
 9925SOL    HW230675   3.425   1.986   4.807
 9926SOL     OW30676   1.534   0.547   5.975
 9926SOL    HW130677   1.457   0.611   5.976
 9926SOL    HW230678   1.609   0.583   6.031
 9927SOL     OW30679   1.145   2.589   2.239
 9927SOL    HW130680   1.219   2.650   2.211
 9927SOL    HW230681   1.163   2.496   2.206
 9928SOL     OW30682   0.130   3.213   2.461
 9928SOL    HW130683   0.107   3.134   2.517
 9928SOL    HW230684   0.047   3.266   2.443
 9929SOL     OW30685   1.183   4.280   5.529
 9929SOL    HW130686   1.255   4.214   5.551
 9929SOL    HW230687   1.199   4.318   5.438
 9930SOL     OW30688   0.110   5.477   6.984
 9930SOL    HW130689   0.087   5.574   6.993
 9930SOL    HW230690   0.187   5.455   0.029
 9931SOL     OW30691   2.928   4.938   6.570
 9931SOL    HW130692   2.960   4.845   6.550
 9931SOL    HW230693   2.928   4.952   6.669
 9932SOL     OW30694   2.186   2.325   1.198
 9932SOL    HW130695   2.238   2.313   1.113
 9932SOL    HW230696   2.197   2.243   1.255
 9933SOL     OW30697   0.526   1.800   2.320
 9933SOL    HW130698   0.499   1.890   2.354
 9933SOL    HW230699   0.481   1.729   2.374
 9934SOL     OW30700   5.134   0.761   6.513
 9934SOL    HW130701   5.046   0.774   6.557
 9934SOL    HW230702   5.194   0.838   6.534
 9935SOL     OW30703   2.701   2.381   0.648
 9935SOL    HW130704   2.613   2.428   0.641
 9935SOL    HW230705   2.744   2.404   0.735
 9936SOL     OW30706   5.232   6.469   6.288
 9936SOL    HW130707   5.208   6.400   6.357
 9936SOL    HW230708   5.175   6.456   6.207
 9937SOL     OW30709   1.885   6.492   3.331
 9937SOL    HW130710   1.866   6.590   3.323
 9937SOL    HW230711   1.899   6.453   3.241
 9938SOL     OW30712   6.807   1.034   3.374
 9938SOL    HW130713   6.838   1.125   3.403
 9938SOL    HW230714   6.712   1.040   3.342
 9939SOL     OW30715   2.626   4.121   1.686
 9939SOL    HW130716   2.717   4.160   1.700
 9939SOL    HW230717   2.565   4.150   1.760
 9940SOL     OW30718   6.678   1.230   3.591
 9940SOL    HW130719   6.618   1.269   3.520
 9940SOL    HW230720   6.773   1.243   3.563
 9941SOL     OW30721   5.652   4.124   1.144
 9941SOL    HW130722   5.737   4.077   1.120
 9941SOL    HW230723   5.672   4.198   1.208
 9942SOL     OW30724   6.232   5.902   3.165
 9942SOL    HW130725   6.176   5.977   3.130
 9942SOL    HW230726   6.329   5.925   3.154
 9943SOL     OW30727   1.745   3.481   5.188
 9943SOL    HW130728   1.813   3.478   5.261
 9943SOL    HW230729   1.739   3.392   5.143
 9944SOL     OW30730   1.797   6.107   6.288
 9944SOL    HW130731   1.801   6.196   6.242
 9944SOL    HW230732   1.733   6.047   6.240
 9945SOL     OW30733   6.766   3.520   6.869
 9945SOL    HW130734   6.691   3.458   6.845
 9945SOL    HW230735   6.845   3.466   6.898
 9946SOL     OW30736   4.688   2.253   1.753
 9946SOL    HW130737   4.698   2.324   1.683
 9946SOL    HW230738   4.595   2.216   1.750
 9947SOL     OW30739   0.818   1.304   2.628
 9947SOL    HW130740   0.885   1.234   2.604
 9947SOL    HW230741   0.864   1.393   2.634
 9948SOL     OW30742   6.072   0.510   5.248
 9948SOL    HW130743   6.142   0.441   5.266
 9948SOL    HW230744   6.099   0.564   5.168
 9949SOL     OW30745   6.992   3.813   3.372
 9949SOL    HW130746   6.952   3.724   3.392
 9949SOL    HW230747   0.032   3.843   3.450
 9950SOL     OW30748   4.463   4.178   5.446
 9950SOL    HW130749   4.420   4.129   5.370
 9950SOL    HW230750   4.560   4.193   5.425
 9951SOL     OW30751   0.176   2.003   3.022
 9951SOL    HW130752   0.267   2.037   3.045
 9951SOL    HW230753   0.112   2.079   3.016
 9952SOL     OW30754   1.560   4.583   1.482
 9952SOL    HW130755   1.621   4.510   1.450
 9952SOL    HW230756   1.587   4.670   1.439
 9953SOL     OW30757   6.376   3.832   4.001
 9953SOL    HW130758   6.394   3.914   3.946
 9953SOL    HW230759   6.325   3.858   4.083
 9954SOL     OW30760   3.300   1.196   1.348
 9954SOL    HW130761   3.400   1.195   1.341
 9954SOL    HW230762   3.267   1.290   1.335
 9955SOL     OW30763   5.279   5.661   1.419
 9955SOL    HW130764   5.269   5.614   1.506
 9955SOL    HW230765   5.365   5.713   1.419
 9956SOL     OW30766   1.878   3.185   3.535
 9956SOL    HW130767   1.807   3.121   3.565
 9956SOL    HW230768   1.873   3.268   3.590
 9957SOL     OW30769   5.612   0.534   0.491
 9957SOL    HW130770   5.698   0.533   0.439
 9957SOL    HW230771   5.602   0.622   0.537
 9958SOL     OW30772   5.875   5.427   6.900
 9958SOL    HW130773   5.869   5.358   6.827
 9958SOL    HW230774   5.937   5.395   6.971
 9959SOL     OW30775   5.781   4.875   0.734
 9959SOL    HW130776   5.690   4.866   0.694
 9959SOL    HW230777   5.787   4.819   0.817
 9960SOL     OW30778   6.335   6.995   0.075
 9960SOL    HW130779   6.425   6.960   0.048
 9960SOL    HW230780   6.283   0.003   7.008
 9961SOL     OW30781   3.334   5.659   0.717
 9961SOL    HW130782   3.352   5.679   0.813
 9961SOL    HW230783   3.280   5.575   0.709
 9962SOL     OW30784   3.065   0.214   1.219
 9962SOL    HW130785   3.142   0.177   1.167
 9962SOL    HW230786   3.033   0.298   1.175
 9963SOL     OW30787   0.835   0.290   5.968
 9963SOL    HW130788   0.789   0.215   6.015
 9963SOL    HW230789   0.870   0.356   6.035
 9964SOL     OW30790   4.582   4.600   5.918
 9964SOL    HW130791   4.502   4.540   5.930
 9964SOL    HW230792   4.551   4.692   5.895
 9965SOL     OW30793   2.970   5.079   4.101
 9965SOL    HW130794   2.980   5.127   4.013
 9965SOL    HW230795   2.919   4.994   4.087
 9966SOL     OW30796   3.567   5.138   3.134
 9966SOL    HW130797   3.643   5.129   3.199
 9966SOL    HW230798   3.497   5.071   3.155
 9967SOL     OW30799   0.128   0.510   3.056
 9967SOL    HW130800   0.127   0.609   3.044
 9967SOL    HW230801   0.222   0.477   3.056
 9968SOL     OW30802   4.657   0.140   0.300
 9968SOL    HW130803   4.653   0.042   0.282
 9968SOL    HW230804   4.692   0.155   0.393
 9969SOL     OW30805   0.039   5.902   3.731
 9969SOL    HW130806   0.135   5.904   3.761
 9969SOL    HW230807   0.019   5.813   3.691
 9970SOL     OW30808   6.632   3.168   2.213
 9970SOL    HW130809   6.543   3.207   2.237
 9970SOL    HW230810   6.669   3.215   2.133
 9971SOL     OW30811   0.005   5.476   4.644
 9971SOL    HW130812   0.040   5.391   4.683
 9971SOL    HW230813   0.050   5.493   4.556
 9972SOL     OW30814   3.190   4.166   6.008
 9972SOL    HW130815   3.272   4.110   6.001
 9972SOL    HW230816   3.109   4.109   5.995
 9973SOL     OW30817   2.456   1.953   3.565
 9973SOL    HW130818   2.499   1.884   3.507
 9973SOL    HW230819   2.526   1.996   3.622
 9974SOL     OW30820   1.634   2.368   3.269
 9974SOL    HW130821   1.689   2.448   3.295
 9974SOL    HW230822   1.685   2.313   3.202
 9975SOL     OW30823   2.828   4.628   6.497
 9975SOL    HW130824   2.927   4.628   6.513
 9975SOL    HW230825   2.792   4.536   6.509
 9976SOL     OW30826   4.109   5.741   5.724
 9976SOL    HW130827   4.038   5.695   5.777
 9976SOL    HW230828   4.170   5.672   5.683
 9977SOL     OW30829   4.231   0.201   5.454
 9977SOL    HW130830   4.159   0.269   5.444
 9977SOL    HW230831   4.276   0.214   5.543
 9978SOL     OW30832   0.915   2.767   0.086
 9978SOL    HW130833   0.932   2.724   0.175
 9978SOL    HW230834   0.841   2.719   0.039
 9979SOL     OW30835   3.453   4.169   5.142
 9979SOL    HW130836   3.419   4.088   5.094
 9979SOL    HW230837   3.389   4.244   5.129
 9980SOL     OW30838   1.452   1.403   1.123
 9980SOL    HW130839   1.528   1.434   1.065
 9980SOL    HW230840   1.469   1.430   1.217
 9981SOL     OW30841   5.663   1.113   0.342
 9981SOL    HW130842   5.709   1.165   0.414
 9981SOL    HW230843   5.713   1.123   0.256
 9982SOL     OW30844   1.976   2.150   4.515
 9982SOL    HW130845   1.920   2.179   4.592
 9982SOL    HW230846   2.029   2.069   4.540
 9983SOL     OW30847   1.115   3.993   2.294
 9983SOL    HW130848   1.059   3.916   2.265
 9983SOL    HW230849   1.201   3.960   2.332
 9984SOL     OW30850   0.095   5.228   0.772
 9984SOL    HW130851   0.185   5.206   0.810
 9984SOL    HW230852   0.024   5.205   0.839
 9985SOL     OW30853   5.063   4.533   6.862
 9985SOL    HW130854   5.032   4.549   6.956
 9985SOL    HW230855   4.999   4.578   6.799
 9986SOL     OW30856   5.654   5.347   0.339
 9986SOL    HW130857   5.583   5.288   0.377
 9986SOL    HW230858   5.723   5.291   0.293
 9987SOL     OW30859   5.736   2.153   1.454
 9987SOL    HW130860   5.703   2.204   1.533
 9987SOL    HW230861   5.712   2.202   1.370
 9988SOL     OW30862   6.130   0.061   3.641
 9988SOL    HW130863   6.152   0.157   3.658
 9988SOL    HW230864   6.041   0.055   3.594
 9989SOL     OW30865   6.795   6.056   2.600
 9989SOL    HW130866   6.874   6.025   2.547
 9989SOL    HW230867   6.727   5.983   2.603
 9990SOL     OW30868   6.854   0.360   3.255
 9990SOL    HW130869   6.786   0.422   3.216
 9990SOL    HW230870   6.880   0.292   3.187
 9991SOL     OW30871   2.010   4.230   2.570
 9991SOL    HW130872   1.982   4.223   2.475
 9991SOL    HW230873   1.929   4.235   2.628
 9992SOL     OW30874   2.389   5.010   0.445
 9992SOL    HW130875   2.399   5.040   0.540
 9992SOL    HW230876   2.351   4.918   0.443
 9993SOL     OW30877   4.105   0.432   5.080
 9993SOL    HW130878   4.041   0.481   5.021
 9993SOL    HW230879   4.175   0.389   5.024
 9994SOL     OW30880   5.840   5.100   5.233
 9994SOL    HW130881   5.926   5.141   5.203
 9994SOL    HW230882   5.779   5.090   5.155
 9995SOL     OW30883   3.737   1.524   6.378
 9995SOL    HW130884   3.743   1.494   6.283
 9995SOL    HW230885   3.671   1.466   6.427
 9996SOL     OW30886   3.016   4.232   0.770
 9996SOL    HW130887   2.964   4.147   0.768
 9996SOL    HW230888   2.957   4.308   0.742
 9997SOL     OW30889   6.520   2.118   3.457
 9997SOL    HW130890   6.448   2.079   3.400
 9997SOL    HW230891   6.485   2.198   3.506
 9998SOL     OW30892   5.122   3.961   2.545
 9998SOL    HW130893   5.170   3.891   2.598
 9998SOL    HW230894   5.083   3.920   2.463
 9999SOL     OW30895   0.689   6.622   4.160
 9999SOL    HW130896   0.765   6.578   4.112
 9999SOL    HW230897   0.603   6.591   4.121
10000SOL     OW30898   4.487   2.310   1.036
10000SOL    HW130899   4.495   2.410   1.029
10000SOL    HW230900   4.401   2.287   1.082
10001SOL     OW30901   3.916   6.466   1.171
10001SOL    HW130902   3.936   6.429   1.080
10001SOL    HW230903   3.828   6.430   1.202
10002SOL     OW30904   2.572   0.388   1.884
10002SOL    HW130905   2.611   0.322   1.948
10002SOL    HW230906   2.472   0.379   1.884
10003SOL     OW30907   1.208   0.932   2.864
10003SOL    HW130908   1.185   0.938   2.767
10003SOL    HW230909   1.304   0.908   2.874
10004SOL     OW30910   0.128   4.684   4.478
10004SOL    HW130911   0.047   4.628   4.464
10004SOL    HW230912   0.190   4.673   4.401
10005SOL     OW30913   2.662   4.977   3.467
10005SOL    HW130914   2.654   4.956   3.370
10005SOL    HW230915   2.703   4.900   3.515
10006SOL     OW30916   5.451   1.142   5.120
10006SOL    HW130917   5.355   1.118   5.134
10006SOL    HW230918   5.503   1.058   5.101
10007SOL     OW30919   0.826   5.337   3.859
10007SOL    HW130920   0.904   5.291   3.901
10007SOL    HW230921   0.794   5.284   3.780
10008SOL     OW30922   3.716   1.397   6.132
10008SOL    HW130923   3.686   1.390   6.037
10008SOL    HW230924   3.637   1.393   6.193
10009SOL     OW30925   0.881   4.225   2.155
10009SOL    HW130926   0.955   4.248   2.091
10009SOL    HW230927   0.920   4.201   2.244
10010SOL     OW30928   2.286   4.157   1.128
10010SOL    HW130929   2.340   4.075   1.147
10010SOL    HW230930   2.331   4.237   1.166
10011SOL     OW30931   2.254   3.174   6.857
10011SOL    HW130932   2.339   3.220   6.832
10011SOL    HW230933   2.254   3.153   6.954
10012SOL     OW30934   5.512   2.148   3.170
10012SOL    HW130935   5.514   2.052   3.199
10012SOL    HW230936   5.604   2.178   3.147
10013SOL     OW30937   0.542   6.164   4.352
10013SOL    HW130938   0.590   6.252   4.351
10013SOL    HW230939   0.572   6.109   4.274
10014SOL     OW30940   0.660   1.005   2.631
10014SOL    HW130941   0.704   0.969   2.713
10014SOL    HW230942   0.580   1.060   2.657
10015SOL     OW30943   4.095   6.488   6.063
10015SOL    HW130944   4.086   6.389   6.049
10015SOL    HW230945   4.057   6.536   5.984
10016SOL     OW30946   2.561   0.734   4.199
10016SOL    HW130947   2.651   0.769   4.223
10016SOL    HW230948   2.502   0.732   4.280
10017SOL     OW30949   2.864   2.192   2.707
10017SOL    HW130950   2.904   2.239   2.628
10017SOL    HW230951   2.914   2.107   2.724
10018SOL     OW30952   6.848   4.025   4.976
10018SOL    HW130953   6.791   4.098   5.014
10018SOL    HW230954   6.941   4.033   5.010
10019SOL     OW30955   0.427   2.461   1.673
10019SOL    HW130956   0.482   2.529   1.722
10019SOL    HW230957   0.386   2.398   1.739
10020SOL     OW30958   6.575   1.496   1.926
10020SOL    HW130959   6.569   1.433   2.004
10020SOL    HW230960   6.603   1.445   1.845
10021SOL     OW30961   0.974   3.088   2.204
10021SOL    HW130962   0.887   3.138   2.210
10021SOL    HW230963   0.956   2.990   2.198
10022SOL     OW30964   1.704   5.200   6.025
10022SOL    HW130965   1.617   5.248   6.036
10022SOL    HW230966   1.703   5.116   6.079
10023SOL     OW30967   1.103   0.831   6.123
10023SOL    HW130968   1.091   0.921   6.081
10023SOL    HW230969   1.155   0.772   6.061
10024SOL     OW30970   1.329   4.896   2.784
10024SOL    HW130971   1.323   4.797   2.768
10024SOL    HW230972   1.395   4.936   2.721
10025SOL     OW30973   1.277   3.695   0.680
10025SOL    HW130974   1.198   3.634   0.677
10025SOL    HW230975   1.358   3.643   0.705
10026SOL     OW30976   5.506   1.552   4.917
10026SOL    HW130977   5.585   1.614   4.914
10026SOL    HW230978   5.438   1.581   4.850
10027SOL     OW30979   2.766   2.022   5.140
10027SOL    HW130980   2.831   2.024   5.216
10027SOL    HW230981   2.774   1.934   5.092
10028SOL     OW30982   4.424   6.983   1.486
10028SOL    HW130983   4.337   6.946   1.518
10028SOL    HW230984   4.406   0.045   1.425
10029SOL     OW30985   0.359   4.701   4.690
10029SOL    HW130986   0.290   4.667   4.627
10029SOL    HW230987   0.427   4.755   4.639
10030SOL     OW30988   2.456   0.114   4.369
10030SOL    HW130989   2.525   0.108   4.441
10030SOL    HW230990   2.457   0.205   4.330
10031SOL     OW30991   3.079   5.613   2.707
10031SOL    HW130992   3.061   5.710   2.696
10031SOL    HW230993   3.144   5.600   2.783
10032SOL     OW30994   3.093   6.333   4.966
10032SOL    HW130995   3.185   6.305   4.994
10032SOL    HW230996   3.099   6.403   4.895
10033SOL     OW30997   3.201   1.471   4.629
10033SOL    HW130998   3.244   1.382   4.614
10033SOL    HW230999   3.104   1.466   4.606
10034SOL     OW31000   2.481   1.034   3.380
10034SOL    HW131001   2.424   1.031   3.462
10034SOL    HW231002   2.459   1.115   3.326
10035SOL     OW31003   6.531   2.606   2.676
10035SOL    HW131004   6.588   2.648   2.605
10035SOL    HW231005   6.588   2.549   2.735
10036SOL     OW31006   0.750   1.083   0.206
10036SOL    HW131007   0.732   1.071   0.108
10036SOL    HW231008   0.834   1.035   0.230
10037SOL     OW31009   5.923   6.729   6.735
10037SOL    HW131010   5.950   6.823   6.713
10037SOL    HW231011   5.843   6.731   6.795
10038SOL     OW31012   4.131   6.548   6.323
10038SOL    HW131013   4.146   6.509   6.232
10038SOL    HW231014   4.217   6.550   6.373
10039SOL     OW31015   0.024   5.669   2.487
10039SOL    HW131016   0.098   5.683   2.553
10039SOL    HW231017   6.962   5.624   2.532
10040SOL     OW31018   2.758   6.903   1.430
10040SOL    HW131019   2.701   6.981   1.458
10040SOL    HW231020   2.792   6.918   1.337
10041SOL     OW31021   6.700   5.664   5.102
10041SOL    HW131022   6.717   5.734   5.033
10041SOL    HW231023   6.739   5.577   5.072
10042SOL     OW31024   0.238   0.662   5.052
10042SOL    HW131025   0.138   0.663   5.053
10042SOL    HW231026   0.270   0.578   5.009
10043SOL     OW31027   0.462   0.811   3.803
10043SOL    HW131028   0.425   0.737   3.747
10043SOL    HW231029   0.560   0.797   3.816
10044SOL     OW31030   3.150   1.617   6.453
10044SOL    HW131031   3.215   1.580   6.520
10044SOL    HW231032   3.185   1.603   6.361
10045SOL     OW31033   3.882   6.707   5.291
10045SOL    HW131034   3.848   6.614   5.281
10045SOL    HW231035   3.883   6.752   5.202
10046SOL     OW31036   0.307   2.653   1.884
10046SOL    HW131037   0.267   2.584   1.944
10046SOL    HW231038   0.263   2.741   1.900
10047SOL     OW31039   0.329   1.455   3.503
10047SOL    HW131040   0.359   1.374   3.555
10047SOL    HW231041   0.394   1.530   3.518
10048SOL     OW31042   3.621   2.470   1.618
10048SOL    HW131043   3.680   2.550   1.634
10048SOL    HW231044   3.638   2.402   1.690
10049SOL     OW31045   1.796   6.756   4.566
10049SOL    HW131046   1.809   6.664   4.530
10049SOL    HW231047   1.820   6.823   4.495
10050SOL     OW31048   5.110   2.305   3.890
10050SOL    HW131049   5.128   2.355   3.806
10050SOL    HW231050   5.197   2.277   3.931
10051SOL     OW31051   5.958   2.643   5.854
10051SOL    HW131052   5.905   2.660   5.771
10051SOL    HW231053   5.931   2.708   5.925
10052SOL     OW31054   1.154   3.956   1.248
10052SOL    HW131055   1.238   3.906   1.223
10052SOL    HW231056   1.173   4.054   1.249
10053SOL     OW31057   3.164   6.225   3.640
10053SOL    HW131058   3.145   6.314   3.599
10053SOL    HW231059   3.213   6.168   3.575
10054SOL     OW31060   3.906   5.495   3.932
10054SOL    HW131061   3.951   5.528   4.015
10054SOL    HW231062   3.810   5.520   3.934
10055SOL     OW31063   6.638   3.360   6.159
10055SOL    HW131064   6.658   3.277   6.108
10055SOL    HW231065   6.668   3.440   6.107
10056SOL     OW31066   6.537   5.200   1.734
10056SOL    HW131067   6.552   5.231   1.640
10056SOL    HW231068   6.600   5.247   1.795
10057SOL     OW31069   2.638   2.183   3.925
10057SOL    HW131070   2.588   2.269   3.922
10057SOL    HW231071   2.673   2.161   3.834
10058SOL     OW31072   0.397   5.458   3.488
10058SOL    HW131073   0.447   5.399   3.425
10058SOL    HW231074   0.315   5.494   3.442
10059SOL     OW31075   5.391   6.992   0.823
10059SOL    HW131076   5.317   6.926   0.837
10059SOL    HW231077   5.422   0.011   0.911
10060SOL     OW31078   2.044   2.708   1.778
10060SOL    HW131079   2.044   2.612   1.750
10060SOL    HW231080   2.137   2.744   1.776
10061SOL     OW31081   5.886   1.963   4.855
10061SOL    HW131082   5.914   2.059   4.864
10061SOL    HW231083   5.862   1.945   4.759
10062SOL     OW31084   6.217   6.080   2.810
10062SOL    HW131085   6.214   6.097   2.712
10062SOL    HW231086   6.312   6.084   2.842
10063SOL     OW31087   0.891   2.979   2.601
10063SOL    HW131088   0.963   2.934   2.548
10063SOL    HW231089   0.823   2.912   2.630
10064SOL     OW31090   5.753   6.470   4.777
10064SOL    HW131091   5.759   6.385   4.830
10064SOL    HW231092   5.702   6.538   4.830
10065SOL     OW31093   1.201   6.399   3.180
10065SOL    HW131094   1.202   6.391   3.280
10065SOL    HW231095   1.279   6.454   3.151
10066SOL     OW31096   0.837   0.512   3.865
10066SOL    HW131097   0.759   0.464   3.905
10066SOL    HW231098   0.901   0.445   3.826
10067SOL     OW31099   3.757   5.124   3.513
10067SOL    HW131100   3.804   5.083   3.435
10067SOL    HW231101   3.690   5.059   3.550
10068SOL     OW31102   5.023   3.731   5.294
10068SOL    HW131103   5.041   3.646   5.343
10068SOL    HW231104   5.088   3.801   5.324
10069SOL     OW31105   3.555   0.832   3.653
10069SOL    HW131106   3.506   0.882   3.724
10069SOL    HW231107   3.545   0.734   3.669
10070SOL     OW31108   0.894   6.390   4.754
10070SOL    HW131109   0.935   6.459   4.695
10070SOL    HW231110   0.896   6.301   4.708
10071SOL     OW31111   5.384   5.826   5.120
10071SOL    HW131112   5.316   5.863   5.184
10071SOL    HW231113   5.338   5.764   5.056
10072SOL     OW31114   1.297   0.122   3.064
10072SOL    HW131115   1.263   0.110   3.157
10072SOL    HW231116   1.262   0.048   3.006
10073SOL     OW31117   0.180   5.333   6.605
10073SOL    HW131118   0.261   5.391   6.604
10073SOL    HW231119   0.188   5.265   6.678
10074SOL     OW31120   2.320   6.875   5.489
10074SOL    HW131121   2.266   6.816   5.549
10074SOL    HW231122   2.382   6.930   5.544
10075SOL     OW31123   1.184   2.477   4.112
10075SOL    HW131124   1.159   2.554   4.053
10075SOL    HW231125   1.202   2.397   4.056
10076SOL     OW31126   5.292   0.467   4.717
10076SOL    HW131127   5.288   0.563   4.743
10076SOL    HW231128   5.367   0.453   4.651
10077SOL     OW31129   3.968   1.582   6.503
10077SOL    HW131130   3.898   1.554   6.438
10077SOL    HW231131   4.021   1.503   6.532
10078SOL     OW31132   5.720   6.551   5.937
10078SOL    HW131133   5.675   6.621   5.883
10078SOL    HW231134   5.816   6.544   5.909
10079SOL     OW31135   0.228   4.072   0.087
10079SOL    HW131136   0.183   3.987   0.115
10079SOL    HW231137   0.249   4.126   0.168
10080SOL     OW31138   1.816   3.064   5.991
10080SOL    HW131139   1.894   3.071   6.053
10080SOL    HW231140   1.732   3.087   6.040
10081SOL     OW31141   0.066   0.673   6.584
10081SOL    HW131142   0.091   0.733   6.509
10081SOL    HW231143   0.029   0.727   6.660
10082SOL     OW31144   6.605   1.123   1.394
10082SOL    HW131145   6.623   1.038   1.343
10082SOL    HW231146   6.638   1.113   1.488
10083SOL     OW31147   4.944   0.806   4.164
10083SOL    HW131148   5.005   0.886   4.172
10083SOL    HW231149   4.869   0.816   4.228
10084SOL     OW31150   2.581   1.466   6.146
10084SOL    HW131151   2.660   1.407   6.162
10084SOL    HW231152   2.510   1.415   6.098
10085SOL     OW31153   0.512   5.257   2.864
10085SOL    HW131154   0.482   5.164   2.884
10085SOL    HW231155   0.433   5.312   2.836
10086SOL     OW31156   6.329   3.585   2.118
10086SOL    HW131157   6.364   3.661   2.174
10086SOL    HW231158   6.249   3.615   2.068
10087SOL     OW31159   1.319   6.832   4.143
10087SOL    HW131160   1.318   6.732   4.132
10087SOL    HW231161   1.291   6.855   4.236
10088SOL     OW31162   0.565   0.030   4.456
10088SOL    HW131163   0.546   0.007   4.360
10088SOL    HW231164   0.607   6.966   4.501
10089SOL     OW31165   1.312   3.295   2.010
10089SOL    HW131166   1.289   3.354   1.932
10089SOL    HW231167   1.387   3.337   2.061
10090SOL     OW31168   0.496   4.680   0.406
10090SOL    HW131169   0.570   4.747   0.416
10090SOL    HW231170   0.513   4.603   0.468
10091SOL     OW31171   0.750   2.474   4.494
10091SOL    HW131172   0.788   2.527   4.418
10091SOL    HW231173   0.685   2.406   4.459
10092SOL     OW31174   1.886   4.234   5.258
10092SOL    HW131175   1.953   4.201   5.192
10092SOL    HW231176   1.906   4.195   5.348
10093SOL     OW31177   6.961   4.740   6.469
10093SOL    HW131178   6.872   4.763   6.508
10093SOL    HW231179   6.957   4.750   6.369
10094SOL     OW31180   1.546   1.264   1.797
10094SOL    HW131181   1.484   1.187   1.782
10094SOL    HW231182   1.618   1.263   1.727
10095SOL     OW31183   6.758   0.607   6.122
10095SOL    HW131184   6.796   0.593   6.031
10095SOL    HW231185   6.825   0.655   6.179
10096SOL     OW31186   0.363   5.029   2.590
10096SOL    HW131187   0.455   5.070   2.589
10096SOL    HW231188   0.295   5.101   2.577
10097SOL     OW31189   1.017   1.609   6.892
10097SOL    HW131190   0.967   1.671   6.952
10097SOL    HW231191   1.112   1.605   6.920
10098SOL     OW31192   3.062   5.154   6.418
10098SOL    HW131193   3.019   5.081   6.471
10098SOL    HW231194   3.044   5.140   6.320
10099SOL     OW31195   6.855   4.545   4.633
10099SOL    HW131196   6.842   4.570   4.537
10099SOL    HW231197   6.874   4.627   4.686
10100SOL     OW31198   5.421   1.296   5.338
10100SOL    HW131199   5.477   1.293   5.421
10100SOL    HW231200   5.459   1.236   5.269
10101SOL     OW31201   0.329   4.597   1.984
10101SOL    HW131202   0.421   4.628   2.009
10101SOL    HW231203   0.263   4.667   2.011
10102SOL     OW31204   2.899   1.353   2.768
10102SOL    HW131205   2.891   1.353   2.868
10102SOL    HW231206   2.848   1.430   2.731
10103SOL     OW31207   2.621   2.257   6.941
10103SOL    HW131208   2.709   2.304   6.931
10103SOL    HW231209   2.625   2.194   0.003
10104SOL     OW31210   1.492   6.405   5.236
10104SOL    HW131211   1.531   6.364   5.318
10104SOL    HW231212   1.395   6.424   5.251
10105SOL     OW31213   2.319   0.663   6.529
10105SOL    HW131214   2.415   0.636   6.525
10105SOL    HW231215   2.294   0.686   6.623
10106SOL     OW31216   5.651   5.729   0.416
10106SOL    HW131217   5.742   5.721   0.454
10106SOL    HW231218   5.657   5.760   0.321
10107SOL     OW31219   5.674   1.409   5.829
10107SOL    HW131220   5.584   1.374   5.855
10107SOL    HW231221   5.686   1.502   5.865
10108SOL     OW31222   6.346   6.623   0.380
10108SOL    HW131223   6.425   6.682   0.394
10108SOL    HW231224   6.280   6.637   0.454
10109SOL     OW31225   5.109   5.053   3.144
10109SOL    HW131226   5.081   5.060   3.048
10109SOL    HW231227   5.200   5.094   3.155
10110SOL     OW31228   3.018   0.682   5.748
10110SOL    HW131229   3.081   0.640   5.683
10110SOL    HW231230   3.069   0.739   5.812
10111SOL     OW31231   0.511   2.282   3.104
10111SOL    HW131232   0.603   2.300   3.069
10111SOL    HW231233   0.444   2.293   3.030
10112SOL     OW31234   4.578   4.099   5.698
10112SOL    HW131235   4.505   4.126   5.635
10112SOL    HW231236   4.634   4.028   5.656
10113SOL     OW31237   3.758   6.404   6.843
10113SOL    HW131238   3.765   6.305   6.856
10113SOL    HW231239   3.736   6.423   6.747
10114SOL     OW31240   4.296   0.905   1.229
10114SOL    HW131241   4.203   0.869   1.235
10114SOL    HW231242   4.294   1.005   1.239
10115SOL     OW31243   1.396   1.881   3.711
10115SOL    HW131244   1.421   1.888   3.808
10115SOL    HW231245   1.389   1.973   3.672
10116SOL     OW31246   1.202   1.286   1.067
10116SOL    HW131247   1.186   1.208   1.128
10116SOL    HW231248   1.293   1.324   1.086
10117SOL     OW31249   4.833   0.796   5.551
10117SOL    HW131250   4.782   0.737   5.613
10117SOL    HW231251   4.876   0.870   5.602
10118SOL     OW31252   6.779   5.314   1.889
10118SOL    HW131253   6.789   5.379   1.964
10118SOL    HW231254   6.812   5.225   1.918
10119SOL     OW31255   2.374   1.075   5.989
10119SOL    HW131256   2.461   1.076   6.039
10119SOL    HW231257   2.315   1.004   6.027
10120SOL     OW31258   6.757   2.879   3.467
10120SOL    HW131259   6.704   2.833   3.538
10120SOL    HW231260   6.723   2.853   3.377
10121SOL     OW31261   6.664   4.726   4.936
10121SOL    HW131262   6.726   4.760   4.866
10121SOL    HW231263   6.716   4.677   5.006
10122SOL     OW31264   5.144   3.555   0.415
10122SOL    HW131265   5.130   3.631   0.350
10122SOL    HW231266   5.219   3.578   0.477
10123SOL     OW31267   0.217   6.716   0.242
10123SOL    HW131268   0.203   6.752   0.335
10123SOL    HW231269   0.178   6.624   0.236
10124SOL     OW31270   3.273   4.409   0.609
10124SOL    HW131271   3.197   4.385   0.549
10124SOL    HW231272   3.342   4.337   0.607
10125SOL     OW31273   1.296   0.203   1.660
10125SOL    HW131274   1.290   0.211   1.760
10125SOL    HW231275   1.376   0.254   1.628
10126SOL     OW31276   6.449   5.581   0.834
10126SOL    HW131277   6.481   5.541   0.748
10126SOL    HW231278   6.391   5.515   0.881
10127SOL     OW31279   3.683   5.097   5.305
10127SOL    HW131280   3.721   5.160   5.373
10127SOL    HW231281   3.605   5.139   5.260
10128SOL     OW31282   0.179   2.311   0.891
10128SOL    HW131283   0.155   2.373   0.816
10128SOL    HW231284   0.266   2.266   0.870
10129SOL     OW31285   5.778   2.307   3.115
10129SOL    HW131286   5.754   2.403   3.102
10129SOL    HW231287   5.788   2.288   3.213
10130SOL     OW31288   6.231   5.215   1.780
10130SOL    HW131289   6.201   5.278   1.709
10130SOL    HW231290   6.325   5.187   1.762
10131SOL     OW31291   0.444   1.176   0.787
10131SOL    HW131292   0.427   1.141   0.695
10131SOL    HW231293   0.362   1.221   0.821
10132SOL     OW31294   3.148   6.931   2.533
10132SOL    HW131295   3.057   6.922   2.571
10132SOL    HW231296   3.150   6.893   2.440
10133SOL     OW31297   5.156   5.276   3.559
10133SOL    HW131298   5.070   5.225   3.564
10133SOL    HW231299   5.150   5.346   3.488
10134SOL     OW31300   7.004   1.474   3.065
10134SOL    HW131301   0.072   1.424   3.087
10134SOL    HW231302   7.005   1.564   3.110
10135SOL     OW31303   4.558   4.820   3.414
10135SOL    HW131304   4.650   4.827   3.454
10135SOL    HW231305   4.491   4.808   3.487
10136SOL     OW31306   5.714   6.714   3.088
10136SOL    HW131307   5.722   6.754   2.997
10136SOL    HW231308   5.630   6.659   3.092
10137SOL     OW31309   6.163   4.869   4.146
10137SOL    HW131310   6.079   4.881   4.092
10137SOL    HW231311   6.142   4.819   4.230
10138SOL     OW31312   5.419   2.381   6.458
10138SOL    HW131313   5.498   2.433   6.427
10138SOL    HW231314   5.441   2.283   6.458
10139SOL     OW31315   4.021   3.178   2.942
10139SOL    HW131316   3.955   3.108   2.971
10139SOL    HW231317   4.024   3.180   2.842
10140SOL     OW31318   0.549   4.689   6.393
10140SOL    HW131319   0.522   4.610   6.338
10140SOL    HW231320   0.649   4.695   6.396
10141SOL     OW31321   1.738   0.691   3.761
10141SOL    HW131322   1.795   0.691   3.678
10141SOL    HW231323   1.748   0.779   3.808
10142SOL     OW31324   4.438   6.075   4.832
10142SOL    HW131325   4.513   6.138   4.815
10142SOL    HW231326   4.450   5.993   4.776
10143SOL     OW31327   4.653   6.933   1.043
10143SOL    HW131328   4.553   6.924   1.040
10143SOL    HW231329   4.694   6.843   1.054
10144SOL     OW31330   3.109   5.424   3.867
10144SOL    HW131331   3.060   5.347   3.826
10144SOL    HW231332   3.206   5.419   3.841
10145SOL     OW31333   2.837   6.510   5.882
10145SOL    HW131334   2.862   6.431   5.939
10145SOL    HW231335   2.885   6.505   5.795
10146SOL     OW31336   4.957   5.126   4.262
10146SOL    HW131337   4.984   5.122   4.165
10146SOL    HW231338   4.876   5.069   4.276
10147SOL     OW31339   4.672   4.934   5.043
10147SOL    HW131340   4.761   4.979   5.036
10147SOL    HW231341   4.677   4.842   5.006
10148SOL     OW31342   5.392   5.853   0.779
10148SOL    HW131343   5.476   5.802   0.761
10148SOL    HW231344   5.413   5.928   0.842
10149SOL     OW31345   4.274   2.695   0.851
10149SOL    HW131346   4.187   2.734   0.879
10149SOL    HW231347   4.327   2.765   0.801
10150SOL     OW31348   4.631   4.641   1.466
10150SOL    HW131349   4.719   4.633   1.513
10150SOL    HW231350   4.581   4.555   1.473
10151SOL     OW31351   2.056   0.233   5.611
10151SOL    HW131352   1.996   0.161   5.644
10151SOL    HW231353   2.042   0.245   5.512
10152SOL     OW31354   0.045   5.643   3.620
10152SOL    HW131355   6.986   5.591   3.663
10152SOL    HW231356   0.133   5.602   3.644
10153SOL     OW31357   5.410   6.278   4.347
10153SOL    HW131358   5.393   6.356   4.408
10153SOL    HW231359   5.453   6.205   4.399
10154SOL     OW31360   6.941   5.094   6.127
10154SOL    HW131361   6.921   5.006   6.171
10154SOL    HW231362   6.875   5.162   6.159
10155SOL     OW31363   3.715   1.059   5.917
10155SOL    HW131364   3.757   0.972   5.892
10155SOL    HW231365   3.787   1.127   5.933
10156SOL     OW31366   5.994   0.638   2.204
10156SOL    HW131367   5.937   0.709   2.247
10156SOL    HW231368   6.026   0.575   2.274
10157SOL     OW31369   5.709   0.859   6.183
10157SOL    HW131370   5.767   0.779   6.170
10157SOL    HW231371   5.752   0.921   6.248
10158SOL     OW31372   4.032   3.676   6.807
10158SOL    HW131373   3.962   3.706   6.872
10158SOL    HW231374   4.023   3.577   6.792
10159SOL     OW31375   1.123   1.466   6.085
10159SOL    HW131376   1.129   1.564   6.072
10159SOL    HW231377   1.083   1.423   6.003
10160SOL     OW31378   0.286   5.969   3.783
10160SOL    HW131379   0.339   5.951   3.865
10160SOL    HW231380   0.302   6.063   3.752
10161SOL     OW31381   3.283   5.559   5.772
10161SOL    HW131382   3.352   5.626   5.748
10161SOL    HW231383   3.317   5.467   5.751
10162SOL     OW31384   2.998   1.808   6.709
10162SOL    HW131385   2.935   1.884   6.724
10162SOL    HW231386   3.079   1.840   6.660
10163SOL     OW31387   6.063   3.462   5.658
10163SOL    HW131388   5.975   3.498   5.689
10163SOL    HW231389   6.083   3.497   5.567
10164SOL     OW31390   6.999   2.530   4.813
10164SOL    HW131391   6.974   2.622   4.842
10164SOL    HW231392   6.950   2.462   4.868
10165SOL     OW31393   0.294   2.014   4.016
10165SOL    HW131394   0.334   1.925   4.041
10165SOL    HW231395   0.195   2.008   4.019
10166SOL     OW31396   2.318   0.970   2.440
10166SOL    HW131397   2.374   0.957   2.358
10166SOL    HW231398   2.227   0.931   2.425
10167SOL     OW31399   5.045   0.388   0.220
10167SOL    HW131400   5.011   0.423   0.133
10167SOL    HW231401   5.069   0.465   0.279
10168SOL     OW31402   0.040   4.195   3.863
10168SOL    HW131403   7.014   4.259   3.928
10168SOL    HW231404   6.994   4.181   3.786
10169SOL     OW31405   6.449   4.029   4.239
10169SOL    HW131406   6.454   4.125   4.266
10169SOL    HW231407   6.353   4.001   4.229
10170SOL     OW31408   1.865   4.414   5.044
10170SOL    HW131409   1.839   4.368   4.959
10170SOL    HW231410   1.864   4.348   5.119
10171SOL     OW31411   6.528   4.069   6.096
10171SOL    HW131412   6.612   4.065   6.042
10171SOL    HW231413   6.450   4.047   6.038
10172SOL     OW31414   5.348   0.587   2.412
10172SOL    HW131415   5.386   0.536   2.335
10172SOL    HW231416   5.282   0.654   2.378
10173SOL     OW31417   2.101   1.826   1.984
10173SOL    HW131418   2.025   1.888   2.004
10173SOL    HW231419   2.169   1.832   2.058
10174SOL     OW31420   0.023   4.731   2.677
10174SOL    HW131421   7.012   4.636   2.698
10174SOL    HW231422   0.108   4.752   2.724
10175SOL     OW31423   6.101   2.591   5.399
10175SOL    HW131424   6.081   2.660   5.469
10175SOL    HW231425   6.042   2.607   5.319
10176SOL     OW31426   2.166   3.554   6.944
10176SOL    HW131427   2.155   3.648   6.975
10176SOL    HW231428   2.155   3.550   6.845
10177SOL     OW31429   2.714   6.346   6.854
10177SOL    HW131430   2.765   6.407   6.792
10177SOL    HW231431   2.660   6.282   6.800
10178SOL     OW31432   5.972   2.772   4.256
10178SOL    HW131433   6.000   2.772   4.352
10178SOL    HW231434   5.928   2.685   4.234
10179SOL     OW31435   1.189   2.813   6.309
10179SOL    HW131436   1.178   2.721   6.272
10179SOL    HW231437   1.100   2.848   6.338
10180SOL     OW31438   2.660   5.785   5.731
10180SOL    HW131439   2.660   5.685   5.729
10180SOL    HW231440   2.750   5.818   5.702
10181SOL     OW31441   5.514   3.527   1.506
10181SOL    HW131442   5.518   3.624   1.530
10181SOL    HW231443   5.606   3.491   1.495
10182SOL     OW31444   5.928   1.625   1.195
10182SOL    HW131445   5.936   1.720   1.225
10182SOL    HW231446   5.982   1.566   1.255
10183SOL     OW31447   1.638   1.805   6.678
10183SOL    HW131448   1.555   1.751   6.669
10183SOL    HW231449   1.616   1.902   6.667
10184SOL     OW31450   4.145   1.097   5.831
10184SOL    HW131451   4.097   1.021   5.787
10184SOL    HW231452   4.244   1.080   5.829
10185SOL     OW31453   4.900   6.902   0.848
10185SOL    HW131454   4.815   6.903   0.900
10185SOL    HW231455   4.952   6.986   0.867
10186SOL     OW31456   4.680   2.118   2.967
10186SOL    HW131457   4.587   2.152   2.951
10186SOL    HW231458   4.738   2.144   2.889
10187SOL     OW31459   0.725   2.390   1.776
10187SOL    HW131460   0.717   2.462   1.707
10187SOL    HW231461   0.731   2.301   1.729
10188SOL     OW31462   4.098   5.904   0.746
10188SOL    HW131463   4.123   5.991   0.703
10188SOL    HW231464   4.137   5.828   0.694
10189SOL     OW31465   1.356   6.674   5.084
10189SOL    HW131466   1.437   6.679   5.026
10189SOL    HW231467   1.328   6.578   5.094
10190SOL     OW31468   4.917   2.452   7.015
10190SOL    HW131469   4.856   2.380   6.983
10190SOL    HW231470   4.868   2.540   7.014
10191SOL     OW31471   6.385   4.415   0.392
10191SOL    HW131472   6.415   4.400   0.486
10191SOL    HW231473   6.380   4.513   0.373
10192SOL     OW31474   3.212   0.885   5.812
10192SOL    HW131475   3.196   0.969   5.863
10192SOL    HW231476   3.214   0.905   5.714
10193SOL     OW31477   4.997   3.773   0.627
10193SOL    HW131478   4.980   3.688   0.676
10193SOL    HW231479   5.072   3.822   0.671
10194SOL     OW31480   5.680   3.627   5.517
10194SOL    HW131481   5.640   3.535   5.517
10194SOL    HW231482   5.629   3.686   5.455
10195SOL     OW31483   6.834   4.361   1.775
10195SOL    HW131484   6.875   4.275   1.803
10195SOL    HW231485   6.907   4.425   1.748
10196SOL     OW31486   0.126   1.899   4.293
10196SOL    HW131487   0.062   1.975   4.308
10196SOL    HW231488   0.115   1.831   4.365
10197SOL     OW31489   5.730   0.552   5.980
10197SOL    HW131490   5.811   0.558   5.922
10197SOL    HW231491   5.686   0.463   5.967
10198SOL     OW31492   3.975   6.752   2.977
10198SOL    HW131493   3.980   6.659   2.939
10198SOL    HW231494   3.880   6.773   3.000
10199SOL     OW31495   1.458   2.619   5.348
10199SOL    HW131496   1.438   2.643   5.253
10199SOL    HW231497   1.404   2.678   5.409
10200SOL     OW31498   5.923   3.519   1.493
10200SOL    HW131499   5.933   3.515   1.394
10200SOL    HW231500   5.886   3.432   1.526
10201SOL     OW31501   1.451   3.168   0.474
10201SOL    HW131502   1.494   3.252   0.441
10201SOL    HW231503   1.364   3.154   0.426
10202SOL     OW31504   3.419   0.605   5.503
10202SOL    HW131505   3.411   0.556   5.590
10202SOL    HW231506   3.398   0.542   5.428
10203SOL     OW31507   6.444   2.646   4.673
10203SOL    HW131508   6.410   2.555   4.648
10203SOL    HW231509   6.513   2.675   4.608
10204SOL     OW31510   5.254   6.574   6.839
10204SOL    HW131511   5.211   6.498   6.888
10204SOL    HW231512   5.335   6.542   6.791
10205SOL     OW31513   0.871   0.707   6.187
10205SOL    HW131514   0.812   0.770   6.238
10205SOL    HW231515   0.958   0.753   6.166
10206SOL     OW31516   1.263   0.959   5.168
10206SOL    HW131517   1.269   0.860   5.175
10206SOL    HW231518   1.313   0.990   5.087
10207SOL     OW31519   1.176   1.891   5.422
10207SOL    HW131520   1.151   1.803   5.463
10207SOL    HW231521   1.160   1.888   5.323
10208SOL     OW31522   6.733   5.009   5.835
10208SOL    HW131523   6.832   5.006   5.825
10208SOL    HW231524   6.707   5.085   5.894
10209SOL     OW31525   6.702   6.795   6.326
10209SOL    HW131526   6.659   6.706   6.314
10209SOL    HW231527   6.633   6.867   6.324
10210SOL     OW31528   3.922   6.443   1.942
10210SOL    HW131529   4.013   6.485   1.944
10210SOL    HW231530   3.864   6.488   2.010
10211SOL     OW31531   4.356   5.915   5.451
10211SOL    HW131532   4.367   5.897   5.549
10211SOL    HW231533   4.443   5.947   5.414
10212SOL     OW31534   0.634   0.564   6.094
10212SOL    HW131535   0.647   0.468   6.122
10212SOL    HW231536   0.717   0.616   6.113
10213SOL     OW31537   5.765   1.473   0.806
10213SOL    HW131538   5.692   1.505   0.745
10213SOL    HW231539   5.761   1.523   0.892
10214SOL     OW31540   0.703   2.645   0.772
10214SOL    HW131541   0.793   2.644   0.730
10214SOL    HW231542   0.636   2.681   0.707
10215SOL     OW31543   3.174   3.428   2.017
10215SOL    HW131544   3.254   3.370   2.029
10215SOL    HW231545   3.173   3.498   2.088
10216SOL     OW31546   6.498   6.598   2.920
10216SOL    HW131547   6.429   6.667   2.942
10216SOL    HW231548   6.588   6.630   2.951
10217SOL     OW31549   3.420   0.950   3.831
10217SOL    HW131550   3.339   0.892   3.823
10217SOL    HW231551   3.398   1.031   3.885
10218SOL     OW31552   1.498   2.600   2.320
10218SOL    HW131553   1.426   2.664   2.348
10218SOL    HW231554   1.501   2.595   2.220
10219SOL     OW31555   6.981   0.123   2.748
10219SOL    HW131556   7.004   0.146   2.653
10219SOL    HW231557   0.014   0.185   2.809
10220SOL     OW31558   3.396   2.573   1.723
10220SOL    HW131559   3.460   2.544   1.652
10220SOL    HW231560   3.338   2.496   1.749
10221SOL     OW31561   0.801   5.980   3.917
10221SOL    HW131562   0.769   5.892   3.952
10221SOL    HW231563   0.862   5.964   3.839
10222SOL     OW31564   2.912   3.689   4.253
10222SOL    HW131565   2.833   3.629   4.238
10222SOL    HW231566   2.899   3.740   4.338
10223SOL     OW31567   0.392   5.758   1.738
10223SOL    HW131568   0.302   5.766   1.696
10223SOL    HW231569   0.447   5.838   1.716
10224SOL     OW31570   5.690   4.076   3.264
10224SOL    HW131571   5.596   4.095   3.234
10224SOL    HW231572   5.690   4.056   3.362
10225SOL     OW31573   2.276   3.812   5.817
10225SOL    HW131574   2.264   3.911   5.820
10225SOL    HW231575   2.260   3.773   5.908
10226SOL     OW31576   4.600   2.449   6.774
10226SOL    HW131577   4.574   2.355   6.753
10226SOL    HW231578   4.596   2.462   6.873
10227SOL     OW31579   5.366   3.836   1.137
10227SOL    HW131580   5.307   3.882   1.204
10227SOL    HW231581   5.455   3.819   1.179
10228SOL     OW31582   5.383   0.731   1.309
10228SOL    HW131583   5.288   0.746   1.337
10228SOL    HW231584   5.385   0.696   1.216
10229SOL     OW31585   6.741   3.306   4.602
10229SOL    HW131586   6.817   3.339   4.546
10229SOL    HW231587   6.679   3.383   4.622
10230SOL     OW31588   0.373   6.322   2.628
10230SOL    HW131589   0.350   6.225   2.642
10230SOL    HW231590   0.366   6.344   2.531
10231SOL     OW31591   1.381   5.223   2.882
10231SOL    HW131592   1.306   5.213   2.817
10231SOL    HW231593   1.348   5.270   2.964
10232SOL     OW31594   4.976   4.925   4.014
10232SOL    HW131595   5.037   4.992   3.971
10232SOL    HW231596   5.016   4.893   4.099
10233SOL     OW31597   3.772   4.084   5.922
10233SOL    HW131598   3.702   4.039   5.866
10233SOL    HW231599   3.739   4.174   5.951
10234SOL     OW31600   0.582   1.396   1.797
10234SOL    HW131601   0.618   1.392   1.704
10234SOL    HW231602   0.535   1.310   1.818
10235SOL     OW31603   1.505   0.856   2.879
10235SOL    HW131604   1.532   0.806   2.961
10235SOL    HW231605   1.502   0.954   2.898
10236SOL     OW31606   2.367   6.833   1.723
10236SOL    HW131607   2.385   6.806   1.629
10236SOL    HW231608   2.450   6.870   1.764
10237SOL     OW31609   0.388   3.285   5.831
10237SOL    HW131610   0.405   3.188   5.810
10237SOL    HW231611   0.465   3.321   5.883
10238SOL     OW31612   3.482   6.845   1.526
10238SOL    HW131613   3.447   6.816   1.437
10238SOL    HW231614   3.556   6.784   1.554
10239SOL     OW31615   1.073   2.665   4.384
10239SOL    HW131616   1.112   2.745   4.338
10239SOL    HW231617   1.146   2.604   4.412
10240SOL     OW31618   2.357   6.415   0.951
10240SOL    HW131619   2.399   6.483   1.012
10240SOL    HW231620   2.270   6.451   0.917
10241SOL     OW31621   3.996   2.508   1.534
10241SOL    HW131622   3.964   2.598   1.502
10241SOL    HW231623   3.949   2.485   1.619
10242SOL     OW31624   6.608   2.898   6.730
10242SOL    HW131625   6.690   2.949   6.701
10242SOL    HW231626   6.595   2.909   6.829
10243SOL     OW31627   2.664   5.324   1.123
10243SOL    HW131628   2.738   5.275   1.168
10243SOL    HW231629   2.664   5.302   1.025
10244SOL     OW31630   2.798   4.370   1.498
10244SOL    HW131631   2.892   4.360   1.531
10244SOL    HW231632   2.747   4.429   1.561
10245SOL     OW31633   4.662   3.932   0.868
10245SOL    HW131634   4.654   3.911   0.966
10245SOL    HW231635   4.582   3.896   0.820
10246SOL     OW31636   3.017   3.101   4.144
10246SOL    HW131637   3.021   3.088   4.243
10246SOL    HW231638   3.105   3.076   4.104
10247SOL     OW31639   0.597   2.809   4.453
10247SOL    HW131640   0.624   2.833   4.360
10247SOL    HW231641   0.677   2.807   4.512
10248SOL     OW31642   1.386   0.408   3.582
10248SOL    HW131643   1.461   0.453   3.629
10248SOL    HW231644   1.400   0.309   3.582
10249SOL     OW31645   2.734   5.450   6.354
10249SOL    HW131646   2.720   5.368   6.298
10249SOL    HW231647   2.813   5.437   6.414
10250SOL     OW31648   4.217   2.306   1.106
10250SOL    HW131649   4.166   2.388   1.081
10250SOL    HW231650   4.216   2.295   1.205
10251SOL     OW31651   1.696   0.416   4.467
10251SOL    HW131652   1.622   0.350   4.485
10251SOL    HW231653   1.751   0.427   4.550
10252SOL     OW31654   6.029   4.203   6.297
10252SOL    HW131655   6.128   4.196   6.311
10252SOL    HW231656   5.995   4.119   6.255
10253SOL     OW31657   3.448   6.382   6.088
10253SOL    HW131658   3.438   6.438   6.170
10253SOL    HW231659   3.442   6.286   6.113
10254SOL     OW31660   5.785   1.039   5.567
10254SOL    HW131661   5.817   1.012   5.476
10254SOL    HW231662   5.778   0.959   5.626
10255SOL     OW31663   3.878   4.857   1.796
10255SOL    HW131664   3.955   4.838   1.857
10255SOL    HW231665   3.854   4.773   1.747
10256SOL     OW31666   3.804   1.399   2.928
10256SOL    HW131667   3.875   1.367   2.991
10256SOL    HW231668   3.714   1.377   2.965
10257SOL     OW31669   3.684   5.214   2.893
10257SOL    HW131670   3.644   5.174   2.975
10257SOL    HW231671   3.626   5.290   2.861
10258SOL     OW31672   1.561   1.031   2.083
10258SOL    HW131673   1.621   0.989   2.014
10258SOL    HW231674   1.473   0.984   2.083
10259SOL     OW31675   1.562   4.400   3.678
10259SOL    HW131676   1.635   4.420   3.612
10259SOL    HW231677   1.603   4.375   3.766
10260SOL     OW31678   1.055   0.407   3.752
10260SOL    HW131679   1.039   0.385   3.655
10260SOL    HW231680   1.140   0.458   3.761
10261SOL     OW31681   6.756   3.715   0.988
10261SOL    HW131682   6.692   3.707   1.065
10261SOL    HW231683   6.835   3.769   1.016
10262SOL     OW31684   4.418   1.347   0.550
10262SOL    HW131685   4.421   1.426   0.488
10262SOL    HW231686   4.453   1.266   0.504
10263SOL     OW31687   6.183   0.685   1.984
10263SOL    HW131688   6.257   0.648   2.041
10263SOL    HW231689   6.097   0.639   2.007
10264SOL     OW31690   0.044   6.145   6.464
10264SOL    HW131691   6.976   6.185   6.502
10264SOL    HW231692   0.103   6.115   6.539
10265SOL     OW31693   2.059   1.566   0.599
10265SOL    HW131694   2.065   1.525   0.509
10265SOL    HW231695   1.967   1.604   0.612
10266SOL     OW31696   2.639   3.527   1.783
10266SOL    HW131697   2.540   3.514   1.786
10266SOL    HW231698   2.659   3.622   1.759
10267SOL     OW31699   5.901   1.057   1.306
10267SOL    HW131700   5.998   1.056   1.281
10267SOL    HW231701   5.848   1.096   1.231
10268SOL     OW31702   4.051   0.248   1.283
10268SOL    HW131703   4.076   0.171   1.224
10268SOL    HW231704   4.133   0.293   1.317
10269SOL     OW31705   2.905   2.488   0.483
10269SOL    HW131706   2.968   2.441   0.422
10269SOL    HW231707   2.838   2.423   0.518
10270SOL     OW31708   2.808   6.965   2.337
10270SOL    HW131709   2.737   6.936   2.274
10270SOL    HW231710   2.768   6.990   2.424
10271SOL     OW31711   1.398   1.948   6.788
10271SOL    HW131712   1.423   1.980   6.697
10271SOL    HW231713   1.436   2.011   6.856
10272SOL     OW31714   6.213   0.371   4.490
10272SOL    HW131715   6.297   0.343   4.537
10272SOL    HW231716   6.135   0.358   4.551
10273SOL     OW31717   2.410   5.328   3.180
10273SOL    HW131718   2.368   5.406   3.227
10273SOL    HW231719   2.507   5.347   3.165
10274SOL     OW31720   0.874   5.069   5.394
10274SOL    HW131721   0.919   5.138   5.451
10274SOL    HW231722   0.928   5.054   5.311
10275SOL     OW31723   0.041   0.114   2.492
10275SOL    HW131724   0.005   0.137   2.401
10275SOL    HW231725   0.141   0.111   2.488
10276SOL     OW31726   3.504   5.667   5.598
10276SOL    HW131727   3.491   5.597   5.528
10276SOL    HW231728   3.553   5.628   5.676
10277SOL     OW31729   0.306   6.324   4.180
10277SOL    HW131730   0.208   6.315   4.199
10277SOL    HW231731   0.357   6.264   4.242
10278SOL     OW31732   6.749   0.624   4.864
10278SOL    HW131733   6.824   0.675   4.907
10278SOL    HW231734   6.674   0.615   4.929
10279SOL     OW31735   2.162   5.938   4.212
10279SOL    HW131736   2.135   5.842   4.207
10279SOL    HW231737   2.254   5.948   4.174
10280SOL     OW31738   6.417   4.056   0.675
10280SOL    HW131739   6.487   3.987   0.656
10280SOL    HW231740   6.395   4.105   0.591
10281SOL     OW31741   6.937   1.967   3.551
10281SOL    HW131742   6.869   1.901   3.584
10281SOL    HW231743   6.890   2.048   3.515
10282SOL     OW31744   4.947   3.368   3.507
10282SOL    HW131745   4.964   3.466   3.498
10282SOL    HW231746   5.032   3.318   3.488
10283SOL     OW31747   0.644   3.105   1.180
10283SOL    HW131748   0.578   3.123   1.253
10283SOL    HW231749   0.594   3.087   1.095
10284SOL     OW31750   0.138   2.983   3.726
10284SOL    HW131751   0.046   2.949   3.708
10284SOL    HW231752   0.205   2.925   3.679
10285SOL     OW31753   5.601   5.700   5.228
10285SOL    HW131754   5.651   5.667   5.148
10285SOL    HW231755   5.514   5.740   5.199
10286SOL     OW31756   2.798   1.275   3.699
10286SOL    HW131757   2.718   1.264   3.640
10286SOL    HW231758   2.814   1.373   3.714
10287SOL     OW31759   2.644   5.576   2.702
10287SOL    HW131760   2.662   5.478   2.691
10287SOL    HW231761   2.615   5.615   2.615
10288SOL     OW31762   3.516   6.962   5.514
10288SOL    HW131763   3.511   6.984   5.417
10288SOL    HW231764   3.585   6.891   5.529
10289SOL     OW31765   2.944   5.403   6.512
10289SOL    HW131766   2.994   5.323   6.479
10289SOL    HW231767   2.997   5.447   6.585
10290SOL     OW31768   3.213   3.039   2.138
10290SOL    HW131769   3.220   3.043   2.038
10290SOL    HW231770   3.128   3.084   2.167
10291SOL     OW31771   1.914   1.476   2.517
10291SOL    HW131772   1.951   1.561   2.480
10291SOL    HW231773   1.973   1.400   2.491
10292SOL     OW31774   6.270   6.750   6.715
10292SOL    HW131775   6.313   6.750   6.625
10292SOL    HW231776   6.232   6.660   6.734
10293SOL     OW31777   1.177   4.043   4.114
10293SOL    HW131778   1.205   4.135   4.086
10293SOL    HW231779   1.241   3.976   4.078
10294SOL     OW31780   3.678   1.379   2.240
10294SOL    HW131781   3.655   1.466   2.283
10294SOL    HW231782   3.664   1.386   2.141
10295SOL     OW31783   0.877   2.304   6.828
10295SOL    HW131784   0.828   2.363   6.764
10295SOL    HW231785   0.953   2.259   6.780
10296SOL     OW31786   5.579   1.273   5.564
10296SOL    HW131787   5.604   1.178   5.581
10296SOL    HW231788   5.602   1.328   5.644
10297SOL     OW31789   3.440   1.486   6.915
10297SOL    HW131790   3.482   1.537   6.840
10297SOL    HW231791   3.394   1.549   6.977
10298SOL     OW31792   0.972   2.530   2.730
10298SOL    HW131793   1.001   2.447   2.776
10298SOL    HW231794   0.996   2.524   2.633
10299SOL     OW31795   4.091   6.086   3.255
10299SOL    HW131796   4.066   6.149   3.182
10299SOL    HW231797   4.187   6.099   3.280
10300SOL     OW31798   0.669   3.870   1.858
10300SOL    HW131799   0.582   3.826   1.878
10300SOL    HW231800   0.707   3.908   1.942
10301SOL     OW31801   4.311   0.312   6.292
10301SOL    HW131802   4.400   0.354   6.305
10301SOL    HW231803   4.322   0.226   6.242
10302SOL     OW31804   2.598   5.962   4.816
10302SOL    HW131805   2.507   5.921   4.818
10302SOL    HW231806   2.655   5.920   4.887
10303SOL     OW31807   0.687   5.952   4.638
10303SOL    HW131808   0.682   5.873   4.578
10303SOL    HW231809   0.595   5.987   4.656
10304SOL     OW31810   6.000   6.477   0.544
10304SOL    HW131811   6.040   6.418   0.474
10304SOL    HW231812   6.070   6.537   0.583
10305SOL     OW31813   2.592   4.553   5.989
10305SOL    HW131814   2.500   4.551   6.030
10305SOL    HW231815   2.584   4.542   5.890
10306SOL     OW31816   4.591   0.495   1.301
10306SOL    HW131817   4.543   0.424   1.248
10306SOL    HW231818   4.532   0.575   1.310
10307SOL     OW31819   2.374   0.031   4.688
10307SOL    HW131820   2.352   6.949   4.680
10307SOL    HW231821   2.467   0.047   4.655
10308SOL     OW31822   2.766   5.102   2.252
10308SOL    HW131823   2.751   5.192   2.292
10308SOL    HW231824   2.841   5.056   2.301
10309SOL     OW31825   6.778   1.418   4.650
10309SOL    HW131826   6.802   1.440   4.744
10309SOL    HW231827   6.821   1.332   4.624
10310SOL     OW31828   2.282   3.979   5.582
10310SOL    HW131829   2.184   3.963   5.569
10310SOL    HW231830   2.296   4.044   5.657
10311SOL     OW31831   5.218   5.640   0.816
10311SOL    HW131832   5.269   5.726   0.810
10311SOL    HW231833   5.271   5.567   0.773
10312SOL     OW31834   4.376   0.596   1.910
10312SOL    HW131835   4.403   0.628   2.000
10312SOL    HW231836   4.303   0.528   1.919
10313SOL     OW31837   4.741   6.816   3.200
10313SOL    HW131838   4.835   6.782   3.207
10313SOL    HW231839   4.690   6.759   3.135
10314SOL     OW31840   0.465   0.424   1.237
10314SOL    HW131841   0.371   0.435   1.204
10314SOL    HW231842   0.495   0.509   1.279
10315SOL     OW31843   5.946   5.526   3.644
10315SOL    HW131844   5.989   5.454   3.590
10315SOL    HW231845   5.999   5.541   3.728
10316SOL     OW31846   0.419   1.893   6.676
10316SOL    HW131847   0.443   1.958   6.604
10316SOL    HW231848   0.331   1.852   6.655
10317SOL     OW31849   3.957   5.633   5.923
10317SOL    HW131850   3.941   5.566   5.850
10317SOL    HW231851   3.925   5.596   6.010
10318SOL     OW31852   6.132   6.878   0.318
10318SOL    HW131853   6.152   6.974   0.299
10318SOL    HW231854   6.178   6.850   0.402
10319SOL     OW31855   0.493   4.773   4.252
10319SOL    HW131856   0.493   4.838   4.176
10319SOL    HW231857   0.507   4.681   4.216
10320SOL     OW31858   0.672   0.019   4.130
10320SOL    HW131859   0.750   7.008   4.187
10320SOL    HW231860   0.671   6.978   4.048
10321SOL     OW31861   5.307   2.295   2.101
10321SOL    HW131862   5.366   2.318   2.179
10321SOL    HW231863   5.222   2.256   2.134
10322SOL     OW31864   4.501   4.535   4.810
10322SOL    HW131865   4.426   4.553   4.874
10322SOL    HW231866   4.470   4.555   4.717
10323SOL     OW31867   0.627   4.443   5.321
10323SOL    HW131868   0.692   4.446   5.397
10323SOL    HW231869   0.643   4.360   5.268
10324SOL     OW31870   3.402   3.284   2.049
10324SOL    HW131871   3.498   3.256   2.051
10324SOL    HW231872   3.346   3.210   2.085
10325SOL     OW31873   6.838   5.689   3.135
10325SOL    HW131874   6.753   5.696   3.187
10325SOL    HW231875   6.899   5.765   3.160
10326SOL     OW31876   5.412   3.415   6.791
10326SOL    HW131877   5.479   3.467   6.739
10326SOL    HW231878   5.426   3.431   6.889
10327SOL     OW31879   2.399   4.403   1.309
10327SOL    HW131880   2.335   4.360   1.373
10327SOL    HW231881   2.432   4.489   1.347
10328SOL     OW31882   6.173   2.681   1.716
10328SOL    HW131883   6.203   2.646   1.804
10328SOL    HW231884   6.199   2.616   1.644
10329SOL     OW31885   3.891   1.624   2.764
10329SOL    HW131886   3.880   1.536   2.810
10329SOL    HW231887   3.979   1.664   2.789
10330SOL     OW31888   4.051   0.790   1.272
10330SOL    HW131889   4.050   0.696   1.307
10330SOL    HW231890   3.991   0.847   1.328
10331SOL     OW31891   6.250   5.685   6.864
10331SOL    HW131892   6.150   5.696   6.871
10331SOL    HW231893   6.272   5.588   6.858
10332SOL     OW31894   0.969   1.104   6.833
10332SOL    HW131895   0.945   1.127   6.738
10332SOL    HW231896   1.035   1.170   6.867
10333SOL     OW31897   0.766   5.220   4.596
10333SOL    HW131898   0.795   5.266   4.512
10333SOL    HW231899   0.793   5.124   4.593
10334SOL     OW31900   2.979   0.131   3.744
10334SOL    HW131901   2.952   0.190   3.668
10334SOL    HW231902   3.050   0.177   3.798
10335SOL     OW31903   0.403   2.474   5.480
10335SOL    HW131904   0.324   2.417   5.500
10335SOL    HW231905   0.374   2.568   5.467
10336SOL     OW31906   5.316   6.966   3.558
10336SOL    HW131907   5.323   0.025   3.491
10336SOL    HW231908   5.245   6.902   3.530
10337SOL     OW31909   6.199   5.393   6.662
10337SOL    HW131910   6.106   5.390   6.699
10337SOL    HW231911   6.196   5.406   6.563
10338SOL     OW31912   1.441   6.125   1.948
10338SOL    HW131913   1.357   6.179   1.941
10338SOL    HW231914   1.489   6.150   2.033
10339SOL     OW31915   6.172   2.022   5.604
10339SOL    HW131916   6.144   1.935   5.563
10339SOL    HW231917   6.261   2.049   5.567
10340SOL     OW31918   2.658   3.817   6.375
10340SOL    HW131919   2.717   3.815   6.294
10340SOL    HW231920   2.585   3.749   6.364
10341SOL     OW31921   2.256   2.669   2.849
10341SOL    HW131922   2.347   2.629   2.840
10341SOL    HW231923   2.218   2.646   2.939
10342SOL     OW31924   1.007   1.199   3.427
10342SOL    HW131925   1.043   1.145   3.350
10342SOL    HW231926   1.080   1.216   3.493
10343SOL     OW31927   2.532   5.357   1.349
10343SOL    HW131928   2.487   5.446   1.356
10343SOL    HW231929   2.569   5.346   1.256
10344SOL     OW31930   4.392   5.215   6.056
10344SOL    HW131931   4.343   5.249   6.136
10344SOL    HW231932   4.447   5.289   6.017
10345SOL     OW31933   1.666   3.597   4.310
10345SOL    HW131934   1.574   3.635   4.316
10345SOL    HW231935   1.715   3.616   4.395
10346SOL     OW31936   0.019   5.713   1.245
10346SOL    HW131937   7.012   5.750   1.154
10346SOL    HW231938   0.109   5.747   1.273
10347SOL     OW31939   4.743   1.507   3.590
10347SOL    HW131940   4.767   1.604   3.577
10347SOL    HW231941   4.650   1.492   3.557
10348SOL     OW31942   6.580   3.856   0.594
10348SOL    HW131943   6.494   3.807   0.586
10348SOL    HW231944   6.617   3.872   0.502
10349SOL     OW31945   0.942   6.732   6.788
10349SOL    HW131946   0.864   6.693   6.739
10349SOL    HW231947   0.912   6.806   6.848
10350SOL     OW31948   3.244   6.945   6.142
10350SOL    HW131949   3.149   6.963   6.118
10350SOL    HW231950   3.295   0.016   6.143
10351SOL     OW31951   4.745   5.092   5.964
10351SOL    HW131952   4.754   5.187   5.997
10351SOL    HW231953   4.702   5.092   5.874
10352SOL     OW31954   3.687   3.393   6.258
10352SOL    HW131955   3.689   3.434   6.350
10352SOL    HW231956   3.645   3.457   6.194
10353SOL     OW31957   0.052   1.983   4.656
10353SOL    HW131958   0.112   1.936   4.592
10353SOL    HW231959   6.987   2.018   4.608
10354SOL     OW31960   5.806   1.696   1.783
10354SOL    HW131961   5.750   1.613   1.788
10354SOL    HW231962   5.795   1.749   1.867
10355SOL     OW31963   2.153   5.533   2.168
10355SOL    HW131964   2.146   5.608   2.233
10355SOL    HW231965   2.094   5.551   2.089
10356SOL     OW31966   0.102   3.748   4.373
10356SOL    HW131967   0.025   3.804   4.344
10356SOL    HW231968   0.134   3.694   4.295
10357SOL     OW31969   2.439   1.682   0.317
10357SOL    HW131970   2.513   1.651   0.258
10357SOL    HW231971   2.368   1.726   0.262
10358SOL     OW31972   0.439   1.617   1.874
10358SOL    HW131973   0.528   1.570   1.879
10358SOL    HW231974   0.374   1.560   1.825
10359SOL     OW31975   0.361   1.240   1.314
10359SOL    HW131976   0.298   1.300   1.362
10359SOL    HW231977   0.309   1.169   1.266
10360SOL     OW31978   5.902   6.008   3.819
10360SOL    HW131979   5.846   6.086   3.792
10360SOL    HW231980   5.843   5.932   3.846
10361SOL     OW31981   2.014   4.718   1.255
10361SOL    HW131982   1.956   4.751   1.181
10361SOL    HW231983   2.107   4.705   1.221
10362SOL     OW31984   1.596   4.992   4.102
10362SOL    HW131985   1.692   4.999   4.077
10362SOL    HW231986   1.577   5.052   4.179
10363SOL     OW31987   5.484   0.849   4.038
10363SOL    HW131988   5.480   0.929   3.979
10363SOL    HW231989   5.523   0.875   4.126
10364SOL     OW31990   1.162   4.242   1.266
10364SOL    HW131991   1.132   4.228   1.360
10364SOL    HW231992   1.105   4.313   1.224
10365SOL     OW31993   4.277   5.892   6.861
10365SOL    HW131994   4.200   5.828   6.855
10365SOL    HW231995   4.285   5.925   6.955
10366SOL     OW31996   3.359   6.453   3.638
10366SOL    HW131997   3.284   6.503   3.681
10366SOL    HW231998   3.347   6.355   3.655
10367SOL     OW31999   6.794   2.177   3.433
10367SOL    HW132000   6.826   2.268   3.460
10367SOL    HW232001   6.695   2.173   3.440
10368SOL     OW32002   1.951   0.394   1.386
10368SOL    HW132003   1.864   0.391   1.434
10368SOL    HW232004   1.989   0.487   1.393
10369SOL     OW32005   3.877   2.761   0.401
10369SOL    HW132006   3.902   2.665   0.387
10369SOL    HW232007   3.960   2.817   0.403
10370SOL     OW32008   3.553   0.584   5.044
10370SOL    HW132009   3.468   0.632   5.068
10370SOL    HW232010   3.630   0.628   5.090
10371SOL     OW32011   4.972   6.766   6.015
10371SOL    HW132012   5.042   6.767   6.086
10371SOL    HW232013   4.884   6.737   6.054
10372SOL     OW32014   1.044   0.554   2.975
10372SOL    HW132015   1.070   0.529   2.882
10372SOL    HW232016   0.975   0.490   3.009
10373SOL     OW32017   1.151   5.970   5.088
10373SOL    HW132018   1.247   5.971   5.116
10373SOL    HW232019   1.106   5.889   5.125
10374SOL     OW32020   3.035   2.183   4.051
10374SOL    HW132021   2.959   2.219   4.105
10374SOL    HW232022   3.102   2.141   4.112
10375SOL     OW32023   6.283   2.383   0.118
10375SOL    HW132024   6.355   2.327   0.077
10375SOL    HW232025   6.323   2.467   0.155
10376SOL     OW32026   0.189   1.819   3.757
10376SOL    HW132027   0.275   1.820   3.808
10376SOL    HW232028   0.115   1.790   3.819
10377SOL     OW32029   1.025   6.706   4.309
10377SOL    HW132030   1.005   6.645   4.232
10377SOL    HW232031   1.124   6.711   4.323
10378SOL     OW32032   6.909   7.014   6.943
10378SOL    HW132033   6.828   7.001   6.886
10378SOL    HW232034   6.972   0.062   6.899
10379SOL     OW32035   5.314   1.709   4.387
10379SOL    HW132036   5.357   1.706   4.297
10379SOL    HW232037   5.218   1.682   4.378
10380SOL     OW32038   4.675   0.660   2.672
10380SOL    HW132039   4.762   0.611   2.673
10380SOL    HW232040   4.612   0.615   2.608
10381SOL     OW32041   4.478   5.138   5.034
10381SOL    HW132042   4.559   5.080   5.041
10381SOL    HW232043   4.397   5.080   5.024
10382SOL     OW32044   2.370   5.489   0.907
10382SOL    HW132045   2.308   5.421   0.948
10382SOL    HW232046   2.316   5.565   0.871
10383SOL     OW32047   6.608   2.959   6.430
10383SOL    HW132048   6.698   2.961   6.386
10383SOL    HW232049   6.602   2.876   6.486
10384SOL     OW32050   6.081   0.155   0.272
10384SOL    HW132051   5.984   0.154   0.295
10384SOL    HW232052   6.091   0.172   0.174
10385SOL     OW32053   5.596   2.370   6.849
10385SOL    HW132054   5.620   2.301   6.916
10385SOL    HW232055   5.496   2.373   6.838
10386SOL     OW32056   5.864   2.813   6.027
10386SOL    HW132057   5.902   2.754   6.099
10386SOL    HW232058   5.880   2.909   6.051
10387SOL     OW32059   2.113   3.124   3.442
10387SOL    HW132060   2.144   3.036   3.479
10387SOL    HW232061   2.028   3.151   3.486
10388SOL     OW32062   1.310   4.579   2.801
10388SOL    HW132063   1.299   4.506   2.733
10388SOL    HW232064   1.396   4.564   2.851
10389SOL     OW32065   0.259   5.896   3.025
10389SOL    HW132066   0.333   5.848   2.977
10389SOL    HW232067   0.277   5.894   3.123
10390SOL     OW32068   1.581   2.987   3.290
10390SOL    HW132069   1.590   2.890   3.267
10390SOL    HW232070   1.591   2.998   3.389
10391SOL     OW32071   3.201   6.475   5.303
10391SOL    HW132072   3.231   6.394   5.352
10391SOL    HW232073   3.104   6.491   5.321
10392SOL     OW32074   6.772   4.797   0.021
10392SOL    HW132075   6.800   4.706   0.053
10392SOL    HW232076   6.730   4.847   0.097
10393SOL     OW32077   1.389   0.798   4.009
10393SOL    HW132078   1.292   0.815   3.995
10393SOL    HW232079   1.437   0.886   4.017
10394SOL     OW32080   2.575   6.683   6.819
10394SOL    HW132081   2.670   6.714   6.817
10394SOL    HW232082   2.548   6.653   6.728
10395SOL     OW32083   1.409   1.335   5.027
10395SOL    HW132084   1.443   1.405   4.964
10395SOL    HW232085   1.435   1.360   5.121
10396SOL     OW32086   0.308   0.371   5.076
10396SOL    HW132087   0.405   0.376   5.099
10396SOL    HW232088   0.261   0.312   5.142
10397SOL     OW32089   4.191   1.764   2.509
10397SOL    HW132090   4.199   1.771   2.608
10397SOL    HW232091   4.233   1.844   2.466
10398SOL     OW32092   6.691   2.848   2.838
10398SOL    HW132093   6.746   2.766   2.824
10398SOL    HW232094   6.702   2.909   2.759
10399SOL     OW32095   6.272   1.861   5.324
10399SOL    HW132096   6.322   1.828   5.404
10399SOL    HW232097   6.177   1.829   5.328
10400SOL     OW32098   2.236   4.673   1.687
10400SOL    HW132099   2.312   4.624   1.643
10400SOL    HW232100   2.203   4.619   1.765
10401SOL     OW32101   0.930   5.990   1.334
10401SOL    HW132102   0.918   5.929   1.413
10401SOL    HW232103   0.891   6.080   1.356
10402SOL     OW32104   0.450   2.600   4.375
10402SOL    HW132105   0.461   2.531   4.446
10402SOL    HW232106   0.497   2.684   4.404
10403SOL     OW32107   5.033   1.558   2.347
10403SOL    HW132108   5.013   1.592   2.255
10403SOL    HW232109   5.067   1.464   2.341
10404SOL     OW32110   0.323   6.516   3.424
10404SOL    HW132111   0.337   6.428   3.468
10404SOL    HW232112   0.357   6.512   3.330
10405SOL     OW32113   1.536   6.886   6.942
10405SOL    HW132114   1.519   6.914   6.848
10405SOL    HW232115   1.598   6.808   6.943
10406SOL     OW32116   2.524   5.044   5.721
10406SOL    HW132117   2.446   5.036   5.659
10406SOL    HW232118   2.515   4.978   5.795
10407SOL     OW32119   1.347   1.130   6.215
10407SOL    HW132120   1.378   1.210   6.164
10407SOL    HW232121   1.321   1.057   6.152
10408SOL     OW32122   4.036   5.104   3.019
10408SOL    HW132123   4.050   5.172   3.091
10408SOL    HW232124   3.986   5.026   3.057
10409SOL     OW32125   6.105   4.781   2.287
10409SOL    HW132126   6.083   4.762   2.382
10409SOL    HW232127   6.047   4.856   2.253
10410SOL     OW32128   6.106   0.056   0.542
10410SOL    HW132129   6.163   6.992   0.565
10410SOL    HW232130   6.117   0.078   0.446
10411SOL     OW32131   1.539   4.156   2.383
10411SOL    HW132132   1.606   4.211   2.333
10411SOL    HW232133   1.459   4.211   2.403
10412SOL     OW32134   0.490   2.309   6.702
10412SOL    HW132135   0.520   2.312   6.606
10412SOL    HW232136   0.397   2.345   6.708
10413SOL     OW32137   0.093   1.838   6.090
10413SOL    HW132138   0.057   1.749   6.061
10413SOL    HW232139   0.104   1.839   6.189
10414SOL     OW32140   5.670   0.371   5.088
10414SOL    HW132141   5.611   0.448   5.113
10414SOL    HW232142   5.756   0.379   5.138
10415SOL     OW32143   0.395   5.638   3.171
10415SOL    HW132144   0.430   5.546   3.152
10415SOL    HW232145   0.298   5.643   3.145
10416SOL     OW32146   4.788   0.228   6.898
10416SOL    HW132147   4.872   0.237   6.845
10416SOL    HW232148   4.804   0.261   6.991
10417SOL     OW32149   4.190   4.781   4.540
10417SOL    HW132150   4.199   4.779   4.640
10417SOL    HW232151   4.103   4.823   4.515
10418SOL     OW32152   6.747   3.657   6.624
10418SOL    HW132153   6.761   3.593   6.700
10418SOL    HW232154   6.653   3.691   6.625
10419SOL     OW32155   2.317   1.775   4.007
10419SOL    HW132156   2.278   1.809   3.921
10419SOL    HW232157   2.274   1.822   4.084
10420SOL     OW32158   5.244   3.322   4.160
10420SOL    HW132159   5.145   3.312   4.167
10420SOL    HW232160   5.268   3.418   4.149
10421SOL     OW32161   1.332   4.661   3.434
10421SOL    HW132162   1.364   4.667   3.528
10421SOL    HW232163   1.405   4.688   3.372
10422SOL     OW32164   6.026   3.504   5.232
10422SOL    HW132165   6.047   3.528   5.137
10422SOL    HW232166   6.055   3.579   5.292
10423SOL     OW32167   2.041   5.137   3.521
10423SOL    HW132168   2.010   5.193   3.445
10423SOL    HW232169   2.111   5.186   3.573
10424SOL     OW32170   3.334   1.599   0.496
10424SOL    HW132171   3.326   1.698   0.511
10424SOL    HW232172   3.243   1.558   0.493
10425SOL     OW32173   2.365   3.276   0.589
10425SOL    HW132174   2.364   3.296   0.687
10425SOL    HW232175   2.458   3.251   0.561
10426SOL     OW32176   5.792   2.410   6.065
10426SOL    HW132177   5.839   2.498   6.077
10426SOL    HW232178   5.726   2.417   5.991
10427SOL     OW32179   5.505   1.134   3.981
10427SOL    HW132180   5.489   1.134   3.882
10427SOL    HW232181   5.446   1.203   4.024
10428SOL     OW32182   1.886   6.836   5.035
10428SOL    HW132183   1.945   6.911   5.065
10428SOL    HW232184   1.933   6.749   5.048
10429SOL     OW32185   1.351   2.907   1.119
10429SOL    HW132186   1.276   2.973   1.107
10429SOL    HW232187   1.320   2.817   1.089
10430SOL     OW32188   3.670   0.668   4.267
10430SOL    HW132189   3.699   0.626   4.352
10430SOL    HW232190   3.741   0.656   4.197
10431SOL     OW32191   3.935   0.850   3.238
10431SOL    HW132192   4.025   0.875   3.275
10431SOL    HW232193   3.911   0.757   3.266
10432SOL     OW32194   1.223   5.234   6.632
10432SOL    HW132195   1.261   5.243   6.724
10432SOL    HW232196   1.127   5.264   6.632
10433SOL     OW32197   3.893   6.243   4.045
10433SOL    HW132198   3.901   6.342   4.059
10433SOL    HW232199   3.984   6.204   4.035
10434SOL     OW32200   4.860   0.727   6.324
10434SOL    HW132201   4.830   0.640   6.286
10434SOL    HW232202   4.872   0.719   6.423
10435SOL     OW32203   2.694   1.530   0.850
10435SOL    HW132204   2.669   1.624   0.826
10435SOL    HW232205   2.630   1.495   0.918
10436SOL     OW32206   0.315   3.458   4.945
10436SOL    HW132207   0.384   3.454   4.872
10436SOL    HW232208   0.277   3.367   4.959
10437SOL     OW32209   6.281   6.631   5.127
10437SOL    HW132210   6.279   6.531   5.137
10437SOL    HW232211   6.192   6.669   5.150
10438SOL     OW32212   6.683   6.070   0.026
10438SOL    HW132213   6.621   6.071   6.963
10438SOL    HW232214   6.672   6.153   0.080
10439SOL     OW32215   6.512   5.569   5.295
10439SOL    HW132216   6.522   5.473   5.321
10439SOL    HW232217   6.592   5.597   5.243
10440SOL     OW32218   5.983   2.638   0.615
10440SOL    HW132219   6.012   2.544   0.601
10440SOL    HW232220   5.947   2.649   0.707
10441SOL     OW32221   4.651   2.194   6.675
10441SOL    HW132222   4.610   2.228   6.590
10441SOL    HW232223   4.681   2.100   6.662
10442SOL     OW32224   1.903   1.423   4.850
10442SOL    HW132225   1.837   1.475   4.904
10442SOL    HW232226   1.910   1.462   4.758
10443SOL     OW32227   1.342   0.732   1.003
10443SOL    HW132228   1.291   0.758   0.921
10443SOL    HW232229   1.353   0.813   1.061
10444SOL     OW32230   4.029   5.036   4.268
10444SOL    HW132231   4.104   5.098   4.246
10444SOL    HW232232   4.029   5.016   4.366
10445SOL     OW32233   1.240   3.457   3.831
10445SOL    HW132234   1.333   3.493   3.826
10445SOL    HW232235   1.195   3.468   3.743
10446SOL     OW32236   2.327   5.013   5.551
10446SOL    HW132237   2.305   5.092   5.493
10446SOL    HW232238   2.376   4.945   5.497
10447SOL     OW32239   0.567   1.666   2.696
10447SOL    HW132240   0.591   1.615   2.614
10447SOL    HW232241   0.625   1.636   2.772
10448SOL     OW32242   2.470   6.420   2.234
10448SOL    HW132243   2.458   6.413   2.135
10448SOL    HW232244   2.511   6.336   2.269
10449SOL     OW32245   4.339   5.171   4.666
10449SOL    HW132246   4.246   5.147   4.693
10449SOL    HW232247   4.365   5.118   4.586
10450SOL     OW32248   6.894   1.025   4.405
10450SOL    HW132249   6.796   1.017   4.390
10450SOL    HW232250   6.943   0.984   4.328
10451SOL     OW32251   3.286   1.662   3.921
10451SOL    HW132252   3.342   1.700   3.994
10451SOL    HW232253   3.289   1.722   3.841
10452SOL     OW32254   6.118   2.726   4.484
10452SOL    HW132255   6.128   2.629   4.464
10452SOL    HW232256   6.089   2.738   4.579
10453SOL     OW32257   4.061   5.800   3.759
10453SOL    HW132258   3.973   5.802   3.711
10453SOL    HW232259   4.046   5.786   3.856
10454SOL     OW32260   6.235   1.411   6.794
10454SOL    HW132261   6.258   1.337   6.857
10454SOL    HW232262   6.319   1.453   6.759
10455SOL     OW32263   0.296   5.944   3.323
10455SOL    HW132264   0.329   6.036   3.302
10455SOL    HW232265   0.294   5.931   3.422
10456SOL     OW32266   1.017   5.619   6.577
10456SOL    HW132267   1.045   5.592   6.485
10456SOL    HW232268   1.031   5.717   6.588
10457SOL     OW32269   3.907   2.124   6.262
10457SOL    HW132270   3.980   2.058   6.281
10457SOL    HW232271   3.872   2.109   6.170
10458SOL     OW32272   1.124   5.901   7.011
10458SOL    HW132273   1.151   5.832   6.944
10458SOL    HW232274   1.070   5.972   6.966
10459SOL     OW32275   5.796   5.698   1.623
10459SOL    HW132276   5.873   5.761   1.641
10459SOL    HW232277   5.717   5.726   1.677
10460SOL     OW32278   6.367   0.593   0.494
10460SOL    HW132279   6.314   0.608   0.578
10460SOL    HW232280   6.393   0.497   0.488
10461SOL     OW32281   0.020   4.462   6.578
10461SOL    HW132282   7.004   4.555   6.557
10461SOL    HW232283   0.021   4.449   6.677
10462SOL     OW32284   3.546   3.585   6.131
10462SOL    HW132285   3.501   3.564   6.044
10462SOL    HW232286   3.604   3.666   6.120
10463SOL     OW32287   4.955   2.646   6.571
10463SOL    HW132288   5.055   2.642   6.563
10463SOL    HW232289   4.923   2.574   6.632
10464SOL     OW32290   6.584   4.462   2.743
10464SOL    HW132291   6.528   4.459   2.661
10464SOL    HW232292   6.542   4.524   2.810
10465SOL     OW32293   5.596   5.100   1.386
10465SOL    HW132294   5.511   5.109   1.333
10465SOL    HW232295   5.590   5.156   1.468
10466SOL     OW32296   6.362   3.997   5.880
10466SOL    HW132297   6.273   3.979   5.836
10466SOL    HW232298   6.435   3.977   5.814
10467SOL     OW32299   0.510   2.774   6.760
10467SOL    HW132300   0.456   2.718   6.698
10467SOL    HW232301   0.470   2.865   6.766
10468SOL     OW32302   1.246   4.747   3.939
10468SOL    HW132303   1.299   4.699   3.870
10468SOL    HW232304   1.154   4.707   3.945
10469SOL     OW32305   1.418   1.564   4.175
10469SOL    HW132306   1.338   1.550   4.116
10469SOL    HW232307   1.473   1.640   4.139
10470SOL     OW32308   2.024   3.429   2.906
10470SOL    HW132309   1.945   3.482   2.936
10470SOL    HW232310   2.018   3.336   2.942
10471SOL     OW32311   2.755   5.893   6.726
10471SOL    HW132312   2.738   5.905   6.628
10471SOL    HW232313   2.701   5.815   6.759
10472SOL     OW32314   3.401   4.875   6.753
10472SOL    HW132315   3.432   4.836   6.666
10472SOL    HW232316   3.380   4.972   6.741
10473SOL     OW32317   5.682   4.829   1.096
10473SOL    HW132318   5.721   4.883   1.170
10473SOL    HW232319   5.583   4.838   1.096
10474SOL     OW32320   6.089   0.246   4.920
10474SOL    HW132321   6.081   0.184   4.998
10474SOL    HW232322   6.088   0.194   4.835
10475SOL     OW32323   1.104   5.299   1.094
10475SOL    HW132324   1.021   5.288   1.038
10475SOL    HW232325   1.078   5.328   1.186
10476SOL     OW32326   5.088   6.604   1.471
10476SOL    HW132327   5.032   6.612   1.388
10476SOL    HW232328   5.031   6.622   1.551
10477SOL     OW32329   6.815   6.036   3.809
10477SOL    HW132330   6.791   5.982   3.890
10477SOL    HW232331   6.895   5.996   3.765
10478SOL     OW32332   6.352   0.978   6.550
10478SOL    HW132333   6.325   0.953   6.457
10478SOL    HW232334   6.291   1.049   6.585
10479SOL     OW32335   0.805   2.694   1.952
10479SOL    HW132336   0.728   2.639   1.984
10479SOL    HW232337   0.786   2.728   1.860
10480SOL     OW32338   2.771   0.756   3.764
10480SOL    HW132339   2.718   0.716   3.839
10480SOL    HW232340   2.781   0.854   3.779
10481SOL     OW32341   0.121   1.085   1.038
10481SOL    HW132342   0.203   1.032   1.019
10481SOL    HW232343   0.045   1.049   0.985
10482SOL     OW32344   5.368   2.827   3.709
10482SOL    HW132345   5.340   2.919   3.684
10482SOL    HW232346   5.396   2.825   3.805
10483SOL     OW32347   6.691   6.274   0.206
10483SOL    HW132348   6.713   6.282   0.304
10483SOL    HW232349   6.694   6.364   0.163
10484SOL     OW32350   6.326   1.017   2.144
10484SOL    HW132351   6.354   0.935   2.194
10484SOL    HW232352   6.248   0.996   2.085
10485SOL     OW32353   5.302   3.222   5.503
10485SOL    HW132354   5.204   3.235   5.510
10485SOL    HW232355   5.328   3.134   5.543
10486SOL     OW32356   5.431   3.049   2.407
10486SOL    HW132357   5.361   3.062   2.337
10486SOL    HW232358   5.453   2.952   2.414
10487SOL     OW32359   5.955   6.869   1.788
10487SOL    HW132360   5.962   6.849   1.886
10487SOL    HW232361   6.018   6.943   1.764
10488SOL     OW32362   2.975   3.162   0.046
10488SOL    HW132363   2.958   3.227   6.987
10488SOL    HW232364   3.068   3.127   0.039
10489SOL     OW32365   1.447   6.005   5.151
10489SOL    HW132366   1.465   6.101   5.131
10489SOL    HW232367   1.451   5.951   5.067
10490SOL     OW32368   6.903   0.364   4.186
10490SOL    HW132369   6.899   0.264   4.188
10490SOL    HW232370   6.996   0.393   4.163
10491SOL     OW32371   0.572   4.962   5.779
10491SOL    HW132372   0.539   4.955   5.873
10491SOL    HW232373   0.671   4.976   5.779
10492SOL     OW32374   4.037   3.970   5.644
10492SOL    HW132375   4.022   4.023   5.560
10492SOL    HW232376   3.962   3.989   5.708
10493SOL     OW32377   3.073   0.985   0.649
10493SOL    HW132378   2.978   0.968   0.677
10493SOL    HW232379   3.134   0.921   0.696
10494SOL     OW32380   5.589   2.339   4.553
10494SOL    HW132381   5.619   2.308   4.462
10494SOL    HW232382   5.630   2.281   4.623
10495SOL     OW32383   1.480   6.618   0.294
10495SOL    HW132384   1.393   6.574   0.318
10495SOL    HW232385   1.509   6.678   0.369
10496SOL     OW32386   6.365   0.595   5.333
10496SOL    HW132387   6.457   0.562   5.314
10496SOL    HW232388   6.364   0.695   5.329
10497SOL     OW32389   0.764   1.758   0.193
10497SOL    HW132390   0.676   1.711   0.181
10497SOL    HW232391   0.798   1.789   0.105
10498SOL     OW32392   3.069   5.050   5.696
10498SOL    HW132393   3.094   5.027   5.602
10498SOL    HW232394   2.970   5.067   5.701
10499SOL     OW32395   3.076   5.124   3.115
10499SOL    HW132396   3.099   5.146   3.020
10499SOL    HW232397   3.037   5.032   3.119
10500SOL     OW32398   1.536   2.381   6.891
10500SOL    HW132399   1.452   2.423   6.858
10500SOL    HW232400   1.601   2.453   6.918
10501SOL     OW32401   1.415   2.109   2.914
10501SOL    HW132402   1.326   2.132   2.875
10501SOL    HW232403   1.411   2.117   3.013
10502SOL     OW32404   3.228   6.240   5.424
10502SOL    HW132405   3.297   6.172   5.449
10502SOL    HW232406   3.147   6.228   5.482
10503SOL     OW32407   2.564   3.800   5.847
10503SOL    HW132408   2.470   3.825   5.823
10503SOL    HW232409   2.607   3.876   5.896
10504SOL     OW32410   2.670   2.966   1.160
10504SOL    HW132411   2.637   2.873   1.175
10504SOL    HW232412   2.745   2.986   1.223
10505SOL     OW32413   0.196   6.900   1.448
10505SOL    HW132414   0.240   6.931   1.364
10505SOL    HW232415   0.169   6.979   1.503
10506SOL     OW32416   0.349   4.352   5.423
10506SOL    HW132417   0.321   4.391   5.335
10506SOL    HW232418   0.449   4.356   5.429
10507SOL     OW32419   1.071   0.362   4.756
10507SOL    HW132420   1.051   0.274   4.799
10507SOL    HW232421   1.079   0.349   4.657
10508SOL     OW32422   5.264   4.237   2.544
10508SOL    HW132423   5.182   4.287   2.517
10508SOL    HW232424   5.240   4.142   2.565
10509SOL     OW32425   1.743   0.274   5.321
10509SOL    HW132426   1.841   0.279   5.303
10509SOL    HW232427   1.728   0.232   5.411
10510SOL     OW32428   6.139   6.386   0.034
10510SOL    HW132429   6.219   6.361   0.088
10510SOL    HW232430   6.124   6.485   0.040
10511SOL     OW32431   6.353   2.009   0.202
10511SOL    HW132432   6.305   2.049   0.281
10511SOL    HW232433   6.289   2.000   0.126
10512SOL     OW32434   3.462   5.905   6.652
10512SOL    HW132435   3.390   5.938   6.591
10512SOL    HW232436   3.538   5.868   6.599
10513SOL     OW32437   6.638   2.491   6.941
10513SOL    HW132438   6.611   2.547   6.862
10513SOL    HW232439   6.580   2.410   6.947
10514SOL     OW32440   6.607   3.753   1.509
10514SOL    HW132441   6.629   3.669   1.559
10514SOL    HW232442   6.539   3.806   1.561
10515SOL     OW32443   6.370   2.295   4.152
10515SOL    HW132444   6.377   2.217   4.213
10515SOL    HW232445   6.307   2.274   4.078
10516SOL     OW32446   3.717   0.098   0.034
10516SOL    HW132447   3.778   0.093   0.114
10516SOL    HW232448   3.684   0.006   0.012
10517SOL     OW32449   0.304   2.355   2.931
10517SOL    HW132450   0.250   2.324   2.853
10517SOL    HW232451   0.250   2.345   3.015
10518SOL     OW32452   0.559   6.781   1.914
10518SOL    HW132453   0.607   6.832   1.986
10518SOL    HW232454   0.601   6.690   1.905
10519SOL     OW32455   3.415   3.750   5.293
10519SOL    HW132456   3.404   3.717   5.387
10519SOL    HW232457   3.500   3.714   5.255
10520SOL     OW32458   3.841   3.983   6.410
10520SOL    HW132459   3.838   3.990   6.510
10520SOL    HW232460   3.888   4.062   6.372
10521SOL     OW32461   6.506   4.993   2.048
10521SOL    HW132462   6.453   4.946   2.119
10521SOL    HW232463   6.459   5.078   2.023
10522SOL     OW32464   6.281   0.034   1.946
10522SOL    HW132465   6.351   6.982   1.920
10522SOL    HW232466   6.324   0.123   1.958
10523SOL     OW32467   0.031   5.785   6.926
10523SOL    HW132468   0.003   5.814   0.002
10523SOL    HW232469   6.979   5.815   6.859
10524SOL     OW32470   4.119   0.964   4.168
10524SOL    HW132471   4.020   0.953   4.167
10524SOL    HW232472   4.161   0.891   4.221
10525SOL     OW32473   2.875   6.267   4.552
10525SOL    HW132474   2.792   6.251   4.498
10525SOL    HW232475   2.854   6.330   4.627
10526SOL     OW32476   5.817   6.849   2.124
10526SOL    HW132477   5.907   6.891   2.115
10526SOL    HW232478   5.827   6.759   2.167
10527SOL     OW32479   1.497   2.712   4.536
10527SOL    HW132480   1.496   2.812   4.538
10527SOL    HW232481   1.537   2.681   4.450
10528SOL     OW32482   6.252   5.026   5.584
10528SOL    HW132483   6.346   5.003   5.610
10528SOL    HW232484   6.196   4.944   5.587
10529SOL     OW32485   6.011   6.112   4.041
10529SOL    HW132486   5.984   6.090   3.947
10529SOL    HW232487   6.038   6.208   4.046
10530SOL     OW32488   1.776   1.633   5.641
10530SOL    HW132489   1.742   1.543   5.669
10530SOL    HW232490   1.701   1.700   5.645
10531SOL     OW32491   2.508   2.532   5.667
10531SOL    HW132492   2.596   2.519   5.712
10531SOL    HW232493   2.435   2.495   5.725
10532SOL     OW32494   3.562   3.178   5.061
10532SOL    HW132495   3.636   3.210   5.002
10532SOL    HW232496   3.547   3.081   5.045
10533SOL     OW32497   2.213   0.935   6.145
10533SOL    HW132498   2.188   0.923   6.241
10533SOL    HW232499   2.131   0.951   6.091
10534SOL     OW32500   5.593   5.728   1.235
10534SOL    HW132501   5.566   5.718   1.331
10534SOL    HW232502   5.551   5.655   1.181
10535SOL     OW32503   0.622   1.476   2.494
10535SOL    HW132504   0.663   1.482   2.403
10535SOL    HW232505   0.667   1.404   2.547
10536SOL     OW32506   4.683   6.764   4.050
10536SOL    HW132507   4.699   6.835   3.982
10536SOL    HW232508   4.636   6.804   4.129
10537SOL     OW32509   0.579   5.190   1.040
10537SOL    HW132510   0.571   5.144   1.129
10537SOL    HW232511   0.561   5.124   0.967
10538SOL     OW32512   5.033   4.093   6.916
10538SOL    HW132513   5.090   4.175   6.918
10538SOL    HW232514   4.993   4.082   6.825
10539SOL     OW32515   0.657   3.367   5.925
10539SOL    HW132516   0.717   3.445   5.905
10539SOL    HW232517   0.690   3.287   5.875
10540SOL     OW32518   2.900   0.912   6.918
10540SOL    HW132519   2.878   0.887   6.824
10540SOL    HW232520   2.971   0.851   6.953
10541SOL     OW32521   4.324   2.451   0.714
10541SOL    HW132522   4.237   2.437   0.665
10541SOL    HW232523   4.325   2.542   0.755
10542SOL     OW32524   1.685   2.590   6.954
10542SOL    HW132525   1.779   2.599   6.988
10542SOL    HW232526   1.653   2.679   6.921
10543SOL     OW32527   2.298   0.930   5.747
10543SOL    HW132528   2.302   1.015   5.800
10543SOL    HW232529   2.380   0.876   5.764
10544SOL     OW32530   0.363   2.500   2.237
10544SOL    HW132531   0.417   2.455   2.308
10544SOL    HW232532   0.365   2.599   2.252
10545SOL     OW32533   5.489   0.808   2.854
10545SOL    HW132534   5.453   0.772   2.941
10545SOL    HW232535   5.413   0.839   2.797
10546SOL     OW32536   3.933   0.606   4.955
10546SOL    HW132537   3.864   0.610   5.027
10546SOL    HW232538   3.957   0.699   4.926
10547SOL     OW32539   4.202   1.349   0.728
10547SOL    HW132540   4.228   1.435   0.772
10547SOL    HW232541   4.266   1.329   0.654
10548SOL     OW32542   4.713   4.254   5.334
10548SOL    HW132543   4.706   4.342   5.288
10548SOL    HW232544   4.764   4.265   5.420
10549SOL     OW32545   1.535   0.984   1.492
10549SOL    HW132546   1.477   0.906   1.469
10549SOL    HW232547   1.605   0.955   1.557
10550SOL     OW32548   4.961   6.920   5.394
10550SOL    HW132549   4.990   6.936   5.489
10550SOL    HW232550   5.000   6.990   5.335
10551SOL     OW32551   1.938   2.825   5.891
10551SOL    HW132552   1.868   2.884   5.932
10551SOL    HW232553   2.029   2.861   5.915
10552SOL     OW32554   3.096   1.988   5.027
10552SOL    HW132555   3.027   2.011   4.959
10552SOL    HW232556   3.125   2.072   5.075
10553SOL     OW32557   3.006   4.422   6.320
10553SOL    HW132558   3.085   4.457   6.270
10553SOL    HW232559   2.925   4.476   6.297
10554SOL     OW32560   6.372   4.580   5.353
10554SOL    HW132561   6.364   4.656   5.289
10554SOL    HW232562   6.327   4.499   5.315
10555SOL     OW32563   3.403   2.145   1.086
10555SOL    HW132564   3.404   2.206   1.166
10555SOL    HW232565   3.380   2.199   1.004
10556SOL     OW32566   2.144   3.251   4.256
10556SOL    HW132567   2.181   3.179   4.315
10556SOL    HW232568   2.138   3.337   4.307
10557SOL     OW32569   6.383   2.086   3.731
10557SOL    HW132570   6.377   2.169   3.675
10557SOL    HW232571   6.433   2.107   3.815
10558SOL     OW32572   5.034   6.007   5.175
10558SOL    HW132573   4.947   6.050   5.197
10558SOL    HW232574   5.102   6.077   5.154
10559SOL     OW32575   4.813   2.607   0.905
10559SOL    HW132576   4.721   2.574   0.926
10559SOL    HW232577   4.880   2.534   0.923
10560SOL     OW32578   0.064   2.778   4.399
10560SOL    HW132579   0.153   2.817   4.422
10560SOL    HW232580   0.047   2.698   4.458
10561SOL     OW32581   3.043   4.412   5.877
10561SOL    HW132582   3.106   4.336   5.888
10561SOL    HW232583   2.983   4.417   5.957
10562SOL     OW32584   3.146   1.473   0.697
10562SOL    HW132585   3.099   1.463   0.610
10562SOL    HW232586   3.082   1.456   0.772
10563SOL     OW32587   1.855   1.648   3.897
10563SOL    HW132588   1.906   1.729   3.927
10563SOL    HW232589   1.889   1.567   3.945
10564SOL     OW32590   6.815   2.337   2.135
10564SOL    HW132591   6.891   2.281   2.102
10564SOL    HW232592   6.749   2.278   2.182
10565SOL     OW32593   5.052   1.686   5.061
10565SOL    HW132594   5.033   1.784   5.067
10565SOL    HW232595   5.119   1.660   5.131
10566SOL     OW32596   4.181   4.465   6.688
10566SOL    HW132597   4.095   4.474   6.737
10566SOL    HW232598   4.233   4.550   6.696
10567SOL     OW32599   1.331   5.247   3.765
10567SOL    HW132600   1.340   5.151   3.735
10567SOL    HW232601   1.342   5.307   3.686
10568SOL     OW32602   4.156   1.736   3.389
10568SOL    HW132603   4.191   1.684   3.467
10568SOL    HW232604   4.145   1.675   3.310
10569SOL     OW32605   6.315   2.952   3.136
10569SOL    HW132606   6.242   2.896   3.176
10569SOL    HW232607   6.315   3.042   3.180
10570SOL     OW32608   1.082   4.373   2.003
10570SOL    HW132609   1.141   4.347   1.927
10570SOL    HW232610   1.023   4.449   1.975
10571SOL     OW32611   5.977   6.962   4.877
10571SOL    HW132612   6.004   0.002   4.798
10571SOL    HW232613   5.935   6.877   4.845
10572SOL     OW32614   6.407   3.095   1.981
10572SOL    HW132615   6.373   3.187   1.964
10572SOL    HW232616   6.331   3.030   1.974
10573SOL     OW32617   6.323   4.693   5.853
10573SOL    HW132618   6.240   4.640   5.866
10573SOL    HW232619   6.349   4.693   5.757
10574SOL     OW32620   0.866   2.100   2.937
10574SOL    HW132621   0.886   2.170   3.006
10574SOL    HW232622   0.780   2.055   2.958
10575SOL     OW32623   0.803   6.888   5.768
10575SOL    HW132624   0.754   6.906   5.682
10575SOL    HW232625   0.840   6.795   5.766
10576SOL     OW32626   1.542   4.725   3.221
10576SOL    HW132627   1.507   4.659   3.155
10576SOL    HW232628   1.559   4.813   3.176
10577SOL     OW32629   0.934   3.122   5.311
10577SOL    HW132630   1.014   3.074   5.347
10577SOL    HW232631   0.886   3.063   5.246
10578SOL     OW32632   5.775   0.821   5.773
10578SOL    HW132633   5.847   0.769   5.728
10578SOL    HW232634   5.694   0.764   5.783
10579SOL     OW32635   5.016   0.731   0.805
10579SOL    HW132636   4.973   0.645   0.833
10579SOL    HW232637   4.946   0.803   0.799
10580SOL     OW32638   6.414   6.359   0.146
10580SOL    HW132639   6.495   6.340   0.201
10580SOL    HW232640   6.400   6.284   0.081
10581SOL     OW32641   4.389   1.476   3.997
10581SOL    HW132642   4.373   1.420   3.916
10581SOL    HW232643   4.302   1.493   4.043
10582SOL     OW32644   3.509   4.470   0.122
10582SOL    HW132645   3.492   4.471   0.220
10582SOL    HW232646   3.600   4.508   0.104
10583SOL     OW32647   4.785   1.655   0.687
10583SOL    HW132648   4.695   1.685   0.721
10583SOL    HW232649   4.856   1.684   0.752
10584SOL     OW32650   6.358   0.505   1.554
10584SOL    HW132651   6.299   0.470   1.626
10584SOL    HW232652   6.310   0.503   1.466
10585SOL     OW32653   2.016   4.500   6.602
10585SOL    HW132654   2.027   4.458   6.692
10585SOL    HW232655   2.042   4.596   6.606
10586SOL     OW32656   4.177   1.346   0.240
10586SOL    HW132657   4.221   1.435   0.233
10586SOL    HW232658   4.244   1.274   0.222
10587SOL     OW32659   5.802   3.316   0.887
10587SOL    HW132660   5.845   3.242   0.836
10587SOL    HW232661   5.869   3.359   0.947
10588SOL     OW32662   0.881   5.448   3.099
10588SOL    HW132663   0.784   5.425   3.096
10588SOL    HW232664   0.924   5.400   3.175
10589SOL     OW32665   6.098   1.610   3.862
10589SOL    HW132666   6.103   1.708   3.880
10589SOL    HW232667   6.159   1.561   3.924
10590SOL     OW32668   1.845   0.862   4.433
10590SOL    HW132669   1.784   0.911   4.495
10590SOL    HW232670   1.794   0.789   4.387
10591SOL     OW32671   1.368   2.302   0.690
10591SOL    HW132672   1.344   2.223   0.634
10591SOL    HW232673   1.304   2.377   0.670
10592SOL     OW32674   6.214   1.916   6.998
10592SOL    HW132675   6.217   1.988   6.929
10592SOL    HW232676   6.288   1.851   6.981
10593SOL     OW32677   2.251   4.867   1.185
10593SOL    HW132678   2.283   4.900   1.274
10593SOL    HW232679   2.309   4.791   1.155
10594SOL     OW32680   1.136   2.095   4.512
10594SOL    HW132681   1.049   2.047   4.527
10594SOL    HW232682   1.191   2.093   4.596
10595SOL     OW32683   1.978   6.211   5.680
10595SOL    HW132684   2.045   6.167   5.740
10595SOL    HW232685   2.024   6.281   5.625
10596SOL     OW32686   3.535   0.715   1.916
10596SOL    HW132687   3.470   0.767   1.861
10596SOL    HW232688   3.556   0.766   2.000
10597SOL     OW32689   1.986   0.229   4.165
10597SOL    HW132690   1.906   0.289   4.171
10597SOL    HW232691   1.997   0.178   4.250
10598SOL     OW32692   1.851   2.013   6.870
10598SOL    HW132693   1.866   2.086   6.937
10598SOL    HW232694   1.789   1.945   6.908
10599SOL     OW32695   4.970   0.790   6.833
10599SOL    HW132696   4.897   0.787   6.901
10599SOL    HW232697   5.034   0.863   6.856
10600SOL     OW32698   1.943   2.279   5.615
10600SOL    HW132699   1.917   2.375   5.604
10600SOL    HW232700   2.039   2.274   5.642
10601SOL     OW32701   3.426   6.642   5.942
10601SOL    HW132702   3.344   6.654   5.997
10601SOL    HW232703   3.442   6.545   5.925
10602SOL     OW32704   4.243   0.937   1.963
10602SOL    HW132705   4.308   0.956   1.890
10602SOL    HW232706   4.156   0.981   1.943
10603SOL     OW32707   1.146   5.645   4.283
10603SOL    HW132708   1.109   5.576   4.221
10603SOL    HW232709   1.077   5.715   4.300
10604SOL     OW32710   6.677   4.231   5.188
10604SOL    HW132711   6.696   4.323   5.222
10604SOL    HW232712   6.633   4.236   5.099
10605SOL     OW32713   2.322   4.719   6.529
10605SOL    HW132714   2.265   4.783   6.477
10605SOL    HW232715   2.409   4.706   6.480
10606SOL     OW32716   0.485   0.983   3.120
10606SOL    HW132717   0.445   0.950   3.035
10606SOL    HW232718   0.574   0.939   3.135
10607SOL     OW32719   5.704   4.845   0.365
10607SOL    HW132720   5.662   4.935   0.355
10607SOL    HW232721   5.719   4.805   0.275
10608SOL     OW32722   5.903   0.947   2.682
10608SOL    HW132723   5.983   0.962   2.739
10608SOL    HW232724   5.930   0.902   2.597
10609SOL     OW32725   3.854   6.824   1.991
10609SOL    HW132726   3.757   6.842   2.005
10609SOL    HW232727   3.897   6.905   1.950
10610SOL     OW32728   1.795   3.433   4.793
10610SOL    HW132729   1.851   3.409   4.873
10610SOL    HW232730   1.855   3.468   4.721
10611SOL     OW32731   4.977   2.305   5.966
10611SOL    HW132732   5.003   2.238   5.897
10611SOL    HW232733   4.952   2.258   6.051
10612SOL     OW32734   1.000   6.897   1.128
10612SOL    HW132735   1.018   6.799   1.136
10612SOL    HW232736   1.087   6.946   1.119
10613SOL     OW32737   0.779   6.639   6.570
10613SOL    HW132738   0.792   6.613   6.474
10613SOL    HW232739   0.756   6.736   6.575
10614SOL     OW32740   6.699   0.884   4.223
10614SOL    HW132741   6.721   0.953   4.155
10614SOL    HW232742   6.766   0.810   4.219
10615SOL     OW32743   6.722   5.835   5.356
10615SOL    HW132744   6.819   5.828   5.379
10615SOL    HW232745   6.682   5.744   5.353
10616SOL     OW32746   2.858   6.146   0.096
10616SOL    HW132747   2.871   6.244   0.111
10616SOL    HW232748   2.819   6.104   0.178
10617SOL     OW32749   0.707   2.141   6.338
10617SOL    HW132750   0.764   2.070   6.380
10617SOL    HW232751   0.703   2.126   6.239
10618SOL     OW32752   6.131   4.089   1.439
10618SOL    HW132753   6.117   4.176   1.392
10618SOL    HW232754   6.218   4.049   1.409
10619SOL     OW32755   0.506   4.474   3.891
10619SOL    HW132756   0.502   4.536   3.812
10619SOL    HW232757   0.550   4.388   3.863
10620SOL     OW32758   1.322   5.969   4.256
10620SOL    HW132759   1.284   6.015   4.336
10620SOL    HW232760   1.413   6.006   4.236
10621SOL     OW32761   2.779   6.175   0.860
10621SOL    HW132762   2.788   6.122   0.945
10621SOL    HW232763   2.710   6.132   0.802
10622SOL     OW32764   4.518   1.654   1.460
10622SOL    HW132765   4.559   1.651   1.369
10622SOL    HW232766   4.528   1.565   1.504
10623SOL     OW32767   6.465   1.275   3.792
10623SOL    HW132768   6.549   1.265   3.739
10623SOL    HW232769   6.387   1.284   3.731
10624SOL     OW32770   2.768   1.328   4.390
10624SOL    HW132771   2.815   1.362   4.308
10624SOL    HW232772   2.687   1.275   4.363
10625SOL     OW32773   0.111   3.221   0.125
10625SOL    HW132774   0.035   3.161   0.149
10625SOL    HW232775   0.180   3.218   0.197
10626SOL     OW32776   6.825   1.784   1.238
10626SOL    HW132777   6.735   1.822   1.255
10626SOL    HW232778   6.879   1.850   1.185
10627SOL     OW32779   6.409   5.192   4.418
10627SOL    HW132780   6.406   5.253   4.339
10627SOL    HW232781   6.319   5.152   4.433
10628SOL     OW32782   6.937   6.235   6.212
10628SOL    HW132783   6.864   6.293   6.177
10628SOL    HW232784   6.901   6.179   6.287
10629SOL     OW32785   2.837   5.582   6.049
10629SOL    HW132786   2.881   5.516   6.111
10629SOL    HW232787   2.742   5.554   6.034
10630SOL     OW32788   6.773   1.309   2.926
10630SOL    HW132789   6.786   1.214   2.954
10630SOL    HW232790   6.850   1.364   2.958
10631SOL     OW32791   1.344   0.332   5.117
10631SOL    HW132792   1.267   0.280   5.156
10631SOL    HW232793   1.371   0.291   5.030
10632SOL     OW32794   0.293   2.971   5.081
10632SOL    HW132795   0.320   2.878   5.057
10632SOL    HW232796   0.373   3.021   5.114
10633SOL     OW32797   1.041   5.246   0.327
10633SOL    HW132798   0.956   5.276   0.283
10633SOL    HW232799   1.089   5.326   0.363
10634SOL     OW32800   3.970   7.000   1.479
10634SOL    HW132801   3.898   6.988   1.547
10634SOL    HW232802   4.009   0.077   1.486
10635SOL     OW32803   1.819   0.850   0.724
10635SOL    HW132804   1.792   0.777   0.787
10635SOL    HW232805   1.737   0.890   0.682
10636SOL     OW32806   6.708   1.203   0.919
10636SOL    HW132807   6.690   1.282   0.978
10636SOL    HW232808   6.736   1.235   0.829
10637SOL     OW32809   4.095   4.760   5.588
10637SOL    HW132810   4.075   4.724   5.680
10637SOL    HW232811   4.109   4.684   5.525
10638SOL     OW32812   6.789   0.523   5.255
10638SOL    HW132813   6.804   0.514   5.354
10638SOL    HW232814   6.692   0.510   5.234
10639SOL     OW32815   3.150   1.693   5.210
10639SOL    HW132816   3.181   1.742   5.291
10639SOL    HW232817   3.108   1.757   5.146
10640SOL     OW32818   3.519   6.603   0.473
10640SOL    HW132819   3.425   6.597   0.440
10640SOL    HW232820   3.533   6.691   0.517
10641SOL     OW32821   4.258   0.736   6.274
10641SOL    HW132822   4.321   0.683   6.218
10641SOL    HW232823   4.261   0.703   6.369
10642SOL     OW32824   6.929   3.583   0.641
10642SOL    HW132825   6.945   3.679   0.662
10642SOL    HW232826   7.001   3.549   0.581
10643SOL     OW32827   4.073   3.538   5.253
10643SOL    HW132828   4.146   3.480   5.289
10643SOL    HW232829   4.064   3.619   5.310
10644SOL     OW32830   3.617   1.790   4.984
10644SOL    HW132831   3.580   1.778   5.076
10644SOL    HW232832   3.552   1.756   4.917
10645SOL     OW32833   2.425   6.817   5.138
10645SOL    HW132834   2.453   6.882   5.209
10645SOL    HW232835   2.326   6.824   5.124
10646SOL     OW32836   1.160   4.079   6.584
10646SOL    HW132837   1.088   4.023   6.543
10646SOL    HW232838   1.248   4.032   6.574
10647SOL     OW32839   0.275   4.806   0.581
10647SOL    HW132840   0.281   4.904   0.561
10647SOL    HW232841   0.347   4.757   0.531
10648SOL     OW32842   5.139   4.703   6.404
10648SOL    HW132843   5.198   4.629   6.434
10648SOL    HW232844   5.151   4.782   6.464
10649SOL     OW32845   0.645   4.687   5.831
10649SOL    HW132846   0.548   4.663   5.837
10649SOL    HW232847   0.662   4.737   5.746
10650SOL     OW32848   2.872   0.682   4.327
10650SOL    HW132849   2.838   0.635   4.245
10650SOL    HW232850   2.966   0.711   4.312
10651SOL     OW32851   3.116   0.146   5.596
10651SOL    HW132852   3.045   0.202   5.638
10651SOL    HW232853   3.086   0.050   5.595
10652SOL     OW32854   3.933   0.915   0.157
10652SOL    HW132855   4.013   0.890   0.102
10652SOL    HW232856   3.938   1.012   0.182
10653SOL     OW32857   5.441   2.789   3.982
10653SOL    HW132858   5.423   2.885   4.004
10653SOL    HW232859   5.480   2.743   4.061
10654SOL     OW32860   4.409   0.688   1.359
10654SOL    HW132861   4.366   0.691   1.449
10654SOL    HW232862   4.371   0.761   1.301
10655SOL     OW32863   3.517   5.814   1.536
10655SOL    HW132864   3.430   5.860   1.519
10655SOL    HW232865   3.545   5.766   1.453
10656SOL     OW32866   6.177   2.920   6.077
10656SOL    HW132867   6.255   2.974   6.108
10656SOL    HW232868   6.208   2.852   6.010
10657SOL     OW32869   6.189   0.388   1.790
10657SOL    HW132870   6.257   0.345   1.850
10657SOL    HW232871   6.110   0.417   1.844
10658SOL     OW32872   0.627   6.443   4.827
10658SOL    HW132873   0.726   6.435   4.815
10658SOL    HW232874   0.584   6.470   4.741
10659SOL     OW32875   5.460   1.031   0.944
10659SOL    HW132876   5.447   1.054   1.041
10659SOL    HW232877   5.510   0.945   0.937
10660SOL     OW32878   5.218   4.951   5.624
10660SOL    HW132879   5.291   4.967   5.558
10660SOL    HW232880   5.209   5.030   5.685
10661SOL     OW32881   0.849   0.213   2.257
10661SOL    HW132882   0.862   0.224   2.158
10661SOL    HW232883   0.920   0.152   2.293
10662SOL     OW32884   5.858   1.251   0.904
10662SOL    HW132885   5.825   1.336   0.862
10662SOL    HW232886   5.835   1.251   1.001
10663SOL     OW32887   0.527   0.869   0.449
10663SOL    HW132888   0.613   0.910   0.478
10663SOL    HW232889   0.529   0.851   0.351
10664SOL     OW32890   2.306   4.513   6.710
10664SOL    HW132891   2.209   4.491   6.718
10664SOL    HW232892   2.318   4.591   6.649
10665SOL     OW32893   5.845   0.763   6.862
10665SOL    HW132894   5.787   0.792   6.939
10665SOL    HW232895   5.941   0.772   6.888
10666SOL     OW32896   0.821   0.233   6.912
10666SOL    HW132897   0.788   0.173   6.839
10666SOL    HW232898   0.786   0.325   6.898
10667SOL     OW32899   3.450   2.174   5.212
10667SOL    HW132900   3.387   2.246   5.182
10667SOL    HW232901   3.508   2.147   5.135
10668SOL     OW32902   2.066   0.976   6.606
10668SOL    HW132903   1.977   1.005   6.571
10668SOL    HW232904   2.062   0.969   6.705
10669SOL     OW32905   0.942   6.471   6.890
10669SOL    HW132906   0.954   6.566   6.860
10669SOL    HW232907   0.871   6.466   6.960
10670SOL     OW32908   6.875   5.080   5.347
10670SOL    HW132909   6.819   4.999   5.365
10670SOL    HW232910   6.822   5.163   5.362
10671SOL     OW32911   1.806   1.905   3.288
10671SOL    HW132912   1.813   1.846   3.368
10671SOL    HW232913   1.839   1.857   3.208
10672SOL     OW32914   0.443   2.501   1.164
10672SOL    HW132915   0.511   2.444   1.116
10672SOL    HW232916   0.399   2.446   1.235
10673SOL     OW32917   3.277   3.377   4.810
10673SOL    HW132918   3.263   3.423   4.723
10673SOL    HW232919   3.364   3.406   4.850
10674SOL     OW32920   4.437   1.644   2.221
10674SOL    HW132921   4.514   1.706   2.236
10674SOL    HW232922   4.427   1.584   2.300
10675SOL     OW32923   0.287   1.250   6.610
10675SOL    HW132924   0.365   1.192   6.635
10675SOL    HW232925   0.234   1.272   6.692
10676SOL     OW32926   6.713   0.162   0.201
10676SOL    HW132927   6.731   0.197   0.109
10676SOL    HW232928   6.799   0.152   0.250
10677SOL     OW32929   6.569   1.060   0.183
10677SOL    HW132930   6.635   0.985   0.173
10677SOL    HW232931   6.595   1.135   0.122
10678SOL     OW32932   2.094   5.772   2.746
10678SOL    HW132933   2.123   5.810   2.657
10678SOL    HW232934   2.149   5.691   2.767
10679SOL     OW32935   5.430   5.116   3.509
10679SOL    HW132936   5.466   5.113   3.602
10679SOL    HW232937   5.384   5.204   3.494
10680SOL     OW32938   1.681   2.285   3.643
10680SOL    HW132939   1.770   2.320   3.673
10680SOL    HW232940   1.695   2.221   3.567
10681SOL     OW32941   0.851   1.990   6.544
10681SOL    HW132942   0.809   1.931   6.612
10681SOL    HW232943   0.863   1.940   6.459
10682SOL     OW32944   6.303   1.512   2.949
10682SOL    HW132945   6.284   1.610   2.956
10682SOL    HW232946   6.261   1.476   2.865
10683SOL     OW32947   2.152   0.586   4.215
10683SOL    HW132948   2.149   0.533   4.300
10683SOL    HW232949   2.061   0.589   4.173
10684SOL     OW32950   6.144   6.183   0.596
10684SOL    HW132951   6.222   6.239   0.566
10684SOL    HW232952   6.168   6.086   0.589
10685SOL     OW32953   6.990   2.576   2.065
10685SOL    HW132954   6.979   2.672   2.090
10685SOL    HW232955   6.900   2.533   2.058
10686SOL     OW32956   4.142   4.329   0.958
10686SOL    HW132957   4.195   4.361   0.880
10686SOL    HW232958   4.077   4.400   0.986
10687SOL     OW32959   0.109   5.256   1.306
10687SOL    HW132960   0.087   5.317   1.382
10687SOL    HW232961   0.201   5.275   1.272
10688SOL     OW32962   6.507   5.765   1.439
10688SOL    HW132963   6.566   5.686   1.457
10688SOL    HW232964   6.507   5.824   1.519
10689SOL     OW32965   0.854   0.952   1.444
10689SOL    HW132966   0.861   1.012   1.523
10689SOL    HW232967   0.848   0.857   1.474
10690SOL     OW32968   4.601   6.080   2.327
10690SOL    HW132969   4.588   6.111   2.233
10690SOL    HW232970   4.659   6.146   2.376
10691SOL     OW32971   6.435   1.409   1.178
10691SOL    HW132972   6.496   1.449   1.109
10691SOL    HW232973   6.409   1.317   1.149
10692SOL     OW32974   5.463   6.107   4.569
10692SOL    HW132975   5.365   6.085   4.576
10692SOL    HW232976   5.511   6.071   4.649
10693SOL     OW32977   4.661   2.570   3.177
10693SOL    HW132978   4.580   2.540   3.228
10693SOL    HW232979   4.716   2.630   3.235
10694SOL     OW32980   3.241   6.293   0.603
10694SOL    HW132981   3.213   6.387   0.585
10694SOL    HW232982   3.172   6.247   0.658
10695SOL     OW32983   5.939   2.680   5.144
10695SOL    HW132984   5.987   2.761   5.113
10695SOL    HW232985   5.843   2.684   5.115
10696SOL     OW32986   6.733   6.512   2.157
10696SOL    HW132987   6.821   6.465   2.169
10696SOL    HW232988   6.722   6.539   2.062
10697SOL     OW32989   2.714   6.550   2.944
10697SOL    HW132990   2.721   6.649   2.933
10697SOL    HW232991   2.667   6.529   3.029
10698SOL     OW32992   3.145   0.679   3.337
10698SOL    HW132993   3.192   0.750   3.284
10698SOL    HW232994   3.046   0.692   3.330
10699SOL     OW32995   2.024   2.250   2.937
10699SOL    HW132996   2.111   2.290   2.967
10699SOL    HW232997   2.042   2.182   2.865
10700SOL     OW32998   0.331   1.237   1.791
10700SOL    HW132999   0.325   1.167   1.720
10700SOL    HW233000   0.297   1.324   1.755
10701SOL     OW33001   3.454   6.945   0.944
10701SOL    HW133002   3.484   6.850   0.951
10701SOL    HW233003   3.446   6.971   0.847
10702SOL     OW33004   5.226   2.884   1.103
10702SOL    HW133005   5.146   2.826   1.088
10702SOL    HW233006   5.280   2.847   1.179
10703SOL     OW33007   3.710   3.109   4.070
10703SOL    HW133008   3.628   3.135   4.120
10703SOL    HW233009   3.716   3.162   3.985
10704SOL     OW33010   5.550   6.553   2.466
10704SOL    HW133011   5.571   6.460   2.496
10704SOL    HW233012   5.629   6.612   2.485
10705SOL     OW33013   1.494   3.300   5.940
10705SOL    HW133014   1.571   3.362   5.955
10705SOL    HW233015   1.485   3.281   5.842
10706SOL     OW33016   3.504   2.109   1.439
10706SOL    HW133017   3.460   2.189   1.398
10706SOL    HW233018   3.570   2.139   1.508
10707SOL     OW33019   6.243   6.943   6.313
10707SOL    HW133020   6.175   0.002   6.321
10707SOL    HW233021   6.238   6.904   6.222
10708SOL     OW33022   4.661   1.168   1.501
10708SOL    HW133023   4.672   1.123   1.590
10708SOL    HW233024   4.734   1.138   1.439
10709SOL     OW33025   0.723   0.015   6.000
10709SOL    HW133026   0.741   6.986   5.913
10709SOL    HW233027   0.627   0.039   6.007
10710SOL     OW33028   6.546   5.948   4.254
10710SOL    HW133029   6.578   6.030   4.206
10710SOL    HW233030   6.507   5.884   4.188
10711SOL     OW33031   2.544   5.718   5.001
10711SOL    HW133032   2.520   5.648   5.068
10711SOL    HW233033   2.475   5.719   4.928
10712SOL     OW33034   4.173   1.411   5.749
10712SOL    HW133035   4.159   1.437   5.654
10712SOL    HW233036   4.122   1.327   5.768
10713SOL     OW33037   1.890   6.008   0.918
10713SOL    HW133038   1.885   5.953   1.002
10713SOL    HW233039   1.942   5.959   0.849
10714SOL     OW33040   6.670   5.730   5.660
10714SOL    HW133041   6.673   5.816   5.608
10714SOL    HW233042   6.754   5.678   5.643
10715SOL     OW33043   6.202   0.796   3.329
10715SOL    HW133044   6.106   0.804   3.354
10715SOL    HW233045   6.247   0.730   3.389
10716SOL     OW33046   6.753   0.935   2.195
10716SOL    HW133047   6.787   0.889   2.277
10716SOL    HW233048   6.763   1.034   2.205
10717SOL     OW33049   0.183   6.338   2.119
10717SOL    HW133050   0.098   6.363   2.165
10717SOL    HW233051   0.243   6.418   2.113
10718SOL     OW33052   0.777   3.693   5.852
10718SOL    HW133053   0.834   3.740   5.785
10718SOL    HW233054   0.692   3.662   5.808
10719SOL     OW33055   3.722   6.739   2.435
10719SOL    HW133056   3.801   6.705   2.383
10719SOL    HW233057   3.707   6.682   2.515
10720SOL     OW33058   0.359   2.987   6.584
10720SOL    HW133059   0.429   3.005   6.654
10720SOL    HW233060   0.272   2.966   6.628
10721SOL     OW33061   4.944   2.109   4.721
10721SOL    HW133062   4.955   2.027   4.665
10721SOL    HW233063   4.910   2.083   4.811
10722SOL     OW33064   6.920   4.683   0.787
10722SOL    HW133065   6.938   4.617   0.860
10722SOL    HW233066   6.848   4.746   0.816
10723SOL     OW33067   6.242   4.894   0.594
10723SOL    HW133068   6.184   4.873   0.515
10723SOL    HW233069   6.256   4.993   0.600
10724SOL     OW33070   3.366   0.226   5.487
10724SOL    HW133071   3.269   0.215   5.507
10724SOL    HW233072   3.420   0.177   5.556
10725SOL     OW33073   6.860   0.313   5.072
10725SOL    HW133074   6.868   0.362   4.984
10725SOL    HW233075   6.855   0.380   5.146
10726SOL     OW33076   5.901   0.944   3.694
10726SOL    HW133077   5.972   1.013   3.707
10726SOL    HW233078   5.826   0.960   3.758
10727SOL     OW33079   3.056   6.886   0.033
10727SOL    HW133080   3.108   6.969   0.013
10727SOL    HW233081   3.102   6.808   7.006
10728SOL     OW33082   5.574   5.639   3.987
10728SOL    HW133083   5.590   5.544   4.014
10728SOL    HW233084   5.482   5.648   3.949
10729SOL     OW33085   5.675   3.032   4.099
10729SOL    HW133086   5.698   3.129   4.106
10729SOL    HW233087   5.741   2.986   4.038
10730SOL     OW33088   1.203   5.624   3.510
10730SOL    HW133089   1.201   5.677   3.595
10730SOL    HW233090   1.164   5.678   3.436
10731SOL     OW33091   5.026   5.569   6.653
10731SOL    HW133092   4.951   5.504   6.664
10731SOL    HW233093   4.990   5.658   6.625
10732SOL     OW33094   6.487   6.075   2.798
10732SOL    HW133095   6.495   5.983   2.759
10732SOL    HW233096   6.532   6.141   2.737
10733SOL     OW33097   0.437   1.567   6.016
10733SOL    HW133098   0.528   1.524   6.016
10733SOL    HW233099   0.386   1.537   6.097
10734SOL     OW33100   1.160   0.492   4.963
10734SOL    HW133101   1.117   0.448   4.885
10734SOL    HW233102   1.208   0.424   5.018
10735SOL     OW33103   0.434   0.250   1.803
10735SOL    HW133104   0.437   0.331   1.743
10735SOL    HW233105   0.415   0.169   1.748
10736SOL     OW33106   5.362   5.674   3.107
10736SOL    HW133107   5.409   5.598   3.062
10736SOL    HW233108   5.355   5.751   3.044
10737SOL     OW33109   6.658   1.118   1.738
10737SOL    HW133110   6.736   1.066   1.704
10737SOL    HW233111   6.643   1.098   1.834
10738SOL     OW33112   2.460   6.769   1.477
10738SOL    HW133113   2.555   6.739   1.468
10738SOL    HW233114   2.420   6.781   1.386
10739SOL     OW33115   5.536   3.398   4.264
10739SOL    HW133116   5.474   3.464   4.222
10739SOL    HW233117   5.482   3.328   4.312
10740SOL     OW33118   3.074   0.351   6.132
10740SOL    HW133119   3.035   0.401   6.055
10740SOL    HW233120   3.113   0.415   6.198
10741SOL     OW33121   1.383   2.136   3.621
10741SOL    HW133122   1.368   2.089   3.534
10741SOL    HW233123   1.379   2.235   3.606
10742SOL     OW33124   6.237   6.441   2.070
10742SOL    HW133125   6.221   6.342   2.066
10742SOL    HW233126   6.273   6.472   1.982
10743SOL     OW33127   3.574   2.083   5.865
10743SOL    HW133128   3.492   2.086   5.922
10743SOL    HW233129   3.628   2.003   5.889
10744SOL     OW33130   2.668   1.788   0.755
10744SOL    HW133131   2.602   1.755   0.688
10744SOL    HW233132   2.755   1.807   0.710
10745SOL     OW33133   2.354   4.870   1.438
10745SOL    HW133134   2.375   4.773   1.445
10745SOL    HW233135   2.405   4.921   1.507
10746SOL     OW33136   2.568   5.174   6.597
10746SOL    HW133137   2.619   5.246   6.644
10746SOL    HW233138   2.517   5.214   6.520
10747SOL     OW33139   6.658   1.410   4.398
10747SOL    HW133140   6.698   1.426   4.489
10747SOL    HW233141   6.564   1.380   4.409
10748SOL     OW33142   3.241   6.390   2.397
10748SOL    HW133143   3.145   6.367   2.379
10748SOL    HW233144   3.255   6.487   2.382
10749SOL     OW33145   6.165   4.466   1.677
10749SOL    HW133146   6.264   4.468   1.666
10749SOL    HW233147   6.141   4.406   1.753
10750SOL     OW33148   4.058   1.856   4.359
10750SOL    HW133149   4.088   1.811   4.275
10750SOL    HW233150   4.107   1.942   4.370
10751SOL     OW33151   6.473   5.865   4.515
10751SOL    HW133152   6.436   5.774   4.498
10751SOL    HW233153   6.567   5.870   4.482
10752SOL     OW33154   6.816   6.331   0.469
10752SOL    HW133155   6.790   6.250   0.523
10752SOL    HW233156   6.755   6.407   0.493
10753SOL     OW33157   4.878   6.764   5.132
10753SOL    HW133158   4.903   6.816   5.214
10753SOL    HW233159   4.814   6.692   5.157
10754SOL     OW33160   1.338   5.100   2.156
10754SOL    HW133161   1.309   5.015   2.200
10754SOL    HW233162   1.379   5.079   2.068
10755SOL     OW33163   0.494   2.107   1.597
10755SOL    HW133164   0.531   2.128   1.687
10755SOL    HW233165   0.565   2.065   1.541
10756SOL     OW33166   1.310   0.415   0.108
10756SOL    HW133167   1.252   0.480   0.059
10756SOL    HW233168   1.347   0.348   0.044
10757SOL     OW33169   0.299   2.628   2.608
10757SOL    HW133170   0.391   2.667   2.619
10757SOL    HW233171   0.234   2.702   2.592
10758SOL     OW33172   0.730   0.646   0.079
10758SOL    HW133173   0.687   0.564   0.040
10758SOL    HW233174   0.829   0.641   0.066
10759SOL     OW33175   3.064   3.244   5.216
10759SOL    HW133176   2.980   3.267   5.167
10759SOL    HW233177   3.057   3.275   5.311
10760SOL     OW33178   0.513   4.696   6.896
10760SOL    HW133179   0.491   4.702   6.798
10760SOL    HW233180   0.602   4.651   6.907
10761SOL     OW33181   1.151   1.716   6.052
10761SOL    HW133182   1.080   1.774   6.092
10761SOL    HW233183   1.241   1.754   6.073
10762SOL     OW33184   2.315   6.128   6.747
10762SOL    HW133185   2.275   6.096   6.662
10762SOL    HW233186   2.243   6.163   6.807
10763SOL     OW33187   4.451   0.642   2.885
10763SOL    HW133188   4.413   0.585   2.959
10763SOL    HW233189   4.547   0.616   2.870
10764SOL     OW33190   5.120   6.157   4.812
10764SOL    HW133191   5.146   6.180   4.718
10764SOL    HW233192   5.148   6.063   4.832
10765SOL     OW33193   0.950   2.142   1.184
10765SOL    HW133194   1.034   2.176   1.227
10765SOL    HW233195   0.877   2.137   1.252
10766SOL     OW33196   2.735   5.027   6.405
10766SOL    HW133197   2.806   4.978   6.455
10766SOL    HW233198   2.670   5.066   6.470
10767SOL     OW33199   1.738   4.627   0.237
10767SOL    HW133200   1.678   4.685   0.293
10767SOL    HW233201   1.752   4.539   0.282
10768SOL     OW33202   5.411   6.161   6.695
10768SOL    HW133203   5.339   6.092   6.698
10768SOL    HW233204   5.405   6.221   6.775
10769SOL     OW33205   2.928   3.393   4.546
10769SOL    HW133206   2.975   3.348   4.622
10769SOL    HW233207   2.909   3.326   4.474
10770SOL     OW33208   6.060   0.121   3.228
10770SOL    HW133209   5.962   0.115   3.244
10770SOL    HW233210   6.077   0.191   3.159
10771SOL     OW33211   4.799   5.880   5.477
10771SOL    HW133212   4.874   5.946   5.483
10771SOL    HW233213   4.723   5.911   5.533
10772SOL     OW33214   5.645   5.233   2.392
10772SOL    HW133215   5.674   5.139   2.408
10772SOL    HW233216   5.550   5.245   2.422
10773SOL     OW33217   0.579   3.560   0.671
10773SOL    HW133218   0.608   3.655   0.686
10773SOL    HW233219   0.656   3.499   0.689
10774SOL     OW33220   0.991   3.115   0.710
10774SOL    HW133221   1.066   3.164   0.755
10774SOL    HW233222   0.943   3.059   0.777
10775SOL     OW33223   2.252   3.772   0.459
10775SOL    HW133224   2.200   3.706   0.514
10775SOL    HW233225   2.305   3.831   0.520
10776SOL     OW33226   0.810   3.236   3.511
10776SOL    HW133227   0.863   3.207   3.432
10776SOL    HW233228   0.712   3.226   3.492
10777SOL     OW33229   1.224   0.010   1.108
10777SOL    HW133230   1.208   0.099   1.150
10777SOL    HW233231   1.322   7.015   1.088
10778SOL     OW33232   4.703   0.059   3.168
10778SOL    HW133233   4.743   0.091   3.255
10778SOL    HW233234   4.679   6.978   3.176
10779SOL     OW33235   5.974   3.127   6.080
10779SOL    HW133236   5.959   3.180   5.997
10779SOL    HW233237   6.045   3.058   6.063
10780SOL     OW33238   2.106   5.286   4.638
10780SOL    HW133239   2.110   5.333   4.550
10780SOL    HW233240   2.193   5.299   4.686
10781SOL     OW33241   5.579   2.096   4.988
10781SOL    HW133242   5.575   2.160   5.064
10781SOL    HW233243   5.605   2.006   5.021
10782SOL     OW33244   1.132   2.657   5.254
10782SOL    HW133245   1.042   2.621   5.228
10782SOL    HW233246   1.155   2.625   5.346
10783SOL     OW33247   1.581   3.218   3.740
10783SOL    HW133248   1.485   3.194   3.751
10783SOL    HW233249   1.618   3.249   3.828
10784SOL     OW33250   4.389   5.362   3.632
10784SOL    HW133251   4.384   5.362   3.532
10784SOL    HW233252   4.321   5.425   3.668
10785SOL     OW33253   1.938   5.569   1.572
10785SOL    HW133254   2.037   5.568   1.562
10785SOL    HW233255   1.914   5.538   1.664
10786SOL     OW33256   4.720   1.730   2.148
10786SOL    HW133257   4.742   1.633   2.136
10786SOL    HW233258   4.716   1.774   2.058
10787SOL     OW33259   3.570   2.071   3.949
10787SOL    HW133260   3.478   2.086   3.913
10787SOL    HW233261   3.616   2.159   3.958
10788SOL     OW33262   2.135   3.642   0.239
10788SOL    HW133263   2.171   3.698   0.314
10788SOL    HW233264   2.057   3.689   0.197
10789SOL     OW33265   6.833   1.209   2.230
10789SOL    HW133266   6.826   1.212   2.330
10789SOL    HW233267   6.817   1.301   2.193
10790SOL     OW33268   6.938   2.093   5.680
10790SOL    HW133269   0.011   2.072   5.636
10790SOL    HW233270   6.864   2.080   5.614
10791SOL     OW33271   1.679   1.954   3.655
10791SOL    HW133272   1.591   1.908   3.651
10791SOL    HW233273   1.676   2.036   3.597
10792SOL     OW33274   3.696   1.632   2.349
10792SOL    HW133275   3.653   1.653   2.436
10792SOL    HW233276   3.677   1.705   2.284
10793SOL     OW33277   3.294   1.907   4.861
10793SOL    HW133278   3.227   1.939   4.927
10793SOL    HW233279   3.261   1.822   4.818
10794SOL     OW33280   5.380   2.110   0.479
10794SOL    HW133281   5.357   2.151   0.390
10794SOL    HW233282   5.383   2.181   0.549
10795SOL     OW33283   6.860   3.675   3.086
10795SOL    HW133284   6.828   3.752   3.142
10795SOL    HW233285   6.896   3.603   3.146
10796SOL     OW33286   0.189   0.904   6.141
10796SOL    HW133287   0.101   0.896   6.094
10796SOL    HW233288   0.181   0.867   6.234
10797SOL     OW33289   4.601   4.490   0.414
10797SOL    HW133290   4.510   4.471   0.451
10797SOL    HW233291   4.611   4.443   0.326
10798SOL     OW33292   2.249   6.455   6.800
10798SOL    HW133293   2.157   6.494   6.794
10798SOL    HW233294   2.299   6.472   6.715
10799SOL     OW33295   3.137   1.142   2.965
10799SOL    HW133296   3.154   1.048   2.937
10799SOL    HW233297   3.180   1.205   2.899
10800SOL     OW33298   2.006   6.705   5.430
10800SOL    HW133299   2.002   6.802   5.407
10800SOL    HW233300   1.918   6.676   5.467
10801SOL     OW33301   2.842   6.415   6.511
10801SOL    HW133302   2.909   6.343   6.532
10801SOL    HW233303   2.865   6.498   6.561
10802SOL     OW33304   0.177   5.125   4.229
10802SOL    HW133305   0.213   5.213   4.199
10802SOL    HW233306   0.103   5.140   4.295
10803SOL     OW33307   0.083   4.826   4.134
10803SOL    HW133308   0.140   4.779   4.202
10803SOL    HW233309   0.051   4.760   4.066
10804SOL     OW33310   4.808   4.623   1.228
10804SOL    HW133311   4.826   4.527   1.209
10804SOL    HW233312   4.758   4.632   1.314
10805SOL     OW33313   3.809   6.292   0.555
10805SOL    HW133314   3.862   6.295   0.470
10805SOL    HW233315   3.712   6.299   0.535
10806SOL     OW33316   5.823   3.846   6.425
10806SOL    HW133317   5.750   3.790   6.385
10806SOL    HW233318   5.884   3.878   6.352
10807SOL     OW33319   4.297   1.601   4.345
10807SOL    HW133320   4.204   1.617   4.312
10807SOL    HW233321   4.294   1.543   4.426
10808SOL     OW33322   0.500   2.013   0.380
10808SOL    HW133323   0.409   2.054   0.379
10808SOL    HW233324   0.545   2.030   0.293
10809SOL     OW33325   2.767   1.233   2.307
10809SOL    HW133326   2.711   1.228   2.389
10809SOL    HW233327   2.732   1.305   2.247
10810SOL     OW33328   1.840   1.073   6.494
10810SOL    HW133329   1.856   1.150   6.555
10810SOL    HW233330   1.874   1.095   6.402
10811SOL     OW33331   4.555   5.105   6.473
10811SOL    HW133332   4.607   5.029   6.434
10811SOL    HW233333   4.496   5.071   6.547
10812SOL     OW33334   6.257   2.729   2.252
10812SOL    HW133335   6.323   2.683   2.311
10812SOL    HW233336   6.271   2.699   2.158
10813SOL     OW33337   3.437   5.432   3.054
10813SOL    HW133338   3.383   5.453   3.136
10813SOL    HW233339   3.455   5.334   3.050
10814SOL     OW33340   1.800   5.320   4.258
10814SOL    HW133341   1.757   5.307   4.168
10814SOL    HW233342   1.729   5.339   4.326
10815SOL     OW33343   4.708   1.918   4.593
10815SOL    HW133344   4.666   1.831   4.619
10815SOL    HW233345   4.671   1.991   4.650
10816SOL     OW33346   2.401   1.999   1.659
10816SOL    HW133347   2.458   1.990   1.577
10816SOL    HW233348   2.450   2.053   1.728
10817SOL     OW33349   4.121   0.688   1.826
10817SOL    HW133350   4.210   0.689   1.871
10817SOL    HW233351   4.066   0.614   1.863
10818SOL     OW33352   4.141   2.853   0.336
10818SOL    HW133353   4.152   2.753   0.336
10818SOL    HW233354   4.229   2.896   0.317
10819SOL     OW33355   0.990   3.639   5.493
10819SOL    HW133356   0.952   3.555   5.534
10819SOL    HW233357   1.000   3.708   5.564
10820SOL     OW33358   0.234   6.878   4.612
10820SOL    HW133359   0.252   6.974   4.636
10820SOL    HW233360   0.195   6.831   4.691
10821SOL     OW33361   0.267   0.407   0.836
10821SOL    HW133362   0.334   0.452   0.777
10821SOL    HW233363   0.233   0.473   0.903
10822SOL     OW33364   0.270   4.047   6.674
10822SOL    HW133365   0.310   4.088   6.756
10822SOL    HW233366   0.327   4.067   6.595
10823SOL     OW33367   2.242   2.142   1.401
10823SOL    HW133368   2.160   2.127   1.455
10823SOL    HW233369   2.296   2.058   1.396
10824SOL     OW33370   5.011   0.508   3.544
10824SOL    HW133371   4.967   0.590   3.581
10824SOL    HW233372   4.946   0.432   3.546
10825SOL     OW33373   3.314   0.751   2.209
10825SOL    HW133374   3.319   0.659   2.249
10825SOL    HW233375   3.394   0.804   2.236
10826SOL     OW33376   6.628   3.090   1.326
10826SOL    HW133377   6.636   3.052   1.234
10826SOL    HW233378   6.704   3.058   1.383
10827SOL     OW33379   1.108   3.427   4.441
10827SOL    HW133380   1.152   3.345   4.403
10827SOL    HW233381   1.095   3.494   4.369
10828SOL     OW33382   2.020   5.546   0.400
10828SOL    HW133383   2.066   5.514   0.317
10828SOL    HW233384   2.016   5.472   0.467
10829SOL     OW33385   2.077   3.520   1.534
10829SOL    HW133386   2.167   3.477   1.523
10829SOL    HW233387   2.073   3.565   1.623
10830SOL     OW33388   5.355   0.745   3.443
10830SOL    HW133389   5.301   0.796   3.509
10830SOL    HW233390   5.395   0.808   3.376
10831SOL     OW33391   5.767   3.172   2.193
10831SOL    HW133392   5.709   3.157   2.113
10831SOL    HW233393   5.757   3.267   2.223
10832SOL     OW33394   0.717   3.671   3.131
10832SOL    HW133395   0.796   3.658   3.071
10832SOL    HW233396   0.646   3.723   3.084
10833SOL     OW33397   2.957   6.911   3.866
10833SOL    HW133398   2.957   6.998   3.817
10833SOL    HW233399   2.981   6.926   3.962
10834SOL     OW33400   6.746   0.943   5.577
10834SOL    HW133401   6.822   0.879   5.570
10834SOL    HW233402   6.690   0.937   5.494
10835SOL     OW33403   0.392   2.897   1.720
10835SOL    HW133404   0.343   2.936   1.642
10835SOL    HW233405   0.475   2.950   1.737
10836SOL     OW33406   2.014   2.631   0.698
10836SOL    HW133407   1.967   2.662   0.780
10836SOL    HW233408   1.959   2.561   0.652
10837SOL     OW33409   0.826   5.814   1.140
10837SOL    HW133410   0.862   5.874   1.212
10837SOL    HW233411   0.851   5.850   1.051
10838SOL     OW33412   6.291   6.667   0.109
10838SOL    HW133413   6.321   6.633   0.198
10838SOL    HW233414   6.234   6.748   0.123
10839SOL     OW33415   1.506   1.489   6.932
10839SOL    HW133416   1.428   1.551   6.939
10839SOL    HW233417   1.588   1.540   6.906
10840SOL     OW33418   3.007   6.544   2.541
10840SOL    HW133419   2.959   6.490   2.471
10840SOL    HW233420   3.093   6.578   2.503
10841SOL     OW33421   5.050   2.827   6.965
10841SOL    HW133422   5.061   2.859   0.044
10841SOL    HW233423   5.117   2.755   6.947
10842SOL     OW33424   5.912   2.908   1.494
10842SOL    HW133425   5.943   2.879   1.403
10842SOL    HW233426   5.991   2.920   1.554
10843SOL     OW33427   0.509   1.816   1.601
10843SOL    HW133428   0.460   1.889   1.649
10843SOL    HW233429   0.450   1.781   1.528
10844SOL     OW33430   4.088   0.442   3.151
10844SOL    HW133431   4.023   0.367   3.161
10844SOL    HW233432   4.065   0.494   3.068
10845SOL     OW33433   2.393   2.975   0.695
10845SOL    HW133434   2.404   3.033   0.776
10845SOL    HW233435   2.304   2.931   0.698
10846SOL     OW33436   3.390   1.629   1.220
10846SOL    HW133437   3.459   1.645   1.291
10846SOL    HW233438   3.396   1.702   1.152
10847SOL     OW33439   4.922   2.847   5.392
10847SOL    HW133440   4.886   2.759   5.362
10847SOL    HW233441   5.020   2.851   5.371
10848SOL     OW33442   1.318   0.733   6.797
10848SOL    HW133443   1.392   0.737   6.730
10848SOL    HW233444   1.326   0.810   6.860
10849SOL     OW33445   1.789   5.205   3.731
10849SOL    HW133446   1.760   5.127   3.785
10849SOL    HW233447   1.798   5.178   3.635
10850SOL     OW33448   5.915   0.454   1.831
10850SOL    HW133449   5.846   0.506   1.882
10850SOL    HW233450   5.883   0.439   1.737
10851SOL     OW33451   4.763   1.941   6.638
10851SOL    HW133452   4.770   1.849   6.676
10851SOL    HW233453   4.855   1.980   6.630
10852SOL     OW33454   6.611   0.401   5.789
10852SOL    HW133455   6.697   0.444   5.762
10852SOL    HW233456   6.556   0.381   5.708
10853SOL     OW33457   2.433   0.611   4.645
10853SOL    HW133458   2.417   0.705   4.616
10853SOL    HW233459   2.469   0.558   4.568
10854SOL     OW33460   6.885   0.407   0.947
10854SOL    HW133461   6.795   0.419   0.989
10854SOL    HW233462   6.909   0.310   0.947
10855SOL     OW33463   6.679   5.540   1.467
10855SOL    HW133464   6.727   5.512   1.551
10855SOL    HW233465   6.745   5.547   1.392
10856SOL     OW33466   5.368   0.115   6.630
10856SOL    HW133467   5.352   0.060   6.548
10856SOL    HW233468   5.281   0.133   6.676
10857SOL     OW33469   6.521   0.336   4.802
10857SOL    HW133470   6.522   0.384   4.715
10857SOL    HW233471   6.596   0.271   4.806
10858SOL     OW33472   1.995   2.050   0.339
10858SOL    HW133473   2.075   2.093   0.380
10858SOL    HW233474   1.915   2.067   0.397
10859SOL     OW33475   1.442   5.483   2.301
10859SOL    HW133476   1.502   5.463   2.379
10859SOL    HW233477   1.432   5.582   2.291
10860SOL     OW33478   5.981   2.433   1.718
10860SOL    HW133479   6.035   2.514   1.695
10860SOL    HW233480   5.890   2.442   1.679
10861SOL     OW33481   1.828   3.794   1.297
10861SOL    HW133482   1.873   3.872   1.342
10861SOL    HW233483   1.803   3.819   1.204
10862SOL     OW33484   3.601   4.424   5.315
10862SOL    HW133485   3.589   4.338   5.364
10862SOL    HW233486   3.698   4.446   5.308
10863SOL     OW33487   2.158   0.544   3.500
10863SOL    HW133488   2.207   0.457   3.494
10863SOL    HW233489   2.141   0.578   3.408
10864SOL     OW33490   2.979   3.745   1.838
10864SOL    HW133491   2.958   3.789   1.925
10864SOL    HW233492   3.076   3.760   1.816
10865SOL     OW33493   3.613   1.651   2.625
10865SOL    HW133494   3.537   1.600   2.666
10865SOL    HW233495   3.694   1.592   2.620
10866SOL     OW33496   1.044   3.758   3.870
10866SOL    HW133497   0.968   3.820   3.850
10866SOL    HW233498   1.009   3.666   3.883
10867SOL     OW33499   4.510   2.854   0.119
10867SOL    HW133500   4.427   2.835   0.171
10867SOL    HW233501   4.496   2.827   0.024
10868SOL     OW33502   1.187   6.825   4.914
10868SOL    HW133503   1.216   6.755   4.980
10868SOL    HW233504   1.101   6.866   4.945
10869NA      NA33505   6.782   1.122   6.415
10870NA      NA33506   4.417   4.690   5.360
10871NA      NA33507   1.125   4.922   2.887
10872NA      NA33508   5.642   3.633   2.952
10873NA      NA33509   3.776   2.713   5.591
10874NA      NA33510   2.493   4.880   0.043
10875NA      NA33511   1.803   5.573   6.664
10876NA      NA33512   4.106   5.088   1.440
10877NA      NA33513   5.116   4.517   0.717
10878NA      NA33514   3.387   1.456   0.718
10879NA      NA33515   5.555   6.860   1.693
10880NA      NA33516   2.426   6.568   5.148
10881NA      NA33517   4.370   4.700   2.696
10882NA      NA33518   4.280   4.003   6.579
   7.01523   7.01523   7.01523
