Generated by trjconv : CNT in water t= 320.00000
33518
    1C        C    1   2.843   2.765   4.748
    1C        C    2   2.897   2.714   4.868
    1C        C    3   2.840   2.767   4.985
    1C        C    4   2.846   2.771   4.261
    1C        C    5   2.899   2.723   4.382
    1C        C    6   2.843   2.769   4.504
    1C        C    7   3.013   2.641   4.625
    1C        C    8   2.897   2.721   4.625
    1C        C    9   3.073   2.597   4.746
    1C        C   10   3.009   2.628   4.868
    1C        C   11   3.177   2.492   4.977
    1C        C   12   3.056   2.563   4.983
    1C        C   13   2.847   2.772   3.771
    1C        C   14   2.898   2.720   3.892
    1C        C   15   2.849   2.772   4.014
    1C        C   16   3.013   2.644   4.138
    1C        C   17   2.897   2.725   4.138
    1C        C   18   3.077   2.609   4.259
    1C        C   19   3.018   2.647   4.382
    1C        C   20   3.207   2.555   4.505
    1C        C   21   3.074   2.603   4.504
    1C        C   22   3.276   2.534   4.626
    1C        C   23   3.203   2.541   4.747
    1C        C   24   3.410   2.481   4.867
    1C        C   25   3.267   2.498   4.866
    1C        C   26   3.492   2.476   4.981
    1C        C   27   2.847   2.763   3.284
    1C        C   28   2.904   2.720   3.406
    1C        C   29   2.851   2.771   3.527
    1C        C   30   3.018   2.642   3.648
    1C        C   31   2.903   2.724   3.650
    1C        C   32   3.074   2.602   3.771
    1C        C   33   3.014   2.639   3.894
    1C        C   34   3.203   2.547   4.016
    1C        C   35   3.075   2.607   4.016
    1C        C   36   3.273   2.530   4.138
    1C        C   37   3.207   2.554   4.260
    1C        C   38   3.414   2.513   4.385
    1C        C   39   3.274   2.533   4.383
    1C        C   40   3.485   2.500   4.506
    1C        C   41   3.415   2.508   4.629
    1C        C   42   3.629   2.483   4.745
    1C        C   43   3.486   2.481   4.748
    1C        C   44   3.707   2.486   4.863
    1C        C   45   3.631   2.479   4.981
    1C        C   46   2.834   2.750   2.792
    1C        C   47   2.889   2.709   2.916
    1C        C   48   2.840   2.759   3.039
    1C        C   49   3.015   2.640   3.159
    1C        C   50   2.896   2.715   3.161
    1C        C   51   3.079   2.605   3.280
    1C        C   52   3.016   2.635   3.403
    1C        C   53   3.206   2.543   3.528
    1C        C   54   3.078   2.603   3.526
    1C        C   55   3.275   2.529   3.651
    1C        C   56   3.205   2.550   3.772
    1C        C   57   3.413   2.508   3.897
    1C        C   58   3.273   2.529   3.894
    1C        C   59   3.485   2.504   4.019
    1C        C   60   3.412   2.506   4.140
    1C        C   61   3.624   2.502   4.258
    1C        C   62   3.483   2.503   4.262
    1C        C   63   3.696   2.513   4.379
    1C        C   64   3.626   2.499   4.501
    1C        C   65   3.831   2.547   4.622
    1C        C   66   3.697   2.502   4.623
    1C        C   67   3.904   2.565   4.741
    1C        C   68   3.842   2.526   4.862
    1C        C   69   4.050   2.585   4.979
    1C        C   70   3.922   2.527   4.977
    1C        C   71   2.817   2.731   2.309
    1C        C   72   2.882   2.692   2.428
    1C        C   73   2.826   2.739   2.549
    1C        C   74   3.005   2.625   2.671
    1C        C   75   2.885   2.698   2.671
    1C        C   76   3.071   2.596   2.793
    1C        C   77   3.009   2.635   2.914
    1C        C   78   3.203   2.549   3.036
    1C        C   79   3.072   2.600   3.036
    1C        C   80   3.272   2.526   3.157
    1C        C   81   3.208   2.546   3.281
    1C        C   82   3.412   2.504   3.403
    1C        C   83   3.272   2.521   3.405
    1C        C   84   3.481   2.499   3.527
    1C        C   85   3.415   2.510   3.651
    1C        C   86   3.624   2.510   3.769
    1C        C   87   3.483   2.502   3.775
    1C        C   88   3.694   2.515   3.892
    1C        C   89   3.627   2.503   4.015
    1C        C   90   3.833   2.550   4.135
    1C        C   91   3.697   2.511   4.137
    1C        C   92   3.901   2.571   4.257
    1C        C   93   3.833   2.548   4.378
    1C        C   94   4.024   2.639   4.498
    1C        C   95   3.899   2.575   4.501
    1C        C   96   4.087   2.675   4.620
    1C        C   97   4.031   2.629   4.741
    1C        C   98   4.191   2.763   4.862
    1C        C   99   4.099   2.653   4.863
    1C        C  100   4.218   2.839   4.977
    1C        C  101   2.821   2.727   2.071
    1C        C  102   2.988   2.590   2.191
    1C        C  103   2.874   2.676   2.191
    1C        C  104   3.060   2.569   2.311
    1C        C  105   2.998   2.611   2.431
    1C        C  106   3.200   2.535   2.551
    1C        C  107   3.068   2.585   2.551
    1C        C  108   3.270   2.515   2.672
    1C        C  109   3.201   2.541   2.792
    1C        C  110   3.408   2.493   2.913
    1C        C  111   3.270   2.523   2.914
    1C        C  112   3.479   2.490   3.035
    1C        C  113   3.411   2.502   3.159
    1C        C  114   3.624   2.502   3.279
    1C        C  115   3.482   2.501   3.281
    1C        C  116   3.692   2.507   3.402
    1C        C  117   3.622   2.504   3.525
    1C        C  118   3.830   2.548   3.645
    1C        C  119   3.693   2.515   3.646
    1C        C  120   3.897   2.572   3.767
    1C        C  121   3.831   2.549   3.890
    1C        C  122   4.023   2.641   4.010
    1C        C  123   3.897   2.579   4.012
    1C        C  124   4.084   2.677   4.133
    1C        C  125   4.028   2.634   4.255
    1C        C  126   4.195   2.765   4.376
    1C        C  127   4.087   2.674   4.377
    1C        C  128   4.246   2.818   4.497
    1C        C  129   4.196   2.765   4.618
    1C        C  130   4.329   2.929   4.740
    1C        C  131   4.242   2.817   4.741
    1C        C  132   4.359   3.002   4.857
    1C        C  133   4.286   2.960   4.970
    1C        C  134   3.173   2.467   2.078
    1C        C  135   3.040   2.508   2.086
    1C        C  136   3.257   2.480   2.190
    1C        C  137   3.192   2.515   2.310
    1C        C  138   3.407   2.489   2.426
    1C        C  139   3.267   2.508   2.430
    1C        C  140   3.480   2.483   2.547
    1C        C  141   3.409   2.490   2.669
    1C        C  142   3.621   2.494   2.789
    1C        C  143   3.480   2.489   2.791
    1C        C  144   3.691   2.500   2.911
    1C        C  145   3.621   2.495   3.034
    1C        C  146   3.830   2.531   3.154
    1C        C  147   3.692   2.501   3.155
    1C        C  148   3.895   2.561   3.276
    1C        C  149   3.829   2.541   3.400
    1C        C  150   4.022   2.632   3.522
    1C        C  151   3.895   2.571   3.521
    1C        C  152   4.086   2.670   3.642
    1C        C  153   4.023   2.636   3.764
    1C        C  154   4.195   2.761   3.886
    1C        C  155   4.082   2.676   3.886
    1C        C  156   4.249   2.809   4.007
    1C        C  157   4.198   2.761   4.130
    1C        C  158   4.340   2.917   4.252
    1C        C  159   4.249   2.808   4.253
    1C        C  160   4.378   2.977   4.373
    1C        C  161   4.336   2.927   4.499
    1C        C  162   4.435   3.116   4.614
    1C        C  163   4.371   2.990   4.620
    1C        C  164   4.464   3.186   4.734
    1C        C  165   4.434   3.121   4.856
    1C        C  166   4.507   3.318   4.973
    1C        C  167   4.473   3.183   4.975
    1C        C  168   3.476   2.430   2.074
    1C        C  169   3.396   2.458   2.186
    1C        C  170   3.616   2.468   2.305
    1C        C  171   3.473   2.462   2.304
    1C        C  172   3.691   2.487   2.422
    1C        C  173   3.621   2.485   2.545
    1C        C  174   3.828   2.537   2.666
    1C        C  175   3.690   2.504   2.666
    1C        C  176   3.892   2.562   2.789
    1C        C  177   3.827   2.538   2.912
    1C        C  178   4.024   2.621   3.031
    1C        C  179   3.898   2.556   3.033
    1C        C  180   4.085   2.655   3.153
    1C        C  181   4.021   2.624   3.276
    1C        C  182   4.199   2.742   3.397
    1C        C  183   4.082   2.662   3.397
    1C        C  184   4.250   2.799   3.515
    1C        C  185   4.198   2.756   3.640
    1C        C  186   4.339   2.912   3.760
    1C        C  187   4.250   2.803   3.762
    1C        C  188   4.373   2.974   3.883
    1C        C  189   4.339   2.917   4.008
    1C        C  190   4.443   3.102   4.126
    1C        C  191   4.382   2.974   4.130
    1C        C  192   4.462   3.170   4.249
    1C        C  193   4.444   3.102   4.371
    1C        C  194   4.499   3.311   4.492
    1C        C  195   4.472   3.173   4.490
    1C        C  196   4.521   3.385   4.610
    1C        C  197   4.512   3.320   4.735
    1C        C  198   4.549   3.534   4.853
    1C        C  199   4.522   3.393   4.856
    1C        C  200   4.576   3.620   4.964
    1C        C  201   3.614   2.410   2.075
    1C        C  202   3.826   2.509   2.181
    1C        C  203   3.691   2.462   2.184
    1C        C  204   3.897   2.537   2.301
    1C        C  205   3.829   2.518   2.423
    1C        C  206   4.023   2.614   2.540
    1C        C  207   3.896   2.551   2.543
    1C        C  208   4.078   2.657   2.663
    1C        C  209   4.019   2.625   2.788
    1C        C  210   4.196   2.745   2.907
    1C        C  211   4.081   2.663   2.909
    1C        C  212   4.247   2.793   3.029
    1C        C  213   4.195   2.744   3.151
    1C        C  214   4.334   2.903   3.270
    1C        C  215   4.245   2.793   3.273
    1C        C  216   4.368   2.969   3.390
    1C        C  217   4.333   2.913   3.515
    1C        C  218   4.433   3.099   3.638
    1C        C  219   4.375   2.970   3.637
    1C        C  220   4.461   3.166   3.760
    1C        C  221   4.440   3.098   3.882
    1C        C  222   4.495   3.305   4.003
    1C        C  223   4.465   3.167   4.003
    1C        C  224   4.509   3.377   4.124
    1C        C  225   4.495   3.307   4.247
    1C        C  226   4.511   3.520   4.365
    1C        C  227   4.501   3.379   4.368
    1C        C  228   4.516   3.594   4.486
    1C        C  229   4.532   3.526   4.609
    1C        C  230   4.494   3.738   4.726
    1C        C  231   4.528   3.600   4.729
    1C        C  232   4.492   3.816   4.843
    1C        C  233   4.542   3.756   4.959
    1C        C  234   4.016   2.610   2.057
    1C        C  235   3.895   2.541   2.063
    1C        C  236   4.078   2.649   2.176
    1C        C  237   4.021   2.607   2.298
    1C        C  238   4.199   2.732   2.418
    1C        C  239   4.085   2.646   2.418
    1C        C  240   4.251   2.781   2.540
    1C        C  241   4.189   2.743   2.661
    1C        C  242   4.329   2.905   2.782
    1C        C  243   4.244   2.792   2.782
    1C        C  244   4.375   2.959   2.904
    1C        C  245   4.339   2.901   3.027
    1C        C  246   4.438   3.089   3.146
    1C        C  247   4.376   2.962   3.149
    1C        C  248   4.456   3.156   3.269
    1C        C  249   4.428   3.097   3.394
    1C        C  250   4.489   3.301   3.510
    1C        C  251   4.457   3.164   3.515
    1C        C  252   4.508   3.368   3.633
    1C        C  253   4.495   3.303   3.758
    1C        C  254   4.516   3.515   3.878
    1C        C  255   4.505   3.374   3.880
    1C        C  256   4.517   3.588   3.999
    1C        C  257   4.513   3.518   4.122
    1C        C  258   4.487   3.730   4.242
    1C        C  259   4.509   3.591   4.243
    1C        C  260   4.464   3.800   4.363
    1C        C  261   4.484   3.731   4.484
    1C        C  262   4.430   3.940   4.601
    1C        C  263   4.472   3.805   4.604
    1C        C  264   4.402   4.008   4.721
    1C        C  265   4.435   3.946   4.844
    1C        C  266   4.316   4.131   4.959
    1C        C  267   4.387   4.012   4.957
    1C        C  268   4.263   2.770   2.063
    1C        C  269   4.196   2.727   2.178
    1C        C  270   4.342   2.890   2.297
    1C        C  271   4.253   2.779   2.296
    1C        C  272   4.382   2.949   2.418
    1C        C  273   4.342   2.889   2.539
    1C        C  274   4.446   3.079   2.659
    1C        C  275   4.376   2.956   2.659
    1C        C  276   4.472   3.148   2.780
    1C        C  277   4.445   3.082   2.902
    1C        C  278   4.509   3.286   3.025
    1C        C  279   4.474   3.149   3.023
    1C        C  280   4.512   3.360   3.145
    1C        C  281   4.495   3.292   3.268
    1C        C  282   4.515   3.509   3.389
    1C        C  283   4.504   3.368   3.387
    1C        C  284   4.511   3.580   3.511
    1C        C  285   4.506   3.509   3.633
    1C        C  286   4.486   3.721   3.754
    1C        C  287   4.506   3.581   3.754
    1C        C  288   4.471   3.792   3.875
    1C        C  289   4.489   3.727   3.999
    1C        C  290   4.422   3.930   4.116
    1C        C  291   4.474   3.799   4.119
    1C        C  292   4.395   3.997   4.237
    1C        C  293   4.422   3.935   4.361
    1C        C  294   4.322   4.126   4.478
    1C        C  295   4.395   4.005   4.481
    1C        C  296   4.286   4.190   4.598
    1C        C  297   4.331   4.131   4.718
    1C        C  298   4.202   4.311   4.836
    1C        C  299   4.287   4.195   4.838
    1C        C  300   4.172   4.400   4.944
    1C        C  301   4.356   2.874   2.061
    1C        C  302   4.470   3.065   2.179
    1C        C  303   4.396   2.943   2.176
    1C        C  304   4.483   3.142   2.298
    1C        C  305   4.450   3.073   2.417
    1C        C  306   4.507   3.281   2.535
    1C        C  307   4.471   3.145   2.537
    1C        C  308   4.511   3.354   2.656
    1C        C  309   4.495   3.287   2.780
    1C        C  310   4.514   3.497   2.898
    1C        C  311   4.512   3.356   2.902
    1C        C  312   4.510   3.568   3.020
    1C        C  313   4.513   3.501   3.145
    1C        C  314   4.478   3.714   3.264
    1C        C  315   4.506   3.576   3.264
    1C        C  316   4.469   3.785   3.385
    1C        C  317   4.490   3.720   3.509
    1C        C  318   4.426   3.923   3.626
    1C        C  319   4.470   3.789   3.631
    1C        C  320   4.394   3.987   3.748
    1C        C  321   4.428   3.927   3.872
    1C        C  322   4.323   4.115   3.989
    1C        C  323   4.393   3.992   3.992
    1C        C  324   4.282   4.176   4.110
    1C        C  325   4.324   4.120   4.232
    1C        C  326   4.183   4.281   4.353
    1C        C  327   4.281   4.178   4.353
    1C        C  328   4.137   4.340   4.472
    1C        C  329   4.196   4.299   4.594
    1C        C  330   4.027   4.434   4.716
    1C        C  331   4.144   4.352   4.714
    1C        C  332   3.968   4.489   4.831
    1C        C  333   4.053   4.474   4.942
    1C        C  334   4.549   3.268   2.060
    1C        C  335   4.533   3.129   2.067
    1C        C  336   4.536   3.350   2.173
    1C        C  337   4.514   3.281   2.294
    1C        C  338   4.525   3.495   2.412
    1C        C  339   4.517   3.354   2.414
    1C        C  340   4.519   3.568   2.533
    1C        C  341   4.517   3.495   2.654
    1C        C  342   4.493   3.706   2.773
    1C        C  343   4.517   3.567   2.776
    1C        C  344   4.471   3.774   2.894
    1C        C  345   4.491   3.708   3.018
    1C        C  346   4.419   3.911   3.136
    1C        C  347   4.467   3.778   3.138
    1C        C  348   4.391   3.977   3.257
    1C        C  349   4.422   3.918   3.382
    1C        C  350   4.319   4.105   3.502
    1C        C  351   4.396   3.986   3.503
    1C        C  352   4.278   4.165   3.623
    1C        C  353   4.323   4.108   3.744
    1C        C  354   4.182   4.268   3.866
    1C        C  355   4.284   4.170   3.865
    1C        C  356   4.125   4.319   3.985
    1C        C  357   4.179   4.272   4.107
    1C        C  358   4.014   4.405   4.229
    1C        C  359   4.128   4.322   4.229
    1C        C  360   3.954   4.444   4.351
    1C        C  361   4.023   4.422   4.473
    1C        C  362   3.831   4.515   4.591
    1C        C  363   3.963   4.464   4.594
    1C        C  364   3.762   4.545   4.710
    1C        C  365   3.838   4.544   4.829
    1C        C  366   3.628   4.590   4.945
    1C        C  367   3.767   4.578   4.945
    1C        C  368   4.505   3.564   2.051
    1C        C  369   4.522   3.490   2.168
    1C        C  370   4.500   3.703   2.288
    1C        C  371   4.515   3.563   2.289
    1C        C  372   4.483   3.777   2.408
    1C        C  373   4.496   3.707   2.530
    1C        C  374   4.425   3.909   2.651
    1C        C  375   4.472   3.776   2.651
    1C        C  376   4.396   3.974   2.773
    1C        C  377   4.424   3.908   2.894
    1C        C  378   4.318   4.096   3.012
    1C        C  379   4.395   3.977   3.013
    1C        C  380   4.275   4.153   3.133
    1C        C  381   4.319   4.098   3.255
    1C        C  382   4.178   4.258   3.376
    1C        C  383   4.276   4.155   3.377
    1C        C  384   4.126   4.310   3.496
    1C        C  385   4.179   4.266   3.620
    1C        C  386   4.013   4.394   3.742
    1C        C  387   4.129   4.313   3.743
    1C        C  388   3.947   4.431   3.861
    1C        C  389   4.006   4.395   3.984
    1C        C  390   3.820   4.491   4.107
    1C        C  391   3.950   4.437   4.107
    1C        C  392   3.753   4.515   4.229
    1C        C  393   3.822   4.494   4.351
    1C        C  394   3.616   4.548   4.472
    1C        C  395   3.756   4.525   4.472
    1C        C  396   3.545   4.565   4.593
    1C        C  397   3.622   4.564   4.711
    1C        C  398   3.408   4.549   4.836
    1C        C  399   3.548   4.572   4.832
    1C        C  400   3.339   4.511   4.952
    1C        C  401   4.507   3.703   2.052
    1C        C  402   4.451   3.914   2.165
    1C        C  403   4.490   3.778   2.169
    1C        C  404   4.413   3.978   2.285
    1C        C  405   4.433   3.909   2.407
    1C        C  406   4.327   4.095   2.527
    1C        C  407   4.400   3.974   2.528
    1C        C  408   4.284   4.155   2.647
    1C        C  409   4.322   4.095   2.769
    1C        C  410   4.181   4.256   2.887
    1C        C  411   4.281   4.156   2.889
    1C        C  412   4.127   4.303   3.009
    1C        C  413   4.178   4.256   3.132
    1C        C  414   4.004   4.378   3.252
    1C        C  415   4.123   4.302   3.254
    1C        C  416   3.942   4.412   3.375
    1C        C  417   4.006   4.383   3.497
    1C        C  418   3.817   4.478   3.618
    1C        C  419   3.947   4.423   3.620
    1C        C  420   3.750   4.506   3.739
    1C        C  421   3.817   4.485   3.862
    1C        C  422   3.612   4.528   3.986
    1C        C  423   3.751   4.508   3.985
    1C        C  424   3.541   4.531   4.109
    1C        C  425   3.613   4.535   4.230
    1C        C  426   3.401   4.544   4.353
    1C        C  427   3.542   4.548   4.352
    1C        C  428   3.332   4.544   4.477
    1C        C  429   3.404   4.556   4.597
    1C        C  430   3.193   4.514   4.720
    1C        C  431   3.332   4.545   4.718
    1C        C  432   3.124   4.488   4.841
    1C        C  433   3.201   4.491   4.958
    1C        C  434   4.381   4.120   2.052
    1C        C  435   4.441   3.993   2.050
    1C        C  436   4.304   4.165   2.164
    1C        C  437   4.338   4.099   2.285
    1C        C  438   4.182   4.248   2.399
    1C        C  439   4.284   4.150   2.405
    1C        C  440   4.129   4.298   2.520
    1C        C  441   4.179   4.250   2.643
    1C        C  442   4.005   4.373   2.766
    1C        C  443   4.124   4.296   2.765
    1C        C  444   3.943   4.408   2.887
    1C        C  445   4.008   4.380   3.010
    1C        C  446   3.812   4.466   3.131
    1C        C  447   3.945   4.417   3.130
    1C        C  448   3.745   4.490   3.253
    1C        C  449   3.812   4.469   3.375
    1C        C  450   3.606   4.518   3.497
    1C        C  451   3.745   4.491   3.497
    1C        C  452   3.539   4.536   3.620
    1C        C  453   3.611   4.529   3.742
    1C        C  454   3.400   4.534   3.864
    1C        C  455   3.541   4.539   3.864
    1C        C  456   3.330   4.526   3.987
    1C        C  457   3.400   4.529   4.110
    1C        C  458   3.191   4.500   4.234
    1C        C  459   3.329   4.529   4.232
    1C        C  460   3.127   4.479   4.358
    1C        C  461   3.195   4.508   4.478
    1C        C  462   2.995   4.433   4.601
    1C        C  463   3.125   4.486   4.599
    1C        C  464   2.922   4.408   4.720
    1C        C  465   2.988   4.441   4.841
    1C        C  466   2.802   4.335   4.960
    1C        C  467   2.905   4.430   4.957
    1C        C  468   4.127   4.287   2.039
    1C        C  469   4.189   4.250   2.159
    1C        C  470   4.006   4.370   2.278
    1C        C  471   4.128   4.296   2.278
    1C        C  472   3.942   4.402   2.400
    1C        C  473   4.007   4.371   2.521
    1C        C  474   3.815   4.464   2.641
    1C        C  475   3.943   4.403   2.642
    1C        C  476   3.748   4.489   2.763
    1C        C  477   3.811   4.457   2.885
    1C        C  478   3.606   4.510   3.008
    1C        C  479   3.744   4.482   3.008
    1C        C  480   3.537   4.523   3.130
    1C        C  481   3.605   4.511   3.253
    1C        C  482   3.394   4.532   3.375
    1C        C  483   3.535   4.524   3.375
    1C        C  484   3.327   4.524   3.499
    1C        C  485   3.398   4.538   3.620
    1C        C  486   3.190   4.502   3.743
    1C        C  487   3.328   4.533   3.743
    1C        C  488   3.125   4.477   3.866
    1C        C  489   3.192   4.498   3.989
    1C        C  490   3.003   4.404   4.113
    1C        C  491   3.127   4.472   4.111
    1C        C  492   2.941   4.374   4.237
    1C        C  493   3.000   4.418   4.357
    1C        C  494   2.824   4.301   4.481
    1C        C  495   2.939   4.384   4.480
    1C        C  496   2.764   4.262   4.602
    1C        C  497   2.813   4.317   4.722
    1C        C  498   2.662   4.167   4.839
    1C        C  499   2.751   4.277   4.843
    1C        C  500   2.597   4.113   4.951
    1C        C  501   4.007   4.358   2.040
    1C        C  502   3.814   4.461   2.156
    1C        C  503   3.940   4.396   2.156
    1C        C  504   3.743   4.473   2.277
    1C        C  505   3.810   4.453   2.400
    1C        C  506   3.604   4.501   2.522
    1C        C  507   3.743   4.481   2.521
    1C        C  508   3.534   4.515   2.644
    1C        C  509   3.608   4.512   2.764
    1C        C  510   3.395   4.524   2.886
    1C        C  511   3.536   4.521   2.885
    1C        C  512   3.324   4.520   3.008
    1C        C  513   3.396   4.528   3.130
    1C        C  514   3.189   4.491   3.257
    1C        C  515   3.325   4.527   3.252
    1C        C  516   3.123   4.465   3.379
    1C        C  517   3.190   4.489   3.501
    1C        C  518   2.993   4.413   3.624
    1C        C  519   3.121   4.474   3.623
    1C        C  520   2.938   4.371   3.747
    1C        C  521   3.001   4.410   3.868
    1C        C  522   2.834   4.280   3.996
    1C        C  523   2.943   4.370   3.990
    1C        C  524   2.780   4.234   4.118
    1C        C  525   2.829   4.289   4.239
    1C        C  526   2.690   4.131   4.365
    1C        C  527   2.774   4.244   4.362
    1C        C  528   2.648   4.072   4.486
    1C        C  529   2.686   4.144   4.602
    1C        C  530   2.586   3.958   4.731
    1C        C  531   2.645   4.087   4.724
    1C        C  532   2.536   3.901   4.852
    1C        C  533   2.526   3.993   4.962
    1C        C  534   3.619   4.556   2.042
    1C        C  535   3.752   4.514   2.042
    1C        C  536   3.536   4.537   2.157
    1C        C  537   3.604   4.505   2.277
    1C        C  538   3.393   4.509   2.400
    1C        C  539   3.534   4.514   2.399
    1C        C  540   3.321   4.504   2.522
    1C        C  541   3.393   4.512   2.643
    1C        C  542   3.186   4.477   2.765
    1C        C  543   3.322   4.516   2.765
    1C        C  544   3.122   4.458   2.890
    1C        C  545   3.188   4.485   3.012
    1C        C  546   2.996   4.399   3.133
    1C        C  547   3.122   4.464   3.135
    1C        C  548   2.941   4.359   3.257
    1C        C  549   2.997   4.400   3.380
    1C        C  550   2.825   4.281   3.504
    1C        C  551   2.935   4.370   3.503
    1C        C  552   2.778   4.232   3.628
    1C        C  553   2.830   4.280   3.750
    1C        C  554   2.698   4.118   3.876
    1C        C  555   2.784   4.230   3.874
    1C        C  556   2.661   4.058   3.998
    1C        C  557   2.696   4.120   4.120
    1C        C  558   2.596   3.939   4.245
    1C        C  559   2.656   4.066   4.244
    1C        C  560   2.563   3.876   4.368
    1C        C  561   2.586   3.946   4.488
    1C        C  562   2.532   3.746   4.616
    1C        C  563   2.564   3.883   4.613
    1C        C  564   2.519   3.678   4.739
    1C        C  565   2.515   3.760   4.855
    1C        C  566   2.524   3.547   4.974
    1C        C  567   2.529   3.686   4.973
    1C        C  568   3.328   4.472   2.039
    1C        C  569   3.397   4.510   2.155
    1C        C  570   3.185   4.474   2.282
    1C        C  571   3.324   4.503   2.277
    1C        C  572   3.115   4.453   2.403
    1C        C  573   3.183   4.474   2.525
    1C        C  574   2.983   4.405   2.646
    1C        C  575   3.113   4.461   2.646
    1C        C  576   2.930   4.361   2.770
    1C        C  577   2.996   4.395   2.890
    1C        C  578   2.822   4.275   3.016
    1C        C  579   2.932   4.364   3.012
    1C        C  580   2.777   4.222   3.138
    1C        C  581   2.827   4.276   3.259
    1C        C  582   2.697   4.111   3.384
    1C        C  583   2.778   4.227   3.382
    1C        C  584   2.662   4.054   3.508
    1C        C  585   2.697   4.116   3.630
    1C        C  586   2.594   3.933   3.753
    1C        C  587   2.662   4.057   3.753
    1C        C  588   2.568   3.870   3.877
    1C        C  589   2.594   3.933   4.000
    1C        C  590   2.533   3.734   4.126
    1C        C  591   2.571   3.870   4.124
    1C        C  592   2.517   3.668   4.250
    1C        C  593   2.528   3.739   4.371
    1C        C  594   2.517   3.531   4.496
    1C        C  595   2.520   3.673   4.495
    1C        C  596   2.517   3.461   4.618
    1C        C  597   2.515   3.535   4.738
    1C        C  598   2.534   3.324   4.861
    1C        C  599   2.525   3.465   4.860
    1C        C  600   2.536   3.247   4.978
    1C        C  601   3.197   4.429   2.043
    1C        C  602   2.985   4.391   2.159
    1C        C  603   3.121   4.435   2.161
    1C        C  604   2.921   4.360   2.282
    1C        C  605   2.987   4.394   2.403
    1C        C  606   2.820   4.267   2.527
    1C        C  607   2.925   4.361   2.525
    1C        C  608   2.770   4.217   2.650
    1C        C  609   2.821   4.271   2.770
    1C        C  610   2.683   4.115   2.893
    1C        C  611   2.771   4.226   2.894
    1C        C  612   2.651   4.052   3.016
    1C        C  613   2.694   4.108   3.138
    1C        C  614   2.591   3.926   3.267
    1C        C  615   2.658   4.050   3.262
    1C        C  616   2.563   3.865   3.391
    1C        C  617   2.598   3.928   3.513
    1C        C  618   2.529   3.726   3.636
    1C        C  619   2.569   3.861   3.634
    1C        C  620   2.518   3.660   3.761
    1C        C  621   2.531   3.733   3.881
    1C        C  622   2.507   3.523   4.005
    1C        C  623   2.518   3.664   4.004
    1C        C  624   2.515   3.454   4.128
    1C        C  625   2.511   3.526   4.249
    1C        C  626   2.537   3.321   4.376
    1C        C  627   2.519   3.461   4.374
    1C        C  628   2.555   3.253   4.498
    1C        C  629   2.537   3.321   4.621
    1C        C  630   2.596   3.115   4.744
    1C        C  631   2.550   3.249   4.742
    1C        C  632   2.616   3.042   4.864
    1C        C  633   2.567   3.111   4.980
    1C        C  634   2.785   4.301   2.052
    1C        C  635   2.892   4.392   2.050
    1C        C  636   2.753   4.226   2.166
    1C        C  637   2.807   4.276   2.286
    1C        C  638   2.678   4.105   2.408
    1C        C  639   2.763   4.218   2.407
    1C        C  640   2.641   4.046   2.531
    1C        C  641   2.684   4.104   2.652
    1C        C  642   2.591   3.917   2.780
    1C        C  643   2.647   4.047   2.775
    1C        C  644   2.566   3.852   2.903
    1C        C  645   2.592   3.924   3.022
    1C        C  646   2.532   3.721   3.147
    1C        C  647   2.573   3.857   3.145
    1C        C  648   2.512   3.656   3.270
    1C        C  649   2.525   3.729   3.390
    1C        C  650   2.502   3.518   3.517
    1C        C  651   2.512   3.659   3.513
    1C        C  652   2.508   3.447   3.639
    1C        C  653   2.508   3.519   3.761
    1C        C  654   2.533   3.311   3.886
    1C        C  655   2.509   3.450   3.884
    1C        C  656   2.553   3.245   4.010
    1C        C  657   2.536   3.314   4.132
    1C        C  658   2.604   3.116   4.256
    1C        C  659   2.552   3.248   4.256
    1C        C  660   2.633   3.055   4.380
    1C        C  661   2.600   3.119   4.501
    1C        C  662   2.709   2.935   4.624
    1C        C  663   2.627   3.050   4.622
    1C        C  664   2.747   2.870   4.744
    1C        C  665   2.692   2.921   4.865
    1C        C  666   2.740   2.863   4.983
    1C        C  667   2.675   4.022   2.051
    1C        C  668   2.685   4.103   2.165
    1C        C  669   2.592   3.910   2.291
    1C        C  670   2.647   4.041   2.287
    1C        C  671   2.564   3.845   2.413
    1C        C  672   2.585   3.916   2.534
    1C        C  673   2.514   3.720   2.660
    1C        C  674   2.557   3.855   2.658
    1C        C  675   2.510   3.647   2.781
    1C        C  676   2.525   3.717   2.903
    1C        C  677   2.507   3.508   3.029
    1C        C  678   2.514   3.649   3.026
    1C        C  679   2.509   3.442   3.153
    1C        C  680   2.503   3.515   3.274
    1C        C  681   2.523   3.304   3.400
    1C        C  682   2.504   3.444   3.397
    1C        C  683   2.536   3.235   3.523
    1C        C  684   2.525   3.307   3.644
    1C        C  685   2.580   3.101   3.768
    1C        C  686   2.543   3.238   3.766
    1C        C  687   2.625   3.046   3.890
    1C        C  688   2.597   3.111   4.013
    1C        C  689   2.710   2.931   4.138
    1C        C  690   2.631   3.048   4.135
    1C        C  691   2.752   2.877   4.261
    1C        C  692   2.706   2.934   4.382
    1C        C  693   2.752   2.877   4.503
    1C        C  694   2.631   3.889   2.052
    1C        C  695   2.529   3.704   2.178
    1C        C  696   2.580   3.836   2.171
    1C        C  697   2.505   3.638   2.300
    1C        C  698   2.528   3.709   2.420
    1C        C  699   2.485   3.504   2.544
    1C        C  700   2.499   3.644   2.542
    1C        C  701   2.507   3.434   2.665
    1C        C  702   2.503   3.506   2.786
    1C        C  703   2.527   3.294   2.912
    1C        C  704   2.506   3.434   2.908
    1C        C  705   2.545   3.230   3.036
    1C        C  706   2.532   3.303   3.157
    1C        C  707   2.598   3.102   3.280
    1C        C  708   2.548   3.235   3.280
    1C        C  709   2.632   3.043   3.404
    1C        C  710   2.592   3.105   3.525
    1C        C  711   2.701   2.925   3.648
    1C        C  712   2.614   3.037   3.647
    1C        C  713   2.750   2.875   3.771
    1C        C  714   2.713   2.935   3.893
    1C        C  715   2.755   2.878   4.015
    1C        C  716   2.453   3.503   2.064
    1C        C  717   2.499   3.635   2.060
    1C        C  718   2.464   3.423   2.182
    1C        C  719   2.488   3.497   2.301
    1C        C  720   2.513   3.290   2.423
    1C        C  721   2.483   3.428   2.424
    1C        C  722   2.536   3.224   2.546
    1C        C  723   2.527   3.294   2.668
    1C        C  724   2.595   3.094   2.788
    1C        C  725   2.543   3.225   2.790
    1C        C  726   2.620   3.033   2.913
    1C        C  727   2.594   3.097   3.036
    1C        C  728   2.706   2.918   3.159
    1C        C  729   2.628   3.036   3.159
    1C        C  730   2.753   2.868   3.283
    1C        C  731   2.713   2.928   3.405
    1C        C  732   2.753   2.873   3.528
    1C        C  733   2.493   3.197   2.070
    1C        C  734   2.491   3.282   2.181
    1C        C  735   2.580   3.085   2.305
    1C        C  736   2.525   3.217   2.303
    1C        C  737   2.613   3.020   2.426
    1C        C  738   2.585   3.091   2.545
    1C        C  739   2.690   2.906   2.669
    1C        C  740   2.614   3.025   2.666
    1C        C  741   2.740   2.855   2.791
    1C        C  742   2.699   2.916   2.912
    1C        C  743   2.742   2.861   3.035
    1C        C  744   2.544   3.068   2.070
    1C        C  745   2.684   2.898   2.183
    1C        C  746   2.605   3.016   2.185
    1C        C  747   2.727   2.841   2.305
    1C        C  748   2.687   2.900   2.427
    1C        C  749   2.733   2.845   2.549
    1C        C  750   2.729   2.831   2.069
    1C        C  751   3.662   2.298   1.991
    1C        O  752   3.665   2.180   2.034
    1C        O  753   3.719   2.316   1.864
    1C        C  754   4.617   3.051   1.973
    1C        O  755   4.628   3.104   1.859
    1C        O  756   4.751   3.029   2.008
    1C        C  757   4.430   4.224   1.959
    1C        O  758   4.494   4.324   2.002
    1C        O  759   4.458   4.207   1.823
    1C        C  760   3.599   4.676   1.958
    1C        O  761   3.644   4.790   1.989
    1C        O  762   3.530   4.671   1.835
    1C        C  763   2.895   4.500   1.949
    1C        O  764   2.930   4.488   1.829
    1C        O  765   2.868   4.632   1.988
    1C        C  766   2.358   3.480   1.953
    1C        O  767   2.403   3.454   1.838
    1C        O  768   2.222   3.511   1.960
    1C        C  769   4.683   3.596   5.064
    1C        O  770   4.652   3.567   5.182
    1C        O  771   4.812   3.552   5.031
    1C        C  772   4.276   4.451   5.037
    1C        O  773   4.248   4.428   5.157
    1C        O  774   4.337   4.577   5.025
    1C        C  775   4.138   2.497   5.058
    1C        O  776   4.170   2.381   5.019
    1C        O  777   4.141   2.511   5.197
    1C        C  778   2.881   4.533   5.060
    1C        O  779   2.853   4.654   5.037
    1C        O  780   2.909   4.507   5.195
    1C        C  781   2.474   3.037   5.068
    1C        O  782   2.368   2.995   5.015
    1C        O  783   2.486   3.034   5.207
    1C        C  784   2.404   4.012   5.043
    1C        O  785   2.294   4.018   4.983
    1C        O  786   2.392   3.945   5.166
    1C        C  787   2.943   2.450   1.989
    1C        O  788   2.942   2.510   1.878
    1C        O  789   2.863   2.337   1.997
    1C        C  790   3.173   2.377   5.069
    1C        O  791   3.206   2.265   5.023
    1C        O  792   3.228   2.378   5.198
    1C        H  793   4.231   3.038   5.019
    1C        H  794   4.153   2.824   5.060
    1C        H  795   4.494   3.120   5.059
    1C        H  796   4.578   3.336   5.051
    1C        H  797   4.567   3.817   5.044
    1C        H  798   4.393   3.962   5.052
    1C        H  799   4.289   4.171   5.055
    1C        H  800   4.014   4.482   5.041
    1C        H  801   3.825   4.595   5.033
    1C        H  802   3.592   4.662   5.015
    1C        H  803   3.398   4.497   5.039
    1C        H  804   3.157   4.539   5.042
    1C        H  805   3.906   2.452   5.051
    1C        H  806   3.679   2.485   5.076
    1C        H  807   2.984   2.538   5.058
    1C        H  808   3.447   2.508   5.073
    1C        H  809   2.871   2.730   5.080
    1C        H  810   2.676   2.865   5.070
    1C        H  811   2.473   3.282   5.057
    1C        H  812   2.554   3.505   5.068
    1C        H  813   2.507   3.731   5.067
    1C        H  814   2.617   4.164   5.042
    1C        H  815   2.809   4.262   5.037
    1C        H  816   2.745   2.892   1.983
    1C        H  817   2.888   2.726   1.987
    1C        H  818   3.199   2.402   1.997
    1C        H  819   3.425   2.394   1.987
    1C        H  820   3.844   2.541   1.968
    1C        H  821   4.076   2.595   1.970
    1C        H  822   4.275   2.702   1.981
    1C        H  823   4.408   2.892   1.970
    1C        H  824   4.568   3.310   1.963
    1C        H  825   4.486   3.507   1.962
    1C        H  826   4.520   3.751   1.957
    1C        H  827   3.814   4.547   1.961
    1C        H  828   3.960   4.355   1.944
    1C        H  829   4.190   4.296   1.953
    1C        H  830   4.500   3.969   1.964
    1C        H  831   2.588   3.859   1.959
    1C        H  832   2.726   4.055   1.963
    1C        H  833   2.721   4.297   1.966
    1C        H  834   3.368   4.500   1.944
    1C        H  835   3.154   4.386   1.955
    1C        H  836   2.523   3.007   1.984
    1C        H  837   2.412   3.210   2.001
    1C        H  838   2.549   3.661   1.969
    2V3OU   H29  839   2.810   3.548   3.229
    2V3OU   C27  840   2.790   3.502   3.330
    2V3OU   H27  841   2.731   3.571   3.396
    2V3OU   H28  842   2.737   3.405   3.313
    2V3OU   O11  843   2.914   3.476   3.396
    2V3OU   C15  844   2.928   3.395   3.507
    2V3OU   C13  845   3.057   3.372   3.558
    2V3OU   C14  846   3.084   3.271   3.651
    2V3OU   C16  847   2.980   3.189   3.694
    2V3OU    H6  848   2.993   3.103   3.761
    2V3OU   C12  849   3.216   3.231   3.705
    2V3OU    O2  850   3.234   3.131   3.778
    2V3OU   C10  851   3.327   3.308   3.648
    2V3OU    C8  852   3.458   3.270   3.674
    2V3OU   O10  853   3.489   3.155   3.739
    2V3OU   H26  854   3.403   3.112   3.755
    2V3OU    C6  855   3.566   3.351   3.628
    2V3OU    C5  856   3.540   3.472   3.563
    2V3OU    C4  857   3.704   3.293   3.632
    2V3OU    H4  858   3.721   3.234   3.727
    2V3OU    H5  859   3.708   3.217   3.549
    2V3OU    C2  860   3.816   3.395   3.616
    2V3OU    O6  861   3.812   3.478   3.732
    2V3OU   H21  862   3.765   3.551   3.689
    2V3OU    C3  863   3.781   3.494   3.504
    2V3OU    H2  864   3.861   3.571   3.494
    2V3OU    H3  865   3.782   3.444   3.404
    2V3OU   C25  866   3.950   3.326   3.590
    2V3OU    O7  867   4.005   3.300   3.483
    2V3OU   C26  868   4.028   3.288   3.715
    2V3OU   H22  869   4.056   3.383   3.768
    2V3OU   H23  870   4.118   3.228   3.687
    2V3OU    O8  871   3.958   3.205   3.805
    2V3OU   H24  872   3.916   3.267   3.868
    2V3OU    C1  873   3.648   3.566   3.521
    2V3OU    H1  874   3.624   3.614   3.421
    2V3OU    O3  875   3.656   3.653   3.634
    2V3OU   C19  876   3.620   3.791   3.619
    2V3OU    H9  877   3.525   3.800   3.557
    2V3OU    O4  878   3.710   3.845   3.526
    2V3OU   C20  879   3.838   3.873   3.583
    2V3OU   H10  880   3.900   3.779   3.593
    2V3OU   C24  881   3.605   3.858   3.756
    2V3OU   H16  882   3.545   3.794   3.826
    2V3OU   H17  883   3.557   3.957   3.735
    2V3OU   C23  884   3.747   3.875   3.809
    2V3OU   H15  885   3.787   3.769   3.826
    2V3OU    N1  886   3.735   3.954   3.929
    2V3OU   H19  887   3.810   3.931   3.991
    2V3OU   H20  888   3.650   3.936   3.979
    2V3OU   C21  889   3.847   3.950   3.715
    2V3OU   H11  890   3.950   3.936   3.760
    2V3OU    O5  891   3.828   4.090   3.709
    2V3OU   H18  892   3.788   4.102   3.796
    2V3OU   C22  893   3.905   3.953   3.472
    2V3OU   H12  894   3.849   4.047   3.450
    2V3OU   H13  895   3.898   3.898   3.375
    2V3OU   H14  896   4.016   3.960   3.484
    2V3OU   C11  897   3.161   3.477   3.554
    2V3OU    O1  898   3.137   3.591   3.508
    2V3OU    C9  899   3.298   3.427   3.575
    2V3OU    C7  900   3.404   3.508   3.537
    2V3OU    O9  901   3.391   3.616   3.451
    2V3OU   H25  902   3.295   3.628   3.449
    2V3OU   C17  903   2.827   3.317   3.566
    2V3OU    H7  904   2.729   3.355   3.536
    2V3OU   C18  905   2.848   3.215   3.658
    2V3OU    H8  906   2.784   3.170   3.735
    3SOL     OW  907   2.806   4.539   5.916
    3SOL    HW1  908   2.861   4.492   5.847
    3SOL    HW2  909   2.789   4.477   5.993
    4SOL     OW  910   6.520   6.948   6.691
    4SOL    HW1  911   6.424   6.976   6.696
    4SOL    HW2  912   6.526   6.849   6.699
    5SOL     OW  913   5.224   2.340   2.294
    5SOL    HW1  914   5.238   2.253   2.246
    5SOL    HW2  915   5.133   2.376   2.273
    6SOL     OW  916   4.847   1.944   2.348
    6SOL    HW1  917   4.783   1.868   2.353
    6SOL    HW2  918   4.798   2.029   2.368
    7SOL     OW  919   0.733   3.977   3.936
    7SOL    HW1  920   0.665   4.025   3.882
    7SOL    HW2  921   0.721   3.998   4.033
    8SOL     OW  922   2.602   2.269   5.427
    8SOL    HW1  923   2.639   2.186   5.469
    8SOL    HW2  924   2.674   2.338   5.421
    9SOL     OW  925   6.059   2.280   5.858
    9SOL    HW1  926   6.095   2.369   5.887
    9SOL    HW2  927   6.062   2.216   5.936
   10SOL     OW  928   2.961   4.983   4.687
   10SOL    HW1  929   2.909   4.934   4.757
   10SOL    HW2  930   3.005   5.063   4.727
   11SOL     OW  931   1.761   1.453   6.020
   11SOL    HW1  932   1.702   1.413   5.951
   11SOL    HW2  933   1.856   1.431   6.000
   12SOL     OW  934   2.992   4.836   3.763
   12SOL    HW1  935   2.953   4.795   3.846
   12SOL    HW2  936   3.079   4.880   3.786
   13SOL     OW  937   4.228   6.137   3.547
   13SOL    HW1  938   4.282   6.065   3.506
   13SOL    HW2  939   4.278   6.176   3.625
   14SOL     OW  940   3.683   4.967   6.235
   14SOL    HW1  941   3.719   4.946   6.144
   14SOL    HW2  942   3.752   5.015   6.288
   15SOL     OW  943   0.781   6.547   0.180
   15SOL    HW1  944   0.861   6.601   0.208
   15SOL    HW2  945   0.793   6.518   0.085
   16SOL     OW  946   5.236   2.780   6.573
   16SOL    HW1  947   5.259   2.690   6.535
   16SOL    HW2  948   5.233   2.773   6.673
   17SOL     OW  949   5.136   0.188   6.389
   17SOL    HW1  950   5.070   0.219   6.457
   17SOL    HW2  951   5.174   0.100   6.417
   18SOL     OW  952   3.516   0.860   4.765
   18SOL    HW1  953   3.453   0.930   4.797
   18SOL    HW2  954   3.518   0.859   4.665
   19SOL     OW  955   0.444   2.624   2.090
   19SOL    HW1  956   0.415   2.719   2.100
   19SOL    HW2  957   0.391   2.581   2.017
   20SOL     OW  958   4.828   2.383   5.341
   20SOL    HW1  959   4.729   2.388   5.327
   20SOL    HW2  960   4.875   2.427   5.265
   21SOL     OW  961   2.619   0.787   3.050
   21SOL    HW1  962   2.597   0.884   3.035
   21SOL    HW2  963   2.641   0.772   3.146
   22SOL     OW  964   1.529   5.991   0.466
   22SOL    HW1  965   1.434   6.020   0.477
   22SOL    HW2  966   1.580   6.063   0.418
   23SOL     OW  967   3.872   5.412   2.238
   23SOL    HW1  968   3.849   5.325   2.194
   23SOL    HW2  969   3.794   5.445   2.291
   24SOL     OW  970   3.649   0.582   2.585
   24SOL    HW1  971   3.676   0.606   2.492
   24SOL    HW2  972   3.566   0.633   2.609
   25SOL     OW  973   2.103   0.399   3.509
   25SOL    HW1  974   2.064   0.477   3.461
   25SOL    HW2  975   2.176   0.359   3.454
   26SOL     OW  976   6.665   2.203   6.899
   26SOL    HW1  977   6.645   2.137   6.827
   26SOL    HW2  978   6.727   2.273   6.864
   27SOL     OW  979   1.851   1.709   1.802
   27SOL    HW1  980   1.862   1.646   1.879
   27SOL    HW2  981   1.814   1.795   1.835
   28SOL     OW  982   0.665   0.692   4.950
   28SOL    HW1  983   0.736   0.639   4.996
   28SOL    HW2  984   0.686   0.699   4.852
   29SOL     OW  985   6.874   1.186   1.150
   29SOL    HW1  986   6.798   1.125   1.125
   29SOL    HW2  987   6.844   1.247   1.223
   30SOL     OW  988   4.887   0.069   5.185
   30SOL    HW1  989   4.888   7.013   5.122
   30SOL    HW2  990   4.947   0.050   5.263
   31SOL     OW  991   0.553   2.322   5.642
   31SOL    HW1  992   0.622   2.358   5.579
   31SOL    HW2  993   0.462   2.345   5.609
   32SOL     OW  994   0.956   1.979   2.063
   32SOL    HW1  995   1.037   2.000   2.009
   32SOL    HW2  996   0.979   1.911   2.133
   33SOL     OW  997   0.798   4.711   4.922
   33SOL    HW1  998   0.865   4.742   4.990
   33SOL    HW2  999   0.840   4.711   4.831
   34SOL     OW 1000   2.587   5.618   5.188
   34SOL    HW1 1001   2.579   5.697   5.127
   34SOL    HW2 1002   2.684   5.593   5.196
   35SOL     OW 1003   4.440   2.354   5.799
   35SOL    HW1 1004   4.470   2.433   5.852
   35SOL    HW2 1005   4.420   2.277   5.861
   36SOL     OW 1006   4.830   1.672   3.583
   36SOL    HW1 1007   4.922   1.669   3.621
   36SOL    HW2 1008   4.766   1.629   3.647
   37SOL     OW 1009   1.615   1.932   4.846
   37SOL    HW1 1010   1.540   1.959   4.906
   37SOL    HW2 1011   1.642   2.010   4.789
   38SOL     OW 1012   1.305   4.751   1.688
   38SOL    HW1 1013   1.324   4.660   1.650
   38SOL    HW2 1014   1.307   4.746   1.788
   39SOL     OW 1015   5.906   4.952   6.297
   39SOL    HW1 1016   5.838   5.009   6.343
   39SOL    HW2 1017   5.893   4.958   6.198
   40SOL     OW 1018   3.513   2.041   0.163
   40SOL    HW1 1019   3.561   2.068   0.080
   40SOL    HW2 1020   3.555   1.959   0.202
   41SOL     OW 1021   5.695   3.605   3.122
   41SOL    HW1 1022   5.730   3.519   3.085
   41SOL    HW2 1023   5.595   3.603   3.124
   42SOL     OW 1024   3.380   6.412   4.897
   42SOL    HW1 1025   3.350   6.330   4.946
   42SOL    HW2 1026   3.310   6.483   4.904
   43SOL     OW 1027   4.591   0.908   5.417
   43SOL    HW1 1028   4.509   0.856   5.393
   43SOL    HW2 1029   4.663   0.846   5.447
   44SOL     OW 1030   5.752   2.514   5.153
   44SOL    HW1 1031   5.661   2.548   5.130
   44SOL    HW2 1032   5.782   2.450   5.083
   45SOL     OW 1033   4.484   5.131   1.620
   45SOL    HW1 1034   4.453   5.037   1.606
   45SOL    HW2 1035   4.579   5.130   1.652
   46SOL     OW 1036   1.370   2.184   3.729
   46SOL    HW1 1037   1.372   2.093   3.769
   46SOL    HW2 1038   1.451   2.235   3.756
   47SOL     OW 1039   4.177   4.082   1.216
   47SOL    HW1 1040   4.132   4.024   1.148
   47SOL    HW2 1041   4.121   4.163   1.234
   48SOL     OW 1042   6.796   2.358   6.723
   48SOL    HW1 1043   6.747   2.445   6.730
   48SOL    HW2 1044   6.894   2.373   6.732
   49SOL     OW 1045   5.916   2.536   1.555
   49SOL    HW1 1046   6.005   2.569   1.525
   49SOL    HW2 1047   5.922   2.440   1.581
   50SOL     OW 1048   6.496   1.247   5.232
   50SOL    HW1 1049   6.408   1.203   5.215
   50SOL    HW2 1050   6.535   1.279   5.145
   51SOL     OW 1051   2.255   6.309   2.571
   51SOL    HW1 1052   2.347   6.271   2.581
   51SOL    HW2 1053   2.199   6.279   2.648
   52SOL     OW 1054   5.353   3.470   1.743
   52SOL    HW1 1055   5.289   3.546   1.738
   52SOL    HW2 1056   5.329   3.411   1.820
   53SOL     OW 1057   4.858   0.837   3.628
   53SOL    HW1 1058   4.880   0.849   3.531
   53SOL    HW2 1059   4.863   0.740   3.651
   54SOL     OW 1060   5.708   6.733   0.973
   54SOL    HW1 1061   5.672   6.816   0.930
   54SOL    HW2 1062   5.797   6.712   0.934
   55SOL     OW 1063   1.938   2.719   5.009
   55SOL    HW1 1064   1.849   2.757   4.983
   55SOL    HW2 1065   1.986   2.784   5.068
   56SOL     OW 1066   0.841   1.160   1.282
   56SOL    HW1 1067   0.919   1.151   1.219
   56SOL    HW2 1068   0.859   1.236   1.345
   57SOL     OW 1069   3.779   1.229   0.792
   57SOL    HW1 1070   3.763   1.154   0.855
   57SOL    HW2 1071   3.844   1.199   0.721
   58SOL     OW 1072   0.642   6.557   5.732
   58SOL    HW1 1073   0.611   6.651   5.717
   58SOL    HW2 1074   0.735   6.546   5.696
   59SOL     OW 1075   0.059   3.561   5.850
   59SOL    HW1 1076   0.103   3.650   5.840
   59SOL    HW2 1077   7.006   3.568   5.916
   60SOL     OW 1078   4.809   2.935   4.127
   60SOL    HW1 1079   4.864   2.978   4.055
   60SOL    HW2 1080   4.827   2.837   4.127
   61SOL     OW 1081   6.817   1.037   4.296
   61SOL    HW1 1082   6.907   1.038   4.339
   61SOL    HW2 1083   6.825   1.006   4.201
   62SOL     OW 1084   2.251   1.507   2.021
   62SOL    HW1 1085   2.263   1.415   1.985
   62SOL    HW2 1086   2.281   1.574   1.952
   63SOL     OW 1087   4.181   0.395   3.952
   63SOL    HW1 1088   4.241   0.475   3.950
   63SOL    HW2 1089   4.233   0.314   3.926
   64SOL     OW 1090   0.113   3.109   6.499
   64SOL    HW1 1091   0.035   3.146   6.449
   64SOL    HW2 1092   0.118   3.010   6.486
   65SOL     OW 1093   0.883   5.933   6.105
   65SOL    HW1 1094   0.796   5.894   6.133
   65SOL    HW2 1095   0.878   5.961   6.009
   66SOL     OW 1096   3.314   0.454   3.598
   66SOL    HW1 1097   3.302   0.540   3.549
   66SOL    HW2 1098   3.300   0.377   3.536
   67SOL     OW 1099   0.545   3.263   6.624
   67SOL    HW1 1100   0.531   3.214   6.538
   67SOL    HW2 1101   0.641   3.286   6.634
   68SOL     OW 1102   6.880   1.638   6.189
   68SOL    HW1 1103   6.907   1.552   6.144
   68SOL    HW2 1104   6.815   1.687   6.131
   69SOL     OW 1105   1.355   3.165   5.178
   69SOL    HW1 1106   1.359   3.112   5.263
   69SOL    HW2 1107   1.446   3.200   5.156
   70SOL     OW 1108   5.087   5.004   4.652
   70SOL    HW1 1109   5.141   5.077   4.608
   70SOL    HW2 1110   4.993   5.007   4.617
   71SOL     OW 1111   5.152   1.866   3.270
   71SOL    HW1 1112   5.199   1.867   3.182
   71SOL    HW2 1113   5.101   1.780   3.279
   72SOL     OW 1114   0.456   1.104   3.035
   72SOL    HW1 1115   0.368   1.090   3.080
   72SOL    HW2 1116   0.442   1.119   2.937
   73SOL     OW 1117   3.022   0.683   1.316
   73SOL    HW1 1118   2.928   0.714   1.328
   73SOL    HW2 1119   3.057   0.718   1.229
   74SOL     OW 1120   3.114   0.835   6.812
   74SOL    HW1 1121   3.055   0.916   6.817
   74SOL    HW2 1122   3.206   0.859   6.843
   75SOL     OW 1123   3.664   1.157   1.529
   75SOL    HW1 1124   3.727   1.234   1.540
   75SOL    HW2 1125   3.641   1.120   1.619
   76SOL     OW 1126   2.847   3.186   6.576
   76SOL    HW1 1127   2.910   3.254   6.538
   76SOL    HW2 1128   2.789   3.149   6.503
   77SOL     OW 1129   2.041   5.937   2.982
   77SOL    HW1 1130   2.116   5.996   3.010
   77SOL    HW2 1131   2.074   5.844   2.967
   78SOL     OW 1132   4.348   1.369   1.144
   78SOL    HW1 1133   4.313   1.345   1.234
   78SOL    HW2 1134   4.446   1.351   1.140
   79SOL     OW 1135   3.034   6.266   1.140
   79SOL    HW1 1136   3.121   6.221   1.121
   79SOL    HW2 1137   2.994   6.230   1.224
   80SOL     OW 1138   4.035   1.408   4.593
   80SOL    HW1 1139   4.082   1.489   4.559
   80SOL    HW2 1140   4.084   1.326   4.563
   81SOL     OW 1141   1.651   6.829   1.812
   81SOL    HW1 1142   1.590   6.750   1.807
   81SOL    HW2 1143   1.720   6.822   1.740
   82SOL     OW 1144   6.924   5.823   1.332
   82SOL    HW1 1145   6.916   5.767   1.250
   82SOL    HW2 1146   7.020   5.851   1.344
   83SOL     OW 1147   1.027   0.817   6.575
   83SOL    HW1 1148   0.966   0.751   6.618
   83SOL    HW2 1149   1.088   0.770   6.512
   84SOL     OW 1150   5.949   3.992   3.275
   84SOL    HW1 1151   6.009   3.941   3.214
   84SOL    HW2 1152   5.994   4.005   3.363
   85SOL     OW 1153   1.317   0.847   3.341
   85SOL    HW1 1154   1.281   0.940   3.343
   85SOL    HW2 1155   1.335   0.820   3.246
   86SOL     OW 1156   0.052   1.303   0.046
   86SOL    HW1 1157   0.130   1.354   0.083
   86SOL    HW2 1158   0.080   1.209   0.026
   87SOL     OW 1159   3.489   3.997   0.906
   87SOL    HW1 1160   3.557   3.945   0.855
   87SOL    HW2 1161   3.508   3.990   1.004
   88SOL     OW 1162   2.993   2.258   6.302
   88SOL    HW1 1163   2.931   2.285   6.375
   88SOL    HW2 1164   2.952   2.280   6.213
   89SOL     OW 1165   3.339   3.654   0.292
   89SOL    HW1 1166   3.343   3.733   0.354
   89SOL    HW2 1167   3.254   3.605   0.307
   90SOL     OW 1168   4.122   4.833   2.696
   90SOL    HW1 1169   4.064   4.913   2.715
   90SOL    HW2 1170   4.204   4.837   2.752
   91SOL     OW 1171   5.987   4.262   6.030
   91SOL    HW1 1172   6.011   4.178   6.079
   91SOL    HW2 1173   5.901   4.299   6.067
   92SOL     OW 1174   4.951   4.099   0.392
   92SOL    HW1 1175   4.947   4.180   0.333
   92SOL    HW2 1176   4.860   4.079   0.427
   93SOL     OW 1177   3.182   3.432   0.078
   93SOL    HW1 1178   3.204   3.357   0.015
   93SOL    HW2 1179   3.200   3.403   0.172
   94SOL     OW 1180   2.067   6.124   0.094
   94SOL    HW1 1181   1.973   6.091   0.099
   94SOL    HW2 1182   2.099   6.120   7.021
   95SOL     OW 1183   1.684   0.493   2.894
   95SOL    HW1 1184   1.687   0.431   2.973
   95SOL    HW2 1185   1.754   0.467   2.828
   96SOL     OW 1186   4.385   5.654   6.124
   96SOL    HW1 1187   4.399   5.653   6.223
   96SOL    HW2 1188   4.431   5.734   6.084
   97SOL     OW 1189   2.357   3.718   5.293
   97SOL    HW1 1190   2.370   3.788   5.223
   97SOL    HW2 1191   2.446   3.692   5.331
   98SOL     OW 1192   0.864   1.117   0.897
   98SOL    HW1 1193   0.774   1.082   0.922
   98SOL    HW2 1194   0.857   1.215   0.877
   99SOL     OW 1195   3.770   3.524   2.561
   99SOL    HW1 1196   3.809   3.567   2.479
   99SOL    HW2 1197   3.721   3.592   2.614
  100SOL     OW 1198   6.675   6.749   4.169
  100SOL    HW1 1199   6.697   6.845   4.153
  100SOL    HW2 1200   6.756   6.702   4.205
  101SOL     OW 1201   0.325   5.876   2.385
  101SOL    HW1 1202   0.225   5.873   2.389
  101SOL    HW2 1203   0.355   5.972   2.380
  102SOL     OW 1204   3.799   5.857   1.809
  102SOL    HW1 1205   3.780   5.953   1.829
  102SOL    HW2 1206   3.785   5.839   1.712
  103SOL     OW 1207   1.848   2.288   3.004
  103SOL    HW1 1208   1.847   2.275   2.905
  103SOL    HW2 1209   1.898   2.371   3.026
  104SOL     OW 1210   1.464   4.927   1.852
  104SOL    HW1 1211   1.453   4.880   1.765
  104SOL    HW2 1212   1.558   4.918   1.884
  105SOL     OW 1213   5.738   1.325   6.196
  105SOL    HW1 1214   5.689   1.354   6.113
  105SOL    HW2 1215   5.771   1.406   6.245
  106SOL     OW 1216   4.267   6.134   2.951
  106SOL    HW1 1217   4.291   6.160   3.044
  106SOL    HW2 1218   4.215   6.048   2.953
  107SOL     OW 1219   0.006   1.039   6.941
  107SOL    HW1 1220   6.959   0.984   6.989
  107SOL    HW2 1221   0.032   0.994   6.856
  108SOL     OW 1222   3.644   0.158   6.029
  108SOL    HW1 1223   3.658   0.172   5.931
  108SOL    HW2 1224   3.561   0.103   6.044
  109SOL     OW 1225   2.685   0.310   2.502
  109SOL    HW1 1226   2.635   0.396   2.493
  109SOL    HW2 1227   2.783   0.328   2.500
  110SOL     OW 1228   2.592   4.937   4.351
  110SOL    HW1 1229   2.658   4.891   4.293
  110SOL    HW2 1230   2.548   5.011   4.300
  111SOL     OW 1231   2.026   1.196   3.330
  111SOL    HW1 1232   1.928   1.217   3.341
  111SOL    HW2 1233   2.061   1.244   3.249
  112SOL     OW 1234   5.240   6.497   0.586
  112SOL    HW1 1235   5.325   6.485   0.535
  112SOL    HW2 1236   5.163   6.496   0.523
  113SOL     OW 1237   1.042   5.858   2.650
  113SOL    HW1 1238   1.139   5.871   2.629
  113SOL    HW2 1239   0.991   5.939   2.621
  114SOL     OW 1240   1.716   6.263   2.047
  114SOL    HW1 1241   1.734   6.348   2.097
  114SOL    HW2 1242   1.637   6.217   2.088
  115SOL     OW 1243   5.293   0.438   3.219
  115SOL    HW1 1244   5.308   0.370   3.291
  115SOL    HW2 1245   5.202   0.477   3.229
  116SOL     OW 1246   0.302   5.734   1.487
  116SOL    HW1 1247   0.339   5.751   1.578
  116SOL    HW2 1248   0.232   5.802   1.466
  117SOL     OW 1249   1.435   0.916   0.853
  117SOL    HW1 1250   1.421   0.843   0.786
  117SOL    HW2 1251   1.455   1.002   0.805
  118SOL     OW 1252   1.962   2.520   3.083
  118SOL    HW1 1253   2.059   2.494   3.093
  118SOL    HW2 1254   1.933   2.570   3.165
  119SOL     OW 1255   6.957   0.357   6.744
  119SOL    HW1 1256   6.973   0.352   6.843
  119SOL    HW2 1257   7.002   0.280   6.699
  120SOL     OW 1258   5.146   0.170   4.331
  120SOL    HW1 1259   5.100   0.246   4.286
  120SOL    HW2 1260   5.239   0.197   4.356
  121SOL     OW 1261   1.139   4.144   0.594
  121SOL    HW1 1262   1.232   4.108   0.586
  121SOL    HW2 1263   1.088   4.089   0.661
  122SOL     OW 1264   1.537   3.546   0.052
  122SOL    HW1 1265   1.570   3.452   0.063
  122SOL    HW2 1266   1.602   3.597   7.017
  123SOL     OW 1267   0.871   1.268   2.352
  123SOL    HW1 1268   0.933   1.260   2.274
  123SOL    HW2 1269   0.777   1.259   2.320
  124SOL     OW 1270   3.105   2.120   0.439
  124SOL    HW1 1271   3.144   2.053   0.376
  124SOL    HW2 1272   3.010   2.139   0.415
  125SOL     OW 1273   3.368   2.733   0.584
  125SOL    HW1 1274   3.437   2.784   0.634
  125SOL    HW2 1275   3.413   2.670   0.519
  126SOL     OW 1276   3.664   2.909   2.884
  126SOL    HW1 1277   3.688   2.894   2.788
  126SOL    HW2 1278   3.740   2.881   2.942
  127SOL     OW 1279   6.852   6.492   6.291
  127SOL    HW1 1280   6.925   6.435   6.328
  127SOL    HW2 1281   6.885   6.541   6.210
  128SOL     OW 1282   5.037   3.417   1.684
  128SOL    HW1 1283   5.085   3.505   1.683
  128SOL    HW2 1284   5.075   3.360   1.757
  129SOL     OW 1285   3.140   4.291   0.483
  129SOL    HW1 1286   3.235   4.318   0.501
  129SOL    HW2 1287   3.139   4.197   0.449
  130SOL     OW 1288   6.216   0.533   4.673
  130SOL    HW1 1289   6.237   0.627   4.697
  130SOL    HW2 1290   6.288   0.496   4.615
  131SOL     OW 1291   5.897   0.897   3.724
  131SOL    HW1 1292   5.800   0.875   3.715
  131SOL    HW2 1293   5.951   0.813   3.715
  132SOL     OW 1294   3.077   2.775   1.203
  132SOL    HW1 1295   3.164   2.799   1.159
  132SOL    HW2 1296   3.062   2.677   1.196
  133SOL     OW 1297   5.542   0.969   3.980
  133SOL    HW1 1298   5.452   1.013   3.979
  133SOL    HW2 1299   5.537   0.885   4.036
  134SOL     OW 1300   0.194   0.034   2.669
  134SOL    HW1 1301   0.234   0.087   2.744
  134SOL    HW2 1302   0.153   6.972   2.706
  135SOL     OW 1303   5.113   3.738   4.169
  135SOL    HW1 1304   5.073   3.662   4.219
  135SOL    HW2 1305   5.075   3.824   4.202
  136SOL     OW 1306   1.935   6.144   4.707
  136SOL    HW1 1307   1.986   6.230   4.710
  136SOL    HW2 1308   1.936   6.101   4.798
  137SOL     OW 1309   4.182   1.198   4.477
  137SOL    HW1 1310   4.241   1.219   4.399
  137SOL    HW2 1311   4.165   1.100   4.481
  138SOL     OW 1312   0.814   4.313   3.282
  138SOL    HW1 1313   0.828   4.365   3.366
  138SOL    HW2 1314   0.800   4.216   3.305
  139SOL     OW 1315   2.152   5.415   6.381
  139SOL    HW1 1316   2.085   5.413   6.307
  139SOL    HW2 1317   2.111   5.456   6.462
  140SOL     OW 1318   1.142   6.508   3.239
  140SOL    HW1 1319   1.171   6.603   3.250
  140SOL    HW2 1320   1.208   6.459   3.182
  141SOL     OW 1321   6.708   2.373   6.282
  141SOL    HW1 1322   6.697   2.332   6.192
  141SOL    HW2 1323   6.805   2.387   6.301
  142SOL     OW 1324   2.188   3.767   2.019
  142SOL    HW1 1325   2.198   3.667   2.016
  142SOL    HW2 1326   2.254   3.808   1.956
  143SOL     OW 1327   5.590   5.812   1.017
  143SOL    HW1 1328   5.509   5.852   0.974
  143SOL    HW2 1329   5.654   5.885   1.042
  144SOL     OW 1330   2.266   4.898   5.083
  144SOL    HW1 1331   2.177   4.855   5.070
  144SOL    HW2 1332   2.315   4.852   5.157
  145SOL     OW 1333   1.610   5.122   1.498
  145SOL    HW1 1334   1.527   5.144   1.446
  145SOL    HW2 1335   1.663   5.205   1.513
  146SOL     OW 1336   4.730   0.888   6.378
  146SOL    HW1 1337   4.654   0.954   6.383
  146SOL    HW2 1338   4.773   0.881   6.468
  147SOL     OW 1339   5.289   1.714   5.952
  147SOL    HW1 1340   5.351   1.638   5.931
  147SOL    HW2 1341   5.197   1.692   5.921
  148SOL     OW 1342   0.626   5.628   1.832
  148SOL    HW1 1343   0.544   5.573   1.815
  148SOL    HW2 1344   0.600   5.725   1.839
  149SOL     OW 1345   3.382   1.823   4.706
  149SOL    HW1 1346   3.316   1.895   4.725
  149SOL    HW2 1347   3.467   1.842   4.755
  150SOL     OW 1348   4.714   0.211   6.189
  150SOL    HW1 1349   4.675   0.201   6.281
  150SOL    HW2 1350   4.708   0.306   6.160
  151SOL     OW 1351   3.540   1.011   1.749
  151SOL    HW1 1352   3.442   1.020   1.770
  151SOL    HW2 1353   3.590   0.992   1.833
  152SOL     OW 1354   6.811   1.538   0.163
  152SOL    HW1 1355   6.792   1.613   0.099
  152SOL    HW2 1356   6.901   1.551   0.203
  153SOL     OW 1357   2.894   0.597   2.946
  153SOL    HW1 1358   2.833   0.675   2.933
  153SOL    HW2 1359   2.982   0.615   2.901
  154SOL     OW 1360   0.241   3.204   0.394
  154SOL    HW1 1361   0.213   3.187   0.300
  154SOL    HW2 1362   0.307   3.135   0.422
  155SOL     OW 1363   0.955   0.149   3.082
  155SOL    HW1 1364   1.008   0.064   3.086
  155SOL    HW2 1365   1.004   0.221   3.131
  156SOL     OW 1366   6.237   0.867   0.015
  156SOL    HW1 1367   6.310   0.892   0.078
  156SOL    HW2 1368   6.236   0.930   6.959
  157SOL     OW 1369   5.528   3.596   0.530
  157SOL    HW1 1370   5.592   3.604   0.607
  157SOL    HW2 1371   5.439   3.566   0.564
  158SOL     OW 1372   1.764   2.384   1.050
  158SOL    HW1 1373   1.741   2.456   0.985
  158SOL    HW2 1374   1.706   2.304   1.033
  159SOL     OW 1375   4.275   5.074   1.009
  159SOL    HW1 1376   4.332   5.140   1.057
  159SOL    HW2 1377   4.279   4.986   1.057
  160SOL     OW 1378   6.287   0.149   1.098
  160SOL    HW1 1379   6.190   0.139   1.120
  160SOL    HW2 1380   6.298   0.211   1.021
  161SOL     OW 1381   2.066   0.058   2.307
  161SOL    HW1 1382   2.075   0.133   2.241
  161SOL    HW2 1383   2.093   6.993   2.263
  162SOL     OW 1384   3.137   6.945   0.122
  162SOL    HW1 1385   3.140   6.932   0.221
  162SOL    HW2 1386   3.086   0.007   0.100
  163SOL     OW 1387   0.480   5.303   2.882
  163SOL    HW1 1388   0.486   5.323   2.784
  163SOL    HW2 1389   0.529   5.218   2.901
  164SOL     OW 1390   1.011   3.235   2.483
  164SOL    HW1 1391   0.986   3.317   2.535
  164SOL    HW2 1392   1.047   3.165   2.545
  165SOL     OW 1393   5.817   4.820   0.339
  165SOL    HW1 1394   5.734   4.798   0.391
  165SOL    HW2 1395   5.885   4.748   0.354
  166SOL     OW 1396   6.586   3.576   2.389
  166SOL    HW1 1397   6.504   3.519   2.392
  166SOL    HW2 1398   6.562   3.669   2.361
  167SOL     OW 1399   6.310   1.236   6.572
  167SOL    HW1 1400   6.256   1.159   6.539
  167SOL    HW2 1401   6.250   1.310   6.599
  168SOL     OW 1402   3.954   2.072   1.760
  168SOL    HW1 1403   3.872   2.054   1.815
  168SOL    HW2 1404   3.945   2.027   1.671
  169SOL     OW 1405   5.633   2.734   6.955
  169SOL    HW1 1406   5.572   2.803   6.916
  169SOL    HW2 1407   5.680   2.685   6.881
  170SOL     OW 1408   0.164   6.092   2.543
  170SOL    HW1 1409   0.253   6.095   2.499
  170SOL    HW2 1410   0.104   6.030   2.493
  171SOL     OW 1411   1.997   3.449   0.206
  171SOL    HW1 1412   2.068   3.495   0.153
  171SOL    HW2 1413   1.983   3.498   0.293
  172SOL     OW 1414   6.302   2.251   2.326
  172SOL    HW1 1415   6.237   2.219   2.395
  172SOL    HW2 1416   6.391   2.267   2.368
  173SOL     OW 1417   5.670   1.128   4.834
  173SOL    HW1 1418   5.624   1.207   4.794
  173SOL    HW2 1419   5.717   1.155   4.918
  174SOL     OW 1420   4.567   5.348   4.184
  174SOL    HW1 1421   4.571   5.255   4.222
  174SOL    HW2 1422   4.471   5.374   4.170
  175SOL     OW 1423   3.419   0.873   1.210
  175SOL    HW1 1424   3.454   0.783   1.183
  175SOL    HW2 1425   3.494   0.928   1.247
  176SOL     OW 1426   4.936   4.512   2.848
  176SOL    HW1 1427   4.954   4.414   2.838
  176SOL    HW2 1428   4.840   4.527   2.868
  177SOL     OW 1429   5.096   2.828   4.986
  177SOL    HW1 1430   5.023   2.894   5.002
  177SOL    HW2 1431   5.086   2.790   4.894
  178SOL     OW 1432   2.774   4.862   4.860
  178SOL    HW1 1433   2.807   4.805   4.935
  178SOL    HW2 1434   2.679   4.887   4.878
  179SOL     OW 1435   4.385   6.724   0.130
  179SOL    HW1 1436   4.287   6.738   0.147
  179SOL    HW2 1437   4.434   6.722   0.217
  180SOL     OW 1438   2.377   6.759   0.723
  180SOL    HW1 1439   2.368   6.669   0.765
  180SOL    HW2 1440   2.450   6.810   0.767
  181SOL     OW 1441   3.836   3.068   6.038
  181SOL    HW1 1442   3.768   3.066   6.111
  181SOL    HW2 1443   3.833   2.981   5.988
  182SOL     OW 1444   4.304   2.406   6.932
  182SOL    HW1 1445   4.247   2.488   6.944
  182SOL    HW2 1446   4.378   2.426   6.867
  183SOL     OW 1447   4.007   2.053   3.493
  183SOL    HW1 1448   4.070   2.109   3.546
  183SOL    HW2 1449   4.030   2.060   3.396
  184SOL     OW 1450   0.560   6.685   3.498
  184SOL    HW1 1451   0.539   6.637   3.413
  184SOL    HW2 1452   0.638   6.642   3.543
  185SOL     OW 1453   1.191   1.225   4.063
  185SOL    HW1 1454   1.135   1.168   4.003
  185SOL    HW2 1455   1.286   1.220   4.035
  186SOL     OW 1456   5.416   0.099   4.636
  186SOL    HW1 1457   5.415   0.199   4.626
  186SOL    HW2 1458   5.484   0.074   4.705
  187SOL     OW 1459   5.733   6.556   2.195
  187SOL    HW1 1460   5.680   6.600   2.267
  187SOL    HW2 1461   5.708   6.459   2.190
  188SOL     OW 1462   0.709   2.939   3.982
  188SOL    HW1 1463   0.718   2.956   4.080
  188SOL    HW2 1464   0.714   3.026   3.932
  189SOL     OW 1465   1.615   4.851   6.811
  189SOL    HW1 1466   1.705   4.808   6.807
  189SOL    HW2 1467   1.552   4.791   6.861
  190SOL     OW 1468   6.121   4.490   6.684
  190SOL    HW1 1469   6.065   4.569   6.712
  190SOL    HW2 1470   6.125   4.424   6.759
  191SOL     OW 1471   6.649   1.123   6.222
  191SOL    HW1 1472   6.637   1.215   6.184
  191SOL    HW2 1473   6.587   1.059   6.177
  192SOL     OW 1474   6.864   4.663   1.595
  192SOL    HW1 1475   6.789   4.603   1.623
  192SOL    HW2 1476   6.951   4.617   1.611
  193SOL     OW 1477   4.903   3.818   5.300
  193SOL    HW1 1478   4.869   3.842   5.209
  193SOL    HW2 1479   4.879   3.723   5.320
  194SOL     OW 1480   4.001   6.468   3.109
  194SOL    HW1 1481   3.965   6.554   3.146
  194SOL    HW2 1482   4.022   6.406   3.184
  195SOL     OW 1483   1.575   1.006   3.336
  195SOL    HW1 1484   1.595   0.994   3.239
  195SOL    HW2 1485   1.494   0.952   3.360
  196SOL     OW 1486   3.441   7.015   0.396
  196SOL    HW1 1487   3.476   0.029   0.483
  196SOL    HW2 1488   3.483   0.042   0.320
  197SOL     OW 1489   2.607   6.588   0.100
  197SOL    HW1 1490   2.556   6.518   0.049
  197SOL    HW2 1491   2.601   6.569   0.198
  198SOL     OW 1492   4.889   6.810   1.657
  198SOL    HW1 1493   4.902   6.851   1.567
  198SOL    HW2 1494   4.848   6.876   1.719
  199SOL     OW 1495   6.444   1.140   3.002
  199SOL    HW1 1496   6.538   1.169   3.021
  199SOL    HW2 1497   6.403   1.204   2.936
  200SOL     OW 1498   1.156   4.329   2.741
  200SOL    HW1 1499   1.224   4.388   2.783
  200SOL    HW2 1500   1.158   4.239   2.785
  201SOL     OW 1501   4.057   6.383   6.060
  201SOL    HW1 1502   4.065   6.483   6.060
  201SOL    HW2 1503   4.001   6.354   6.137
  202SOL     OW 1504   5.257   0.542   5.244
  202SOL    HW1 1505   5.205   0.612   5.196
  202SOL    HW2 1506   5.214   0.453   5.231
  203SOL     OW 1507   4.931   2.220   4.786
  203SOL    HW1 1508   4.884   2.257   4.866
  203SOL    HW2 1509   4.942   2.121   4.796
  204SOL     OW 1510   0.464   0.752   6.796
  204SOL    HW1 1511   0.389   0.757   6.730
  204SOL    HW2 1512   0.525   0.831   6.783
  205SOL     OW 1513   0.620   1.241   2.236
  205SOL    HW1 1514   0.594   1.172   2.169
  205SOL    HW2 1515   0.566   1.324   2.219
  206SOL     OW 1516   0.483   4.936   2.703
  206SOL    HW1 1517   0.501   4.855   2.759
  206SOL    HW2 1518   0.533   5.014   2.740
  207SOL     OW 1519   4.263   0.340   5.057
  207SOL    HW1 1520   4.287   0.430   5.093
  207SOL    HW2 1521   4.173   0.344   5.014
  208SOL     OW 1522   5.132   3.561   5.790
  208SOL    HW1 1523   5.036   3.572   5.767
  208SOL    HW2 1524   5.178   3.511   5.716
  209SOL     OW 1525   0.848   5.653   5.566
  209SOL    HW1 1526   0.792   5.718   5.514
  209SOL    HW2 1527   0.858   5.569   5.515
  210SOL     OW 1528   3.973   2.190   2.028
  210SOL    HW1 1529   3.877   2.216   2.017
  210SOL    HW2 1530   4.001   2.134   1.950
  211SOL     OW 1531   1.045   6.408   4.289
  211SOL    HW1 1532   1.021   6.407   4.192
  211SOL    HW2 1533   0.965   6.435   4.343
  212SOL     OW 1534   2.448   4.603   2.111
  212SOL    HW1 1535   2.475   4.693   2.078
  212SOL    HW2 1536   2.348   4.600   2.120
  213SOL     OW 1537   3.933   0.701   6.664
  213SOL    HW1 1538   3.958   0.798   6.668
  213SOL    HW2 1539   3.985   0.651   6.733
  214SOL     OW 1540   3.226   6.232   2.219
  214SOL    HW1 1541   3.295   6.199   2.285
  214SOL    HW2 1542   3.135   6.209   2.253
  215SOL     OW 1543   3.031   3.934   1.938
  215SOL    HW1 1544   2.972   3.869   1.986
  215SOL    HW2 1545   3.099   3.971   2.001
  216SOL     OW 1546   1.756   6.726   5.085
  216SOL    HW1 1547   1.683   6.794   5.078
  216SOL    HW2 1548   1.841   6.771   5.116
  217SOL     OW 1549   2.411   2.732   4.527
  217SOL    HW1 1550   2.374   2.764   4.615
  217SOL    HW2 1551   2.345   2.753   4.455
  218SOL     OW 1552   0.809   3.231   4.887
  218SOL    HW1 1553   0.868   3.170   4.940
  218SOL    HW2 1554   0.729   3.180   4.855
  219SOL     OW 1555   3.074   6.143   6.239
  219SOL    HW1 1556   2.983   6.184   6.247
  219SOL    HW2 1557   3.067   6.054   6.195
  220SOL     OW 1558   3.075   6.079   6.573
  220SOL    HW1 1559   2.975   6.080   6.566
  220SOL    HW2 1560   3.101   6.045   6.664
  221SOL     OW 1561   6.629   3.513   2.784
  221SOL    HW1 1562   6.616   3.582   2.855
  221SOL    HW2 1563   6.695   3.547   2.716
  222SOL     OW 1564   2.053   4.775   5.669
  222SOL    HW1 1565   2.113   4.696   5.671
  222SOL    HW2 1566   2.105   4.858   5.688
  223SOL     OW 1567   6.778   4.029   0.606
  223SOL    HW1 1568   6.781   3.977   0.520
  223SOL    HW2 1569   6.860   4.086   0.613
  224SOL     OW 1570   2.423   2.007   3.786
  224SOL    HW1 1571   2.513   2.007   3.829
  224SOL    HW2 1572   2.356   1.966   3.849
  225SOL     OW 1573   4.971   1.311   6.195
  225SOL    HW1 1574   4.880   1.318   6.235
  225SOL    HW2 1575   5.001   1.401   6.163
  226SOL     OW 1576   0.479   7.000   6.465
  226SOL    HW1 1577   0.497   6.982   6.368
  226SOL    HW2 1578   0.540   6.944   6.521
  227SOL     OW 1579   1.481   4.546   2.338
  227SOL    HW1 1580   1.502   4.585   2.248
  227SOL    HW2 1581   1.463   4.448   2.327
  228SOL     OW 1582   3.133   6.436   4.046
  228SOL    HW1 1583   3.057   6.401   4.102
  228SOL    HW2 1584   3.123   6.404   3.952
  229SOL     OW 1585   6.076   5.565   0.508
  229SOL    HW1 1586   6.046   5.526   0.421
  229SOL    HW2 1587   6.152   5.628   0.493
  230SOL     OW 1588   3.168   4.952   3.161
  230SOL    HW1 1589   3.260   4.980   3.134
  230SOL    HW2 1590   3.118   4.921   3.080
  231SOL     OW 1591   6.061   1.907   5.670
  231SOL    HW1 1592   5.971   1.945   5.691
  231SOL    HW2 1593   6.093   1.852   5.747
  232SOL     OW 1594   1.055   4.274   6.265
  232SOL    HW1 1595   1.028   4.189   6.309
  232SOL    HW2 1596   1.153   4.290   6.280
  233SOL     OW 1597   1.921   0.918   4.247
  233SOL    HW1 1598   1.878   1.007   4.266
  233SOL    HW2 1599   1.993   0.931   4.179
  234SOL     OW 1600   2.563   6.235   5.621
  234SOL    HW1 1601   2.603   6.241   5.713
  234SOL    HW2 1602   2.599   6.155   5.573
  235SOL     OW 1603   2.930   3.626   2.522
  235SOL    HW1 1604   2.968   3.673   2.442
  235SOL    HW2 1605   2.914   3.530   2.500
  236SOL     OW 1606   6.153   2.891   6.626
  236SOL    HW1 1607   6.229   2.826   6.627
  236SOL    HW2 1608   6.125   2.912   6.719
  237SOL     OW 1609   6.852   6.644   0.740
  237SOL    HW1 1610   6.928   6.590   0.777
  237SOL    HW2 1611   6.794   6.585   0.684
  238SOL     OW 1612   6.474   2.448   6.934
  238SOL    HW1 1613   6.407   2.499   6.988
  238SOL    HW2 1614   6.531   2.393   6.996
  239SOL     OW 1615   6.975   4.991   0.102
  239SOL    HW1 1616   6.994   5.089   0.092
  239SOL    HW2 1617   6.876   4.977   0.111
  240SOL     OW 1618   0.036   3.052   5.113
  240SOL    HW1 1619   0.013   3.070   5.208
  240SOL    HW2 1620   6.977   3.019   5.064
  241SOL     OW 1621   0.574   0.650   3.949
  241SOL    HW1 1622   0.565   0.749   3.949
  241SOL    HW2 1623   0.509   0.611   4.015
  242SOL     OW 1624   1.998   2.461   5.937
  242SOL    HW1 1625   2.087   2.505   5.922
  242SOL    HW2 1626   1.934   2.528   5.974
  243SOL     OW 1627   4.866   7.016   6.295
  243SOL    HW1 1628   4.914   6.955   6.232
  243SOL    HW2 1629   4.808   0.057   6.243
  244SOL     OW 1630   4.854   3.017   4.396
  244SOL    HW1 1631   4.840   2.976   4.306
  244SOL    HW2 1632   4.805   2.963   4.465
  245SOL     OW 1633   6.986   2.502   4.485
  245SOL    HW1 1634   7.005   2.559   4.405
  245SOL    HW2 1635   6.893   2.520   4.517
  246SOL     OW 1636   5.572   3.259   2.852
  246SOL    HW1 1637   5.566   3.160   2.859
  246SOL    HW2 1638   5.639   3.293   2.918
  247SOL     OW 1639   1.661   1.842   2.645
  247SOL    HW1 1640   1.656   1.754   2.691
  247SOL    HW2 1641   1.640   1.831   2.548
  248SOL     OW 1642   4.756   2.790   4.849
  248SOL    HW1 1643   4.748   2.833   4.939
  248SOL    HW2 1644   4.723   2.696   4.853
  249SOL     OW 1645   4.901   0.335   5.249
  249SOL    HW1 1646   4.811   0.372   5.226
  249SOL    HW2 1647   4.903   0.238   5.227
  250SOL     OW 1648   4.553   2.386   5.392
  250SOL    HW1 1649   4.456   2.405   5.373
  250SOL    HW2 1650   4.569   2.396   5.490
  251SOL     OW 1651   4.191   4.730   5.865
  251SOL    HW1 1652   4.106   4.709   5.913
  251SOL    HW2 1653   4.172   4.736   5.767
  252SOL     OW 1654   6.977   0.915   6.711
  252SOL    HW1 1655   0.017   0.839   6.733
  252SOL    HW2 1656   6.883   0.889   6.734
  253SOL     OW 1657   2.450   4.603   0.280
  253SOL    HW1 1658   2.421   4.536   0.348
  253SOL    HW2 1659   2.502   4.676   0.325
  254SOL     OW 1660   6.644   2.782   3.531
  254SOL    HW1 1661   6.692   2.762   3.445
  254SOL    HW2 1662   6.689   2.859   3.576
  255SOL     OW 1663   2.346   2.182   4.105
  255SOL    HW1 1664   2.266   2.195   4.047
  255SOL    HW2 1665   2.420   2.142   4.051
  256SOL     OW 1666   6.658   4.572   0.105
  256SOL    HW1 1667   6.619   4.487   0.140
  256SOL    HW2 1668   6.725   4.552   0.034
  257SOL     OW 1669   3.554   5.452   5.033
  257SOL    HW1 1670   3.608   5.535   5.044
  257SOL    HW2 1671   3.590   5.380   5.092
  258SOL     OW 1672   5.528   3.491   4.837
  258SOL    HW1 1673   5.565   3.398   4.837
  258SOL    HW2 1674   5.434   3.489   4.804
  259SOL     OW 1675   2.197   3.013   2.389
  259SOL    HW1 1676   2.167   3.105   2.364
  259SOL    HW2 1677   2.135   2.946   2.349
  260SOL     OW 1678   4.272   0.904   0.928
  260SOL    HW1 1679   4.272   0.940   0.834
  260SOL    HW2 1680   4.250   0.978   0.992
  261SOL     OW 1681   6.738   3.973   1.336
  261SOL    HW1 1682   6.715   3.899   1.401
  261SOL    HW2 1683   6.791   4.043   1.383
  262SOL     OW 1684   0.431   4.008   2.212
  262SOL    HW1 1685   0.524   3.990   2.181
  262SOL    HW2 1686   0.366   3.989   2.138
  263SOL     OW 1687   0.233   1.569   4.123
  263SOL    HW1 1688   0.162   1.591   4.057
  263SOL    HW2 1689   0.323   1.590   4.083
  264SOL     OW 1690   5.994   4.424   5.507
  264SOL    HW1 1691   6.088   4.438   5.475
  264SOL    HW2 1692   5.995   4.356   5.580
  265SOL     OW 1693   4.940   4.173   2.951
  265SOL    HW1 1694   4.913   4.083   2.983
  265SOL    HW2 1695   5.008   4.163   2.878
  266SOL     OW 1696   3.545   2.829   6.103
  266SOL    HW1 1697   3.523   2.744   6.152
  266SOL    HW2 1698   3.525   2.817   6.006
  267SOL     OW 1699   6.983   2.801   6.330
  267SOL    HW1 1700   6.884   2.798   6.311
  267SOL    HW2 1701   7.002   2.743   6.410
  268SOL     OW 1702   4.869   6.085   5.328
  268SOL    HW1 1703   4.943   6.057   5.389
  268SOL    HW2 1704   4.816   6.005   5.300
  269SOL     OW 1705   1.568   1.748   0.289
  269SOL    HW1 1706   1.545   1.812   0.362
  269SOL    HW2 1707   1.498   1.751   0.217
  270SOL     OW 1708   6.759   0.532   1.885
  270SOL    HW1 1709   6.749   0.586   1.802
  270SOL    HW2 1710   6.693   0.457   1.885
  271SOL     OW 1711   2.806   1.531   0.402
  271SOL    HW1 1712   2.798   1.626   0.431
  271SOL    HW2 1713   2.794   1.471   0.481
  272SOL     OW 1714   3.341   5.179   4.333
  272SOL    HW1 1715   3.380   5.093   4.366
  272SOL    HW2 1716   3.393   5.256   4.372
  273SOL     OW 1717   1.745   5.415   5.706
  273SOL    HW1 1718   1.732   5.329   5.756
  273SOL    HW2 1719   1.758   5.396   5.609
  274SOL     OW 1720   5.090   2.283   4.450
  274SOL    HW1 1721   4.998   2.255   4.421
  274SOL    HW2 1722   5.083   2.349   4.525
  275SOL     OW 1723   0.592   5.803   6.535
  275SOL    HW1 1724   0.663   5.732   6.524
  275SOL    HW2 1725   0.583   5.853   6.449
  276SOL     OW 1726   6.598   5.479   3.940
  276SOL    HW1 1727   6.614   5.471   3.841
  276SOL    HW2 1728   6.500   5.469   3.958
  277SOL     OW 1729   3.401   1.205   6.490
  277SOL    HW1 1730   3.461   1.140   6.535
  277SOL    HW2 1731   3.413   1.199   6.391
  278SOL     OW 1732   6.500   3.419   2.126
  278SOL    HW1 1733   6.592   3.403   2.090
  278SOL    HW2 1734   6.489   3.516   2.145
  279SOL     OW 1735   6.327   2.806   4.360
  279SOL    HW1 1736   6.415   2.788   4.317
  279SOL    HW2 1737   6.253   2.770   4.304
  280SOL     OW 1738   4.310   0.089   3.360
  280SOL    HW1 1739   4.306   0.080   3.261
  280SOL    HW2 1740   4.324   0.185   3.384
  281SOL     OW 1741   2.973   5.075   3.320
  281SOL    HW1 1742   2.966   5.050   3.416
  281SOL    HW2 1743   3.052   5.028   3.279
  282SOL     OW 1744   3.884   2.530   5.515
  282SOL    HW1 1745   3.922   2.593   5.447
  282SOL    HW2 1746   3.882   2.437   5.477
  283SOL     OW 1747   5.914   0.482   5.723
  283SOL    HW1 1748   5.835   0.426   5.747
  283SOL    HW2 1749   5.957   0.517   5.806
  284SOL     OW 1750   1.065   4.586   4.832
  284SOL    HW1 1751   1.063   4.488   4.810
  284SOL    HW2 1752   1.106   4.599   4.923
  285SOL     OW 1753   5.301   5.750   0.279
  285SOL    HW1 1754   5.242   5.812   0.228
  285SOL    HW2 1755   5.366   5.802   0.335
  286SOL     OW 1756   4.326   4.897   5.541
  286SOL    HW1 1757   4.340   4.847   5.455
  286SOL    HW2 1758   4.414   4.928   5.577
  287SOL     OW 1759   1.548   5.434   6.582
  287SOL    HW1 1760   1.482   5.432   6.507
  287SOL    HW2 1761   1.550   5.525   6.624
  288SOL     OW 1762   3.961   1.291   0.308
  288SOL    HW1 1763   3.928   1.385   0.310
  288SOL    HW2 1764   4.029   1.281   0.236
  289SOL     OW 1765   0.746   4.963   5.591
  289SOL    HW1 1766   0.830   4.933   5.637
  289SOL    HW2 1767   0.673   4.970   5.658
  290SOL     OW 1768   5.028   1.107   3.774
  290SOL    HW1 1769   4.929   1.099   3.778
  290SOL    HW2 1770   5.054   1.202   3.757
  291SOL     OW 1771   4.473   1.039   3.936
  291SOL    HW1 1772   4.561   1.012   3.976
  291SOL    HW2 1773   4.486   1.118   3.877
  292SOL     OW 1774   5.481   1.174   3.806
  292SOL    HW1 1775   5.468   1.177   3.707
  292SOL    HW2 1776   5.528   1.089   3.830
  293SOL     OW 1777   4.228   6.463   1.247
  293SOL    HW1 1778   4.274   6.523   1.313
  293SOL    HW2 1779   4.129   6.471   1.260
  294SOL     OW 1780   6.390   5.720   6.566
  294SOL    HW1 1781   6.424   5.666   6.489
  294SOL    HW2 1782   6.290   5.720   6.565
  295SOL     OW 1783   2.328   2.054   5.274
  295SOL    HW1 1784   2.239   2.076   5.233
  295SOL    HW2 1785   2.334   2.095   5.365
  296SOL     OW 1786   0.061   2.454   1.713
  296SOL    HW1 1787   6.986   2.431   1.712
  296SOL    HW2 1788   0.107   2.413   1.634
  297SOL     OW 1789   3.325   5.359   3.357
  297SOL    HW1 1790   3.267   5.360   3.439
  297SOL    HW2 1791   3.306   5.439   3.301
  298SOL     OW 1792   4.713   6.859   0.251
  298SOL    HW1 1793   4.764   6.934   0.210
  298SOL    HW2 1794   4.667   6.891   0.334
  299SOL     OW 1795   4.403   2.025   6.863
  299SOL    HW1 1796   4.390   2.061   6.955
  299SOL    HW2 1797   4.333   1.956   6.844
  300SOL     OW 1798   3.979   0.404   2.484
  300SOL    HW1 1799   3.907   0.424   2.551
  300SOL    HW2 1800   3.995   0.484   2.427
  301SOL     OW 1801   5.019   1.183   1.052
  301SOL    HW1 1802   5.034   1.196   1.150
  301SOL    HW2 1803   4.957   1.254   1.018
  302SOL     OW 1804   0.319   0.791   2.330
  302SOL    HW1 1805   0.224   0.779   2.357
  302SOL    HW2 1806   0.364   0.702   2.322
  303SOL     OW 1807   6.679   6.189   1.784
  303SOL    HW1 1808   6.591   6.198   1.831
  303SOL    HW2 1809   6.722   6.103   1.810
  304SOL     OW 1810   2.139   6.331   6.673
  304SOL    HW1 1811   2.114   6.286   6.588
  304SOL    HW2 1812   2.168   6.262   6.740
  305SOL     OW 1813   1.492   2.763   0.940
  305SOL    HW1 1814   1.416   2.735   1.000
  305SOL    HW2 1815   1.537   2.843   0.979
  306SOL     OW 1816   0.172   1.278   2.705
  306SOL    HW1 1817   0.243   1.348   2.708
  306SOL    HW2 1818   0.140   1.259   2.798
  307SOL     OW 1819   3.833   4.407   7.021
  307SOL    HW1 1820   3.827   4.312   6.990
  307SOL    HW2 1821   3.774   4.465   6.965
  308SOL     OW 1822   5.944   2.285   4.067
  308SOL    HW1 1823   5.918   2.325   3.979
  308SOL    HW2 1824   5.875   2.306   4.135
  309SOL     OW 1825   1.608   6.408   0.377
  309SOL    HW1 1826   1.569   6.460   0.301
  309SOL    HW2 1827   1.537   6.352   0.420
  310SOL     OW 1828   4.666   6.649   4.322
  310SOL    HW1 1829   4.753   6.644   4.372
  310SOL    HW2 1830   4.679   6.706   4.240
  311SOL     OW 1831   3.005   5.102   2.583
  311SOL    HW1 1832   2.999   5.012   2.541
  311SOL    HW2 1833   3.030   5.170   2.513
  312SOL     OW 1834   3.491   1.995   3.923
  312SOL    HW1 1835   3.487   2.015   4.020
  312SOL    HW2 1836   3.478   1.897   3.908
  313SOL     OW 1837   3.507   4.141   2.455
  313SOL    HW1 1838   3.416   4.127   2.493
  313SOL    HW2 1839   3.576   4.116   2.522
  314SOL     OW 1840   2.162   4.678   4.840
  314SOL    HW1 1841   2.168   4.579   4.833
  314SOL    HW2 1842   2.207   4.720   4.761
  315SOL     OW 1843   1.006   2.165   3.810
  315SOL    HW1 1844   1.051   2.195   3.894
  315SOL    HW2 1845   1.044   2.214   3.732
  316SOL     OW 1846   3.648   0.533   4.378
  316SOL    HW1 1847   3.629   0.435   4.389
  316SOL    HW2 1848   3.743   0.552   4.403
  317SOL     OW 1849   0.276   1.310   1.626
  317SOL    HW1 1850   0.355   1.292   1.566
  317SOL    HW2 1851   0.282   1.403   1.661
  318SOL     OW 1852   6.288   0.059   6.715
  318SOL    HW1 1853   6.228   7.013   6.673
  318SOL    HW2 1854   6.234   0.123   6.770
  319SOL     OW 1855   6.682   1.685   3.342
  319SOL    HW1 1856   6.636   1.670   3.255
  319SOL    HW2 1857   6.673   1.781   3.368
  320SOL     OW 1858   5.959   3.089   0.112
  320SOL    HW1 1859   6.053   3.075   0.143
  320SOL    HW2 1860   5.916   3.000   0.094
  321SOL     OW 1861   4.531   2.350   0.223
  321SOL    HW1 1862   4.474   2.348   0.141
  321SOL    HW2 1863   4.523   2.440   0.266
  322SOL     OW 1864   3.386   2.892   4.514
  322SOL    HW1 1865   3.331   2.817   4.551
  322SOL    HW2 1866   3.423   2.947   4.589
  323SOL     OW 1867   1.250   2.751   5.354
  323SOL    HW1 1868   1.154   2.761   5.379
  323SOL    HW2 1869   1.293   2.684   5.414
  324SOL     OW 1870   2.506   0.544   2.952
  324SOL    HW1 1871   2.558   0.469   2.993
  324SOL    HW2 1872   2.552   0.631   2.968
  325SOL     OW 1873   0.972   3.382   2.115
  325SOL    HW1 1874   0.952   3.430   2.029
  325SOL    HW2 1875   0.891   3.384   2.173
  326SOL     OW 1876   0.981   4.266   5.971
  326SOL    HW1 1877   0.986   4.301   6.064
  326SOL    HW2 1878   1.048   4.192   5.959
  327SOL     OW 1879   2.638   4.606   3.026
  327SOL    HW1 1880   2.590   4.689   3.053
  327SOL    HW2 1881   2.608   4.530   3.084
  328SOL     OW 1882   2.134   4.903   1.920
  328SOL    HW1 1883   2.196   4.975   1.887
  328SOL    HW2 1884   2.147   4.892   2.019
  329SOL     OW 1885   2.476   3.450   5.772
  329SOL    HW1 1886   2.468   3.536   5.721
  329SOL    HW2 1887   2.493   3.376   5.708
  330SOL     OW 1888   2.871   6.442   0.607
  330SOL    HW1 1889   2.873   6.350   0.646
  330SOL    HW2 1890   2.961   6.463   0.568
  331SOL     OW 1891   5.091   5.499   0.553
  331SOL    HW1 1892   5.056   5.521   0.644
  331SOL    HW2 1893   5.070   5.573   0.489
  332SOL     OW 1894   5.847   2.769   5.169
  332SOL    HW1 1895   5.801   2.681   5.178
  332SOL    HW2 1896   5.922   2.760   5.103
  333SOL     OW 1897   4.565   0.725   5.132
  333SOL    HW1 1898   4.471   0.720   5.098
  333SOL    HW2 1899   4.578   0.811   5.182
  334SOL     OW 1900   3.089   2.320   0.177
  334SOL    HW1 1901   3.073   2.269   0.260
  334SOL    HW2 1902   3.042   2.408   0.181
  335SOL     OW 1903   3.396   0.137   6.486
  335SOL    HW1 1904   3.428   0.216   6.537
  335SOL    HW2 1905   3.338   0.167   6.411
  336SOL     OW 1906   3.344   0.714   3.454
  336SOL    HW1 1907   3.260   0.710   3.401
  336SOL    HW2 1908   3.377   0.808   3.458
  337SOL     OW 1909   0.044   3.490   5.368
  337SOL    HW1 1910   0.037   3.560   5.439
  337SOL    HW2 1911   0.036   3.400   5.409
  338SOL     OW 1912   2.857   2.139   1.085
  338SOL    HW1 1913   2.776   2.114   1.137
  338SOL    HW2 1914   2.938   2.097   1.126
  339SOL     OW 1915   4.351   5.218   4.836
  339SOL    HW1 1916   4.303   5.280   4.775
  339SOL    HW2 1917   4.372   5.266   4.922
  340SOL     OW 1918   5.241   3.463   4.833
  340SOL    HW1 1919   5.270   3.385   4.889
  340SOL    HW2 1920   5.144   3.481   4.849
  341SOL     OW 1921   6.015   6.630   4.652
  341SOL    HW1 1922   6.064   6.649   4.567
  341SOL    HW2 1923   6.036   6.536   4.682
  342SOL     OW 1924   5.377   3.151   0.483
  342SOL    HW1 1925   5.359   3.247   0.465
  342SOL    HW2 1926   5.313   3.118   0.554
  343SOL     OW 1927   0.510   6.103   1.975
  343SOL    HW1 1928   0.581   6.099   2.046
  343SOL    HW2 1929   0.551   6.085   1.886
  344SOL     OW 1930   0.914   3.494   1.884
  344SOL    HW1 1931   0.837   3.433   1.867
  344SOL    HW2 1932   0.964   3.511   1.799
  345SOL     OW 1933   5.246   2.235   3.629
  345SOL    HW1 1934   5.293   2.216   3.543
  345SOL    HW2 1935   5.251   2.155   3.688
  346SOL     OW 1936   1.985   1.173   2.314
  346SOL    HW1 1937   1.975   1.209   2.407
  346SOL    HW2 1938   1.915   1.104   2.297
  347SOL     OW 1939   2.940   5.924   0.235
  347SOL    HW1 1940   2.861   5.866   0.218
  347SOL    HW2 1941   3.014   5.898   0.173
  348SOL     OW 1942   4.833   3.905   2.744
  348SOL    HW1 1943   4.916   3.953   2.717
  348SOL    HW2 1944   4.817   3.918   2.842
  349SOL     OW 1945   0.041   4.880   1.784
  349SOL    HW1 1946   6.987   4.911   1.726
  349SOL    HW2 1947   0.026   4.785   1.811
  350SOL     OW 1948   2.913   2.166   1.586
  350SOL    HW1 1949   2.969   2.180   1.667
  350SOL    HW2 1950   2.853   2.246   1.573
  351SOL     OW 1951   2.376   3.261   0.959
  351SOL    HW1 1952   2.414   3.288   0.871
  351SOL    HW2 1953   2.437   3.194   1.003
  352SOL     OW 1954   3.598   6.511   3.639
  352SOL    HW1 1955   3.596   6.536   3.736
  352SOL    HW2 1956   3.506   6.522   3.601
  353SOL     OW 1957   3.004   0.155   0.015
  353SOL    HW1 1958   3.042   0.247   0.025
  353SOL    HW2 1959   2.971   0.143   6.943
  354SOL     OW 1960   4.588   2.327   1.775
  354SOL    HW1 1961   4.536   2.376   1.706
  354SOL    HW2 1962   4.583   2.229   1.757
  355SOL     OW 1963   1.598   4.543   2.941
  355SOL    HW1 1964   1.691   4.510   2.954
  355SOL    HW2 1965   1.583   4.624   2.998
  356SOL     OW 1966   2.143   0.781   5.532
  356SOL    HW1 1967   2.056   0.735   5.549
  356SOL    HW2 1968   2.130   0.880   5.538
  357SOL     OW 1969   6.835   6.499   5.336
  357SOL    HW1 1970   6.930   6.467   5.341
  357SOL    HW2 1971   6.817   6.560   5.413
  358SOL     OW 1972   4.623   6.452   0.863
  358SOL    HW1 1973   4.554   6.398   0.910
  358SOL    HW2 1974   4.624   6.545   0.900
  359SOL     OW 1975   2.940   1.879   2.099
  359SOL    HW1 1976   2.859   1.876   2.040
  359SOL    HW2 1977   3.019   1.847   2.047
  360SOL     OW 1978   1.334   4.676   5.503
  360SOL    HW1 1979   1.264   4.704   5.437
  360SOL    HW2 1980   1.350   4.749   5.569
  361SOL     OW 1981   6.876   6.376   3.083
  361SOL    HW1 1982   6.820   6.439   3.136
  361SOL    HW2 1983   6.818   6.320   3.024
  362SOL     OW 1984   3.443   2.763   1.629
  362SOL    HW1 1985   3.442   2.665   1.608
  362SOL    HW2 1986   3.509   2.781   1.702
  363SOL     OW 1987   5.807   4.170   3.123
  363SOL    HW1 1988   5.871   4.190   3.049
  363SOL    HW2 1989   5.835   4.086   3.169
  364SOL     OW 1990   6.742   5.061   6.240
  364SOL    HW1 1991   6.693   5.135   6.195
  364SOL    HW2 1992   6.701   5.044   6.330
  365SOL     OW 1993   5.490   0.177   1.869
  365SOL    HW1 1994   5.395   0.155   1.890
  365SOL    HW2 1995   5.511   0.268   1.905
  366SOL     OW 1996   5.241   1.982   7.011
  366SOL    HW1 1997   5.177   1.906   7.019
  366SOL    HW2 1998   5.251   2.009   6.915
  367SOL     OW 1999   5.983   2.605   0.987
  367SOL    HW1 2000   5.968   2.626   0.891
  367SOL    HW2 2001   6.058   2.661   1.022
  368SOL     OW 2002   0.858   2.895   5.270
  368SOL    HW1 2003   0.931   2.957   5.298
  368SOL    HW2 2004   0.896   2.805   5.251
  369SOL     OW 2005   5.789   5.301   2.192
  369SOL    HW1 2006   5.726   5.351   2.252
  369SOL    HW2 2007   5.787   5.204   2.215
  370SOL     OW 2008   1.058   1.416   4.923
  370SOL    HW1 2009   1.029   1.404   4.828
  370SOL    HW2 2010   0.982   1.392   4.984
  371SOL     OW 2011   1.782   4.660   6.283
  371SOL    HW1 2012   1.703   4.636   6.226
  371SOL    HW2 2013   1.781   4.758   6.302
  372SOL     OW 2014   2.225   6.705   6.178
  372SOL    HW1 2015   2.163   6.776   6.212
  372SOL    HW2 2016   2.171   6.629   6.142
  373SOL     OW 2017   5.793   6.101   5.001
  373SOL    HW1 2018   5.893   6.102   5.003
  373SOL    HW2 2019   5.758   6.182   5.049
  374SOL     OW 2020   2.164   2.196   3.620
  374SOL    HW1 2021   2.064   2.201   3.623
  374SOL    HW2 2022   2.198   2.169   3.711
  375SOL     OW 2023   0.707   4.423   4.080
  375SOL    HW1 2024   0.736   4.477   4.001
  375SOL    HW2 2025   0.627   4.466   4.122
  376SOL     OW 2026   1.378   1.188   5.133
  376SOL    HW1 2027   1.383   1.101   5.085
  376SOL    HW2 2028   1.440   1.254   5.090
  377SOL     OW 2029   1.215   1.784   0.365
  377SOL    HW1 2030   1.299   1.787   0.419
  377SOL    HW2 2031   1.237   1.789   0.267
  378SOL     OW 2032   4.306   2.035   0.110
  378SOL    HW1 2033   4.391   2.082   0.130
  378SOL    HW2 2034   4.228   2.091   0.139
  379SOL     OW 2035   5.939   2.166   0.837
  379SOL    HW1 2036   5.861   2.109   0.860
  379SOL    HW2 2037   5.945   2.243   0.900
  380SOL     OW 2038   3.053   0.893   0.764
  380SOL    HW1 2039   3.127   0.839   0.724
  380SOL    HW2 2040   3.046   0.980   0.716
  381SOL     OW 2041   1.860   4.169   3.513
  381SOL    HW1 2042   1.830   4.251   3.463
  381SOL    HW2 2043   1.953   4.184   3.548
  382SOL     OW 2044   5.952   0.717   0.509
  382SOL    HW1 2045   6.029   0.744   0.568
  382SOL    HW2 2046   5.988   0.682   0.423
  383SOL     OW 2047   3.852   3.218   6.643
  383SOL    HW1 2048   3.857   3.306   6.689
  383SOL    HW2 2049   3.866   3.231   6.545
  384SOL     OW 2050   6.392   5.301   4.818
  384SOL    HW1 2051   6.340   5.323   4.901
  384SOL    HW2 2052   6.356   5.354   4.741
  385SOL     OW 2053   3.073   4.696   5.290
  385SOL    HW1 2054   3.121   4.640   5.357
  385SOL    HW2 2055   2.993   4.646   5.256
  386SOL     OW 2056   2.946   6.410   4.250
  386SOL    HW1 2057   3.038   6.412   4.289
  386SOL    HW2 2058   2.892   6.485   4.288
  387SOL     OW 2059   1.252   6.191   2.722
  387SOL    HW1 2060   1.177   6.144   2.675
  387SOL    HW2 2061   1.324   6.213   2.657
  388SOL     OW 2062   1.257   2.525   5.518
  388SOL    HW1 2063   1.162   2.519   5.488
  388SOL    HW2 2064   1.313   2.462   5.464
  389SOL     OW 2065   3.824   3.898   1.584
  389SOL    HW1 2066   3.768   3.873   1.505
  389SOL    HW2 2067   3.842   3.816   1.639
  390SOL     OW 2068   2.682   1.764   2.371
  390SOL    HW1 2069   2.664   1.850   2.324
  390SOL    HW2 2070   2.609   1.746   2.437
  391SOL     OW 2071   2.442   2.130   6.267
  391SOL    HW1 2072   2.425   2.033   6.281
  391SOL    HW2 2073   2.528   2.156   6.311
  392SOL     OW 2074   1.450   5.088   0.856
  392SOL    HW1 2075   1.525   5.022   0.853
  392SOL    HW2 2076   1.465   5.152   0.931
  393SOL     OW 2077   1.453   4.278   6.298
  393SOL    HW1 2078   1.391   4.281   6.376
  393SOL    HW2 2079   1.528   4.215   6.317
  394SOL     OW 2080   6.777   1.709   6.960
  394SOL    HW1 2081   6.724   1.787   6.994
  394SOL    HW2 2082   6.794   1.720   6.863
  395SOL     OW 2083   5.005   3.505   2.936
  395SOL    HW1 2084   4.972   3.541   2.848
  395SOL    HW2 2085   5.089   3.552   2.962
  396SOL     OW 2086   3.590   4.189   1.226
  396SOL    HW1 2087   3.685   4.175   1.253
  396SOL    HW2 2088   3.580   4.279   1.183
  397SOL     OW 2089   5.076   1.547   6.145
  397SOL    HW1 2090   5.171   1.576   6.129
  397SOL    HW2 2091   5.032   1.610   6.209
  398SOL     OW 2092   0.559   6.404   2.353
  398SOL    HW1 2093   0.539   6.478   2.288
  398SOL    HW2 2094   0.652   6.414   2.387
  399SOL     OW 2095   6.143   6.035   2.357
  399SOL    HW1 2096   6.059   6.014   2.308
  399SOL    HW2 2097   6.130   6.118   2.411
  400SOL     OW 2098   6.436   6.850   5.791
  400SOL    HW1 2099   6.483   6.786   5.852
  400SOL    HW2 2100   6.495   6.928   5.773
  401SOL     OW 2101   5.190   0.667   5.662
  401SOL    HW1 2102   5.289   0.659   5.675
  401SOL    HW2 2103   5.164   0.763   5.667
  402SOL     OW 2104   5.726   6.997   3.171
  402SOL    HW1 2105   5.757   0.063   3.208
  402SOL    HW2 2106   5.693   7.010   3.078
  403SOL     OW 2107   3.932   2.214   4.085
  403SOL    HW1 2108   4.014   2.257   4.047
  403SOL    HW2 2109   3.884   2.163   4.013
  404SOL     OW 2110   1.164   5.269   4.709
  404SOL    HW1 2111   1.132   5.278   4.615
  404SOL    HW2 2112   1.152   5.355   4.758
  405SOL     OW 2113   1.658   3.605   1.744
  405SOL    HW1 2114   1.755   3.625   1.754
  405SOL    HW2 2115   1.633   3.528   1.803
  406SOL     OW 2116   1.109   4.831   4.715
  406SOL    HW1 2117   1.094   4.744   4.763
  406SOL    HW2 2118   1.026   4.857   4.665
  407SOL     OW 2119   1.097   0.747   3.773
  407SOL    HW1 2120   1.182   0.695   3.764
  407SOL    HW2 2121   1.039   0.730   3.694
  408SOL     OW 2122   1.146   2.566   2.571
  408SOL    HW1 2123   1.188   2.629   2.505
  408SOL    HW2 2124   1.082   2.506   2.523
  409SOL     OW 2125   0.177   3.128   1.868
  409SOL    HW1 2126   0.122   3.050   1.838
  409SOL    HW2 2127   0.272   3.115   1.840
  410SOL     OW 2128   1.804   1.510   1.591
  410SOL    HW1 2129   1.813   1.576   1.666
  410SOL    HW2 2130   1.894   1.494   1.550
  411SOL     OW 2131   5.497   0.340   1.511
  411SOL    HW1 2132   5.547   0.258   1.537
  411SOL    HW2 2133   5.440   0.369   1.588
  412SOL     OW 2134   4.451   5.696   4.057
  412SOL    HW1 2135   4.521   5.737   4.115
  412SOL    HW2 2136   4.418   5.764   3.992
  413SOL     OW 2137   5.243   4.089   1.858
  413SOL    HW1 2138   5.153   4.121   1.829
  413SOL    HW2 2139   5.277   4.020   1.794
  414SOL     OW 2140   3.411   5.669   3.372
  414SOL    HW1 2141   3.413   5.729   3.293
  414SOL    HW2 2142   3.486   5.603   3.365
  415SOL     OW 2143   0.644   6.268   6.698
  415SOL    HW1 2144   0.661   6.203   6.772
  415SOL    HW2 2145   0.580   6.228   6.633
  416SOL     OW 2146   4.971   6.236   4.063
  416SOL    HW1 2147   4.995   6.144   4.032
  416SOL    HW2 2148   5.053   6.294   4.064
  417SOL     OW 2149   3.189   5.375   6.780
  417SOL    HW1 2150   3.224   5.442   6.846
  417SOL    HW2 2151   3.206   5.282   6.815
  418SOL     OW 2152   4.160   6.453   0.532
  418SOL    HW1 2153   4.187   6.359   0.509
  418SOL    HW2 2154   4.242   6.508   0.548
  419SOL     OW 2155   2.078   0.334   1.842
  419SOL    HW1 2156   2.175   0.321   1.863
  419SOL    HW2 2157   2.068   0.402   1.770
  420SOL     OW 2158   5.065   1.351   6.924
  420SOL    HW1 2159   5.110   1.267   6.893
  420SOL    HW2 2160   5.027   1.399   6.846
  421SOL     OW 2161   6.823   4.102   5.944
  421SOL    HW1 2162   6.822   4.003   5.957
  421SOL    HW2 2163   6.849   4.123   5.850
  422SOL     OW 2164   5.978   3.265   1.354
  422SOL    HW1 2165   6.050   3.202   1.381
  422SOL    HW2 2166   6.019   3.352   1.326
  423SOL     OW 2167   0.940   1.937   6.412
  423SOL    HW1 2168   0.860   1.914   6.357
  423SOL    HW2 2169   1.002   1.858   6.415
  424SOL     OW 2170   2.240   4.644   0.941
  424SOL    HW1 2171   2.338   4.647   0.963
  424SOL    HW2 2172   2.224   4.574   0.871
  425SOL     OW 2173   5.552   1.852   3.507
  425SOL    HW1 2174   5.568   1.780   3.440
  425SOL    HW2 2175   5.605   1.832   3.590
  426SOL     OW 2176   3.874   2.160   4.698
  426SOL    HW1 2177   3.881   2.224   4.622
  426SOL    HW2 2178   3.948   2.176   4.763
  427SOL     OW 2179   5.201   6.221   3.712
  427SOL    HW1 2180   5.122   6.271   3.678
  427SOL    HW2 2181   5.225   6.254   3.803
  428SOL     OW 2182   4.031   0.447   4.935
  428SOL    HW1 2183   4.020   0.456   4.836
  428SOL    HW2 2184   3.997   0.529   4.980
  429SOL     OW 2185   1.376   3.842   0.777
  429SOL    HW1 2186   1.433   3.771   0.818
  429SOL    HW2 2187   1.338   3.900   0.850
  430SOL     OW 2188   0.617   0.535   5.210
  430SOL    HW1 2189   0.547   0.483   5.161
  430SOL    HW2 2190   0.695   0.552   5.150
  431SOL     OW 2191   3.475   6.957   0.887
  431SOL    HW1 2192   3.482   6.874   0.831
  431SOL    HW2 2193   3.458   6.931   0.983
  432SOL     OW 2194   6.615   1.538   0.363
  432SOL    HW1 2195   6.680   1.526   0.288
  432SOL    HW2 2196   6.591   1.448   0.400
  433SOL     OW 2197   2.583   6.477   5.028
  433SOL    HW1 2198   2.643   6.510   4.956
  433SOL    HW2 2199   2.530   6.554   5.065
  434SOL     OW 2200   3.075   6.091   2.846
  434SOL    HW1 2201   3.086   6.119   2.750
  434SOL    HW2 2202   3.152   6.123   2.900
  435SOL     OW 2203   5.053   2.862   6.858
  435SOL    HW1 2204   5.061   2.919   6.940
  435SOL    HW2 2205   5.105   2.777   6.871
  436SOL     OW 2206   2.869   6.107   1.349
  436SOL    HW1 2207   2.799   6.047   1.388
  436SOL    HW2 2208   2.929   6.140   1.422
  437SOL     OW 2209   1.049   1.183   0.276
  437SOL    HW1 2210   1.025   1.124   0.353
  437SOL    HW2 2211   0.983   1.257   0.269
  438SOL     OW 2212   1.528   4.161   3.438
  438SOL    HW1 2213   1.563   4.175   3.345
  438SOL    HW2 2214   1.605   4.148   3.501
  439SOL     OW 2215   5.764   5.123   2.543
  439SOL    HW1 2216   5.706   5.114   2.462
  439SOL    HW2 2217   5.713   5.170   2.615
  440SOL     OW 2218   1.813   1.426   4.879
  440SOL    HW1 2219   1.827   1.518   4.843
  440SOL    HW2 2220   1.864   1.415   4.965
  441SOL     OW 2221   0.690   2.579   4.265
  441SOL    HW1 2222   0.763   2.551   4.203
  441SOL    HW2 2223   0.629   2.642   4.218
  442SOL     OW 2224   3.325   5.525   5.639
  442SOL    HW1 2225   3.389   5.492   5.569
  442SOL    HW2 2226   3.311   5.454   5.708
  443SOL     OW 2227   6.098   4.351   4.592
  443SOL    HW1 2228   6.117   4.299   4.675
  443SOL    HW2 2229   6.177   4.407   4.568
  444SOL     OW 2230   4.845   1.036   5.836
  444SOL    HW1 2231   4.899   0.954   5.854
  444SOL    HW2 2232   4.794   1.062   5.918
  445SOL     OW 2233   0.953   5.856   2.931
  445SOL    HW1 2234   0.984   5.869   2.837
  445SOL    HW2 2235   0.853   5.865   2.934
  446SOL     OW 2236   3.035   5.699   3.793
  446SOL    HW1 2237   3.128   5.685   3.759
  446SOL    HW2 2238   2.974   5.631   3.752
  447SOL     OW 2239   0.250   2.666   5.857
  447SOL    HW1 2240   0.216   2.671   5.951
  447SOL    HW2 2241   0.297   2.579   5.843
  448SOL     OW 2242   2.015   0.734   2.981
  448SOL    HW1 2243   1.980   0.788   3.057
  448SOL    HW2 2244   2.108   0.702   3.002
  449SOL     OW 2245   4.072   1.395   3.739
  449SOL    HW1 2246   4.062   1.469   3.673
  449SOL    HW2 2247   4.149   1.337   3.714
  450SOL     OW 2248   1.572   5.489   3.050
  450SOL    HW1 2249   1.616   5.413   3.001
  450SOL    HW2 2250   1.477   5.466   3.068
  451SOL     OW 2251   1.578   2.151   3.282
  451SOL    HW1 2252   1.499   2.212   3.293
  451SOL    HW2 2253   1.580   2.117   3.188
  452SOL     OW 2254   5.775   6.473   0.711
  452SOL    HW1 2255   5.682   6.471   0.749
  452SOL    HW2 2256   5.772   6.443   0.615
  453SOL     OW 2257   4.061   0.786   5.737
  453SOL    HW1 2258   4.017   0.820   5.653
  453SOL    HW2 2259   3.993   0.737   5.792
  454SOL     OW 2260   6.741   4.470   6.452
  454SOL    HW1 2261   6.783   4.555   6.420
  454SOL    HW2 2262   6.783   4.392   6.404
  455SOL     OW 2263   5.958   2.483   3.244
  455SOL    HW1 2264   5.890   2.413   3.266
  455SOL    HW2 2265   5.945   2.563   3.302
  456SOL     OW 2266   6.302   6.360   3.914
  456SOL    HW1 2267   6.271   6.308   3.994
  456SOL    HW2 2268   6.223   6.399   3.866
  457SOL     OW 2269   1.618   1.986   4.052
  457SOL    HW1 2270   1.553   1.963   3.979
  457SOL    HW2 2271   1.605   1.923   4.129
  458SOL     OW 2272   4.406   5.962   3.425
  458SOL    HW1 2273   4.402   5.867   3.393
  458SOL    HW2 2274   4.494   6.002   3.399
  459SOL     OW 2275   1.740   6.211   5.383
  459SOL    HW1 2276   1.736   6.228   5.482
  459SOL    HW2 2277   1.654   6.240   5.341
  460SOL     OW 2278   2.395   6.697   3.964
  460SOL    HW1 2279   2.471   6.667   3.906
  460SOL    HW2 2280   2.349   6.618   4.003
  461SOL     OW 2281   6.347   6.441   6.429
  461SOL    HW1 2282   6.363   6.357   6.480
  461SOL    HW2 2283   6.305   6.509   6.488
  462SOL     OW 2284   4.157   3.273   0.107
  462SOL    HW1 2285   4.206   3.294   0.023
  462SOL    HW2 2286   4.191   3.331   0.181
  463SOL     OW 2287   5.499   6.041   3.308
  463SOL    HW1 2288   5.410   5.995   3.305
  463SOL    HW2 2289   5.486   6.139   3.300
  464SOL     OW 2290   2.726   1.640   5.315
  464SOL    HW1 2291   2.770   1.562   5.360
  464SOL    HW2 2292   2.627   1.637   5.334
  465SOL     OW 2293   0.878   2.994   0.005
  465SOL    HW1 2294   0.842   3.005   0.097
  465SOL    HW2 2295   0.961   2.938   0.009
  466SOL     OW 2296   0.917   6.500   3.040
  466SOL    HW1 2297   0.991   6.504   3.107
  466SOL    HW2 2298   0.933   6.425   2.977
  467SOL     OW 2299   1.785   1.204   0.602
  467SOL    HW1 2300   1.864   1.243   0.648
  467SOL    HW2 2301   1.794   1.216   0.503
  468SOL     OW 2302   3.697   0.101   6.295
  468SOL    HW1 2303   3.599   0.092   6.308
  468SOL    HW2 2304   3.716   0.120   6.198
  469SOL     OW 2305   2.896   2.935   6.665
  469SOL    HW1 2306   2.883   3.030   6.638
  469SOL    HW2 2307   2.891   2.927   6.764
  470SOL     OW 2308   4.611   6.701   1.573
  470SOL    HW1 2309   4.540   6.667   1.635
  470SOL    HW2 2310   4.689   6.639   1.576
  471SOL     OW 2311   2.728   2.400   3.346
  471SOL    HW1 2312   2.727   2.381   3.247
  471SOL    HW2 2313   2.737   2.313   3.396
  472SOL     OW 2314   4.636   3.370   6.758
  472SOL    HW1 2315   4.734   3.374   6.778
  472SOL    HW2 2316   4.586   3.414   6.832
  473SOL     OW 2317   1.032   3.007   2.621
  473SOL    HW1 2318   0.974   2.949   2.679
  473SOL    HW2 2319   1.127   2.979   2.631
  474SOL     OW 2320   5.222   5.137   4.356
  474SOL    HW1 2321   5.124   5.156   4.350
  474SOL    HW2 2322   5.266   5.158   4.269
  475SOL     OW 2323   5.789   1.303   6.534
  475SOL    HW1 2324   5.827   1.253   6.612
  475SOL    HW2 2325   5.801   1.248   6.451
  476SOL     OW 2326   0.441   3.333   3.514
  476SOL    HW1 2327   0.483   3.304   3.429
  476SOL    HW2 2328   0.457   3.263   3.585
  477SOL     OW 2329   2.470   6.376   3.458
  477SOL    HW1 2330   2.479   6.281   3.488
  477SOL    HW2 2331   2.522   6.435   3.520
  478SOL     OW 2332   3.412   5.946   2.172
  478SOL    HW1 2333   3.419   5.851   2.202
  478SOL    HW2 2334   3.326   5.959   2.123
  479SOL     OW 2335   4.439   1.577   5.977
  479SOL    HW1 2336   4.432   1.557   6.075
  479SOL    HW2 2337   4.397   1.665   5.957
  480SOL     OW 2338   2.738   0.603   0.103
  480SOL    HW1 2339   2.759   0.674   0.036
  480SOL    HW2 2340   2.823   0.569   0.143
  481SOL     OW 2341   2.090   6.917   1.168
  481SOL    HW1 2342   2.103   6.819   1.181
  481SOL    HW2 2343   2.028   6.932   1.091
  482SOL     OW 2344   4.053   4.825   2.236
  482SOL    HW1 2345   3.955   4.825   2.258
  482SOL    HW2 2346   4.102   4.879   2.304
  483SOL     OW 2347   6.369   1.863   2.073
  483SOL    HW1 2348   6.321   1.776   2.080
  483SOL    HW2 2349   6.442   1.866   2.141
  484SOL     OW 2350   2.107   3.618   4.813
  484SOL    HW1 2351   2.199   3.629   4.775
  484SOL    HW2 2352   2.109   3.548   4.885
  485SOL     OW 2353   4.194   5.815   2.701
  485SOL    HW1 2354   4.186   5.727   2.654
  485SOL    HW2 2355   4.108   5.865   2.691
  486SOL     OW 2356   6.894   1.226   0.231
  486SOL    HW1 2357   6.955   1.259   0.159
  486SOL    HW2 2358   6.941   1.159   0.288
  487SOL     OW 2359   0.738   0.603   2.591
  487SOL    HW1 2360   0.649   0.619   2.634
  487SOL    HW2 2361   0.750   0.667   2.515
  488SOL     OW 2362   0.669   1.382   1.652
  488SOL    HW1 2363   0.743   1.421   1.706
  488SOL    HW2 2364   0.626   1.453   1.596
  489SOL     OW 2365   4.050   6.131   6.244
  489SOL    HW1 2366   3.975   6.195   6.231
  489SOL    HW2 2367   4.021   6.039   6.219
  490SOL     OW 2368   0.389   5.936   3.004
  490SOL    HW1 2369   0.420   5.995   3.078
  490SOL    HW2 2370   0.353   5.991   2.929
  491SOL     OW 2371   1.076   3.869   2.344
  491SOL    HW1 2372   1.124   3.832   2.265
  491SOL    HW2 2373   0.978   3.851   2.336
  492SOL     OW 2374   1.404   0.493   4.714
  492SOL    HW1 2375   1.310   0.478   4.746
  492SOL    HW2 2376   1.402   0.536   4.624
  493SOL     OW 2377   4.883   6.161   5.747
  493SOL    HW1 2378   4.875   6.184   5.650
  493SOL    HW2 2379   4.977   6.179   5.778
  494SOL     OW 2380   0.545   6.839   0.100
  494SOL    HW1 2381   0.499   6.813   0.014
  494SOL    HW2 2382   0.642   6.817   0.093
  495SOL     OW 2383   4.771   5.854   3.730
  495SOL    HW1 2384   4.690   5.804   3.699
  495SOL    HW2 2385   4.815   5.803   3.803
  496SOL     OW 2386   5.138   3.053   1.816
  496SOL    HW1 2387   5.148   3.043   1.915
  496SOL    HW2 2388   5.151   2.964   1.772
  497SOL     OW 2389   2.635   1.838   4.517
  497SOL    HW1 2390   2.583   1.824   4.432
  497SOL    HW2 2391   2.571   1.848   4.594
  498SOL     OW 2392   1.230   4.429   1.679
  498SOL    HW1 2393   1.150   4.415   1.737
  498SOL    HW2 2394   1.308   4.382   1.719
  499SOL     OW 2395   1.902   6.083   4.442
  499SOL    HW1 2396   1.894   5.985   4.423
  499SOL    HW2 2397   1.917   6.097   4.540
  500SOL     OW 2398   0.384   2.708   5.543
  500SOL    HW1 2399   0.337   2.779   5.596
  500SOL    HW2 2400   0.473   2.743   5.512
  501SOL     OW 2401   3.216   6.483   0.877
  501SOL    HW1 2402   3.169   6.565   0.844
  501SOL    HW2 2403   3.241   6.426   0.799
  502SOL     OW 2404   1.175   4.043   6.384
  502SOL    HW1 2405   1.088   3.996   6.396
  502SOL    HW2 2406   1.239   3.984   6.334
  503SOL     OW 2407   0.500   5.301   6.690
  503SOL    HW1 2408   0.451   5.371   6.741
  503SOL    HW2 2409   0.544   5.238   6.753
  504SOL     OW 2410   1.078   4.866   2.667
  504SOL    HW1 2411   1.117   4.866   2.575
  504SOL    HW2 2412   1.122   4.794   2.722
  505SOL     OW 2413   2.778   5.960   5.341
  505SOL    HW1 2414   2.788   5.916   5.251
  505SOL    HW2 2415   2.717   5.904   5.398
  506SOL     OW 2416   2.857   4.857   3.996
  506SOL    HW1 2417   2.803   4.790   4.047
  506SOL    HW2 2418   2.932   4.890   4.054
  507SOL     OW 2419   3.591   6.898   3.564
  507SOL    HW1 2420   3.547   6.835   3.500
  507SOL    HW2 2421   3.666   6.852   3.611
  508SOL     OW 2422   6.521   3.300   2.444
  508SOL    HW1 2423   6.605   3.284   2.392
  508SOL    HW2 2424   6.484   3.213   2.475
  509SOL     OW 2425   2.904   1.115   1.139
  509SOL    HW1 2426   2.888   1.143   1.234
  509SOL    HW2 2427   2.994   1.148   1.109
  510SOL     OW 2428   6.439   4.218   6.738
  510SOL    HW1 2429   6.442   4.316   6.719
  510SOL    HW2 2430   6.450   4.203   6.836
  511SOL     OW 2431   0.918   2.164   6.113
  511SOL    HW1 2432   0.988   2.112   6.064
  511SOL    HW2 2433   0.958   2.202   6.197
  512SOL     OW 2434   6.403   2.754   6.571
  512SOL    HW1 2435   6.436   2.752   6.477
  512SOL    HW2 2436   6.464   2.701   6.629
  513SOL     OW 2437   5.860   6.812   3.332
  513SOL    HW1 2438   5.958   6.808   3.309
  513SOL    HW2 2439   5.812   6.860   3.259
  514SOL     OW 2440   6.299   1.523   4.246
  514SOL    HW1 2441   6.398   1.528   4.233
  514SOL    HW2 2442   6.272   1.427   4.256
  515SOL     OW 2443   0.861   0.104   6.700
  515SOL    HW1 2444   0.806   0.132   6.778
  515SOL    HW2 2445   0.958   0.120   6.720
  516SOL     OW 2446   2.873   4.747   2.212
  516SOL    HW1 2447   2.831   4.836   2.192
  516SOL    HW2 2448   2.884   4.695   2.128
  517SOL     OW 2449   4.350   5.631   1.415
  517SOL    HW1 2450   4.383   5.628   1.321
  517SOL    HW2 2451   4.417   5.678   1.473
  518SOL     OW 2452   2.757   2.016   3.395
  518SOL    HW1 2453   2.830   2.083   3.379
  518SOL    HW2 2454   2.783   1.957   3.471
  519SOL     OW 2455   0.583   6.659   4.626
  519SOL    HW1 2456   0.642   6.633   4.703
  519SOL    HW2 2457   0.546   6.576   4.584
  520SOL     OW 2458   5.797   3.586   6.918
  520SOL    HW1 2459   5.733   3.567   6.992
  520SOL    HW2 2460   5.833   3.679   6.928
  521SOL     OW 2461   6.593   5.493   5.191
  521SOL    HW1 2462   6.521   5.492   5.122
  521SOL    HW2 2463   6.648   5.409   5.183
  522SOL     OW 2464   3.667   3.356   4.636
  522SOL    HW1 2465   3.737   3.428   4.640
  522SOL    HW2 2466   3.589   3.389   4.583
  523SOL     OW 2467   0.733   5.970   1.556
  523SOL    HW1 2468   0.662   5.999   1.493
  523SOL    HW2 2469   0.754   5.873   1.541
  524SOL     OW 2470   0.385   1.872   2.761
  524SOL    HW1 2471   0.447   1.899   2.687
  524SOL    HW2 2472   0.363   1.953   2.817
  525SOL     OW 2473   2.016   3.480   5.890
  525SOL    HW1 2474   2.034   3.457   5.794
  525SOL    HW2 2475   2.069   3.561   5.916
  526SOL     OW 2476   4.024   6.049   3.945
  526SOL    HW1 2477   4.092   6.065   4.017
  526SOL    HW2 2478   3.951   6.117   3.952
  527SOL     OW 2479   5.696   2.748   0.541
  527SOL    HW1 2480   5.659   2.840   0.552
  527SOL    HW2 2481   5.790   2.753   0.509
  528SOL     OW 2482   0.785   2.248   3.647
  528SOL    HW1 2483   0.795   2.229   3.549
  528SOL    HW2 2484   0.866   2.216   3.695
  529SOL     OW 2485   1.200   6.699   5.171
  529SOL    HW1 2486   1.178   6.787   5.129
  529SOL    HW2 2487   1.268   6.712   5.243
  530SOL     OW 2488   3.411   3.302   4.218
  530SOL    HW1 2489   3.510   3.314   4.213
  530SOL    HW2 2490   3.389   3.244   4.296
  531SOL     OW 2491   0.822   1.778   3.035
  531SOL    HW1 2492   0.819   1.816   3.128
  531SOL    HW2 2493   0.851   1.683   3.040
  532SOL     OW 2494   0.350   3.159   6.851
  532SOL    HW1 2495   0.260   3.149   6.810
  532SOL    HW2 2496   0.410   3.211   6.790
  533SOL     OW 2497   4.043   6.424   4.069
  533SOL    HW1 2498   3.982   6.454   3.996
  533SOL    HW2 2499   4.009   6.339   4.108
  534SOL     OW 2500   5.457   6.253   2.269
  534SOL    HW1 2501   5.546   6.256   2.222
  534SOL    HW2 2502   5.472   6.268   2.367
  535SOL     OW 2503   6.987   3.345   4.834
  535SOL    HW1 2504   0.038   3.351   4.903
  535SOL    HW2 2505   0.006   3.324   4.745
  536SOL     OW 2506   6.481   5.101   1.979
  536SOL    HW1 2507   6.572   5.079   2.015
  536SOL    HW2 2508   6.436   5.166   2.040
  537SOL     OW 2509   2.467   6.616   4.427
  537SOL    HW1 2510   2.551   6.643   4.474
  537SOL    HW2 2511   2.422   6.697   4.390
  538SOL     OW 2512   0.763   4.845   3.482
  538SOL    HW1 2513   0.805   4.932   3.505
  538SOL    HW2 2514   0.833   4.781   3.450
  539SOL     OW 2515   1.650   5.668   1.007
  539SOL    HW1 2516   1.576   5.700   1.067
  539SOL    HW2 2517   1.691   5.586   1.047
  540SOL     OW 2518   1.577   0.725   2.954
  540SOL    HW1 2519   1.646   0.664   2.915
  540SOL    HW2 2520   1.547   0.791   2.884
  541SOL     OW 2521   4.861   5.721   3.942
  541SOL    HW1 2522   4.793   5.651   3.967
  541SOL    HW2 2523   4.852   5.799   4.004
  542SOL     OW 2524   6.093   6.076   6.598
  542SOL    HW1 2525   6.167   6.139   6.623
  542SOL    HW2 2526   6.040   6.115   6.523
  543SOL     OW 2527   1.138   3.356   5.191
  543SOL    HW1 2528   1.059   3.322   5.241
  543SOL    HW2 2529   1.206   3.284   5.183
  544SOL     OW 2530   2.019   4.539   0.137
  544SOL    HW1 2531   1.996   4.443   0.156
  544SOL    HW2 2532   2.113   4.545   0.105
  545SOL     OW 2533   3.051   1.733   1.720
  545SOL    HW1 2534   2.982   1.770   1.658
  545SOL    HW2 2535   3.130   1.701   1.666
  546SOL     OW 2536   2.244   2.879   0.848
  546SOL    HW1 2537   2.223   2.785   0.874
  546SOL    HW2 2538   2.243   2.887   0.749
  547SOL     OW 2539   3.265   0.582   0.222
  547SOL    HW1 2540   3.314   0.497   0.238
  547SOL    HW2 2541   3.331   0.656   0.205
  548SOL     OW 2542   3.714   3.630   2.052
  548SOL    HW1 2543   3.770   3.572   2.111
  548SOL    HW2 2544   3.635   3.579   2.019
  549SOL     OW 2545   5.179   3.016   1.361
  549SOL    HW1 2546   5.161   3.114   1.354
  549SOL    HW2 2547   5.108   2.966   1.311
  550SOL     OW 2548   0.418   5.626   3.861
  550SOL    HW1 2549   0.391   5.558   3.793
  550SOL    HW2 2550   0.339   5.681   3.885
  551SOL     OW 2551   0.704   0.397   2.892
  551SOL    HW1 2552   0.698   0.302   2.922
  551SOL    HW2 2553   0.721   0.456   2.971
  552SOL     OW 2554   5.580   4.565   6.842
  552SOL    HW1 2555   5.601   4.624   6.764
  552SOL    HW2 2556   5.637   4.591   6.919
  553SOL     OW 2557   2.676   6.632   2.419
  553SOL    HW1 2558   2.620   6.596   2.494
  553SOL    HW2 2559   2.620   6.691   2.362
  554SOL     OW 2560   5.718   0.103   6.672
  554SOL    HW1 2561   5.781   0.057   6.735
  554SOL    HW2 2562   5.703   0.047   6.591
  555SOL     OW 2563   1.863   5.113   3.752
  555SOL    HW1 2564   1.844   5.203   3.791
  555SOL    HW2 2565   1.911   5.056   3.820
  556SOL     OW 2566   4.382   2.334   3.251
  556SOL    HW1 2567   4.438   2.405   3.210
  556SOL    HW2 2568   4.439   2.256   3.277
  557SOL     OW 2569   0.310   5.037   0.677
  557SOL    HW1 2570   0.270   5.107   0.618
  557SOL    HW2 2571   0.342   5.079   0.762
  558SOL     OW 2572   3.058   3.084   4.588
  558SOL    HW1 2573   3.024   3.081   4.494
  558SOL    HW2 2574   2.984   3.110   4.650
  559SOL     OW 2575   6.653   5.738   0.076
  559SOL    HW1 2576   6.613   5.657   0.119
  559SOL    HW2 2577   6.598   5.765   7.019
  560SOL     OW 2578   4.975   5.004   6.865
  560SOL    HW1 2579   5.073   5.003   6.882
  560SOL    HW2 2580   4.954   4.948   6.784
  561SOL     OW 2581   0.790   1.438   1.056
  561SOL    HW1 2582   0.770   1.534   1.071
  561SOL    HW2 2583   0.823   1.397   1.140
  562SOL     OW 2584   4.999   0.471   6.088
  562SOL    HW1 2585   5.032   0.558   6.124
  562SOL    HW2 2586   5.062   0.398   6.114
  563SOL     OW 2587   2.147   0.884   3.786
  563SOL    HW1 2588   2.150   0.921   3.693
  563SOL    HW2 2589   2.109   0.792   3.784
  564SOL     OW 2590   1.219   1.993   6.996
  564SOL    HW1 2591   1.169   2.008   6.910
  564SOL    HW2 2592   1.174   2.042   0.049
  565SOL     OW 2593   3.757   2.859   5.274
  565SOL    HW1 2594   3.762   2.957   5.296
  565SOL    HW2 2595   3.663   2.836   5.248
  566SOL     OW 2596   0.054   5.311   3.738
  566SOL    HW1 2597   0.093   5.331   3.828
  566SOL    HW2 2598   6.987   5.356   3.730
  567SOL     OW 2599   2.898   2.982   1.784
  567SOL    HW1 2600   2.848   2.920   1.724
  567SOL    HW2 2601   2.986   2.941   1.807
  568SOL     OW 2602   4.598   1.505   0.149
  568SOL    HW1 2603   4.583   1.600   0.123
  568SOL    HW2 2604   4.558   1.489   0.240
  569SOL     OW 2605   1.821   2.879   6.346
  569SOL    HW1 2606   1.880   2.919   6.417
  569SOL    HW2 2607   1.820   2.780   6.355
  570SOL     OW 2608   3.027   6.574   6.850
  570SOL    HW1 2609   3.038   6.581   6.751
  570SOL    HW2 2610   3.046   6.663   6.892
  571SOL     OW 2611   3.183   0.281   2.074
  571SOL    HW1 2612   3.131   0.336   2.009
  571SOL    HW2 2613   3.132   0.273   2.160
  572SOL     OW 2614   2.882   4.772   5.634
  572SOL    HW1 2615   2.980   4.777   5.616
  572SOL    HW2 2616   2.833   4.761   5.547
  573SOL     OW 2617   5.182   1.777   5.604
  573SOL    HW1 2618   5.120   1.712   5.648
  573SOL    HW2 2619   5.266   1.784   5.658
  574SOL     OW 2620   3.232   1.724   4.268
  574SOL    HW1 2621   3.283   1.691   4.348
  574SOL    HW2 2622   3.252   1.665   4.189
  575SOL     OW 2623   5.140   3.711   0.577
  575SOL    HW1 2624   5.171   3.730   0.484
  575SOL    HW2 2625   5.089   3.790   0.612
  576SOL     OW 2626   1.100   1.937   3.044
  576SOL    HW1 2627   1.067   2.007   2.980
  576SOL    HW2 2628   1.035   1.861   3.045
  577SOL     OW 2629   1.051   1.194   2.167
  577SOL    HW1 2630   0.993   1.113   2.156
  577SOL    HW2 2631   1.146   1.166   2.175
  578SOL     OW 2632   5.685   5.502   3.516
  578SOL    HW1 2633   5.620   5.432   3.549
  578SOL    HW2 2634   5.649   5.543   3.432
  579SOL     OW 2635   1.950   2.895   2.733
  579SOL    HW1 2636   1.871   2.846   2.698
  579SOL    HW2 2637   1.946   2.897   2.833
  580SOL     OW 2638   6.683   5.297   0.071
  580SOL    HW1 2639   6.783   5.301   0.075
  580SOL    HW2 2640   6.646   5.297   0.164
  581SOL     OW 2641   2.968   3.214   2.085
  581SOL    HW1 2642   2.885   3.214   2.028
  581SOL    HW2 2643   3.049   3.213   2.025
  582SOL     OW 2644   4.672   0.029   2.106
  582SOL    HW1 2645   4.664   0.019   2.205
  582SOL    HW2 2646   4.739   0.100   2.084
  583SOL     OW 2647   2.848   5.064   5.740
  583SOL    HW1 2648   2.819   4.968   5.741
  583SOL    HW2 2649   2.885   5.086   5.650
  584SOL     OW 2650   3.052   4.070   6.028
  584SOL    HW1 2651   3.056   3.973   6.005
  584SOL    HW2 2652   3.138   4.099   6.070
  585SOL     OW 2653   5.384   2.899   6.124
  585SOL    HW1 2654   5.424   2.966   6.061
  585SOL    HW2 2655   5.320   2.945   6.186
  586SOL     OW 2656   3.796   1.809   6.068
  586SOL    HW1 2657   3.747   1.881   6.020
  586SOL    HW2 2658   3.794   1.725   6.013
  587SOL     OW 2659   4.054   1.092   5.831
  587SOL    HW1 2660   4.118   1.070   5.905
  587SOL    HW2 2661   4.002   1.010   5.806
  588SOL     OW 2662   2.359   4.883   1.472
  588SOL    HW1 2663   2.302   4.804   1.496
  588SOL    HW2 2664   2.325   4.925   1.388
  589SOL     OW 2665   2.994   5.021   1.653
  589SOL    HW1 2666   3.039   5.105   1.683
  589SOL    HW2 2667   2.937   5.041   1.574
  590SOL     OW 2668   4.885   3.438   3.187
  590SOL    HW1 2669   4.864   3.341   3.179
  590SOL    HW2 2670   4.937   3.467   3.107
  591SOL     OW 2671   4.117   5.524   4.376
  591SOL    HW1 2672   4.052   5.482   4.313
  591SOL    HW2 2673   4.211   5.504   4.346
  592SOL     OW 2674   3.408   0.925   1.528
  592SOL    HW1 2675   3.470   0.961   1.599
  592SOL    HW2 2676   3.426   0.972   1.442
  593SOL     OW 2677   4.709   2.343   3.090
  593SOL    HW1 2678   4.724   2.298   3.177
  593SOL    HW2 2679   4.672   2.435   3.106
  594SOL     OW 2680   5.507   2.224   6.684
  594SOL    HW1 2681   5.493   2.204   6.781
  594SOL    HW2 2682   5.587   2.173   6.651
  595SOL     OW 2683   5.880   6.597   3.691
  595SOL    HW1 2684   5.866   6.498   3.685
  595SOL    HW2 2685   5.796   6.640   3.725
  596SOL     OW 2686   1.856   4.482   3.025
  596SOL    HW1 2687   1.880   4.385   3.021
  596SOL    HW2 2688   1.925   4.531   3.077
  597SOL     OW 2689   3.457   6.962   6.875
  597SOL    HW1 2690   3.404   6.889   6.918
  597SOL    HW2 2691   3.405   0.026   6.876
  598SOL     OW 2692   3.657   4.539   5.700
  598SOL    HW1 2693   3.601   4.509   5.624
  598SOL    HW2 2694   3.713   4.616   5.672
  599SOL     OW 2695   2.515   6.616   1.956
  599SOL    HW1 2696   2.537   6.547   1.887
  599SOL    HW2 2697   2.551   6.586   2.045
  600SOL     OW 2698   0.795   1.340   6.991
  600SOL    HW1 2699   0.749   1.264   0.017
  600SOL    HW2 2700   0.865   1.380   0.029
  601SOL     OW 2701   2.968   6.984   4.483
  601SOL    HW1 2702   2.957   6.934   4.397
  601SOL    HW2 2703   3.045   6.947   4.534
  602SOL     OW 2704   2.434   2.606   6.257
  602SOL    HW1 2705   2.427   2.630   6.160
  602SOL    HW2 2706   2.448   2.689   6.311
  603SOL     OW 2707   3.679   1.930   3.695
  603SOL    HW1 2708   3.657   1.999   3.765
  603SOL    HW2 2709   3.710   1.846   3.740
  604SOL     OW 2710   0.815   3.632   1.239
  604SOL    HW1 2711   0.829   3.600   1.333
  604SOL    HW2 2712   0.718   3.633   1.218
  605SOL     OW 2713   7.017   6.600   2.150
  605SOL    HW1 2714   0.042   6.650   2.223
  605SOL    HW2 2715   6.933   6.559   2.186
  606SOL     OW 2716   5.224   0.552   6.353
  606SOL    HW1 2717   5.270   0.606   6.282
  606SOL    HW2 2718   5.292   0.506   6.409
  607SOL     OW 2719   6.205   0.212   5.857
  607SOL    HW1 2720   6.178   0.243   5.766
  607SOL    HW2 2721   6.129   0.223   5.921
  608SOL     OW 2722   2.558   6.178   6.375
  608SOL    HW1 2723   2.564   6.274   6.403
  608SOL    HW2 2724   2.468   6.142   6.401
  609SOL     OW 2725   4.118   3.423   3.263
  609SOL    HW1 2726   4.176   3.496   3.299
  609SOL    HW2 2727   4.081   3.370   3.339
  610SOL     OW 2728   4.870   3.280   2.043
  610SOL    HW1 2729   4.855   3.352   1.974
  610SOL    HW2 2730   4.812   3.201   2.021
  611SOL     OW 2731   3.612   0.179   0.215
  611SOL    HW1 2732   3.602   0.203   0.119
  611SOL    HW2 2733   3.709   0.171   0.238
  612SOL     OW 2734   3.575   6.413   5.794
  612SOL    HW1 2735   3.509   6.383   5.725
  612SOL    HW2 2736   3.662   6.435   5.750
  613SOL     OW 2737   4.395   6.956   5.980
  613SOL    HW1 2738   4.340   6.946   6.063
  613SOL    HW2 2739   4.347   6.915   5.903
  614SOL     OW 2740   4.582   4.453   1.149
  614SOL    HW1 2741   4.653   4.415   1.210
  614SOL    HW2 2742   4.511   4.384   1.135
  615SOL     OW 2743   0.368   2.496   1.866
  615SOL    HW1 2744   0.373   2.551   1.782
  615SOL    HW2 2745   0.338   2.403   1.843
  616SOL     OW 2746   0.491   2.106   3.701
  616SOL    HW1 2747   0.458   2.060   3.619
  616SOL    HW2 2748   0.564   2.169   3.677
  617SOL     OW 2749   6.363   3.552   6.201
  617SOL    HW1 2750   6.329   3.493   6.273
  617SOL    HW2 2751   6.430   3.616   6.239
  618SOL     OW 2752   6.617   2.252   6.516
  618SOL    HW1 2753   6.638   2.289   6.425
  618SOL    HW2 2754   6.699   2.254   6.572
  619SOL     OW 2755   4.702   0.415   6.590
  619SOL    HW1 2756   4.655   0.337   6.549
  619SOL    HW2 2757   4.777   0.444   6.531
  620SOL     OW 2758   4.792   2.659   1.418
  620SOL    HW1 2759   4.770   2.639   1.323
  620SOL    HW2 2760   4.837   2.748   1.423
  621SOL     OW 2761   2.234   6.273   6.249
  621SOL    HW1 2762   2.284   6.205   6.194
  621SOL    HW2 2763   2.183   6.334   6.188
  622SOL     OW 2764   1.316   1.136   4.343
  622SOL    HW1 2765   1.293   1.173   4.254
  622SOL    HW2 2766   1.278   1.194   4.415
  623SOL     OW 2767   1.329   6.310   6.143
  623SOL    HW1 2768   1.278   6.371   6.204
  623SOL    HW2 2769   1.336   6.220   6.185
  624SOL     OW 2770   0.253   1.596   1.663
  624SOL    HW1 2771   0.172   1.596   1.604
  624SOL    HW2 2772   0.230   1.636   1.752
  625SOL     OW 2773   1.371   2.018   1.727
  625SOL    HW1 2774   1.379   2.049   1.632
  625SOL    HW2 2775   1.462   2.015   1.769
  626SOL     OW 2776   0.945   5.918   3.412
  626SOL    HW1 2777   1.015   5.949   3.347
  626SOL    HW2 2778   0.920   5.994   3.473
  627SOL     OW 2779   6.698   6.421   0.666
  627SOL    HW1 2780   6.791   6.388   0.654
  627SOL    HW2 2781   6.646   6.407   0.582
  628SOL     OW 2782   5.362   5.893   5.787
  628SOL    HW1 2783   5.412   5.880   5.701
  628SOL    HW2 2784   5.415   5.855   5.863
  629SOL     OW 2785   0.630   0.550   6.700
  629SOL    HW1 2786   0.580   0.497   6.632
  629SOL    HW2 2787   0.572   0.625   6.734
  630SOL     OW 2788   0.197   1.597   0.783
  630SOL    HW1 2789   0.115   1.642   0.748
  630SOL    HW2 2790   0.230   1.645   0.864
  631SOL     OW 2791   3.763   1.462   5.383
  631SOL    HW1 2792   3.740   1.559   5.394
  631SOL    HW2 2793   3.836   1.438   5.446
  632SOL     OW 2794   3.978   1.702   1.468
  632SOL    HW1 2795   4.035   1.766   1.521
  632SOL    HW2 2796   3.888   1.741   1.454
  633SOL     OW 2797   3.282   3.148   6.951
  633SOL    HW1 2798   3.382   3.151   6.956
  633SOL    HW2 2799   3.250   3.213   6.882
  634SOL     OW 2800   4.144   3.656   2.264
  634SOL    HW1 2801   4.223   3.618   2.216
  634SOL    HW2 2802   4.091   3.714   2.202
  635SOL     OW 2803   4.698   5.504   0.687
  635SOL    HW1 2804   4.797   5.513   0.696
  635SOL    HW2 2805   4.668   5.547   0.602
  636SOL     OW 2806   3.087   6.450   0.267
  636SOL    HW1 2807   3.177   6.448   0.223
  636SOL    HW2 2808   3.016   6.436   0.197
  637SOL     OW 2809   6.971   3.110   3.089
  637SOL    HW1 2810   6.909   3.167   3.033
  637SOL    HW2 2811   6.951   3.125   3.185
  638SOL     OW 2812   5.581   2.835   3.060
  638SOL    HW1 2813   5.495   2.789   3.085
  638SOL    HW2 2814   5.652   2.811   3.127
  639SOL     OW 2815   4.956   3.229   2.827
  639SOL    HW1 2816   4.989   3.261   2.738
  639SOL    HW2 2817   4.935   3.307   2.885
  640SOL     OW 2818   0.553   5.129   3.993
  640SOL    HW1 2819   0.616   5.054   4.012
  640SOL    HW2 2820   0.591   5.214   4.030
  641SOL     OW 2821   0.619   4.367   5.161
  641SOL    HW1 2822   0.612   4.372   5.061
  641SOL    HW2 2823   0.712   4.391   5.188
  642SOL     OW 2824   0.098   3.395   3.905
  642SOL    HW1 2825   0.041   3.317   3.883
  642SOL    HW2 2826   0.121   3.394   4.003
  643SOL     OW 2827   6.130   6.452   5.982
  643SOL    HW1 2828   6.211   6.502   5.951
  643SOL    HW2 2829   6.104   6.384   5.913
  644SOL     OW 2830   1.695   6.704   4.458
  644SOL    HW1 2831   1.653   6.627   4.411
  644SOL    HW2 2832   1.719   6.775   4.391
  645SOL     OW 2833   4.399   0.130   5.164
  645SOL    HW1 2834   4.476   0.127   5.228
  645SOL    HW2 2835   4.386   0.224   5.132
  646SOL     OW 2836   3.278   0.654   4.485
  646SOL    HW1 2837   3.227   0.702   4.556
  646SOL    HW2 2838   3.369   0.695   4.476
  647SOL     OW 2839   5.357   2.003   5.285
  647SOL    HW1 2840   5.276   2.009   5.344
  647SOL    HW2 2841   5.364   1.911   5.248
  648SOL     OW 2842   0.932   3.491   3.502
  648SOL    HW1 2843   0.973   3.438   3.427
  648SOL    HW2 2844   0.979   3.579   3.510
  649SOL     OW 2845   2.416   4.252   1.068
  649SOL    HW1 2846   2.434   4.349   1.085
  649SOL    HW2 2847   2.322   4.231   1.092
  650SOL     OW 2848   5.985   4.611   0.298
  650SOL    HW1 2849   5.997   4.600   0.199
  650SOL    HW2 2850   5.969   4.521   0.339
  651SOL     OW 2851   0.859   6.732   6.034
  651SOL    HW1 2852   0.867   6.743   5.935
  651SOL    HW2 2853   0.768   6.696   6.056
  652SOL     OW 2854   5.194   6.996   3.901
  652SOL    HW1 2855   5.232   0.064   3.925
  652SOL    HW2 2856   5.265   6.926   3.913
  653SOL     OW 2857   1.371   5.849   6.857
  653SOL    HW1 2858   1.392   5.937   6.814
  653SOL    HW2 2859   1.340   5.865   6.951
  654SOL     OW 2860   0.645   5.681   0.070
  654SOL    HW1 2861   0.738   5.655   0.094
  654SOL    HW2 2862   0.630   5.777   0.096
  655SOL     OW 2863   0.129   5.972   1.450
  655SOL    HW1 2864   0.090   6.047   1.398
  655SOL    HW2 2865   0.066   5.947   1.524
  656SOL     OW 2866   1.915   6.089   1.060
  656SOL    HW1 2867   1.906   6.142   1.144
  656SOL    HW2 2868   1.934   5.994   1.081
  657SOL     OW 2869   2.460   3.814   1.671
  657SOL    HW1 2870   2.466   3.806   1.572
  657SOL    HW2 2871   2.372   3.778   1.702
  658SOL     OW 2872   2.068   3.598   6.402
  658SOL    HW1 2873   2.029   3.549   6.481
  658SOL    HW2 2874   2.149   3.549   6.370
  659SOL     OW 2875   1.507   6.301   5.284
  659SOL    HW1 2876   1.471   6.218   5.241
  659SOL    HW2 2877   1.433   6.350   5.330
  660SOL     OW 2878   6.058   3.803   2.342
  660SOL    HW1 2879   6.141   3.755   2.370
  660SOL    HW2 2880   6.024   3.858   2.418
  661SOL     OW 2881   4.650   4.209   3.342
  661SOL    HW1 2882   4.562   4.244   3.312
  661SOL    HW2 2883   4.700   4.174   3.263
  662SOL     OW 2884   4.414   0.343   4.803
  662SOL    HW1 2885   4.373   0.328   4.893
  662SOL    HW2 2886   4.373   0.279   4.737
  663SOL     OW 2887   1.240   3.650   6.620
  663SOL    HW1 2888   1.242   3.552   6.642
  663SOL    HW2 2889   1.298   3.667   6.541
  664SOL     OW 2890   0.231   5.215   6.578
  664SOL    HW1 2891   0.328   5.217   6.603
  664SOL    HW2 2892   0.208   5.295   6.523
  665SOL     OW 2893   4.342   4.702   0.787
  665SOL    HW1 2894   4.265   4.713   0.724
  665SOL    HW2 2895   4.326   4.624   0.847
  666SOL     OW 2896   5.208   1.858   2.998
  666SOL    HW1 2897   5.126   1.880   2.945
  666SOL    HW2 2898   5.282   1.920   2.974
  667SOL     OW 2899   6.145   3.850   3.117
  667SOL    HW1 2900   6.174   3.901   3.036
  667SOL    HW2 2901   6.096   3.767   3.088
  668SOL     OW 2902   4.783   5.987   0.005
  668SOL    HW1 2903   4.721   6.001   6.950
  668SOL    HW2 2904   4.869   5.947   6.993
  669SOL     OW 2905   4.016   6.108   3.391
  669SOL    HW1 2906   4.103   6.120   3.438
  669SOL    HW2 2907   3.947   6.166   3.436
  670SOL     OW 2908   2.606   2.972   1.476
  670SOL    HW1 2909   2.536   2.944   1.541
  670SOL    HW2 2910   2.677   2.902   1.471
  671SOL     OW 2911   3.076   5.593   0.178
  671SOL    HW1 2912   3.061   5.494   0.173
  671SOL    HW2 2913   3.045   5.627   0.266
  672SOL     OW 2914   0.746   4.530   1.930
  672SOL    HW1 2915   0.840   4.557   1.951
  672SOL    HW2 2916   0.743   4.432   1.909
  673SOL     OW 2917   6.653   0.557   1.500
  673SOL    HW1 2918   6.636   0.588   1.407
  673SOL    HW2 2919   6.573   0.576   1.557
  674SOL     OW 2920   6.953   3.365   4.506
  674SOL    HW1 2921   6.919   3.283   4.460
  674SOL    HW2 2922   6.924   3.446   4.455
  675SOL     OW 2923   0.601   1.072   4.628
  675SOL    HW1 2924   0.517   1.068   4.681
  675SOL    HW2 2925   0.678   1.046   4.685
  676SOL     OW 2926   3.997   6.009   2.958
  676SOL    HW1 2927   3.984   5.999   2.860
  676SOL    HW2 2928   4.068   5.946   2.989
  677SOL     OW 2929   6.078   1.575   6.920
  677SOL    HW1 2930   5.985   1.540   6.919
  677SOL    HW2 2931   6.079   1.666   6.961
  678SOL     OW 2932   1.243   1.279   4.552
  678SOL    HW1 2933   1.156   1.316   4.583
  678SOL    HW2 2934   1.310   1.352   4.544
  679SOL     OW 2935   4.680   1.839   4.568
  679SOL    HW1 2936   4.769   1.869   4.534
  679SOL    HW2 2937   4.682   1.741   4.586
  680SOL     OW 2938   6.145   5.327   5.926
  680SOL    HW1 2939   6.116   5.238   5.962
  680SOL    HW2 2940   6.174   5.385   6.002
  681SOL     OW 2941   5.573   5.911   1.323
  681SOL    HW1 2942   5.616   5.840   1.378
  681SOL    HW2 2943   5.497   5.951   1.374
  682SOL     OW 2944   1.695   0.198   0.603
  682SOL    HW1 2945   1.667   0.220   0.696
  682SOL    HW2 2946   1.783   0.241   0.583
  683SOL     OW 2947   3.724   2.783   6.746
  683SOL    HW1 2948   3.803   2.840   6.722
  683SOL    HW2 2949   3.756   2.694   6.778
  684SOL     OW 2950   6.037   0.590   6.904
  684SOL    HW1 2951   6.000   0.680   6.885
  684SOL    HW2 2952   6.133   0.586   6.874
  685SOL     OW 2953   4.503   1.335   4.223
  685SOL    HW1 2954   4.602   1.334   4.213
  685SOL    HW2 2955   4.466   1.243   4.213
  686SOL     OW 2956   5.694   2.449   3.302
  686SOL    HW1 2957   5.704   2.444   3.402
  686SOL    HW2 2958   5.613   2.398   3.274
  687SOL     OW 2959   0.255   2.903   4.805
  687SOL    HW1 2960   0.300   2.889   4.894
  687SOL    HW2 2961   0.323   2.933   4.738
  688SOL     OW 2962   1.750   2.712   6.707
  688SOL    HW1 2963   1.683   2.640   6.693
  688SOL    HW2 2964   1.833   2.674   6.749
  689SOL     OW 2965   0.222   4.384   5.973
  689SOL    HW1 2966   0.292   4.313   5.982
  689SOL    HW2 2967   0.133   4.345   5.993
  690SOL     OW 2968   0.651   3.800   3.504
  690SOL    HW1 2969   0.747   3.795   3.477
  690SOL    HW2 2970   0.599   3.845   3.431
  691SOL     OW 2971   2.597   0.371   6.381
  691SOL    HW1 2972   2.559   0.331   6.464
  691SOL    HW2 2973   2.684   0.415   6.402
  692SOL     OW 2974   3.972   5.778   3.899
  692SOL    HW1 2975   3.892   5.748   3.952
  692SOL    HW2 2976   3.968   5.877   3.888
  693SOL     OW 2977   6.385   0.576   3.288
  693SOL    HW1 2978   6.321   0.519   3.237
  693SOL    HW2 2979   6.428   0.642   3.227
  694SOL     OW 2980   3.869   6.121   2.497
  694SOL    HW1 2981   3.887   6.136   2.400
  694SOL    HW2 2982   3.912   6.193   2.551
  695SOL     OW 2983   4.160   5.865   5.109
  695SOL    HW1 2984   4.086   5.877   5.175
  695SOL    HW2 2985   4.137   5.913   5.024
  696SOL     OW 2986   3.412   5.497   2.809
  696SOL    HW1 2987   3.394   5.522   2.713
  696SOL    HW2 2988   3.334   5.525   2.865
  697SOL     OW 2989   2.183   2.803   4.377
  697SOL    HW1 2990   2.160   2.879   4.316
  697SOL    HW2 2991   2.122   2.805   4.456
  698SOL     OW 2992   5.788   0.428   7.005
  698SOL    HW1 2993   5.810   0.354   0.048
  698SOL    HW2 2994   5.838   0.511   0.010
  699SOL     OW 2995   1.641   4.098   6.396
  699SOL    HW1 2996   1.729   4.051   6.382
  699SOL    HW2 2997   1.578   4.036   6.444
  700SOL     OW 2998   2.655   1.370   3.762
  700SOL    HW1 2999   2.721   1.323   3.703
  700SOL    HW2 3000   2.683   1.361   3.858
  701SOL     OW 3001   5.968   3.336   5.148
  701SOL    HW1 3002   6.018   3.249   5.152
  701SOL    HW2 3003   5.973   3.373   5.055
  702SOL     OW 3004   0.311   6.751   6.193
  702SOL    HW1 3005   0.268   6.749   6.102
  702SOL    HW2 3006   0.368   6.669   6.204
  703SOL     OW 3007   3.491   4.162   6.574
  703SOL    HW1 3008   3.586   4.135   6.593
  703SOL    HW2 3009   3.460   4.226   6.644
  704SOL     OW 3010   1.254   1.144   6.462
  704SOL    HW1 3011   1.179   1.093   6.421
  704SOL    HW2 3012   1.339   1.092   6.451
  705SOL     OW 3013   6.251   6.361   2.906
  705SOL    HW1 3014   6.160   6.366   2.947
  705SOL    HW2 3015   6.250   6.408   2.818
  706SOL     OW 3016   4.413   2.481   3.977
  706SOL    HW1 3017   4.455   2.559   4.024
  706SOL    HW2 3018   4.447   2.476   3.883
  707SOL     OW 3019   4.509   6.805   2.138
  707SOL    HW1 3020   4.533   6.721   2.090
  707SOL    HW2 3021   4.561   6.881   2.100
  708SOL     OW 3022   3.859   1.150   1.217
  708SOL    HW1 3023   3.791   1.133   1.288
  708SOL    HW2 3024   3.945   1.105   1.242
  709SOL     OW 3025   0.952   5.228   0.839
  709SOL    HW1 3026   1.037   5.274   0.811
  709SOL    HW2 3027   0.972   5.133   0.863
  710SOL     OW 3028   3.457   2.871   2.575
  710SOL    HW1 3029   3.449   2.898   2.479
  710SOL    HW2 3030   3.373   2.894   2.624
  711SOL     OW 3031   0.144   2.138   6.071
  711SOL    HW1 3032   0.130   2.100   5.980
  711SOL    HW2 3033   0.134   2.237   6.068
  712SOL     OW 3034   3.650   3.345   0.989
  712SOL    HW1 3035   3.594   3.427   0.975
  712SOL    HW2 3036   3.650   3.290   0.906
  713SOL     OW 3037   3.704   2.952   6.341
  713SOL    HW1 3038   3.698   2.863   6.296
  713SOL    HW2 3039   3.796   2.966   6.377
  714SOL     OW 3040   6.698   4.439   4.007
  714SOL    HW1 3041   6.608   4.404   4.033
  714SOL    HW2 3042   6.692   4.538   3.993
  715SOL     OW 3043   5.918   5.619   6.893
  715SOL    HW1 3044   5.898   5.700   6.838
  715SOL    HW2 3045   5.852   5.548   6.873
  716SOL     OW 3046   1.181   0.517   0.930
  716SOL    HW1 3047   1.132   0.594   0.970
  716SOL    HW2 3048   1.127   0.434   0.942
  717SOL     OW 3049   5.852   4.459   6.321
  717SOL    HW1 3050   5.861   4.558   6.328
  717SOL    HW2 3051   5.943   4.418   6.315
  718SOL     OW 3052   4.782   2.629   6.361
  718SOL    HW1 3053   4.813   2.628   6.266
  718SOL    HW2 3054   4.789   2.537   6.400
  719SOL     OW 3055   6.474   0.785   1.900
  719SOL    HW1 3056   6.459   0.818   1.807
  719SOL    HW2 3057   6.421   0.840   1.964
  720SOL     OW 3058   3.538   0.738   6.677
  720SOL    HW1 3059   3.588   0.662   6.719
  720SOL    HW2 3060   3.447   0.707   6.649
  721SOL     OW 3061   2.623   1.225   4.267
  721SOL    HW1 3062   2.706   1.281   4.257
  721SOL    HW2 3063   2.549   1.282   4.301
  722SOL     OW 3064   2.917   0.218   4.496
  722SOL    HW1 3065   2.971   0.247   4.418
  722SOL    HW2 3066   2.912   0.118   4.499
  723SOL     OW 3067   2.164   3.775   3.055
  723SOL    HW1 3068   2.139   3.844   2.987
  723SOL    HW2 3069   2.223   3.707   3.012
  724SOL     OW 3070   1.470   2.758   4.714
  724SOL    HW1 3071   1.383   2.804   4.732
  724SOL    HW2 3072   1.457   2.690   4.642
  725SOL     OW 3073   4.066   5.873   0.715
  725SOL    HW1 3074   4.007   5.926   0.654
  725SOL    HW2 3075   4.022   5.864   0.804
  726SOL     OW 3076   4.465   5.019   0.432
  726SOL    HW1 3077   4.396   4.955   0.397
  726SOL    HW2 3078   4.422   5.105   0.456
  727SOL     OW 3079   5.780   5.252   6.034
  727SOL    HW1 3080   5.774   5.279   6.130
  727SOL    HW2 3081   5.801   5.332   5.978
  728SOL     OW 3082   6.240   3.507   5.204
  728SOL    HW1 3083   6.233   3.414   5.167
  728SOL    HW2 3084   6.321   3.552   5.166
  729SOL     OW 3085   0.939   2.044   0.600
  729SOL    HW1 3086   0.994   2.119   0.563
  729SOL    HW2 3087   0.999   1.970   0.631
  730SOL     OW 3088   5.539   1.330   2.962
  730SOL    HW1 3089   5.442   1.322   2.941
  730SOL    HW2 3090   5.572   1.420   2.935
  731SOL     OW 3091   5.334   4.390   5.581
  731SOL    HW1 3092   5.372   4.328   5.513
  731SOL    HW2 3093   5.255   4.346   5.625
  732SOL     OW 3094   0.236   2.330   1.565
  732SOL    HW1 3095   0.302   2.291   1.630
  732SOL    HW2 3096   0.283   2.355   1.481
  733SOL     OW 3097   5.837   6.114   5.625
  733SOL    HW1 3098   5.779   6.041   5.660
  733SOL    HW2 3099   5.910   6.074   5.568
  734SOL     OW 3100   6.923   4.859   2.718
  734SOL    HW1 3101   7.011   4.812   2.726
  734SOL    HW2 3102   6.849   4.795   2.740
  735SOL     OW 3103   3.835   1.933   0.605
  735SOL    HW1 3104   3.812   1.880   0.523
  735SOL    HW2 3105   3.906   2.000   0.583
  736SOL     OW 3106   0.800   0.554   3.084
  736SOL    HW1 3107   0.720   0.543   3.144
  736SOL    HW2 3108   0.880   0.574   3.140
  737SOL     OW 3109   4.882   2.318   5.764
  737SOL    HW1 3110   4.916   2.412   5.756
  737SOL    HW2 3111   4.905   2.267   5.681
  738SOL     OW 3112   2.019   4.429   2.338
  738SOL    HW1 3113   1.961   4.511   2.347
  738SOL    HW2 3114   2.104   4.453   2.292
  739SOL     OW 3115   4.307   0.478   4.233
  739SOL    HW1 3116   4.312   0.386   4.271
  739SOL    HW2 3117   4.218   0.492   4.191
  740SOL     OW 3118   5.123   0.455   1.077
  740SOL    HW1 3119   5.056   0.421   1.011
  740SOL    HW2 3120   5.090   0.542   1.116
  741SOL     OW 3121   2.065   6.556   3.199
  741SOL    HW1 3122   2.047   6.620   3.274
  741SOL    HW2 3123   2.164   6.543   3.190
  742SOL     OW 3124   2.214   6.708   1.671
  742SOL    HW1 3125   2.204   6.781   1.739
  742SOL    HW2 3126   2.308   6.705   1.639
  743SOL     OW 3127   0.155   3.799   4.182
  743SOL    HW1 3128   0.223   3.805   4.109
  743SOL    HW2 3129   0.201   3.794   4.270
  744SOL     OW 3130   5.656   0.348   6.774
  744SOL    HW1 3131   5.680   0.260   6.735
  744SOL    HW2 3132   5.695   0.356   6.865
  745SOL     OW 3133   0.752   5.569   4.984
  745SOL    HW1 3134   0.766   5.581   5.082
  745SOL    HW2 3135   0.677   5.628   4.953
  746SOL     OW 3136   6.919   4.951   5.907
  746SOL    HW1 3137   6.990   4.993   5.851
  746SOL    HW2 3138   6.830   4.965   5.864
  747SOL     OW 3139   4.053   6.685   4.793
  747SOL    HW1 3140   3.995   6.652   4.868
  747SOL    HW2 3141   4.119   6.614   4.769
  748SOL     OW 3142   3.580   4.877   2.379
  748SOL    HW1 3143   3.483   4.856   2.383
  748SOL    HW2 3144   3.629   4.824   2.448
  749SOL     OW 3145   6.521   4.359   5.281
  749SOL    HW1 3146   6.542   4.357   5.379
  749SOL    HW2 3147   6.568   4.436   5.239
  750SOL     OW 3148   1.719   2.233   0.786
  750SOL    HW1 3149   1.688   2.249   0.692
  750SOL    HW2 3150   1.815   2.202   0.785
  751SOL     OW 3151   3.665   2.577   6.454
  751SOL    HW1 3152   3.611   2.617   6.528
  751SOL    HW2 3153   3.688   2.483   6.477
  752SOL     OW 3154   3.841   1.349   2.286
  752SOL    HW1 3155   3.845   1.306   2.376
  752SOL    HW2 3156   3.866   1.446   2.295
  753SOL     OW 3157   1.801   3.516   4.884
  753SOL    HW1 3158   1.768   3.439   4.938
  753SOL    HW2 3159   1.773   3.602   4.927
  754SOL     OW 3160   5.524   2.493   5.921
  754SOL    HW1 3161   5.604   2.434   5.929
  754SOL    HW2 3162   5.476   2.474   5.835
  755SOL     OW 3163   1.565   4.423   5.225
  755SOL    HW1 3164   1.515   4.368   5.158
  755SOL    HW2 3165   1.526   4.409   5.315
  756SOL     OW 3166   3.789   0.281   0.571
  756SOL    HW1 3167   3.694   0.268   0.541
  756SOL    HW2 3168   3.806   0.378   0.586
  757SOL     OW 3169   0.833   0.193   3.955
  757SOL    HW1 3170   0.827   0.195   4.055
  757SOL    HW2 3171   0.903   0.127   3.927
  758SOL     OW 3172   4.026   0.051   1.921
  758SOL    HW1 3173   3.966   7.009   1.872
  758SOL    HW2 3174   3.977   0.089   1.999
  759SOL     OW 3175   0.634   1.186   1.113
  759SOL    HW1 3176   0.706   1.165   1.180
  759SOL    HW2 3177   0.644   1.280   1.082
  760SOL     OW 3178   5.149   0.459   5.511
  760SOL    HW1 3179   5.172   0.542   5.560
  760SOL    HW2 3180   5.150   0.477   5.412
  761SOL     OW 3181   5.963   2.986   5.666
  761SOL    HW1 3182   5.887   2.952   5.722
  761SOL    HW2 3183   6.011   2.910   5.625
  762SOL     OW 3184   2.387   0.826   4.835
  762SOL    HW1 3185   2.465   0.887   4.851
  762SOL    HW2 3186   2.303   0.880   4.833
  763SOL     OW 3187   3.967   5.443   6.217
  763SOL    HW1 3188   4.001   5.363   6.167
  763SOL    HW2 3189   3.968   5.523   6.157
  764SOL     OW 3190   4.984   1.736   4.923
  764SOL    HW1 3191   4.957   1.751   5.018
  764SOL    HW2 3192   5.052   1.662   4.919
  765SOL     OW 3193   1.192   6.401   1.190
  765SOL    HW1 3194   1.275   6.437   1.234
  765SOL    HW2 3195   1.213   6.312   1.149
  766SOL     OW 3196   2.415   3.577   6.869
  766SOL    HW1 3197   2.393   3.587   6.772
  766SOL    HW2 3198   2.513   3.556   6.878
  767SOL     OW 3199   6.476   5.761   1.852
  767SOL    HW1 3200   6.547   5.830   1.865
  767SOL    HW2 3201   6.512   5.671   1.875
  768SOL     OW 3202   2.118   6.381   1.914
  768SOL    HW1 3203   2.019   6.371   1.918
  768SOL    HW2 3204   2.148   6.377   1.818
  769SOL     OW 3205   3.425   0.727   5.182
  769SOL    HW1 3206   3.516   0.717   5.221
  769SOL    HW2 3207   3.402   0.824   5.176
  770SOL     OW 3208   2.251   4.212   3.151
  770SOL    HW1 3209   2.331   4.269   3.166
  770SOL    HW2 3210   2.168   4.264   3.170
  771SOL     OW 3211   2.784   5.481   2.374
  771SOL    HW1 3212   2.835   5.496   2.459
  771SOL    HW2 3213   2.686   5.492   2.392
  772SOL     OW 3214   5.348   4.835   0.933
  772SOL    HW1 3215   5.253   4.829   0.903
  772SOL    HW2 3216   5.357   4.794   1.024
  773SOL     OW 3217   0.222   3.586   4.906
  773SOL    HW1 3218   0.161   3.586   4.828
  773SOL    HW2 3219   0.316   3.572   4.875
  774SOL     OW 3220   1.152   1.387   1.256
  774SOL    HW1 3221   1.060   1.422   1.276
  774SOL    HW2 3222   1.144   1.309   1.193
  775SOL     OW 3223   0.521   2.207   2.651
  775SOL    HW1 3224   0.450   2.275   2.637
  775SOL    HW2 3225   0.526   2.184   2.748
  776SOL     OW 3226   0.947   0.117   6.087
  776SOL    HW1 3227   1.029   0.106   6.031
  776SOL    HW2 3228   0.866   0.113   6.029
  777SOL     OW 3229   2.633   4.969   1.387
  777SOL    HW1 3230   2.598   4.918   1.466
  777SOL    HW2 3231   2.697   4.912   1.336
  778SOL     OW 3232   3.018   1.169   2.286
  778SOL    HW1 3233   3.051   1.156   2.379
  778SOL    HW2 3234   3.080   1.124   2.222
  779SOL     OW 3235   0.233   2.556   2.426
  779SOL    HW1 3236   0.223   2.654   2.414
  779SOL    HW2 3237   0.324   2.527   2.394
  780SOL     OW 3238   6.322   3.877   3.564
  780SOL    HW1 3239   6.348   3.958   3.616
  780SOL    HW2 3240   6.399   3.813   3.562
  781SOL     OW 3241   5.290   0.699   0.240
  781SOL    HW1 3242   5.314   0.626   0.303
  781SOL    HW2 3243   5.284   0.663   0.147
  782SOL     OW 3244   1.665   4.145   6.704
  782SOL    HW1 3245   1.697   4.060   6.662
  782SOL    HW2 3246   1.670   4.219   6.636
  783SOL     OW 3247   3.996   5.403   0.725
  783SOL    HW1 3248   4.029   5.443   0.811
  783SOL    HW2 3249   4.008   5.469   0.651
  784SOL     OW 3250   5.502   6.663   0.574
  784SOL    HW1 3251   5.466   6.741   0.522
  784SOL    HW2 3252   5.595   6.643   0.542
  785SOL     OW 3253   0.350   2.424   2.646
  785SOL    HW1 3254   0.302   2.463   2.567
  785SOL    HW2 3255   0.382   2.498   2.705
  786SOL     OW 3256   1.391   0.549   1.606
  786SOL    HW1 3257   1.333   0.475   1.641
  786SOL    HW2 3258   1.426   0.603   1.683
  787SOL     OW 3259   3.203   0.339   6.736
  787SOL    HW1 3260   3.103   0.335   6.742
  787SOL    HW2 3261   3.230   0.337   6.639
  788SOL     OW 3262   3.957   3.095   5.633
  788SOL    HW1 3263   3.931   3.186   5.665
  788SOL    HW2 3264   3.895   3.027   5.672
  789SOL     OW 3265   5.200   4.212   0.818
  789SOL    HW1 3266   5.171   4.191   0.911
  789SOL    HW2 3267   5.299   4.200   0.811
  790SOL     OW 3268   1.520   1.414   4.233
  790SOL    HW1 3269   1.616   1.413   4.262
  790SOL    HW2 3270   1.508   1.351   4.156
  791SOL     OW 3271   3.418   5.498   3.777
  791SOL    HW1 3272   3.500   5.506   3.719
  791SOL    HW2 3273   3.438   5.535   3.868
  792SOL     OW 3274   0.410   6.755   1.097
  792SOL    HW1 3275   0.421   6.854   1.106
  792SOL    HW2 3276   0.486   6.718   1.043
  793SOL     OW 3277   4.580   5.034   3.584
  793SOL    HW1 3278   4.617   5.038   3.491
  793SOL    HW2 3279   4.608   5.116   3.634
  794SOL     OW 3280   3.363   3.634   5.517
  794SOL    HW1 3281   3.388   3.720   5.561
  794SOL    HW2 3282   3.445   3.590   5.480
  795SOL     OW 3283   3.502   6.852   4.174
  795SOL    HW1 3284   3.456   6.932   4.212
  795SOL    HW2 3285   3.548   6.878   4.089
  796SOL     OW 3286   0.472   1.773   6.385
  796SOL    HW1 3287   0.424   1.747   6.468
  796SOL    HW2 3288   0.550   1.711   6.370
  797SOL     OW 3289   5.408   3.186   0.802
  797SOL    HW1 3290   5.379   3.164   0.896
  797SOL    HW2 3291   5.497   3.144   0.784
  798SOL     OW 3292   4.417   0.165   2.182
  798SOL    HW1 3293   4.378   0.186   2.272
  798SOL    HW2 3294   4.484   0.234   2.158
  799SOL     OW 3295   6.324   0.469   5.948
  799SOL    HW1 3296   6.304   0.387   5.895
  799SOL    HW2 3297   6.423   0.475   5.965
  800SOL     OW 3298   5.270   2.405   2.569
  800SOL    HW1 3299   5.264   2.370   2.476
  800SOL    HW2 3300   5.234   2.337   2.633
  801SOL     OW 3301   1.321   3.670   4.130
  801SOL    HW1 3302   1.237   3.676   4.076
  801SOL    HW2 3303   1.339   3.575   4.153
  802SOL     OW 3304   4.384   1.617   0.704
  802SOL    HW1 3305   4.335   1.687   0.651
  802SOL    HW2 3306   4.370   1.527   0.661
  803SOL     OW 3307   0.283   6.606   5.078
  803SOL    HW1 3308   0.277   6.603   4.978
  803SOL    HW2 3309   0.279   6.701   5.109
  804SOL     OW 3310   5.421   5.570   6.361
  804SOL    HW1 3311   5.332   5.540   6.326
  804SOL    HW2 3312   5.494   5.524   6.310
  805SOL     OW 3313   3.949   0.279   5.527
  805SOL    HW1 3314   3.975   0.342   5.454
  805SOL    HW2 3315   4.025   0.217   5.547
  806SOL     OW 3316   5.278   1.186   4.208
  806SOL    HW1 3317   5.226   1.245   4.269
  806SOL    HW2 3318   5.328   1.117   4.261
  807SOL     OW 3319   1.236   1.847   4.013
  807SOL    HW1 3320   1.184   1.909   4.071
  807SOL    HW2 3321   1.197   1.755   4.020
  808SOL     OW 3322   4.243   3.630   6.506
  808SOL    HW1 3323   4.332   3.676   6.507
  808SOL    HW2 3324   4.237   3.572   6.426
  809SOL     OW 3325   6.956   5.165   1.780
  809SOL    HW1 3326   6.887   5.132   1.715
  809SOL    HW2 3327   6.984   5.257   1.754
  810SOL     OW 3328   3.055   2.499   1.142
  810SOL    HW1 3329   3.115   2.442   1.198
  810SOL    HW2 3330   3.032   2.452   1.058
  811SOL     OW 3331   4.030   6.017   4.870
  811SOL    HW1 3332   3.996   6.096   4.922
  811SOL    HW2 3333   3.956   5.980   4.814
  812SOL     OW 3334   0.169   1.362   2.013
  812SOL    HW1 3335   0.084   1.335   1.968
  812SOL    HW2 3336   0.168   1.460   2.029
  813SOL     OW 3337   3.361   6.351   5.567
  813SOL    HW1 3338   3.307   6.407   5.630
  813SOL    HW2 3339   3.365   6.257   5.602
  814SOL     OW 3340   6.767   6.394   2.640
  814SOL    HW1 3341   6.866   6.381   2.635
  814SOL    HW2 3342   6.746   6.473   2.696
  815SOL     OW 3343   0.504   3.835   3.109
  815SOL    HW1 3344   0.431   3.851   3.043
  815SOL    HW2 3345   0.537   3.741   3.100
  816SOL     OW 3346   6.270   6.281   0.501
  816SOL    HW1 3347   6.200   6.219   0.466
  816SOL    HW2 3348   6.244   6.311   0.593
  817SOL     OW 3349   2.087   3.903   0.849
  817SOL    HW1 3350   2.186   3.888   0.850
  817SOL    HW2 3351   2.068   4.000   0.839
  818SOL     OW 3352   6.251   2.675   2.173
  818SOL    HW1 3353   6.160   2.688   2.132
  818SOL    HW2 3354   6.243   2.616   2.253
  819SOL     OW 3355   5.777   2.655   2.594
  819SOL    HW1 3356   5.691   2.629   2.638
  819SOL    HW2 3357   5.776   2.625   2.499
  820SOL     OW 3358   2.917   2.663   5.410
  820SOL    HW1 3359   2.822   2.679   5.382
  820SOL    HW2 3360   2.975   2.736   5.374
  821SOL     OW 3361   1.306   4.046   0.944
  821SOL    HW1 3362   1.257   4.124   0.984
  821SOL    HW2 3363   1.398   4.042   0.983
  822SOL     OW 3364   1.667   4.412   4.468
  822SOL    HW1 3365   1.631   4.479   4.403
  822SOL    HW2 3366   1.648   4.441   4.561
  823SOL     OW 3367   5.456   4.075   6.658
  823SOL    HW1 3368   5.375   4.127   6.632
  823SOL    HW2 3369   5.494   4.112   6.742
  824SOL     OW 3370   5.551   1.263   5.925
  824SOL    HW1 3371   5.501   1.252   6.011
  824SOL    HW2 3372   5.508   1.207   5.854
  825SOL     OW 3373   0.690   4.081   1.122
  825SOL    HW1 3374   0.615   4.132   1.080
  825SOL    HW2 3375   0.737   4.139   1.188
  826SOL     OW 3376   5.344   2.722   5.585
  826SOL    HW1 3377   5.379   2.804   5.539
  826SOL    HW2 3378   5.360   2.729   5.683
  827SOL     OW 3379   3.151   4.879   5.651
  827SOL    HW1 3380   3.103   4.957   5.613
  827SOL    HW2 3381   3.244   4.876   5.615
  828SOL     OW 3382   5.131   6.789   6.672
  828SOL    HW1 3383   5.042   6.818   6.706
  828SOL    HW2 3384   5.144   6.824   6.579
  829SOL     OW 3385   3.023   3.812   2.939
  829SOL    HW1 3386   2.966   3.859   3.007
  829SOL    HW2 3387   2.977   3.729   2.909
  830SOL     OW 3388   4.908   5.317   6.409
  830SOL    HW1 3389   4.810   5.302   6.422
  830SOL    HW2 3390   4.954   5.228   6.398
  831SOL     OW 3391   5.790   0.820   6.634
  831SOL    HW1 3392   5.767   0.723   6.644
  831SOL    HW2 3393   5.810   0.840   6.538
  832SOL     OW 3394   3.072   0.593   1.942
  832SOL    HW1 3395   3.029   0.665   1.888
  832SOL    HW2 3396   3.015   0.511   1.941
  833SOL     OW 3397   0.319   3.955   5.415
  833SOL    HW1 3398   0.336   3.861   5.385
  833SOL    HW2 3399   0.405   3.995   5.446
  834SOL     OW 3400   3.760   3.643   0.307
  834SOL    HW1 3401   3.726   3.549   0.293
  834SOL    HW2 3402   3.715   3.704   0.243
  835SOL     OW 3403   3.320   0.449   5.155
  835SOL    HW1 3404   3.284   0.438   5.062
  835SOL    HW2 3405   3.344   0.545   5.170
  836SOL     OW 3406   4.139   6.260   0.121
  836SOL    HW1 3407   4.162   6.262   0.023
  836SOL    HW2 3408   4.180   6.339   0.167
  837SOL     OW 3409   5.431   6.884   0.389
  837SOL    HW1 3410   5.418   6.836   0.302
  837SOL    HW2 3411   5.522   6.926   0.391
  838SOL     OW 3412   2.432   0.797   4.341
  838SOL    HW1 3413   2.445   0.769   4.437
  838SOL    HW2 3414   2.511   0.848   4.310
  839SOL     OW 3415   2.019   2.835   2.260
  839SOL    HW1 3416   2.033   2.844   2.162
  839SOL    HW2 3417   1.998   2.740   2.282
  840SOL     OW 3418   5.882   6.332   6.641
  840SOL    HW1 3419   5.829   6.255   6.676
  840SOL    HW2 3420   5.829   6.380   6.571
  841SOL     OW 3421   4.091   5.090   6.573
  841SOL    HW1 3422   4.048   5.012   6.618
  841SOL    HW2 3423   4.119   5.157   6.641
  842SOL     OW 3424   4.170   7.008   5.097
  842SOL    HW1 3425   4.207   6.918   5.076
  842SOL    HW2 3426   4.244   0.047   5.128
  843SOL     OW 3427   1.566   1.417   0.774
  843SOL    HW1 3428   1.620   1.383   0.697
  843SOL    HW2 3429   1.623   1.478   0.830
  844SOL     OW 3430   6.142   0.514   1.040
  844SOL    HW1 3431   6.062   0.539   1.095
  844SOL    HW2 3432   6.221   0.500   1.100
  845SOL     OW 3433   5.699   4.186   5.080
  845SOL    HW1 3434   5.632   4.244   5.125
  845SOL    HW2 3435   5.727   4.113   5.142
  846SOL     OW 3436   2.062   1.823   6.964
  846SOL    HW1 3437   2.044   1.904   6.909
  846SOL    HW2 3438   2.036   1.741   6.913
  847SOL     OW 3439   1.802   3.248   1.085
  847SOL    HW1 3440   1.887   3.294   1.111
  847SOL    HW2 3441   1.726   3.285   1.139
  848SOL     OW 3442   5.787   0.832   6.299
  848SOL    HW1 3443   5.862   0.794   6.354
  848SOL    HW2 3444   5.824   0.873   6.216
  849SOL     OW 3445   0.754   4.078   6.075
  849SOL    HW1 3446   0.723   4.165   6.112
  849SOL    HW2 3447   0.824   4.093   6.005
  850SOL     OW 3448   5.186   0.880   3.748
  850SOL    HW1 3449   5.141   0.968   3.764
  850SOL    HW2 3450   5.135   0.829   3.679
  851SOL     OW 3451   0.414   1.863   2.279
  851SOL    HW1 3452   0.435   1.900   2.369
  851SOL    HW2 3453   0.500   1.835   2.234
  852SOL     OW 3454   1.557   2.741   0.155
  852SOL    HW1 3455   1.529   2.823   0.204
  852SOL    HW2 3456   1.644   2.758   0.108
  853SOL     OW 3457   1.917   4.369   2.703
  853SOL    HW1 3458   1.995   4.430   2.719
  853SOL    HW2 3459   1.901   4.313   2.784
  854SOL     OW 3460   4.569   5.771   1.506
  854SOL    HW1 3461   4.611   5.850   1.551
  854SOL    HW2 3462   4.600   5.768   1.411
  855SOL     OW 3463   0.230   0.186   2.011
  855SOL    HW1 3464   0.165   0.255   2.043
  855SOL    HW2 3465   0.264   0.211   1.921
  856SOL     OW 3466   1.548   1.758   5.469
  856SOL    HW1 3467   1.448   1.754   5.461
  856SOL    HW2 3468   1.585   1.816   5.397
  857SOL     OW 3469   6.090   4.672   1.907
  857SOL    HW1 3470   6.092   4.642   2.003
  857SOL    HW2 3471   6.179   4.652   1.865
  858SOL     OW 3472   3.159   3.823   1.189
  858SOL    HW1 3473   3.155   3.901   1.127
  858SOL    HW2 3474   3.223   3.843   1.264
  859SOL     OW 3475   4.892   5.514   5.643
  859SOL    HW1 3476   4.872   5.607   5.675
  859SOL    HW2 3477   4.807   5.469   5.614
  860SOL     OW 3478   4.585   3.687   0.498
  860SOL    HW1 3479   4.541   3.692   0.588
  860SOL    HW2 3480   4.634   3.600   0.490
  861SOL     OW 3481   2.354   0.031   3.593
  861SOL    HW1 3482   2.365   6.990   3.515
  861SOL    HW2 3483   2.408   7.018   3.670
  862SOL     OW 3484   0.532   3.635   5.325
  862SOL    HW1 3485   0.598   3.629   5.250
  862SOL    HW2 3486   0.441   3.653   5.288
  863SOL     OW 3487   6.623   0.487   1.022
  863SOL    HW1 3488   6.690   0.512   0.953
  863SOL    HW2 3489   6.623   0.388   1.034
  864SOL     OW 3490   4.290   4.712   3.562
  864SOL    HW1 3491   4.245   4.719   3.651
  864SOL    HW2 3492   4.318   4.803   3.531
  865SOL     OW 3493   0.817   5.974   5.833
  865SOL    HW1 3494   0.723   5.939   5.836
  865SOL    HW2 3495   0.817   6.070   5.861
  866SOL     OW 3496   1.768   1.906   1.961
  866SOL    HW1 3497   1.802   1.884   2.052
  866SOL    HW2 3498   1.675   1.943   1.968
  867SOL     OW 3499   3.602   3.766   0.498
  867SOL    HW1 3500   3.672   3.701   0.470
  867SOL    HW2 3501   3.602   3.844   0.436
  868SOL     OW 3502   5.442   0.456   1.207
  868SOL    HW1 3503   5.490   0.458   1.295
  868SOL    HW2 3504   5.479   0.381   1.151
  869SOL     OW 3505   6.256   5.182   3.220
  869SOL    HW1 3506   6.326   5.143   3.161
  869SOL    HW2 3507   6.292   5.263   3.266
  870SOL     OW 3508   4.137   3.120   0.960
  870SOL    HW1 3509   4.204   3.136   1.033
  870SOL    HW2 3510   4.076   3.199   0.952
  871SOL     OW 3511   4.876   3.157   3.273
  871SOL    HW1 3512   4.806   3.088   3.293
  871SOL    HW2 3513   4.890   3.214   3.354
  872SOL     OW 3514   5.412   4.565   3.716
  872SOL    HW1 3515   5.455   4.500   3.653
  872SOL    HW2 3516   5.476   4.586   3.790
  873SOL     OW 3517   5.862   6.724   4.335
  873SOL    HW1 3518   5.901   6.697   4.248
  873SOL    HW2 3519   5.848   6.644   4.393
  874SOL     OW 3520   0.873   4.425   5.772
  874SOL    HW1 3521   0.899   4.343   5.823
  874SOL    HW2 3522   0.932   4.501   5.799
  875SOL     OW 3523   3.665   2.839   0.600
  875SOL    HW1 3524   3.663   2.912   0.532
  875SOL    HW2 3525   3.672   2.751   0.554
  876SOL     OW 3526   0.612   5.426   3.125
  876SOL    HW1 3527   0.703   5.460   3.101
  876SOL    HW2 3528   0.557   5.415   3.043
  877SOL     OW 3529   4.159   3.899   6.995
  877SOL    HW1 3530   4.239   3.864   6.945
  877SOL    HW2 3531   4.112   3.823   0.017
  878SOL     OW 3532   3.580   5.763   5.184
  878SOL    HW1 3533   3.605   5.859   5.200
  878SOL    HW2 3534   3.662   5.706   5.192
  879SOL     OW 3535   2.717   2.137   1.943
  879SOL    HW1 3536   2.650   2.160   2.013
  879SOL    HW2 3537   2.779   2.214   1.928
  880SOL     OW 3538   3.457   3.841   5.675
  880SOL    HW1 3539   3.477   3.914   5.610
  880SOL    HW2 3540   3.537   3.824   5.733
  881SOL     OW 3541   4.517   4.022   5.346
  881SOL    HW1 3542   4.609   4.044   5.377
  881SOL    HW2 3543   4.464   4.106   5.335
  882SOL     OW 3544   1.206   1.785   4.381
  882SOL    HW1 3545   1.247   1.694   4.391
  882SOL    HW2 3546   1.264   1.852   4.426
  883SOL     OW 3547   4.571   5.825   6.005
  883SOL    HW1 3548   4.669   5.840   5.995
  883SOL    HW2 3549   4.524   5.854   5.922
  884SOL     OW 3550   0.328   4.167   0.078
  884SOL    HW1 3551   0.361   4.149   0.171
  884SOL    HW2 3552   0.329   4.082   0.025
  885SOL     OW 3553   5.002   5.647   6.070
  885SOL    HW1 3554   4.920   5.674   6.121
  885SOL    HW2 3555   5.017   5.711   5.994
  886SOL     OW 3556   3.730   0.449   0.889
  886SOL    HW1 3557   3.711   0.355   0.914
  886SOL    HW2 3558   3.829   0.464   0.888
  887SOL     OW 3559   3.777   6.921   3.800
  887SOL    HW1 3560   3.874   6.941   3.814
  887SOL    HW2 3561   3.722   6.986   3.852
  888SOL     OW 3562   6.045   6.197   2.588
  888SOL    HW1 3563   6.139   6.231   2.593
  888SOL    HW2 3564   6.043   6.101   2.618
  889SOL     OW 3565   1.959   6.337   5.622
  889SOL    HW1 3566   1.874   6.285   5.631
  889SOL    HW2 3567   1.988   6.369   5.713
  890SOL     OW 3568   2.137   4.910   2.175
  890SOL    HW1 3569   2.178   4.896   2.265
  890SOL    HW2 3570   2.100   5.003   2.169
  891SOL     OW 3571   5.917   4.262   1.051
  891SOL    HW1 3572   5.893   4.284   0.957
  891SOL    HW2 3573   5.958   4.171   1.055
  892SOL     OW 3574   4.005   4.175   5.784
  892SOL    HW1 3575   3.911   4.161   5.752
  892SOL    HW2 3576   4.064   4.196   5.706
  893SOL     OW 3577   1.868   1.326   2.091
  893SOL    HW1 3578   1.938   1.355   2.026
  893SOL    HW2 3579   1.912   1.288   2.173
  894SOL     OW 3580   1.673   2.293   3.695
  894SOL    HW1 3581   1.646   2.386   3.672
  894SOL    HW2 3582   1.667   2.280   3.794
  895SOL     OW 3583   1.394   5.849   4.794
  895SOL    HW1 3584   1.303   5.888   4.809
  895SOL    HW2 3585   1.463   5.921   4.803
  896SOL     OW 3586   5.956   6.774   2.108
  896SOL    HW1 3587   5.927   6.869   2.118
  896SOL    HW2 3588   5.878   6.714   2.124
  897SOL     OW 3589   4.857   0.809   0.512
  897SOL    HW1 3590   4.940   0.797   0.457
  897SOL    HW2 3591   4.880   0.799   0.609
  898SOL     OW 3592   4.308   6.232   2.697
  898SOL    HW1 3593   4.300   6.210   2.794
  898SOL    HW2 3594   4.222   6.272   2.665
  899SOL     OW 3595   0.312   5.242   0.278
  899SOL    HW1 3596   0.282   5.227   0.373
  899SOL    HW2 3597   0.259   5.316   0.237
  900SOL     OW 3598   4.730   6.122   1.150
  900SOL    HW1 3599   4.631   6.112   1.153
  900SOL    HW2 3600   4.758   6.195   1.212
  901SOL     OW 3601   0.951   1.022   5.344
  901SOL    HW1 3602   0.908   1.090   5.403
  901SOL    HW2 3603   0.902   0.935   5.351
  902SOL     OW 3604   0.145   2.341   0.041
  902SOL    HW1 3605   0.060   2.291   0.056
  902SOL    HW2 3606   0.221   2.277   0.033
  903SOL     OW 3607   7.002   3.761   6.349
  903SOL    HW1 3608   6.948   3.806   6.420
  903SOL    HW2 3609   0.018   3.676   6.386
  904SOL     OW 3610   1.849   2.796   3.775
  904SOL    HW1 3611   1.812   2.843   3.695
  904SOL    HW2 3612   1.787   2.723   3.803
  905SOL     OW 3613   4.631   3.622   6.271
  905SOL    HW1 3614   4.638   3.542   6.331
  905SOL    HW2 3615   4.653   3.594   6.177
  906SOL     OW 3616   0.851   3.296   5.850
  906SOL    HW1 3617   0.889   3.331   5.764
  906SOL    HW2 3618   0.754   3.318   5.855
  907SOL     OW 3619   5.934   3.002   2.776
  907SOL    HW1 3620   5.962   2.907   2.787
  907SOL    HW2 3621   5.986   3.043   2.701
  908SOL     OW 3622   1.873   6.059   3.300
  908SOL    HW1 3623   1.873   5.960   3.315
  908SOL    HW2 3624   1.780   6.094   3.308
  909SOL     OW 3625   2.912   6.530   2.072
  909SOL    HW1 3626   2.896   6.572   1.983
  909SOL    HW2 3627   2.982   6.460   2.065
  910SOL     OW 3628   2.712   0.521   1.308
  910SOL    HW1 3629   2.616   0.505   1.286
  910SOL    HW2 3630   2.735   0.617   1.292
  911SOL     OW 3631   0.248   5.381   1.261
  911SOL    HW1 3632   0.312   5.373   1.184
  911SOL    HW2 3633   0.172   5.318   1.247
  912SOL     OW 3634   6.230   0.683   4.412
  912SOL    HW1 3635   6.190   0.751   4.474
  912SOL    HW2 3636   6.256   0.602   4.464
  913SOL     OW 3637   1.689   0.635   3.253
  913SOL    HW1 3638   1.784   0.667   3.251
  913SOL    HW2 3639   1.642   0.668   3.171
  914SOL     OW 3640   2.651   6.016   4.916
  914SOL    HW1 3641   2.636   6.103   4.961
  914SOL    HW2 3642   2.656   6.030   4.817
  915SOL     OW 3643   1.266   3.588   6.913
  915SOL    HW1 3644   1.287   3.638   6.829
  915SOL    HW2 3645   1.347   3.585   6.971
  916SOL     OW 3646   1.678   2.625   1.713
  916SOL    HW1 3647   1.748   2.607   1.645
  916SOL    HW2 3648   1.609   2.553   1.711
  917SOL     OW 3649   5.282   0.563   2.211
  917SOL    HW1 3650   5.220   0.520   2.277
  917SOL    HW2 3651   5.359   0.604   2.259
  918SOL     OW 3652   2.475   6.533   6.708
  918SOL    HW1 3653   2.418   6.593   6.650
  918SOL    HW2 3654   2.571   6.559   6.698
  919SOL     OW 3655   6.711   5.785   2.617
  919SOL    HW1 3656   6.710   5.788   2.717
  919SOL    HW2 3657   6.798   5.821   2.584
  920SOL     OW 3658   2.246   5.905   3.333
  920SOL    HW1 3659   2.229   5.945   3.243
  920SOL    HW2 3660   2.215   5.968   3.404
  921SOL     OW 3661   4.717   4.220   4.112
  921SOL    HW1 3662   4.687   4.229   4.017
  921SOL    HW2 3663   4.766   4.133   4.124
  922SOL     OW 3664   3.500   2.777   5.830
  922SOL    HW1 3665   3.467   2.683   5.837
  922SOL    HW2 3666   3.496   2.806   5.734
  923SOL     OW 3667   2.994   4.444   6.227
  923SOL    HW1 3668   3.001   4.411   6.321
  923SOL    HW2 3669   2.944   4.378   6.171
  924SOL     OW 3670   6.867   2.805   2.540
  924SOL    HW1 3671   6.911   2.838   2.624
  924SOL    HW2 3672   6.923   2.733   2.499
  925SOL     OW 3673   6.855   1.784   5.909
  925SOL    HW1 3674   6.791   1.860   5.919
  925SOL    HW2 3675   6.947   1.820   5.890
  926SOL     OW 3676   6.706   1.260   0.609
  926SOL    HW1 3677   6.668   1.248   0.517
  926SOL    HW2 3678   6.669   1.191   0.670
  927SOL     OW 3679   5.535   4.028   3.122
  927SOL    HW1 3680   5.566   4.120   3.148
  927SOL    HW2 3681   5.578   3.960   3.181
  928SOL     OW 3682   1.353   6.504   0.289
  928SOL    HW1 3683   1.344   6.470   0.383
  928SOL    HW2 3684   1.274   6.474   0.235
  929SOL     OW 3685   0.672   0.791   1.246
  929SOL    HW1 3686   0.586   0.839   1.259
  929SOL    HW2 3687   0.744   0.836   1.299
  930SOL     OW 3688   5.574   6.025   4.835
  930SOL    HW1 3689   5.585   5.936   4.792
  930SOL    HW2 3690   5.652   6.044   4.895
  931SOL     OW 3691   5.808   3.370   2.699
  931SOL    HW1 3692   5.823   3.468   2.682
  931SOL    HW2 3693   5.710   3.352   2.707
  932SOL     OW 3694   2.716   6.579   2.765
  932SOL    HW1 3695   2.774   6.584   2.846
  932SOL    HW2 3696   2.722   6.487   2.726
  933SOL     OW 3697   0.824   5.783   3.208
  933SOL    HW1 3698   0.896   5.734   3.160
  933SOL    HW2 3699   0.864   5.842   3.278
  934SOL     OW 3700   1.553   0.873   4.549
  934SOL    HW1 3701   1.506   0.957   4.573
  934SOL    HW2 3702   1.536   0.851   4.453
  935SOL     OW 3703   5.165   3.934   5.329
  935SOL    HW1 3704   5.069   3.913   5.314
  935SOL    HW2 3705   5.179   3.959   5.425
  936SOL     OW 3706   1.560   1.333   6.311
  936SOL    HW1 3707   1.520   1.271   6.379
  936SOL    HW2 3708   1.633   1.285   6.261
  937SOL     OW 3709   4.842   1.554   4.557
  937SOL    HW1 3710   4.938   1.539   4.582
  937SOL    HW2 3711   4.783   1.501   4.617
  938SOL     OW 3712   0.482   5.373   6.357
  938SOL    HW1 3713   0.406   5.312   6.336
  938SOL    HW2 3714   0.561   5.318   6.384
  939SOL     OW 3715   4.736   0.645   5.437
  939SOL    HW1 3716   4.800   0.579   5.477
  939SOL    HW2 3717   4.644   0.629   5.473
  940SOL     OW 3718   0.737   3.017   2.614
  940SOL    HW1 3719   0.831   3.047   2.630
  940SOL    HW2 3720   0.699   3.067   2.536
  941SOL     OW 3721   6.660   0.511   4.483
  941SOL    HW1 3722   6.666   0.589   4.546
  941SOL    HW2 3723   6.751   0.471   4.471
  942SOL     OW 3724   4.912   0.269   3.880
  942SOL    HW1 3725   4.866   0.356   3.899
  942SOL    HW2 3726   4.906   0.250   3.782
  943SOL     OW 3727   1.275   3.698   3.781
  943SOL    HW1 3728   1.367   3.659   3.785
  943SOL    HW2 3729   1.225   3.659   3.704
  944SOL     OW 3730   6.674   3.984   5.675
  944SOL    HW1 3731   6.764   4.027   5.685
  944SOL    HW2 3732   6.611   4.048   5.630
  945SOL     OW 3733   6.622   4.787   5.704
  945SOL    HW1 3734   6.600   4.773   5.608
  945SOL    HW2 3735   6.716   4.756   5.722
  946SOL     OW 3736   4.406   3.321   5.876
  946SOL    HW1 3737   4.467   3.334   5.797
  946SOL    HW2 3738   4.327   3.382   5.867
  947SOL     OW 3739   3.420   2.932   4.050
  947SOL    HW1 3740   3.363   2.971   4.122
  947SOL    HW2 3741   3.366   2.869   3.994
  948SOL     OW 3742   3.985   0.325   0.962
  948SOL    HW1 3743   4.077   0.363   0.973
  948SOL    HW2 3744   3.982   0.268   0.880
  949SOL     OW 3745   1.087   6.602   6.117
  949SOL    HW1 3746   1.008   6.661   6.098
  949SOL    HW2 3747   1.170   6.658   6.122
  950SOL     OW 3748   4.281   4.821   1.831
  950SOL    HW1 3749   4.364   4.789   1.787
  950SOL    HW2 3750   4.280   4.793   1.927
  951SOL     OW 3751   1.898   0.711   2.743
  951SOL    HW1 3752   1.881   0.613   2.739
  951SOL    HW2 3753   1.941   0.734   2.831
  952SOL     OW 3754   5.599   1.777   2.676
  952SOL    HW1 3755   5.505   1.806   2.661
  952SOL    HW2 3756   5.607   1.737   2.768
  953SOL     OW 3757   5.166   5.654   4.617
  953SOL    HW1 3758   5.231   5.682   4.688
  953SOL    HW2 3759   5.108   5.580   4.652
  954SOL     OW 3760   4.999   5.717   0.404
  954SOL    HW1 3761   4.952   5.684   0.322
  954SOL    HW2 3762   5.063   5.790   0.379
  955SOL     OW 3763   0.091   5.018   3.266
  955SOL    HW1 3764   0.187   5.034   3.286
  955SOL    HW2 3765   0.076   4.920   3.251
  956SOL     OW 3766   0.182   2.158   2.653
  956SOL    HW1 3767   0.241   2.140   2.574
  956SOL    HW2 3768   0.089   2.128   2.634
  957SOL     OW 3769   1.043   5.287   4.448
  957SOL    HW1 3770   0.958   5.308   4.496
  957SOL    HW2 3771   1.061   5.356   4.378
  958SOL     OW 3772   4.811   2.322   2.595
  958SOL    HW1 3773   4.853   2.404   2.558
  958SOL    HW2 3774   4.739   2.290   2.533
  959SOL     OW 3775   3.225   5.699   3.554
  959SOL    HW1 3776   3.154   5.636   3.521
  959SOL    HW2 3777   3.304   5.694   3.494
  960SOL     OW 3778   0.223   5.993   3.239
  960SOL    HW1 3779   0.211   5.898   3.266
  960SOL    HW2 3780   0.266   5.998   3.150
  961SOL     OW 3781   4.585   0.122   3.415
  961SOL    HW1 3782   4.659   0.079   3.363
  961SOL    HW2 3783   4.497   0.082   3.387
  962SOL     OW 3784   1.193   0.805   4.035
  962SOL    HW1 3785   1.135   0.801   3.954
  962SOL    HW2 3786   1.270   0.742   4.023
  963SOL     OW 3787   6.915   2.474   5.981
  963SOL    HW1 3788   6.995   2.452   6.036
  963SOL    HW2 3789   6.891   2.570   5.993
  964SOL     OW 3790   6.117   4.218   0.151
  964SOL    HW1 3791   6.186   4.157   0.190
  964SOL    HW2 3792   6.133   4.312   0.182
  965SOL     OW 3793   5.715   1.747   0.762
  965SOL    HW1 3794   5.728   1.841   0.791
  965SOL    HW2 3795   5.735   1.739   0.664
  966SOL     OW 3796   5.278   2.763   2.024
  966SOL    HW1 3797   5.339   2.784   2.101
  966SOL    HW2 3798   5.316   2.803   1.940
  967SOL     OW 3799   2.685   4.762   1.564
  967SOL    HW1 3800   2.611   4.695   1.577
  967SOL    HW2 3801   2.734   4.774   1.650
  968SOL     OW 3802   3.808   1.778   2.397
  968SOL    HW1 3803   3.709   1.768   2.401
  968SOL    HW2 3804   3.833   1.872   2.421
  969SOL     OW 3805   3.657   5.932   6.827
  969SOL    HW1 3806   3.719   5.994   6.874
  969SOL    HW2 3807   3.564   5.970   6.828
  970SOL     OW 3808   4.609   1.397   5.610
  970SOL    HW1 3809   4.708   1.404   5.619
  970SOL    HW2 3810   4.586   1.309   5.567
  971SOL     OW 3811   6.738   2.248   2.653
  971SOL    HW1 3812   6.831   2.222   2.624
  971SOL    HW2 3813   6.684   2.165   2.669
  972SOL     OW 3814   5.599   4.104   1.651
  972SOL    HW1 3815   5.582   4.014   1.612
  972SOL    HW2 3816   5.695   4.130   1.636
  973SOL     OW 3817   6.836   4.527   6.916
  973SOL    HW1 3818   6.833   4.513   6.817
  973SOL    HW2 3819   6.873   4.618   6.936
  974SOL     OW 3820   5.439   0.235   2.172
  974SOL    HW1 3821   5.341   0.248   2.186
  974SOL    HW2 3822   5.489   0.316   2.203
  975SOL     OW 3823   1.760   5.790   6.710
  975SOL    HW1 3824   1.849   5.820   6.676
  975SOL    HW2 3825   1.698   5.776   6.633
  976SOL     OW 3826   6.348   3.339   2.971
  976SOL    HW1 3827   6.425   3.338   2.908
  976SOL    HW2 3828   6.366   3.404   3.045
  977SOL     OW 3829   1.429   0.511   3.346
  977SOL    HW1 3830   1.436   0.416   3.377
  977SOL    HW2 3831   1.520   0.546   3.324
  978SOL     OW 3832   4.907   3.574   5.660
  978SOL    HW1 3833   4.882   3.478   5.670
  978SOL    HW2 3834   4.882   3.605   5.568
  979SOL     OW 3835   0.171   2.078   0.900
  979SOL    HW1 3836   0.198   2.094   0.994
  979SOL    HW2 3837   0.205   1.990   0.869
  980SOL     OW 3838   4.173   2.294   3.949
  980SOL    HW1 3839   4.231   2.217   3.977
  980SOL    HW2 3840   4.226   2.379   3.958
  981SOL     OW 3841   1.323   2.034   5.569
  981SOL    HW1 3842   1.371   2.012   5.654
  981SOL    HW2 3843   1.224   2.034   5.586
  982SOL     OW 3844   2.457   1.833   3.521
  982SOL    HW1 3845   2.436   1.904   3.455
  982SOL    HW2 3846   2.464   1.873   3.612
  983SOL     OW 3847   5.686   2.168   4.689
  983SOL    HW1 3848   5.672   2.091   4.751
  983SOL    HW2 3849   5.769   2.153   4.635
  984SOL     OW 3850   2.925   1.813   4.062
  984SOL    HW1 3851   2.914   1.777   4.155
  984SOL    HW2 3852   2.835   1.828   4.022
  985SOL     OW 3853   5.212   5.071   6.499
  985SOL    HW1 3854   5.274   5.015   6.443
  985SOL    HW2 3855   5.122   5.073   6.457
  986SOL     OW 3856   5.611   4.074   0.976
  986SOL    HW1 3857   5.565   4.010   1.038
  986SOL    HW2 3858   5.710   4.056   0.977
  987SOL     OW 3859   4.284   7.013   2.009
  987SOL    HW1 3860   4.319   0.062   2.071
  987SOL    HW2 3861   4.189   0.011   1.986
  988SOL     OW 3862   3.298   3.165   3.049
  988SOL    HW1 3863   3.366   3.099   3.017
  988SOL    HW2 3864   3.208   3.142   3.013
  989SOL     OW 3865   6.580   0.809   5.068
  989SOL    HW1 3866   6.573   0.850   5.159
  989SOL    HW2 3867   6.494   0.762   5.046
  990SOL     OW 3868   4.357   0.721   1.920
  990SOL    HW1 3869   4.340   0.630   1.883
  990SOL    HW2 3870   4.389   0.782   1.848
  991SOL     OW 3871   1.677   2.777   4.886
  991SOL    HW1 3872   1.598   2.760   4.826
  991SOL    HW2 3873   1.651   2.842   4.957
  992SOL     OW 3874   0.167   2.823   2.469
  992SOL    HW1 3875   0.215   2.911   2.473
  992SOL    HW2 3876   0.072   2.839   2.440
  993SOL     OW 3877   1.577   4.644   2.111
  993SOL    HW1 3878   1.601   4.552   2.079
  993SOL    HW2 3879   1.632   4.711   2.062
  994SOL     OW 3880   3.212   3.951   2.334
  994SOL    HW1 3881   3.123   3.906   2.336
  994SOL    HW2 3882   3.242   3.971   2.427
  995SOL     OW 3883   3.825   3.183   5.321
  995SOL    HW1 3884   3.912   3.192   5.369
  995SOL    HW2 3885   3.756   3.145   5.384
  996SOL     OW 3886   1.901   4.420   4.276
  996SOL    HW1 3887   1.973   4.452   4.337
  996SOL    HW2 3888   1.869   4.496   4.220
  997SOL     OW 3889   1.002   0.720   3.254
  997SOL    HW1 3890   1.025   0.747   3.161
  997SOL    HW2 3891   1.075   0.663   3.292
  998SOL     OW 3892   3.916   6.834   4.574
  998SOL    HW1 3893   3.955   6.756   4.623
  998SOL    HW2 3894   3.833   6.806   4.526
  999SOL     OW 3895   5.253   4.406   2.136
  999SOL    HW1 3896   5.312   4.413   2.216
  999SOL    HW2 3897   5.305   4.424   2.053
 1000SOL     OW 3898   1.223   0.837   1.825
 1000SOL    HW1 3899   1.212   0.918   1.882
 1000SOL    HW2 3900   1.320   0.812   1.822
 1001SOL     OW 3901   5.930   6.682   0.805
 1001SOL    HW1 3902   6.029   6.671   0.794
 1001SOL    HW2 3903   5.883   6.599   0.774
 1002SOL     OW 3904   6.163   1.756   0.162
 1002SOL    HW1 3905   6.138   1.846   0.197
 1002SOL    HW2 3906   6.222   1.710   0.229
 1003SOL     OW 3907   2.374   5.771   1.496
 1003SOL    HW1 3908   2.379   5.782   1.397
 1003SOL    HW2 3909   2.392   5.675   1.520
 1004SOL     OW 3910   0.257   0.300   1.773
 1004SOL    HW1 3911   0.223   0.211   1.744
 1004SOL    HW2 3912   0.180   0.362   1.790
 1005SOL     OW 3913   0.823   2.231   3.343
 1005SOL    HW1 3914   0.910   2.193   3.314
 1005SOL    HW2 3915   0.819   2.328   3.317
 1006SOL     OW 3916   1.298   4.852   0.867
 1006SOL    HW1 3917   1.357   4.929   0.845
 1006SOL    HW2 3918   1.312   4.779   0.799
 1007SOL     OW 3919   5.104   6.991   4.517
 1007SOL    HW1 3920   5.064   6.916   4.464
 1007SOL    HW2 3921   5.124   0.046   4.457
 1008SOL     OW 3922   2.088   3.423   4.991
 1008SOL    HW1 3923   2.010   3.485   5.002
 1008SOL    HW2 3924   2.144   3.425   5.074
 1009SOL     OW 3925   0.319   5.584   4.964
 1009SOL    HW1 3926   0.355   5.493   4.984
 1009SOL    HW2 3927   0.346   5.612   4.872
 1010SOL     OW 3928   3.933   2.624   5.772
 1010SOL    HW1 3929   4.033   2.621   5.776
 1010SOL    HW2 3930   3.903   2.591   5.682
 1011SOL     OW 3931   2.285   5.281   2.302
 1011SOL    HW1 3932   2.336   5.292   2.216
 1011SOL    HW2 3933   2.346   5.299   2.379
 1012SOL     OW 3934   6.357   0.565   1.191
 1012SOL    HW1 3935   6.354   0.659   1.157
 1012SOL    HW2 3936   6.440   0.520   1.157
 1013SOL     OW 3937   0.824   0.924   5.863
 1013SOL    HW1 3938   0.761   1.002   5.870
 1013SOL    HW2 3939   0.902   0.949   5.805
 1014SOL     OW 3940   4.908   5.937   6.534
 1014SOL    HW1 3941   4.914   6.009   6.465
 1014SOL    HW2 3942   4.970   5.958   6.610
 1015SOL     OW 3943   2.276   6.620   5.515
 1015SOL    HW1 3944   2.206   6.552   5.491
 1015SOL    HW2 3945   2.367   6.581   5.501
 1016SOL     OW 3946   3.860   3.356   0.142
 1016SOL    HW1 3947   3.958   3.371   0.153
 1016SOL    HW2 3948   3.842   3.313   0.054
 1017SOL     OW 3949   4.019   2.402   1.401
 1017SOL    HW1 3950   4.098   2.463   1.394
 1017SOL    HW2 3951   3.937   2.456   1.420
 1018SOL     OW 3952   0.632   3.287   4.333
 1018SOL    HW1 3953   0.586   3.347   4.398
 1018SOL    HW2 3954   0.722   3.324   4.311
 1019SOL     OW 3955   6.856   0.555   0.848
 1019SOL    HW1 3956   6.947   0.523   0.873
 1019SOL    HW2 3957   6.827   0.512   0.763
 1020SOL     OW 3958   0.823   6.744   1.171
 1020SOL    HW1 3959   0.811   6.723   1.074
 1020SOL    HW2 3960   0.776   6.675   1.226
 1021SOL     OW 3961   5.333   0.711   1.199
 1021SOL    HW1 3962   5.352   0.616   1.177
 1021SOL    HW2 3963   5.399   0.770   1.152
 1022SOL     OW 3964   3.299   4.705   6.242
 1022SOL    HW1 3965   3.273   4.714   6.338
 1022SOL    HW2 3966   3.219   4.678   6.188
 1023SOL     OW 3967   1.132   0.020   2.562
 1023SOL    HW1 3968   1.143   0.112   2.600
 1023SOL    HW2 3969   1.051   0.018   2.505
 1024SOL     OW 3970   6.849   3.002   4.063
 1024SOL    HW1 3971   6.908   3.074   4.099
 1024SOL    HW2 3972   6.763   3.042   4.030
 1025SOL     OW 3973   2.742   2.823   1.022
 1025SOL    HW1 3974   2.695   2.893   1.076
 1025SOL    HW2 3975   2.684   2.795   0.945
 1026SOL     OW 3976   2.232   2.725   1.256
 1026SOL    HW1 3977   2.242   2.644   1.197
 1026SOL    HW2 3978   2.253   2.807   1.204
 1027SOL     OW 3979   2.748   6.631   0.735
 1027SOL    HW1 3980   2.823   6.692   0.757
 1027SOL    HW2 3981   2.782   6.554   0.681
 1028SOL     OW 3982   2.930   6.410   0.019
 1028SOL    HW1 3983   2.880   6.481   0.070
 1028SOL    HW2 3984   2.949   6.443   6.948
 1029SOL     OW 3985   2.019   0.412   0.115
 1029SOL    HW1 3986   2.048   0.489   0.173
 1029SOL    HW2 3987   2.017   0.329   0.170
 1030SOL     OW 3988   3.426   3.775   1.668
 1030SOL    HW1 3989   3.486   3.699   1.643
 1030SOL    HW2 3990   3.422   3.784   1.768
 1031SOL     OW 3991   4.737   5.273   0.827
 1031SOL    HW1 3992   4.728   5.363   0.783
 1031SOL    HW2 3993   4.670   5.210   0.787
 1032SOL     OW 3994   2.156   1.571   4.772
 1032SOL    HW1 3995   2.233   1.592   4.833
 1032SOL    HW2 3996   2.081   1.635   4.790
 1033SOL     OW 3997   1.531   6.165   0.741
 1033SOL    HW1 3998   1.591   6.107   0.686
 1033SOL    HW2 3999   1.581   6.197   0.822
 1034SOL     OW 4000   0.340   5.609   5.308
 1034SOL    HW1 4001   0.278   5.538   5.275
 1034SOL    HW2 4002   0.286   5.684   5.346
 1035SOL     OW 4003   1.316   1.519   4.401
 1035SOL    HW1 4004   1.235   1.463   4.382
 1035SOL    HW2 4005   1.386   1.500   4.332
 1036SOL     OW 4006   2.734   1.136   2.279
 1036SOL    HW1 4007   2.694   1.048   2.252
 1036SOL    HW2 4008   2.832   1.124   2.293
 1037SOL     OW 4009   1.480   0.709   1.822
 1037SOL    HW1 4010   1.493   0.693   1.920
 1037SOL    HW2 4011   1.569   0.718   1.778
 1038SOL     OW 4012   1.500   0.226   5.788
 1038SOL    HW1 4013   1.411   0.272   5.784
 1038SOL    HW2 4014   1.487   0.129   5.805
 1039SOL     OW 4015   3.458   3.246   5.757
 1039SOL    HW1 4016   3.439   3.263   5.853
 1039SOL    HW2 4017   3.375   3.213   5.711
 1040SOL     OW 4018   4.706   2.797   2.522
 1040SOL    HW1 4019   4.762   2.864   2.571
 1040SOL    HW2 4020   4.704   2.819   2.425
 1041SOL     OW 4021   6.213   6.956   4.481
 1041SOL    HW1 4022   6.114   6.950   4.471
 1041SOL    HW2 4023   6.257   6.893   4.417
 1042SOL     OW 4024   3.832   5.247   2.619
 1042SOL    HW1 4025   3.784   5.210   2.540
 1042SOL    HW2 4026   3.797   5.339   2.639
 1043SOL     OW 4027   3.797   1.308   4.492
 1043SOL    HW1 4028   3.855   1.374   4.540
 1043SOL    HW2 4029   3.763   1.348   4.407
 1044SOL     OW 4030   4.979   4.397   2.181
 1044SOL    HW1 4031   5.076   4.400   2.156
 1044SOL    HW2 4032   4.927   4.351   2.110
 1045SOL     OW 4033   3.870   6.189   2.180
 1045SOL    HW1 4034   3.800   6.117   2.177
 1045SOL    HW2 4035   3.939   6.171   2.110
 1046SOL     OW 4036   1.140   0.330   0.389
 1046SOL    HW1 4037   1.049   0.369   0.401
 1046SOL    HW2 4038   1.203   0.371   0.455
 1047SOL     OW 4039   1.549   0.176   3.081
 1047SOL    HW1 4040   1.600   0.205   3.161
 1047SOL    HW2 4041   1.599   0.202   2.998
 1048SOL     OW 4042   5.707   6.534   4.885
 1048SOL    HW1 4043   5.622   6.511   4.838
 1048SOL    HW2 4044   5.735   6.626   4.858
 1049SOL     OW 4045   6.064   5.431   4.109
 1049SOL    HW1 4046   6.030   5.391   4.194
 1049SOL    HW2 4047   6.017   5.389   4.031
 1050SOL     OW 4048   4.363   5.466   0.886
 1050SOL    HW1 4049   4.460   5.446   0.900
 1050SOL    HW2 4050   4.349   5.506   0.796
 1051SOL     OW 4051   2.526   5.921   0.634
 1051SOL    HW1 4052   2.522   5.822   0.643
 1051SOL    HW2 4053   2.596   5.946   0.568
 1052SOL     OW 4054   3.757   0.588   4.849
 1052SOL    HW1 4055   3.665   0.616   4.878
 1052SOL    HW2 4056   3.749   0.518   4.778
 1053SOL     OW 4057   5.319   5.317   3.272
 1053SOL    HW1 4058   5.261   5.333   3.193
 1053SOL    HW2 4059   5.415   5.329   3.246
 1054SOL     OW 4060   2.225   3.676   5.649
 1054SOL    HW1 4061   2.263   3.767   5.637
 1054SOL    HW2 4062   2.165   3.675   5.730
 1055SOL     OW 4063   5.167   6.627   3.618
 1055SOL    HW1 4064   5.134   6.720   3.632
 1055SOL    HW2 4065   5.251   6.613   3.671
 1056SOL     OW 4066   1.850   4.683   5.855
 1056SOL    HW1 4067   1.879   4.589   5.835
 1056SOL    HW2 4068   1.903   4.747   5.799
 1057SOL     OW 4069   3.424   3.174   2.717
 1057SOL    HW1 4070   3.475   3.174   2.631
 1057SOL    HW2 4071   3.367   3.092   2.722
 1058SOL     OW 4072   5.134   1.530   2.822
 1058SOL    HW1 4073   5.152   1.611   2.878
 1058SOL    HW2 4074   5.188   1.453   2.856
 1059SOL     OW 4075   2.488   0.506   1.594
 1059SOL    HW1 4076   2.565   0.454   1.628
 1059SOL    HW2 4077   2.430   0.448   1.537
 1060SOL     OW 4078   0.072   4.520   4.549
 1060SOL    HW1 4079   0.001   4.553   4.610
 1060SOL    HW2 4080   0.081   4.420   4.559
 1061SOL     OW 4081   5.551   3.799   1.610
 1061SOL    HW1 4082   5.571   3.793   1.513
 1061SOL    HW2 4083   5.635   3.781   1.663
 1062SOL     OW 4084   5.557   4.102   5.664
 1062SOL    HW1 4085   5.598   4.081   5.753
 1062SOL    HW2 4086   5.485   4.036   5.644
 1063SOL     OW 4087   1.962   4.795   1.445
 1063SOL    HW1 4088   1.974   4.760   1.352
 1063SOL    HW2 4089   1.933   4.891   1.441
 1064SOL     OW 4090   1.868   4.591   2.079
 1064SOL    HW1 4091   1.843   4.593   2.176
 1064SOL    HW2 4092   1.825   4.511   2.036
 1065SOL     OW 4093   4.411   6.950   4.210
 1065SOL    HW1 4094   4.424   6.870   4.151
 1065SOL    HW2 4095   4.326   6.997   4.183
 1066SOL     OW 4096   4.812   0.466   4.052
 1066SOL    HW1 4097   4.741   0.506   4.110
 1066SOL    HW2 4098   4.894   0.448   4.106
 1067SOL     OW 4099   0.898   3.619   0.450
 1067SOL    HW1 4100   0.933   3.707   0.482
 1067SOL    HW2 4101   0.975   3.559   0.428
 1068SOL     OW 4102   4.833   4.969   2.567
 1068SOL    HW1 4103   4.898   4.998   2.496
 1068SOL    HW2 4104   4.811   4.873   2.554
 1069SOL     OW 4105   4.822   4.744   0.495
 1069SOL    HW1 4106   4.759   4.692   0.553
 1069SOL    HW2 4107   4.775   4.825   0.459
 1070SOL     OW 4108   0.801   0.309   2.206
 1070SOL    HW1 4109   0.739   0.356   2.269
 1070SOL    HW2 4110   0.768   0.319   2.112
 1071SOL     OW 4111   2.159   0.650   3.327
 1071SOL    HW1 4112   2.185   0.625   3.234
 1071SOL    HW2 4113   2.241   0.675   3.380
 1072SOL     OW 4114   1.785   6.809   1.573
 1072SOL    HW1 4115   1.767   6.899   1.535
 1072SOL    HW2 4116   1.871   6.774   1.535
 1073SOL     OW 4117   4.268   6.714   1.983
 1073SOL    HW1 4118   4.168   6.722   1.983
 1073SOL    HW2 4119   4.308   6.793   2.029
 1074SOL     OW 4120   2.789   5.551   0.438
 1074SOL    HW1 4121   2.794   5.638   0.487
 1074SOL    HW2 4122   2.856   5.487   0.476
 1075SOL     OW 4123   4.132   6.661   3.790
 1075SOL    HW1 4124   4.159   6.752   3.760
 1075SOL    HW2 4125   4.182   6.637   3.873
 1076SOL     OW 4126   6.474   4.079   5.512
 1076SOL    HW1 4127   6.475   4.003   5.446
 1076SOL    HW2 4128   6.381   4.093   5.545
 1077SOL     OW 4129   5.802   0.218   1.009
 1077SOL    HW1 4130   5.827   0.126   1.037
 1077SOL    HW2 4131   5.885   0.274   1.002
 1078SOL     OW 4132   0.931   1.408   2.648
 1078SOL    HW1 4133   0.935   1.372   2.555
 1078SOL    HW2 4134   0.837   1.403   2.682
 1079SOL     OW 4135   2.120   5.964   1.837
 1079SOL    HW1 4136   2.128   6.041   1.900
 1079SOL    HW2 4137   2.197   5.964   1.773
 1080SOL     OW 4138   1.628   4.564   3.624
 1080SOL    HW1 4139   1.589   4.652   3.595
 1080SOL    HW2 4140   1.689   4.578   3.701
 1081SOL     OW 4141   0.171   6.412   6.294
 1081SOL    HW1 4142   0.190   6.318   6.323
 1081SOL    HW2 4143   0.105   6.412   6.220
 1082SOL     OW 4144   3.745   1.777   6.370
 1082SOL    HW1 4145   3.671   1.729   6.323
 1082SOL    HW2 4146   3.827   1.776   6.313
 1083SOL     OW 4147   4.219   3.773   0.944
 1083SOL    HW1 4148   4.315   3.796   0.961
 1083SOL    HW2 4149   4.179   3.733   1.026
 1084SOL     OW 4150   6.614   5.501   0.746
 1084SOL    HW1 4151   6.597   5.586   0.795
 1084SOL    HW2 4152   6.701   5.507   0.697
 1085SOL     OW 4153   1.401   3.950   3.861
 1085SOL    HW1 4154   1.381   3.854   3.841
 1085SOL    HW2 4155   1.484   3.977   3.812
 1086SOL     OW 4156   6.668   5.953   1.974
 1086SOL    HW1 4157   6.731   5.877   1.988
 1086SOL    HW2 4158   6.639   5.990   2.062
 1087SOL     OW 4159   6.062   3.220   5.581
 1087SOL    HW1 4160   6.154   3.182   5.583
 1087SOL    HW2 4161   5.995   3.146   5.579
 1088SOL     OW 4162   6.291   4.415   3.319
 1088SOL    HW1 4163   6.242   4.380   3.398
 1088SOL    HW2 4164   6.230   4.418   3.240
 1089SOL     OW 4165   1.510   6.796   4.643
 1089SOL    HW1 4166   1.558   6.784   4.556
 1089SOL    HW2 4167   1.429   6.737   4.646
 1090SOL     OW 4168   2.402   1.186   3.519
 1090SOL    HW1 4169   2.315   1.145   3.544
 1090SOL    HW2 4170   2.412   1.275   3.564
 1091SOL     OW 4171   2.358   2.912   5.420
 1091SOL    HW1 4172   2.327   2.994   5.468
 1091SOL    HW2 4173   2.424   2.938   5.350
 1092SOL     OW 4174   1.708   3.687   0.596
 1092SOL    HW1 4175   1.685   3.784   0.605
 1092SOL    HW2 4176   1.807   3.676   0.605
 1093SOL     OW 4177   1.442   1.857   2.048
 1093SOL    HW1 4178   1.446   1.821   1.955
 1093SOL    HW2 4179   1.381   1.800   2.103
 1094SOL     OW 4180   0.903   6.150   3.882
 1094SOL    HW1 4181   0.827   6.106   3.834
 1094SOL    HW2 4182   0.925   6.236   3.838
 1095SOL     OW 4183   0.586   2.607   5.864
 1095SOL    HW1 4184   0.574   2.650   5.953
 1095SOL    HW2 4185   0.601   2.677   5.794
 1096SOL     OW 4186   3.301   4.679   1.717
 1096SOL    HW1 4187   3.393   4.662   1.753
 1096SOL    HW2 4188   3.233   4.654   1.786
 1097SOL     OW 4189   1.638   4.192   3.979
 1097SOL    HW1 4190   1.686   4.109   4.008
 1097SOL    HW2 4191   1.539   4.178   3.987
 1098SOL     OW 4192   4.458   3.418   0.902
 1098SOL    HW1 4193   4.517   3.375   0.834
 1098SOL    HW2 4194   4.364   3.420   0.868
 1099SOL     OW 4195   4.203   1.702   5.338
 1099SOL    HW1 4196   4.218   1.687   5.240
 1099SOL    HW2 4197   4.231   1.620   5.389
 1100SOL     OW 4198   3.340   2.091   6.114
 1100SOL    HW1 4199   3.422   2.126   6.068
 1100SOL    HW2 4200   3.307   2.010   6.065
 1101SOL     OW 4201   6.274   2.555   0.321
 1101SOL    HW1 4202   6.362   2.514   0.346
 1101SOL    HW2 4203   6.201   2.516   0.378
 1102SOL     OW 4204   0.487   5.571   4.161
 1102SOL    HW1 4205   0.569   5.627   4.168
 1102SOL    HW2 4206   0.465   5.555   4.065
 1103SOL     OW 4207   3.475   1.426   0.854
 1103SOL    HW1 4208   3.469   1.385   0.763
 1103SOL    HW2 4209   3.546   1.379   0.907
 1104SOL     OW 4210   2.209   3.466   5.237
 1104SOL    HW1 4211   2.265   3.386   5.256
 1104SOL    HW2 4212   2.265   3.549   5.246
 1105SOL     OW 4213   5.965   3.932   5.045
 1105SOL    HW1 4214   5.985   3.843   5.086
 1105SOL    HW2 4215   5.987   4.005   5.110
 1106SOL     OW 4216   0.874   2.068   0.933
 1106SOL    HW1 4217   0.822   1.989   0.902
 1106SOL    HW2 4218   0.972   2.051   0.921
 1107SOL     OW 4219   1.888   0.206   6.457
 1107SOL    HW1 4220   1.913   0.122   6.504
 1107SOL    HW2 4221   1.918   0.285   6.510
 1108SOL     OW 4222   3.078   1.452   6.174
 1108SOL    HW1 4223   3.012   1.386   6.136
 1108SOL    HW2 4224   3.131   1.408   6.246
 1109SOL     OW 4225   4.534   0.054   4.809
 1109SOL    HW1 4226   4.499   0.042   4.902
 1109SOL    HW2 4227   4.634   0.047   4.810
 1110SOL     OW 4228   2.713   1.912   3.131
 1110SOL    HW1 4229   2.710   1.901   3.230
 1110SOL    HW2 4230   2.805   1.938   3.103
 1111SOL     OW 4231   5.229   5.048   6.768
 1111SOL    HW1 4232   5.238   5.056   6.669
 1111SOL    HW2 4233   5.295   4.981   6.802
 1112SOL     OW 4234   5.325   1.543   2.516
 1112SOL    HW1 4235   5.321   1.443   2.520
 1112SOL    HW2 4236   5.419   1.572   2.495
 1113SOL     OW 4237   0.291   3.673   3.271
 1113SOL    HW1 4238   0.289   3.652   3.368
 1113SOL    HW2 4239   0.385   3.670   3.237
 1114SOL     OW 4240   4.261   1.611   6.631
 1114SOL    HW1 4241   4.164   1.601   6.607
 1114SOL    HW2 4242   4.274   1.697   6.681
 1115SOL     OW 4243   4.628   3.080   0.041
 1115SOL    HW1 4244   4.632   3.043   0.134
 1115SOL    HW2 4245   4.699   3.038   7.007
 1116SOL     OW 4246   5.382   6.086   5.126
 1116SOL    HW1 4247   5.474   6.106   5.092
 1116SOL    HW2 4248   5.367   5.987   5.124
 1117SOL     OW 4249   1.859   2.207   1.561
 1117SOL    HW1 4250   1.864   2.141   1.636
 1117SOL    HW2 4251   1.778   2.189   1.506
 1118SOL     OW 4252   2.586   4.183   1.618
 1118SOL    HW1 4253   2.641   4.263   1.643
 1118SOL    HW2 4254   2.628   4.100   1.655
 1119SOL     OW 4255   4.726   4.349   0.488
 1119SOL    HW1 4256   4.654   4.416   0.509
 1119SOL    HW2 4257   4.787   4.339   0.567
 1120SOL     OW 4258   5.828   0.282   4.991
 1120SOL    HW1 4259   5.884   0.364   4.999
 1120SOL    HW2 4260   5.771   0.273   5.072
 1121SOL     OW 4261   5.085   5.183   2.613
 1121SOL    HW1 4262   5.059   5.251   2.681
 1121SOL    HW2 4263   5.163   5.131   2.646
 1122SOL     OW 4264   4.486   3.506   0.239
 1122SOL    HW1 4265   4.543   3.492   0.320
 1122SOL    HW2 4266   4.440   3.595   0.247
 1123SOL     OW 4267   5.540   1.643   3.332
 1123SOL    HW1 4268   5.548   1.544   3.315
 1123SOL    HW2 4269   5.445   1.671   3.316
 1124SOL     OW 4270   6.332   4.155   5.155
 1124SOL    HW1 4271   6.418   4.201   5.175
 1124SOL    HW2 4272   6.335   4.061   5.189
 1125SOL     OW 4273   3.161   1.402   4.876
 1125SOL    HW1 4274   3.233   1.471   4.880
 1125SOL    HW2 4275   3.101   1.421   4.798
 1126SOL     OW 4276   5.306   5.706   6.862
 1126SOL    HW1 4277   5.334   5.661   6.947
 1126SOL    HW2 4278   5.309   5.805   6.875
 1127SOL     OW 4279   4.464   4.939   5.031
 1127SOL    HW1 4280   4.528   4.887   4.975
 1127SOL    HW2 4281   4.397   4.984   4.972
 1128SOL     OW 4282   5.147   2.020   5.464
 1128SOL    HW1 4283   5.158   1.936   5.519
 1128SOL    HW2 4284   5.051   2.046   5.463
 1129SOL     OW 4285   3.279   0.655   6.607
 1129SOL    HW1 4286   3.249   0.602   6.686
 1129SOL    HW2 4287   3.204   0.711   6.574
 1130SOL     OW 4288   1.600   4.495   1.017
 1130SOL    HW1 4289   1.573   4.588   1.042
 1130SOL    HW2 4290   1.566   4.474   0.926
 1131SOL     OW 4291   0.250   6.137   6.343
 1131SOL    HW1 4292   0.214   6.044   6.334
 1131SOL    HW2 4293   0.341   6.134   6.383
 1132SOL     OW 4294   4.863   7.002   1.448
 1132SOL    HW1 4295   4.933   0.035   1.402
 1132SOL    HW2 4296   4.787   0.039   1.475
 1133SOL     OW 4297   0.824   0.782   0.992
 1133SOL    HW1 4298   0.760   0.747   0.924
 1133SOL    HW2 4299   0.780   0.782   1.082
 1134SOL     OW 4300   4.796   1.790   1.716
 1134SOL    HW1 4301   4.716   1.755   1.764
 1134SOL    HW2 4302   4.768   1.835   1.631
 1135SOL     OW 4303   2.101   1.324   2.636
 1135SOL    HW1 4304   2.059   1.415   2.640
 1135SOL    HW2 4305   2.030   1.255   2.626
 1136SOL     OW 4306   3.289   5.206   4.771
 1136SOL    HW1 4307   3.272   5.304   4.779
 1136SOL    HW2 4308   3.238   5.170   4.692
 1137SOL     OW 4309   1.048   1.945   5.951
 1137SOL    HW1 4310   1.109   1.866   5.948
 1137SOL    HW2 4311   0.960   1.921   5.909
 1138SOL     OW 4312   0.565   1.534   6.621
 1138SOL    HW1 4313   0.565   1.488   6.533
 1138SOL    HW2 4314   0.473   1.570   6.640
 1139SOL     OW 4315   3.131   5.630   1.480
 1139SOL    HW1 4316   3.166   5.587   1.396
 1139SOL    HW2 4317   3.125   5.729   1.467
 1140SOL     OW 4318   3.444   1.082   2.207
 1140SOL    HW1 4319   3.355   1.091   2.162
 1140SOL    HW2 4320   3.484   0.993   2.184
 1141SOL     OW 4321   6.989   6.875   6.525
 1141SOL    HW1 4322   6.993   6.920   6.614
 1141SOL    HW2 4323   0.061   6.861   6.491
 1142SOL     OW 4324   2.951   0.310   4.209
 1142SOL    HW1 4325   2.957   0.251   4.128
 1142SOL    HW2 4326   2.923   0.402   4.181
 1143SOL     OW 4327   1.866   3.471   1.459
 1143SOL    HW1 4328   1.866   3.374   1.485
 1143SOL    HW2 4329   1.773   3.499   1.435
 1144SOL     OW 4330   6.173   4.764   5.538
 1144SOL    HW1 4331   6.199   4.686   5.596
 1144SOL    HW2 4332   6.152   4.843   5.595
 1145SOL     OW 4333   0.158   3.984   2.394
 1145SOL    HW1 4334   0.129   4.047   2.322
 1145SOL    HW2 4335   0.166   3.892   2.356
 1146SOL     OW 4336   6.477   0.859   1.625
 1146SOL    HW1 4337   6.535   0.885   1.548
 1146SOL    HW2 4338   6.472   0.759   1.630
 1147SOL     OW 4339   1.498   4.736   1.119
 1147SOL    HW1 4340   1.521   4.764   1.212
 1147SOL    HW2 4341   1.402   4.709   1.115
 1148SOL     OW 4342   4.869   6.834   6.750
 1148SOL    HW1 4343   4.847   6.904   6.682
 1148SOL    HW2 4344   4.820   6.853   6.835
 1149SOL     OW 4345   6.607   4.404   2.923
 1149SOL    HW1 4346   6.659   4.453   2.993
 1149SOL    HW2 4347   6.663   4.330   2.886
 1150SOL     OW 4348   2.609   3.803   1.034
 1150SOL    HW1 4349   2.573   3.888   0.995
 1150SOL    HW2 4350   2.678   3.824   1.103
 1151SOL     OW 4351   4.968   5.048   6.359
 1151SOL    HW1 4352   4.891   4.988   6.381
 1151SOL    HW2 4353   4.988   5.042   6.261
 1152SOL     OW 4354   6.843   5.844   5.752
 1152SOL    HW1 4355   6.831   5.808   5.845
 1152SOL    HW2 4356   6.864   5.942   5.758
 1153SOL     OW 4357   2.489   0.125   2.207
 1153SOL    HW1 4358   2.483   0.133   2.306
 1153SOL    HW2 4359   2.414   0.175   2.165
 1154SOL     OW 4360   0.686   3.952   2.067
 1154SOL    HW1 4361   0.782   3.975   2.084
 1154SOL    HW2 4362   0.666   3.965   1.970
 1155SOL     OW 4363   2.428   5.188   6.977
 1155SOL    HW1 4364   2.358   5.259   6.989
 1155SOL    HW2 4365   2.385   5.101   6.955
 1156SOL     OW 4366   2.703   1.248   4.876
 1156SOL    HW1 4367   2.717   1.286   4.967
 1156SOL    HW2 4368   2.632   1.300   4.828
 1157SOL     OW 4369   6.089   0.587   5.054
 1157SOL    HW1 4370   6.172   0.597   5.000
 1157SOL    HW2 4371   6.010   0.576   4.993
 1158SOL     OW 4372   6.874   6.011   5.397
 1158SOL    HW1 4373   6.916   5.926   5.426
 1158SOL    HW2 4374   6.906   6.034   5.304
 1159SOL     OW 4375   5.634   6.753   3.767
 1159SOL    HW1 4376   5.541   6.736   3.735
 1159SOL    HW2 4377   5.680   6.815   3.703
 1160SOL     OW 4378   3.756   3.033   1.208
 1160SOL    HW1 4379   3.748   3.112   1.147
 1160SOL    HW2 4380   3.718   2.952   1.163
 1161SOL     OW 4381   5.578   0.515   6.440
 1161SOL    HW1 4382   5.527   0.440   6.398
 1161SOL    HW2 4383   5.668   0.482   6.469
 1162SOL     OW 4384   2.934   2.141   6.858
 1162SOL    HW1 4385   2.881   2.226   6.858
 1162SOL    HW2 4386   2.897   2.078   6.790
 1163SOL     OW 4387   6.861   3.066   1.874
 1163SOL    HW1 4388   6.864   3.002   1.798
 1163SOL    HW2 4389   6.927   3.039   1.944
 1164SOL     OW 4390   5.324   2.307   4.713
 1164SOL    HW1 4391   5.387   2.350   4.649
 1164SOL    HW2 4392   5.239   2.360   4.717
 1165SOL     OW 4393   2.098   4.613   4.340
 1165SOL    HW1 4394   2.018   4.667   4.313
 1165SOL    HW2 4395   2.138   4.653   4.422
 1166SOL     OW 4396   3.760   6.707   0.366
 1166SOL    HW1 4397   3.682   6.756   0.405
 1166SOL    HW2 4398   3.844   6.759   0.384
 1167SOL     OW 4399   4.064   6.494   6.385
 1167SOL    HW1 4400   4.126   6.537   6.319
 1167SOL    HW2 4401   4.048   6.556   6.462
 1168SOL     OW 4402   5.653   2.112   3.393
 1168SOL    HW1 4403   5.753   2.120   3.399
 1168SOL    HW2 4404   5.624   2.025   3.433
 1169SOL     OW 4405   5.312   2.541   6.457
 1169SOL    HW1 4406   5.359   2.458   6.426
 1169SOL    HW2 4407   5.270   2.587   6.378
 1170SOL     OW 4408   5.313   1.267   2.570
 1170SOL    HW1 4409   5.241   1.201   2.548
 1170SOL    HW2 4410   5.398   1.218   2.589
 1171SOL     OW 4411   2.763   6.839   0.088
 1171SOL    HW1 4412   2.729   6.747   0.105
 1171SOL    HW2 4413   2.694   6.891   0.037
 1172SOL     OW 4414   3.435   3.751   1.960
 1172SOL    HW1 4415   3.415   3.755   2.058
 1172SOL    HW2 4416   3.489   3.830   1.934
 1173SOL     OW 4417   3.318   6.934   5.829
 1173SOL    HW1 4418   3.373   6.994   5.887
 1173SOL    HW2 4419   3.231   6.978   5.809
 1174SOL     OW 4420   3.010   4.461   0.326
 1174SOL    HW1 4421   3.055   4.391   0.382
 1174SOL    HW2 4422   3.072   4.539   0.315
 1175SOL     OW 4423   4.181   2.956   6.666
 1175SOL    HW1 4424   4.084   2.954   6.690
 1175SOL    HW2 4425   4.212   3.051   6.664
 1176SOL     OW 4426   5.964   4.375   0.447
 1176SOL    HW1 4427   5.932   4.359   0.541
 1176SOL    HW2 4428   5.931   4.300   0.388
 1177SOL     OW 4429   6.702   1.347   6.043
 1177SOL    HW1 4430   6.706   1.308   5.951
 1177SOL    HW2 4431   6.657   1.436   6.040
 1178SOL     OW 4432   3.603   3.726   1.100
 1178SOL    HW1 4433   3.552   3.795   1.151
 1178SOL    HW2 4434   3.594   3.743   1.002
 1179SOL     OW 4435   3.440   5.850   0.664
 1179SOL    HW1 4436   3.410   5.878   0.755
 1179SOL    HW2 4437   3.539   5.862   0.656
 1180SOL     OW 4438   2.450   6.714   3.588
 1180SOL    HW1 4439   2.507   6.652   3.642
 1180SOL    HW2 4440   2.508   6.778   3.538
 1181SOL     OW 4441   6.717   2.658   4.882
 1181SOL    HW1 4442   6.815   2.670   4.872
 1181SOL    HW2 4443   6.698   2.604   4.964
 1182SOL     OW 4444   3.050   5.204   3.754
 1182SOL    HW1 4445   3.017   5.224   3.846
 1182SOL    HW2 4446   2.986   5.142   3.709
 1183SOL     OW 4447   3.734   6.364   1.722
 1183SOL    HW1 4448   3.694   6.436   1.666
 1183SOL    HW2 4449   3.824   6.393   1.755
 1184SOL     OW 4450   4.601   6.787   6.369
 1184SOL    HW1 4451   4.700   6.783   6.354
 1184SOL    HW2 4452   4.582   6.835   6.455
 1185SOL     OW 4453   1.547   0.268   0.841
 1185SOL    HW1 4454   1.525   0.347   0.898
 1185SOL    HW2 4455   1.468   0.208   0.836
 1186SOL     OW 4456   6.108   5.948   6.256
 1186SOL    HW1 4457   6.043   6.019   6.227
 1186SOL    HW2 4458   6.192   5.992   6.289
 1187SOL     OW 4459   5.611   0.264   5.232
 1187SOL    HW1 4460   5.659   0.182   5.263
 1187SOL    HW2 4461   5.526   0.275   5.284
 1188SOL     OW 4462   3.168   6.329   6.597
 1188SOL    HW1 4463   3.129   6.242   6.567
 1188SOL    HW2 4464   3.243   6.313   6.661
 1189SOL     OW 4465   6.252   0.929   2.097
 1189SOL    HW1 4466   6.257   0.964   2.004
 1189SOL    HW2 4467   6.324   0.971   2.152
 1190SOL     OW 4468   3.578   5.000   3.947
 1190SOL    HW1 4469   3.493   5.053   3.954
 1190SOL    HW2 4470   3.595   4.955   4.035
 1191SOL     OW 4471   2.965   6.656   4.608
 1191SOL    HW1 4472   2.922   6.669   4.698
 1191SOL    HW2 4473   3.063   6.642   4.620
 1192SOL     OW 4474   5.414   6.381   2.987
 1192SOL    HW1 4475   5.493   6.391   2.927
 1192SOL    HW2 4476   5.341   6.442   2.957
 1193SOL     OW 4477   0.424   0.830   5.387
 1193SOL    HW1 4478   0.418   0.878   5.475
 1193SOL    HW2 4479   0.498   0.869   5.332
 1194SOL     OW 4480   0.191   1.501   1.228
 1194SOL    HW1 4481   0.123   1.481   1.159
 1194SOL    HW2 4482   0.170   1.449   1.312
 1195SOL     OW 4483   0.018   3.345   1.536
 1195SOL    HW1 4484   0.021   3.421   1.470
 1195SOL    HW2 4485   6.979   3.370   1.612
 1196SOL     OW 4486   6.175   5.114   2.119
 1196SOL    HW1 4487   6.215   5.205   2.132
 1196SOL    HW2 4488   6.248   5.047   2.106
 1197SOL     OW 4489   4.555   6.429   4.003
 1197SOL    HW1 4490   4.600   6.477   3.928
 1197SOL    HW2 4491   4.624   6.394   4.066
 1198SOL     OW 4492   1.553   3.583   2.382
 1198SOL    HW1 4493   1.647   3.617   2.376
 1198SOL    HW2 4494   1.555   3.484   2.401
 1199SOL     OW 4495   3.674   3.183   2.835
 1199SOL    HW1 4496   3.675   3.086   2.859
 1199SOL    HW2 4497   3.583   3.208   2.800
 1200SOL     OW 4498   4.033   3.897   4.437
 1200SOL    HW1 4499   4.034   3.866   4.532
 1200SOL    HW2 4500   4.056   3.820   4.377
 1201SOL     OW 4501   6.828   0.983   4.024
 1201SOL    HW1 4502   6.835   1.047   3.948
 1201SOL    HW2 4503   6.772   0.905   3.998
 1202SOL     OW 4504   5.923   0.799   5.829
 1202SOL    HW1 4505   5.990   0.832   5.762
 1202SOL    HW2 4506   5.958   0.716   5.873
 1203SOL     OW 4507   0.229   6.783   1.324
 1203SOL    HW1 4508   0.129   6.772   1.330
 1203SOL    HW2 4509   0.264   6.720   1.255
 1204SOL     OW 4510   4.477   1.953   2.195
 1204SOL    HW1 4511   4.474   1.878   2.261
 1204SOL    HW2 4512   4.403   1.942   2.128
 1205SOL     OW 4513   4.052   3.077   0.283
 1205SOL    HW1 4514   4.066   3.141   0.207
 1205SOL    HW2 4515   3.954   3.056   0.291
 1206SOL     OW 4516   1.308   2.371   4.520
 1206SOL    HW1 4517   1.235   2.366   4.589
 1206SOL    HW2 4518   1.378   2.435   4.551
 1207SOL     OW 4519   0.238   0.288   6.934
 1207SOL    HW1 4520   0.245   0.387   6.945
 1207SOL    HW2 4521   0.144   0.259   6.952
 1208SOL     OW 4522   3.345   3.811   1.413
 1208SOL    HW1 4523   3.317   3.715   1.413
 1208SOL    HW2 4524   3.378   3.836   1.504
 1209SOL     OW 4525   5.550   0.745   4.117
 1209SOL    HW1 4526   5.573   0.659   4.072
 1209SOL    HW2 4527   5.464   0.733   4.168
 1210SOL     OW 4528   4.886   0.169   3.625
 1210SOL    HW1 4529   4.907   0.130   3.535
 1210SOL    HW2 4530   4.837   0.100   3.679
 1211SOL     OW 4531   1.149   3.723   3.220
 1211SOL    HW1 4532   1.116   3.714   3.314
 1211SOL    HW2 4533   1.247   3.741   3.221
 1212SOL     OW 4534   6.383   0.775   6.289
 1212SOL    HW1 4535   6.376   0.870   6.258
 1212SOL    HW2 4536   6.443   0.770   6.369
 1213SOL     OW 4537   5.677   2.316   2.515
 1213SOL    HW1 4538   5.747   2.384   2.534
 1213SOL    HW2 4539   5.650   2.270   2.599
 1214SOL     OW 4540   0.541   2.307   6.105
 1214SOL    HW1 4541   0.615   2.307   6.172
 1214SOL    HW2 4542   0.475   2.235   6.129
 1215SOL     OW 4543   2.461   5.179   2.838
 1215SOL    HW1 4544   2.399   5.232   2.781
 1215SOL    HW2 4545   2.545   5.231   2.854
 1216SOL     OW 4546   0.170   0.809   0.194
 1216SOL    HW1 4547   0.094   0.752   0.225
 1216SOL    HW2 4548   0.134   0.884   0.138
 1217SOL     OW 4549   2.837   5.093   0.762
 1217SOL    HW1 4550   2.856   5.059   0.670
 1217SOL    HW2 4551   2.757   5.153   0.759
 1218SOL     OW 4552   1.376   3.915   5.820
 1218SOL    HW1 4553   1.288   3.962   5.823
 1218SOL    HW2 4554   1.360   3.817   5.808
 1219SOL     OW 4555   5.244   5.329   1.749
 1219SOL    HW1 4556   5.239   5.231   1.728
 1219SOL    HW2 4557   5.326   5.347   1.802
 1220SOL     OW 4558   6.717   4.155   2.896
 1220SOL    HW1 4559   6.644   4.087   2.887
 1220SOL    HW2 4560   6.794   4.115   2.946
 1221SOL     OW 4561   5.637   3.576   6.258
 1221SOL    HW1 4562   5.687   3.653   6.296
 1221SOL    HW2 4563   5.543   3.604   6.237
 1222SOL     OW 4564   0.871   0.434   0.411
 1222SOL    HW1 4565   0.894   0.505   0.478
 1222SOL    HW2 4566   0.887   0.469   0.318
 1223SOL     OW 4567   3.760   1.452   0.123
 1223SOL    HW1 4568   3.689   1.486   0.062
 1223SOL    HW2 4569   3.842   1.431   0.070
 1224SOL     OW 4570   2.760   5.757   7.014
 1224SOL    HW1 4571   2.798   5.738   6.923
 1224SOL    HW2 4572   2.674   5.807   7.004
 1225SOL     OW 4573   4.213   2.368   0.585
 1225SOL    HW1 4574   4.161   2.381   0.501
 1225SOL    HW2 4575   4.170   2.419   0.660
 1226SOL     OW 4576   4.443   6.193   0.891
 1226SOL    HW1 4577   4.471   6.097   0.891
 1226SOL    HW2 4578   4.346   6.199   0.868
 1227SOL     OW 4579   5.104   5.449   6.255
 1227SOL    HW1 4580   5.045   5.405   6.322
 1227SOL    HW2 4581   5.052   5.467   6.171
 1228SOL     OW 4582   3.295   2.745   0.245
 1228SOL    HW1 4583   3.256   2.746   0.153
 1228SOL    HW2 4584   3.344   2.830   0.262
 1229SOL     OW 4585   2.005   5.497   0.376
 1229SOL    HW1 4586   1.989   5.562   0.301
 1229SOL    HW2 4587   1.998   5.404   0.342
 1230SOL     OW 4588   5.987   5.690   2.430
 1230SOL    HW1 4589   6.066   5.726   2.478
 1230SOL    HW2 4590   6.010   5.603   2.387
 1231SOL     OW 4591   1.753   1.607   5.562
 1231SOL    HW1 4592   1.667   1.650   5.536
 1231SOL    HW2 4593   1.734   1.528   5.621
 1232SOL     OW 4594   5.991   1.758   4.949
 1232SOL    HW1 4595   5.994   1.660   4.969
 1232SOL    HW2 4596   6.082   1.797   4.963
 1233SOL     OW 4597   0.628   5.840   4.936
 1233SOL    HW1 4598   0.610   5.815   5.031
 1233SOL    HW2 4599   0.606   5.936   4.922
 1234SOL     OW 4600   6.116   2.064   5.363
 1234SOL    HW1 4601   6.019   2.064   5.337
 1234SOL    HW2 4602   6.131   2.127   5.439
 1235SOL     OW 4603   6.357   4.913   1.237
 1235SOL    HW1 4604   6.305   4.879   1.315
 1235SOL    HW2 4605   6.295   4.940   1.164
 1236SOL     OW 4606   3.848   1.080   2.209
 1236SOL    HW1 4607   3.769   1.047   2.260
 1236SOL    HW2 4608   3.877   1.168   2.248
 1237SOL     OW 4609   0.766   5.004   5.312
 1237SOL    HW1 4610   0.824   5.080   5.283
 1237SOL    HW2 4611   0.777   4.990   5.411
 1238SOL     OW 4612   1.034   0.394   5.497
 1238SOL    HW1 4613   1.010   0.328   5.568
 1238SOL    HW2 4614   0.950   0.429   5.455
 1239SOL     OW 4615   0.307   0.011   5.768
 1239SOL    HW1 4616   0.372   0.042   5.699
 1239SOL    HW2 4617   0.274   6.941   5.744
 1240SOL     OW 4618   5.844   5.590   1.161
 1240SOL    HW1 4619   5.789   5.603   1.078
 1240SOL    HW2 4620   5.784   5.562   1.236
 1241SOL     OW 4621   5.757   4.526   5.518
 1241SOL    HW1 4622   5.731   4.554   5.426
 1241SOL    HW2 4623   5.852   4.496   5.518
 1242SOL     OW 4624   2.137   3.927   0.314
 1242SOL    HW1 4625   2.165   4.021   0.336
 1242SOL    HW2 4626   2.157   3.868   0.392
 1243SOL     OW 4627   0.280   1.378   4.818
 1243SOL    HW1 4628   0.313   1.447   4.755
 1243SOL    HW2 4629   0.342   1.371   4.896
 1244SOL     OW 4630   5.339   5.823   5.115
 1244SOL    HW1 4631   5.400   5.762   5.064
 1244SOL    HW2 4632   5.263   5.770   5.153
 1245SOL     OW 4633   5.723   4.616   6.601
 1245SOL    HW1 4634   5.806   4.566   6.628
 1245SOL    HW2 4635   5.665   4.556   6.546
 1246SOL     OW 4636   3.016   1.672   2.665
 1246SOL    HW1 4637   2.969   1.675   2.577
 1246SOL    HW2 4638   2.979   1.743   2.725
 1247SOL     OW 4639   6.305   0.119   6.297
 1247SOL    HW1 4640   6.272   0.199   6.246
 1247SOL    HW2 4641   6.348   0.150   6.382
 1248SOL     OW 4642   1.600   6.002   4.005
 1248SOL    HW1 4643   1.592   6.079   3.941
 1248SOL    HW2 4644   1.638   6.035   4.092
 1249SOL     OW 4645   0.482   3.223   1.412
 1249SOL    HW1 4646   0.525   3.306   1.449
 1249SOL    HW2 4647   0.480   3.230   1.312
 1250SOL     OW 4648   5.760   4.686   3.284
 1250SOL    HW1 4649   5.726   4.734   3.203
 1250SOL    HW2 4650   5.827   4.618   3.256
 1251SOL     OW 4651   1.582   1.029   3.072
 1251SOL    HW1 4652   1.508   0.982   3.025
 1251SOL    HW2 4653   1.591   1.122   3.036
 1252SOL     OW 4654   3.605   4.694   6.265
 1252SOL    HW1 4655   3.508   4.674   6.248
 1252SOL    HW2 4656   3.620   4.793   6.263
 1253SOL     OW 4657   2.901   0.080   2.804
 1253SOL    HW1 4658   2.839   0.056   2.729
 1253SOL    HW2 4659   2.959   0.157   2.776
 1254SOL     OW 4660   0.126   2.595   4.211
 1254SOL    HW1 4661   0.055   2.664   4.197
 1254SOL    HW2 4662   0.215   2.640   4.220
 1255SOL     OW 4663   5.419   1.845   6.195
 1255SOL    HW1 4664   5.412   1.805   6.104
 1255SOL    HW2 4665   5.514   1.875   6.211
 1256SOL     OW 4666   0.525   6.381   3.699
 1256SOL    HW1 4667   0.579   6.363   3.617
 1256SOL    HW2 4668   0.427   6.383   3.675
 1257SOL     OW 4669   7.006   4.810   4.346
 1257SOL    HW1 4670   0.058   4.752   4.313
 1257SOL    HW2 4671   7.006   4.812   4.446
 1258SOL     OW 4672   2.051   5.003   2.881
 1258SOL    HW1 4673   2.010   5.078   2.934
 1258SOL    HW2 4674   2.147   4.993   2.907
 1259SOL     OW 4675   3.675   6.714   4.864
 1259SOL    HW1 4676   3.759   6.717   4.918
 1259SOL    HW2 4677   3.637   6.806   4.856
 1260SOL     OW 4678   3.030   1.480   0.609
 1260SOL    HW1 4679   3.126   1.455   0.602
 1260SOL    HW2 4680   3.018   1.550   0.679
 1261SOL     OW 4681   6.958   5.195   6.615
 1261SOL    HW1 4682   0.030   5.162   6.598
 1261SOL    HW2 4683   6.900   5.118   6.642
 1262SOL     OW 4684   5.143   5.093   1.584
 1262SOL    HW1 4685   5.089   5.009   1.573
 1262SOL    HW2 4686   5.168   5.127   1.494
 1263SOL     OW 4687   0.028   1.644   1.474
 1263SOL    HW1 4688   0.010   1.725   1.530
 1263SOL    HW2 4689   6.976   1.633   1.407
 1264SOL     OW 4690   0.204   3.612   1.694
 1264SOL    HW1 4691   0.248   3.526   1.667
 1264SOL    HW2 4692   0.108   3.595   1.713
 1265SOL     OW 4693   5.563   5.260   3.618
 1265SOL    HW1 4694   5.480   5.236   3.568
 1265SOL    HW2 4695   5.599   5.179   3.665
 1266SOL     OW 4696   0.745   1.216   4.062
 1266SOL    HW1 4697   0.806   1.277   4.009
 1266SOL    HW2 4698   0.801   1.156   4.119
 1267SOL     OW 4699   5.637   6.334   1.301
 1267SOL    HW1 4700   5.604   6.367   1.212
 1267SOL    HW2 4701   5.737   6.335   1.300
 1268SOL     OW 4702   4.478   2.516   0.442
 1268SOL    HW1 4703   4.390   2.522   0.490
 1268SOL    HW2 4704   4.552   2.524   0.509
 1269SOL     OW 4705   5.670   6.453   5.841
 1269SOL    HW1 4706   5.664   6.386   5.915
 1269SOL    HW2 4707   5.750   6.433   5.785
 1270SOL     OW 4708   1.995   3.926   4.024
 1270SOL    HW1 4709   1.907   3.948   4.066
 1270SOL    HW2 4710   2.061   3.903   4.095
 1271SOL     OW 4711   3.564   1.746   3.492
 1271SOL    HW1 4712   3.471   1.756   3.459
 1271SOL    HW2 4713   3.587   1.824   3.551
 1272SOL     OW 4714   6.004   5.534   0.229
 1272SOL    HW1 4715   6.017   5.618   0.177
 1272SOL    HW2 4716   5.960   5.466   0.171
 1273SOL     OW 4717   1.164   4.594   6.811
 1273SOL    HW1 4718   1.176   4.616   6.908
 1273SOL    HW2 4719   1.238   4.534   6.780
 1274SOL     OW 4720   6.118   3.056   1.569
 1274SOL    HW1 4721   6.050   3.105   1.625
 1274SOL    HW2 4722   6.209   3.072   1.606
 1275SOL     OW 4723   3.076   1.190   4.346
 1275SOL    HW1 4724   3.142   1.234   4.406
 1275SOL    HW2 4725   3.118   1.172   4.257
 1276SOL     OW 4726   6.960   0.483   4.705
 1276SOL    HW1 4727   6.923   0.462   4.796
 1276SOL    HW2 4728   0.025   0.532   4.715
 1277SOL     OW 4729   1.336   6.675   5.897
 1277SOL    HW1 4730   1.296   6.590   5.865
 1277SOL    HW2 4731   1.416   6.655   5.954
 1278SOL     OW 4732   1.445   0.343   5.225
 1278SOL    HW1 4733   1.472   0.380   5.136
 1278SOL    HW2 4734   1.352   0.371   5.246
 1279SOL     OW 4735   3.663   6.026   1.000
 1279SOL    HW1 4736   3.682   6.030   0.902
 1279SOL    HW2 4737   3.731   5.968   1.045
 1280SOL     OW 4738   3.285   6.674   4.476
 1280SOL    HW1 4739   3.355   6.725   4.426
 1280SOL    HW2 4740   3.262   6.722   4.560
 1281SOL     OW 4741   1.743   5.938   2.966
 1281SOL    HW1 4742   1.843   5.940   2.968
 1281SOL    HW2 4743   1.711   5.845   2.983
 1282SOL     OW 4744   0.558   1.298   6.040
 1282SOL    HW1 4745   0.577   1.249   6.125
 1282SOL    HW2 4746   0.617   1.378   6.033
 1283SOL     OW 4747   6.427   2.791   5.234
 1283SOL    HW1 4748   6.501   2.741   5.279
 1283SOL    HW2 4749   6.456   2.885   5.217
 1284SOL     OW 4750   4.892   1.122   2.634
 1284SOL    HW1 4751   4.925   1.115   2.728
 1284SOL    HW2 4752   4.811   1.181   2.631
 1285SOL     OW 4753   4.506   2.474   6.773
 1285SOL    HW1 4754   4.491   2.422   6.689
 1285SOL    HW2 4755   4.586   2.533   6.762
 1286SOL     OW 4756   5.001   3.659   2.014
 1286SOL    HW1 4757   4.943   3.721   2.067
 1286SOL    HW2 4758   4.943   3.591   1.969
 1287SOL     OW 4759   5.136   4.584   5.350
 1287SOL    HW1 4760   5.210   4.585   5.282
 1287SOL    HW2 4761   5.154   4.654   5.419
 1288SOL     OW 4762   4.919   3.515   0.249
 1288SOL    HW1 4763   4.867   3.596   0.221
 1288SOL    HW2 4764   4.857   3.438   0.264
 1289SOL     OW 4765   1.173   5.956   2.123
 1289SOL    HW1 4766   1.075   5.937   2.117
 1289SOL    HW2 4767   1.201   6.013   2.046
 1290SOL     OW 4768   1.286   0.023   0.117
 1290SOL    HW1 4769   1.298   0.117   0.149
 1290SOL    HW2 4770   1.284   6.982   0.195
 1291SOL     OW 4771   0.034   3.918   5.501
 1291SOL    HW1 4772   0.133   3.927   5.505
 1291SOL    HW2 4773   0.005   3.915   5.405
 1292SOL     OW 4774   0.421   6.131   2.360
 1292SOL    HW1 4775   0.361   6.133   2.280
 1292SOL    HW2 4776   0.470   6.218   2.367
 1293SOL     OW 4777   1.078   1.436   0.030
 1293SOL    HW1 4778   1.140   1.414   6.977
 1293SOL    HW2 4779   1.130   1.460   0.112
 1294SOL     OW 4780   1.445   3.943   6.891
 1294SOL    HW1 4781   1.518   3.993   6.843
 1294SOL    HW2 4782   1.370   3.924   6.827
 1295SOL     OW 4783   6.984   3.426   2.515
 1295SOL    HW1 4784   0.047   3.479   2.505
 1295SOL    HW2 4785   6.929   3.435   2.432
 1296SOL     OW 4786   3.256   0.610   5.465
 1296SOL    HW1 4787   3.238   0.700   5.504
 1296SOL    HW2 4788   3.291   0.621   5.371
 1297SOL     OW 4789   5.998   1.134   1.293
 1297SOL    HW1 4790   5.963   1.140   1.386
 1297SOL    HW2 4791   5.923   1.110   1.231
 1298SOL     OW 4792   6.146   4.744   2.715
 1298SOL    HW1 4793   6.123   4.834   2.676
 1298SOL    HW2 4794   6.241   4.744   2.745
 1299SOL     OW 4795   0.784   3.885   3.096
 1299SOL    HW1 4796   0.806   3.787   3.095
 1299SOL    HW2 4797   0.685   3.897   3.105
 1300SOL     OW 4798   3.371   3.026   1.588
 1300SOL    HW1 4799   3.405   2.932   1.590
 1300SOL    HW2 4800   3.434   3.085   1.639
 1301SOL     OW 4801   0.570   5.487   1.551
 1301SOL    HW1 4802   0.507   5.542   1.605
 1301SOL    HW2 4803   0.569   5.392   1.584
 1302SOL     OW 4804   4.466   0.355   5.337
 1302SOL    HW1 4805   4.536   0.411   5.292
 1302SOL    HW2 4806   4.506   0.267   5.363
 1303SOL     OW 4807   4.493   1.489   2.461
 1303SOL    HW1 4808   4.485   1.580   2.422
 1303SOL    HW2 4809   4.479   1.493   2.560
 1304SOL     OW 4810   1.356   0.770   6.984
 1304SOL    HW1 4811   1.273   0.763   6.928
 1304SOL    HW2 4812   1.388   0.865   6.984
 1305SOL     OW 4813   4.792   3.041   6.826
 1305SOL    HW1 4814   4.727   3.038   6.751
 1305SOL    HW2 4815   4.882   3.010   6.794
 1306SOL     OW 4816   0.445   4.168   5.080
 1306SOL    HW1 4817   0.361   4.143   5.127
 1306SOL    HW2 4818   0.510   4.208   5.145
 1307SOL     OW 4819   0.993   3.547   5.043
 1307SOL    HW1 4820   1.031   3.473   5.098
 1307SOL    HW2 4821   0.992   3.521   4.947
 1308SOL     OW 4822   5.390   6.455   4.337
 1308SOL    HW1 4823   5.371   6.553   4.345
 1308SOL    HW2 4824   5.477   6.441   4.291
 1309SOL     OW 4825   4.687   3.203   5.263
 1309SOL    HW1 4826   4.631   3.275   5.305
 1309SOL    HW2 4827   4.642   3.115   5.274
 1310SOL     OW 4828   0.565   3.987   4.915
 1310SOL    HW1 4829   0.507   3.907   4.928
 1310SOL    HW2 4830   0.527   4.064   4.965
 1311SOL     OW 4831   0.256   0.415   4.560
 1311SOL    HW1 4832   0.242   0.514   4.565
 1311SOL    HW2 4833   0.237   0.383   4.467
 1312SOL     OW 4834   1.440   0.532   6.518
 1312SOL    HW1 4835   1.377   0.515   6.442
 1312SOL    HW2 4836   1.446   0.450   6.575
 1313SOL     OW 4837   1.032   4.216   4.021
 1313SOL    HW1 4838   1.052   4.177   4.111
 1313SOL    HW2 4839   0.939   4.192   3.994
 1314SOL     OW 4840   3.887   0.893   5.554
 1314SOL    HW1 4841   3.946   0.968   5.523
 1314SOL    HW2 4842   3.797   0.930   5.580
 1315SOL     OW 4843   0.082   0.946   0.804
 1315SOL    HW1 4844   0.081   0.856   0.847
 1315SOL    HW2 4845   0.058   1.015   0.872
 1316SOL     OW 4846   1.846   6.603   4.688
 1316SOL    HW1 4847   1.796   6.666   4.628
 1316SOL    HW2 4848   1.920   6.652   4.734
 1317SOL     OW 4849   1.942   3.813   5.574
 1317SOL    HW1 4850   1.973   3.779   5.486
 1317SOL    HW2 4851   1.956   3.912   5.578
 1318SOL     OW 4852   1.016   0.798   0.799
 1318SOL    HW1 4853   0.959   0.815   0.879
 1318SOL    HW2 4854   1.070   0.880   0.779
 1319SOL     OW 4855   0.250   1.089   6.292
 1319SOL    HW1 4856   0.317   1.057   6.224
 1319SOL    HW2 4857   0.273   1.182   6.319
 1320SOL     OW 4858   5.506   3.768   0.331
 1320SOL    HW1 4859   5.537   3.700   0.398
 1320SOL    HW2 4860   5.409   3.753   0.312
 1321SOL     OW 4861   4.953   1.838   5.969
 1321SOL    HW1 4862   4.877   1.899   5.947
 1321SOL    HW2 4863   4.962   1.830   6.069
 1322SOL     OW 4864   4.048   0.669   3.859
 1322SOL    HW1 4865   4.124   0.640   3.801
 1322SOL    HW2 4866   3.965   0.623   3.830
 1323SOL     OW 4867   4.710   1.527   6.016
 1323SOL    HW1 4868   4.753   1.463   5.953
 1323SOL    HW2 4869   4.610   1.521   6.006
 1324SOL     OW 4870   1.282   3.055   0.102
 1324SOL    HW1 4871   1.261   3.120   0.028
 1324SOL    HW2 4872   1.328   3.103   0.176
 1325SOL     OW 4873   2.133   6.793   2.157
 1325SOL    HW1 4874   2.170   6.722   2.097
 1325SOL    HW2 4875   2.110   6.874   2.103
 1326SOL     OW 4876   4.855   3.285   5.068
 1326SOL    HW1 4877   4.828   3.380   5.055
 1326SOL    HW2 4878   4.819   3.252   5.155
 1327SOL     OW 4879   1.710   4.752   1.591
 1327SOL    HW1 4880   1.769   4.722   1.517
 1327SOL    HW2 4881   1.762   4.754   1.677
 1328SOL     OW 4882   1.589   2.996   1.099
 1328SOL    HW1 4883   1.525   3.070   1.120
 1328SOL    HW2 4884   1.683   3.027   1.112
 1329SOL     OW 4885   1.225   2.748   1.027
 1329SOL    HW1 4886   1.153   2.751   0.958
 1329SOL    HW2 4887   1.185   2.721   1.115
 1330SOL     OW 4888   0.094   0.842   1.687
 1330SOL    HW1 4889   0.133   0.818   1.776
 1330SOL    HW2 4890   0.049   0.930   1.694
 1331SOL     OW 4891   5.008   2.833   3.422
 1331SOL    HW1 4892   4.985   2.795   3.333
 1331SOL    HW2 4893   4.927   2.876   3.462
 1332SOL     OW 4894   2.830   6.991   0.320
 1332SOL    HW1 4895   2.818   0.048   0.259
 1332SOL    HW2 4896   2.826   6.907   0.266
 1333SOL     OW 4897   3.475   3.284   5.313
 1333SOL    HW1 4898   3.552   3.254   5.257
 1333SOL    HW2 4899   3.500   3.368   5.361
 1334SOL     OW 4900   6.277   2.122   4.511
 1334SOL    HW1 4901   6.286   2.182   4.591
 1334SOL    HW2 4902   6.297   2.174   4.428
 1335SOL     OW 4903   2.821   1.262   3.285
 1335SOL    HW1 4904   2.816   1.173   3.331
 1335SOL    HW2 4905   2.800   1.335   3.351
 1336SOL     OW 4906   1.728   2.153   5.720
 1336SOL    HW1 4907   1.753   2.056   5.716
 1336SOL    HW2 4908   1.728   2.184   5.815
 1337SOL     OW 4909   1.932   1.950   5.276
 1337SOL    HW1 4910   1.835   1.937   5.295
 1337SOL    HW2 4911   1.944   2.021   5.207
 1338SOL     OW 4912   5.700   1.854   6.286
 1338SOL    HW1 4913   5.784   1.851   6.231
 1338SOL    HW2 4914   5.718   1.811   6.374
 1339SOL     OW 4915   0.602   1.207   6.283
 1339SOL    HW1 4916   0.623   1.145   6.359
 1339SOL    HW2 4917   0.643   1.296   6.300
 1340SOL     OW 4918   0.623   2.100   2.136
 1340SOL    HW1 4919   0.617   2.141   2.226
 1340SOL    HW2 4920   0.531   2.073   2.105
 1341SOL     OW 4921   5.025   0.226   5.839
 1341SOL    HW1 4922   5.023   0.222   5.939
 1341SOL    HW2 4923   5.015   0.321   5.809
 1342SOL     OW 4924   1.893   5.118   5.952
 1342SOL    HW1 4925   1.828   5.049   5.985
 1342SOL    HW2 4926   1.876   5.205   5.999
 1343SOL     OW 4927   4.640   6.100   2.374
 1343SOL    HW1 4928   4.670   6.080   2.467
 1343SOL    HW2 4929   4.719   6.107   2.314
 1344SOL     OW 4930   6.736   4.717   3.969
 1344SOL    HW1 4931   6.693   4.774   3.899
 1344SOL    HW2 4932   6.765   4.773   4.046
 1345SOL     OW 4933   1.892   1.170   2.585
 1345SOL    HW1 4934   1.794   1.181   2.601
 1345SOL    HW2 4935   1.924   1.087   2.630
 1346SOL     OW 4936   0.849   6.532   4.453
 1346SOL    HW1 4937   0.870   6.476   4.533
 1346SOL    HW2 4938   0.883   6.625   4.467
 1347SOL     OW 4939   6.517   5.640   4.622
 1347SOL    HW1 4940   6.550   5.710   4.558
 1347SOL    HW2 4941   6.418   5.631   4.612
 1348SOL     OW 4942   5.032   5.021   2.346
 1348SOL    HW1 4943   5.064   4.929   2.322
 1348SOL    HW2 4944   5.077   5.050   2.431
 1349SOL     OW 4945   4.494   1.956   6.031
 1349SOL    HW1 4946   4.460   2.031   6.088
 1349SOL    HW2 4947   4.582   1.982   5.991
 1350SOL     OW 4948   4.796   4.239   6.605
 1350SOL    HW1 4949   4.850   4.157   6.625
 1350SOL    HW2 4950   4.858   4.315   6.583
 1351SOL     OW 4951   6.652   1.434   3.448
 1351SOL    HW1 4952   6.610   1.432   3.539
 1351SOL    HW2 4953   6.659   1.529   3.418
 1352SOL     OW 4954   6.625   0.028   3.056
 1352SOL    HW1 4955   6.595   0.113   3.099
 1352SOL    HW2 4956   6.625   0.039   2.956
 1353SOL     OW 4957   6.782   3.906   6.231
 1353SOL    HW1 4958   6.879   3.887   6.247
 1353SOL    HW2 4959   6.756   3.871   6.141
 1354SOL     OW 4960   0.665   2.216   0.258
 1354SOL    HW1 4961   0.731   2.145   0.284
 1354SOL    HW2 4962   0.581   2.204   0.311
 1355SOL     OW 4963   0.032   2.836   5.461
 1355SOL    HW1 4964   0.048   2.842   5.560
 1355SOL    HW2 4965   7.001   2.916   5.432
 1356SOL     OW 4966   2.917   3.580   2.807
 1356SOL    HW1 4967   2.922   3.586   2.707
 1356SOL    HW2 4968   2.991   3.523   2.841
 1357SOL     OW 4969   1.305   3.818   5.180
 1357SOL    HW1 4970   1.261   3.751   5.239
 1357SOL    HW2 4971   1.327   3.900   5.232
 1358SOL     OW 4972   4.236   1.052   6.062
 1358SOL    HW1 4973   4.322   1.004   6.047
 1358SOL    HW2 4974   4.192   1.017   6.144
 1359SOL     OW 4975   6.283   4.919   1.857
 1359SOL    HW1 4976   6.325   4.997   1.903
 1359SOL    HW2 4977   6.205   4.888   1.910
 1360SOL     OW 4978   4.094   2.850   0.897
 1360SOL    HW1 4979   4.110   2.949   0.891
 1360SOL    HW2 4980   4.067   2.827   0.991
 1361SOL     OW 4981   0.303   5.988   5.727
 1361SOL    HW1 4982   0.303   5.989   5.627
 1361SOL    HW2 4983   0.349   6.069   5.762
 1362SOL     OW 4984   3.040   3.935   4.525
 1362SOL    HW1 4985   3.110   3.967   4.461
 1362SOL    HW2 4986   3.050   3.982   4.613
 1363SOL     OW 4987   6.824   5.879   3.462
 1363SOL    HW1 4988   6.801   5.929   3.379
 1363SOL    HW2 4989   6.922   5.858   3.462
 1364SOL     OW 4990   6.680   2.459   0.806
 1364SOL    HW1 4991   6.654   2.471   0.710
 1364SOL    HW2 4992   6.693   2.361   0.825
 1365SOL     OW 4993   1.045   2.791   5.554
 1365SOL    HW1 4994   1.064   2.734   5.634
 1365SOL    HW2 4995   1.000   2.875   5.582
 1366SOL     OW 4996   0.366   4.387   0.300
 1366SOL    HW1 4997   0.464   4.379   0.285
 1366SOL    HW2 4998   0.342   4.350   0.390
 1367SOL     OW 4999   1.737   6.251   2.393
 1367SOL    HW1 5000   1.795   6.330   2.414
 1367SOL    HW2 5001   1.781   6.167   2.426
 1368SOL     OW 5002   6.828   0.313   4.213
 1368SOL    HW1 5003   6.907   0.349   4.162
 1368SOL    HW2 5004   6.836   0.339   4.309
 1369SOL     OW 5005   2.428   6.878   2.566
 1369SOL    HW1 5006   2.365   6.956   2.570
 1369SOL    HW2 5007   2.447   6.855   2.470
 1370SOL     OW 5008   4.411   1.739   2.316
 1370SOL    HW1 5009   4.351   1.730   2.396
 1370SOL    HW2 5010   4.357   1.761   2.235
 1371SOL     OW 5011   6.293   1.771   4.815
 1371SOL    HW1 5012   6.259   1.692   4.763
 1371SOL    HW2 5013   6.343   1.832   4.753
 1372SOL     OW 5014   1.165   2.847   0.569
 1372SOL    HW1 5015   1.207   2.902   0.640
 1372SOL    HW2 5016   1.230   2.834   0.494
 1373SOL     OW 5017   4.360   2.650   0.178
 1373SOL    HW1 5018   4.427   2.671   0.106
 1373SOL    HW2 5019   4.407   2.626   0.262
 1374SOL     OW 5020   4.443   2.359   1.119
 1374SOL    HW1 5021   4.405   2.280   1.070
 1374SOL    HW2 5022   4.389   2.376   1.202
 1375SOL     OW 5023   0.199   5.881   6.327
 1375SOL    HW1 5024   0.123   5.815   6.330
 1375SOL    HW2 5025   0.285   5.832   6.338
 1376SOL     OW 5026   4.436   4.827   5.301
 1376SOL    HW1 5027   4.461   4.892   5.230
 1376SOL    HW2 5028   4.516   4.804   5.356
 1377SOL     OW 5029   0.911   3.291   5.315
 1377SOL    HW1 5030   0.907   3.313   5.413
 1377SOL    HW2 5031   0.820   3.268   5.282
 1378SOL     OW 5032   5.820   1.782   4.734
 1378SOL    HW1 5033   5.732   1.828   4.735
 1378SOL    HW2 5034   5.851   1.768   4.828
 1379SOL     OW 5035   4.353   6.185   3.208
 1379SOL    HW1 5036   4.429   6.250   3.214
 1379SOL    HW2 5037   4.360   6.118   3.282
 1380SOL     OW 5038   0.249   6.853   3.817
 1380SOL    HW1 5039   0.340   6.896   3.820
 1380SOL    HW2 5040   0.247   6.787   3.742
 1381SOL     OW 5041   5.937   1.787   0.418
 1381SOL    HW1 5042   5.844   1.757   0.442
 1381SOL    HW2 5043   5.936   1.884   0.397
 1382SOL     OW 5044   5.186   3.175   0.664
 1382SOL    HW1 5045   5.266   3.186   0.722
 1382SOL    HW2 5046   5.126   3.105   0.703
 1383SOL     OW 5047   0.645   0.445   2.380
 1383SOL    HW1 5048   0.659   0.540   2.349
 1383SOL    HW2 5049   0.643   0.443   2.480
 1384SOL     OW 5050   4.497   0.651   2.151
 1384SOL    HW1 5051   4.431   0.661   2.077
 1384SOL    HW2 5052   4.590   0.668   2.116
 1385SOL     OW 5053   2.628   4.585   3.347
 1385SOL    HW1 5054   2.706   4.647   3.342
 1385SOL    HW2 5055   2.633   4.530   3.431
 1386SOL     OW 5056   2.814   0.598   3.801
 1386SOL    HW1 5057   2.741   0.615   3.736
 1386SOL    HW2 5058   2.785   0.528   3.867
 1387SOL     OW 5059   3.219   5.894   2.629
 1387SOL    HW1 5060   3.162   5.975   2.614
 1387SOL    HW2 5061   3.314   5.917   2.609
 1388SOL     OW 5062   0.256   0.692   3.120
 1388SOL    HW1 5063   0.184   0.720   3.183
 1388SOL    HW2 5064   0.344   0.726   3.153
 1389SOL     OW 5065   0.029   1.667   3.976
 1389SOL    HW1 5066   0.009   1.737   4.044
 1389SOL    HW2 5067   0.085   1.705   3.903
 1390SOL     OW 5068   6.066   2.919   6.373
 1390SOL    HW1 5069   6.089   2.886   6.465
 1390SOL    HW2 5070   6.072   3.019   6.371
 1391SOL     OW 5071   6.051   0.165   5.432
 1391SOL    HW1 5072   6.030   0.079   5.478
 1391SOL    HW2 5073   6.055   0.150   5.333
 1392SOL     OW 5074   5.841   6.377   5.655
 1392SOL    HW1 5075   5.839   6.405   5.559
 1392SOL    HW2 5076   5.849   6.278   5.661
 1393SOL     OW 5077   6.783   4.195   6.340
 1393SOL    HW1 5078   6.856   4.174   6.405
 1393SOL    HW2 5079   6.769   4.116   6.280
 1394SOL     OW 5080   3.317   6.111   5.697
 1394SOL    HW1 5081   3.275   6.024   5.668
 1394SOL    HW2 5082   3.344   6.105   5.793
 1395SOL     OW 5083   1.449   4.598   4.898
 1395SOL    HW1 5084   1.372   4.602   4.961
 1395SOL    HW2 5085   1.494   4.688   4.895
 1396SOL     OW 5086   0.042   1.431   5.072
 1396SOL    HW1 5087   0.052   1.350   5.014
 1396SOL    HW2 5088   6.990   1.415   5.138
 1397SOL     OW 5089   0.502   6.094   4.824
 1397SOL    HW1 5090   0.456   6.179   4.797
 1397SOL    HW2 5091   0.436   6.019   4.821
 1398SOL     OW 5092   2.773   0.654   6.507
 1398SOL    HW1 5093   2.808   0.588   6.441
 1398SOL    HW2 5094   2.832   0.657   6.588
 1399SOL     OW 5095   4.075   5.615   0.551
 1399SOL    HW1 5096   4.066   5.650   0.458
 1399SOL    HW2 5097   4.091   5.692   0.614
 1400SOL     OW 5098   0.502   1.688   4.064
 1400SOL    HW1 5099   0.546   1.769   4.024
 1400SOL    HW2 5100   0.548   1.606   4.031
 1401SOL     OW 5101   5.997   0.128   4.219
 1401SOL    HW1 5102   5.973   0.074   4.300
 1401SOL    HW2 5103   5.918   0.136   4.159
 1402SOL     OW 5104   5.142   3.978   6.185
 1402SOL    HW1 5105   5.217   4.010   6.128
 1402SOL    HW2 5106   5.075   3.928   6.129
 1403SOL     OW 5107   2.747   1.794   0.443
 1403SOL    HW1 5108   2.826   1.803   0.383
 1403SOL    HW2 5109   2.680   1.865   0.422
 1404SOL     OW 5110   6.561   0.414   6.541
 1404SOL    HW1 5111   6.550   0.396   6.639
 1404SOL    HW2 5112   6.654   0.444   6.523
 1405SOL     OW 5113   2.956   3.054   0.612
 1405SOL    HW1 5114   2.871   3.095   0.579
 1405SOL    HW2 5115   2.946   3.031   0.709
 1406SOL     OW 5116   1.215   5.689   0.870
 1406SOL    HW1 5117   1.283   5.704   0.942
 1406SOL    HW2 5118   1.135   5.643   0.908
 1407SOL     OW 5119   0.427   3.306   4.147
 1407SOL    HW1 5120   0.444   3.227   4.089
 1407SOL    HW2 5121   0.484   3.299   4.230
 1408SOL     OW 5122   4.716   1.295   6.295
 1408SOL    HW1 5123   4.692   1.199   6.288
 1408SOL    HW2 5124   4.680   1.332   6.381
 1409SOL     OW 5125   0.151   0.441   5.289
 1409SOL    HW1 5126   0.096   0.448   5.373
 1409SOL    HW2 5127   0.164   0.532   5.250
 1410SOL     OW 5128   1.319   4.228   6.065
 1410SOL    HW1 5129   1.360   4.225   6.156
 1410SOL    HW2 5130   1.389   4.251   5.998
 1411SOL     OW 5131   2.995   6.726   0.334
 1411SOL    HW1 5132   3.019   6.639   0.375
 1411SOL    HW2 5133   3.062   6.796   0.360
 1412SOL     OW 5134   1.123   3.451   0.899
 1412SOL    HW1 5135   1.092   3.540   0.867
 1412SOL    HW2 5136   1.218   3.437   0.871
 1413SOL     OW 5137   2.251   1.134   4.415
 1413SOL    HW1 5138   2.339   1.166   4.450
 1413SOL    HW2 5139   2.218   1.059   4.473
 1414SOL     OW 5140   2.012   1.643   2.095
 1414SOL    HW1 5141   1.996   1.602   2.184
 1414SOL    HW2 5142   2.098   1.608   2.057
 1415SOL     OW 5143   2.048   1.304   4.404
 1415SOL    HW1 5144   2.078   1.394   4.436
 1415SOL    HW2 5145   2.129   1.246   4.390
 1416SOL     OW 5146   4.412   6.143   4.561
 1416SOL    HW1 5147   4.485   6.081   4.532
 1416SOL    HW2 5148   4.356   6.168   4.481
 1417SOL     OW 5149   3.105   2.821   0.550
 1417SOL    HW1 5150   3.205   2.820   0.548
 1417SOL    HW2 5151   3.073   2.913   0.571
 1418SOL     OW 5152   3.216   3.577   2.149
 1418SOL    HW1 5153   3.281   3.646   2.181
 1418SOL    HW2 5154   3.265   3.504   2.102
 1419SOL     OW 5155   3.595   6.164   4.113
 1419SOL    HW1 5156   3.530   6.236   4.091
 1419SOL    HW2 5157   3.548   6.091   4.163
 1420SOL     OW 5158   3.120   6.163   2.574
 1420SOL    HW1 5159   3.082   6.211   2.495
 1420SOL    HW2 5160   3.203   6.210   2.604
 1421SOL     OW 5161   1.758   4.620   4.171
 1421SOL    HW1 5162   1.773   4.676   4.252
 1421SOL    HW2 5163   1.660   4.610   4.154
 1422SOL     OW 5164   1.571   4.494   6.139
 1422SOL    HW1 5165   1.538   4.490   6.045
 1422SOL    HW2 5166   1.519   4.430   6.196
 1423SOL     OW 5167   4.473   6.860   4.623
 1423SOL    HW1 5168   4.390   6.880   4.571
 1423SOL    HW2 5169   4.493   6.937   4.684
 1424SOL     OW 5170   6.616   3.580   6.547
 1424SOL    HW1 5171   6.684   3.621   6.607
 1424SOL    HW2 5172   6.613   3.630   6.460
 1425SOL     OW 5173   2.085   5.331   5.846
 1425SOL    HW1 5174   2.012   5.266   5.870
 1425SOL    HW2 5175   2.153   5.333   5.919
 1426SOL     OW 5176   2.921   2.555   0.069
 1426SOL    HW1 5177   2.852   2.596   0.009
 1426SOL    HW2 5178   2.953   2.622   0.135
 1427SOL     OW 5179   6.819   6.846   4.428
 1427SOL    HW1 5180   6.867   6.903   4.495
 1427SOL    HW2 5181   6.865   6.758   4.419
 1428SOL     OW 5182   0.586   1.891   0.052
 1428SOL    HW1 5183   0.497   1.921   0.086
 1428SOL    HW2 5184   0.602   1.797   0.081
 1429SOL     OW 5185   4.586   1.500   0.416
 1429SOL    HW1 5186   4.512   1.450   0.461
 1429SOL    HW2 5187   4.673   1.456   0.436
 1430SOL     OW 5188   2.020   4.989   3.935
 1430SOL    HW1 5189   2.117   4.986   3.910
 1430SOL    HW2 5190   2.010   5.035   4.023
 1431SOL     OW 5191   2.438   2.222   6.645
 1431SOL    HW1 5192   2.391   2.134   6.649
 1431SOL    HW2 5193   2.373   2.294   6.623
 1432SOL     OW 5194   2.815   1.423   1.187
 1432SOL    HW1 5195   2.747   1.378   1.245
 1432SOL    HW2 5196   2.885   1.465   1.245
 1433SOL     OW 5197   5.168   0.264   5.207
 1433SOL    HW1 5198   5.140   0.276   5.111
 1433SOL    HW2 5199   5.091   0.229   5.260
 1434SOL     OW 5200   0.985   0.437   5.866
 1434SOL    HW1 5201   0.956   0.518   5.815
 1434SOL    HW2 5202   0.961   0.355   5.815
 1435SOL     OW 5203   6.837   6.784   3.026
 1435SOL    HW1 5204   6.872   6.836   2.948
 1435SOL    HW2 5205   6.769   6.840   3.075
 1436SOL     OW 5206   4.780   4.282   6.286
 1436SOL    HW1 5207   4.831   4.244   6.363
 1436SOL    HW2 5208   4.718   4.353   6.320
 1437SOL     OW 5209   3.331   1.896   5.439
 1437SOL    HW1 5210   3.280   1.977   5.412
 1437SOL    HW2 5211   3.361   1.846   5.358
 1438SOL     OW 5212   3.089   0.021   1.979
 1438SOL    HW1 5213   3.047   0.032   1.890
 1438SOL    HW2 5214   3.134   0.107   2.005
 1439SOL     OW 5215   6.811   4.614   0.839
 1439SOL    HW1 5216   6.791   4.703   0.879
 1439SOL    HW2 5217   6.881   4.568   0.893
 1440SOL     OW 5218   3.331   2.975   6.193
 1440SOL    HW1 5219   3.333   3.009   6.286
 1440SOL    HW2 5220   3.410   2.916   6.177
 1441SOL     OW 5221   6.052   1.861   3.989
 1441SOL    HW1 5222   6.089   1.924   3.921
 1441SOL    HW2 5223   5.975   1.904   4.037
 1442SOL     OW 5224   6.487   5.172   6.616
 1442SOL    HW1 5225   6.531   5.256   6.648
 1442SOL    HW2 5226   6.557   5.103   6.598
 1443SOL     OW 5227   0.936   3.196   4.284
 1443SOL    HW1 5228   0.975   3.117   4.237
 1443SOL    HW2 5229   0.870   3.241   4.225
 1444SOL     OW 5230   3.978   5.820   1.020
 1444SOL    HW1 5231   4.009   5.914   1.033
 1444SOL    HW2 5232   3.996   5.767   1.103
 1445SOL     OW 5233   0.680   3.154   2.359
 1445SOL    HW1 5234   0.609   3.223   2.348
 1445SOL    HW2 5235   0.763   3.182   2.310
 1446SOL     OW 5236   4.853   2.217   0.299
 1446SOL    HW1 5237   4.926   2.266   0.346
 1446SOL    HW2 5238   4.772   2.212   0.358
 1447SOL     OW 5239   6.035   6.874   5.552
 1447SOL    HW1 5240   6.100   6.847   5.481
 1447SOL    HW2 5241   6.008   6.793   5.605
 1448SOL     OW 5242   6.337   2.133   6.426
 1448SOL    HW1 5243   6.281   2.215   6.414
 1448SOL    HW2 5244   6.430   2.159   6.451
 1449SOL     OW 5245   0.617   0.838   0.455
 1449SOL    HW1 5246   0.632   0.918   0.512
 1449SOL    HW2 5247   0.704   0.805   0.419
 1450SOL     OW 5248   0.839   2.491   1.270
 1450SOL    HW1 5249   0.783   2.470   1.351
 1450SOL    HW2 5250   0.848   2.409   1.214
 1451SOL     OW 5251   2.267   0.432   2.206
 1451SOL    HW1 5252   2.198   0.504   2.202
 1451SOL    HW2 5253   2.348   0.461   2.153
 1452SOL     OW 5254   4.667   0.757   4.774
 1452SOL    HW1 5255   4.752   0.721   4.812
 1452SOL    HW2 5256   4.601   0.683   4.764
 1453SOL     OW 5257   0.225   3.691   5.308
 1453SOL    HW1 5258   0.178   3.617   5.355
 1453SOL    HW2 5259   0.158   3.756   5.272
 1454SOL     OW 5260   0.170   3.377   2.316
 1454SOL    HW1 5261   0.093   3.327   2.355
 1454SOL    HW2 5262   0.135   3.447   2.252
 1455SOL     OW 5263   0.743   0.773   2.017
 1455SOL    HW1 5264   0.786   0.688   2.046
 1455SOL    HW2 5265   0.643   0.762   2.020
 1456SOL     OW 5266   6.720   6.189   5.078
 1456SOL    HW1 5267   6.662   6.244   5.138
 1456SOL    HW2 5268   6.816   6.205   5.100
 1457SOL     OW 5269   1.127   6.614   1.446
 1457SOL    HW1 5270   1.073   6.553   1.388
 1457SOL    HW2 5271   1.191   6.561   1.501
 1458SOL     OW 5272   5.849   5.276   3.394
 1458SOL    HW1 5273   5.771   5.320   3.439
 1458SOL    HW2 5274   5.932   5.329   3.412
 1459SOL     OW 5275   2.834   5.269   5.896
 1459SOL    HW1 5276   2.862   5.184   5.851
 1459SOL    HW2 5277   2.857   5.347   5.837
 1460SOL     OW 5278   0.463   5.758   5.593
 1460SOL    HW1 5279   0.403   5.719   5.523
 1460SOL    HW2 5280   0.410   5.778   5.675
 1461SOL     OW 5281   6.888   5.035   3.627
 1461SOL    HW1 5282   6.965   5.015   3.686
 1461SOL    HW2 5283   6.805   5.046   3.682
 1462SOL     OW 5284   1.259   0.441   6.333
 1462SOL    HW1 5285   1.179   0.386   6.357
 1462SOL    HW2 5286   1.291   0.414   6.242
 1463SOL     OW 5287   0.303   5.753   0.024
 1463SOL    HW1 5288   0.239   5.736   0.099
 1463SOL    HW2 5289   0.337   5.665   7.011
 1464SOL     OW 5290   6.353   0.163   1.375
 1464SOL    HW1 5291   6.425   0.095   1.385
 1464SOL    HW2 5292   6.313   0.156   1.284
 1465SOL     OW 5293   1.777   1.173   3.432
 1465SOL    HW1 5294   1.703   1.114   3.402
 1465SOL    HW2 5295   1.815   1.137   3.518
 1466SOL     OW 5296   0.940   1.737   2.216
 1466SOL    HW1 5297   0.933   1.656   2.158
 1466SOL    HW2 5298   0.963   1.709   2.309
 1467SOL     OW 5299   1.585   2.190   2.937
 1467SOL    HW1 5300   1.684   2.182   2.952
 1467SOL    HW2 5301   1.559   2.131   2.860
 1468SOL     OW 5302   4.854   5.812   2.669
 1468SOL    HW1 5303   4.803   5.762   2.739
 1468SOL    HW2 5304   4.857   5.757   2.585
 1469SOL     OW 5305   0.669   1.114   1.809
 1469SOL    HW1 5306   0.641   1.181   1.740
 1469SOL    HW2 5307   0.755   1.143   1.850
 1470SOL     OW 5308   1.538   1.935   2.386
 1470SOL    HW1 5309   1.533   2.033   2.365
 1470SOL    HW2 5310   1.448   1.903   2.415
 1471SOL     OW 5311   0.654   7.017   0.892
 1471SOL    HW1 5312   0.752   7.007   0.908
 1471SOL    HW2 5313   0.608   0.018   0.978
 1472SOL     OW 5314   3.803   6.442   5.607
 1472SOL    HW1 5315   3.859   6.516   5.570
 1472SOL    HW2 5316   3.859   6.385   5.668
 1473SOL     OW 5317   5.158   6.247   4.759
 1473SOL    HW1 5318   5.161   6.311   4.836
 1473SOL    HW2 5319   5.189   6.157   4.788
 1474SOL     OW 5320   5.722   5.630   2.531
 1474SOL    HW1 5321   5.701   5.635   2.628
 1474SOL    HW2 5322   5.821   5.635   2.518
 1475SOL     OW 5323   6.611   6.845   2.102
 1475SOL    HW1 5324   6.653   6.861   2.191
 1475SOL    HW2 5325   6.525   6.896   2.095
 1476SOL     OW 5326   2.641   1.251   1.331
 1476SOL    HW1 5327   2.703   1.179   1.363
 1476SOL    HW2 5328   2.559   1.210   1.291
 1477SOL     OW 5329   3.503   0.349   6.647
 1477SOL    HW1 5330   3.585   0.374   6.699
 1477SOL    HW2 5331   3.422   0.378   6.698
 1478SOL     OW 5332   6.344   5.215   0.220
 1478SOL    HW1 5333   6.287   5.156   0.163
 1478SOL    HW2 5334   6.433   5.228   0.176
 1479SOL     OW 5335   1.719   2.971   6.799
 1479SOL    HW1 5336   1.622   2.994   6.807
 1479SOL    HW2 5337   1.728   2.879   6.760
 1480SOL     OW 5338   3.291   0.630   5.813
 1480SOL    HW1 5339   3.194   0.653   5.805
 1480SOL    HW2 5340   3.340   0.663   5.733
 1481SOL     OW 5341   6.497   2.565   5.648
 1481SOL    HW1 5342   6.566   2.515   5.596
 1481SOL    HW2 5343   6.406   2.542   5.613
 1482SOL     OW 5344   4.934   2.455   1.543
 1482SOL    HW1 5345   4.897   2.510   1.469
 1482SOL    HW2 5346   4.874   2.461   1.623
 1483SOL     OW 5347   4.823   2.046   6.670
 1483SOL    HW1 5348   4.854   2.005   6.585
 1483SOL    HW2 5349   4.890   2.028   6.742
 1484SOL     OW 5350   5.963   4.743   4.134
 1484SOL    HW1 5351   6.025   4.807   4.179
 1484SOL    HW2 5352   5.883   4.728   4.192
 1485SOL     OW 5353   3.726   1.417   3.232
 1485SOL    HW1 5354   3.793   1.359   3.277
 1485SOL    HW2 5355   3.640   1.416   3.283
 1486SOL     OW 5356   5.310   1.612   3.076
 1486SOL    HW1 5357   5.299   1.704   3.038
 1486SOL    HW2 5358   5.389   1.568   3.035
 1487SOL     OW 5359   6.210   2.368   6.376
 1487SOL    HW1 5360   6.292   2.384   6.321
 1487SOL    HW2 5361   6.162   2.455   6.391
 1488SOL     OW 5362   5.255   1.500   3.881
 1488SOL    HW1 5363   5.312   1.512   3.799
 1488SOL    HW2 5364   5.308   1.454   3.952
 1489SOL     OW 5365   3.838   5.511   4.503
 1489SOL    HW1 5366   3.890   5.596   4.503
 1489SOL    HW2 5367   3.839   5.471   4.412
 1490SOL     OW 5368   1.274   2.871   1.884
 1490SOL    HW1 5369   1.302   2.912   1.797
 1490SOL    HW2 5370   1.277   2.771   1.877
 1491SOL     OW 5371   6.074   3.756   3.585
 1491SOL    HW1 5372   6.161   3.804   3.581
 1491SOL    HW2 5373   6.043   3.750   3.680
 1492SOL     OW 5374   5.760   0.909   2.420
 1492SOL    HW1 5375   5.699   0.867   2.353
 1492SOL    HW2 5376   5.783   1.002   2.391
 1493SOL     OW 5377   4.271   6.532   4.747
 1493SOL    HW1 5378   4.371   6.540   4.754
 1493SOL    HW2 5379   4.245   6.436   4.754
 1494SOL     OW 5380   5.776   1.753   6.520
 1494SOL    HW1 5381   5.868   1.750   6.560
 1494SOL    HW2 5382   5.726   1.671   6.546
 1495SOL     OW 5383   6.716   2.602   4.601
 1495SOL    HW1 5384   6.636   2.644   4.645
 1495SOL    HW2 5385   6.791   2.668   4.597
 1496SOL     OW 5386   0.523   1.240   1.491
 1496SOL    HW1 5387   0.564   1.153   1.464
 1496SOL    HW2 5388   0.580   1.285   1.561
 1497SOL     OW 5389   6.317   3.086   2.953
 1497SOL    HW1 5390   6.332   3.184   2.966
 1497SOL    HW2 5391   6.384   3.050   2.888
 1498SOL     OW 5392   1.737   5.252   6.359
 1498SOL    HW1 5393   1.756   5.257   6.457
 1498SOL    HW2 5394   1.651   5.204   6.344
 1499SOL     OW 5395   0.927   3.195   6.877
 1499SOL    HW1 5396   1.023   3.222   6.869
 1499SOL    HW2 5397   0.914   3.144   6.962
 1500SOL     OW 5398   6.498   6.382   0.134
 1500SOL    HW1 5399   6.417   6.440   0.130
 1500SOL    HW2 5400   6.555   6.398   0.053
 1501SOL     OW 5401   5.358   2.279   6.231
 1501SOL    HW1 5402   5.450   2.250   6.207
 1501SOL    HW2 5403   5.317   2.327   6.153
 1502SOL     OW 5404   4.624   0.184   0.573
 1502SOL    HW1 5405   4.721   0.176   0.550
 1502SOL    HW2 5406   4.591   0.275   0.550
 1503SOL     OW 5407   1.039   3.786   1.177
 1503SOL    HW1 5408   0.957   3.731   1.192
 1503SOL    HW2 5409   1.031   3.872   1.228
 1504SOL     OW 5410   0.793   0.474   5.399
 1504SOL    HW1 5411   0.772   0.512   5.489
 1504SOL    HW2 5412   0.717   0.494   5.336
 1505SOL     OW 5413   5.626   0.795   5.845
 1505SOL    HW1 5414   5.587   0.887   5.859
 1505SOL    HW2 5415   5.725   0.802   5.837
 1506SOL     OW 5416   0.953   5.835   0.992
 1506SOL    HW1 5417   0.982   5.747   1.029
 1506SOL    HW2 5418   0.905   5.820   0.905
 1507SOL     OW 5419   0.839   1.896   5.820
 1507SOL    HW1 5420   0.775   1.966   5.787
 1507SOL    HW2 5421   0.884   1.853   5.742
 1508SOL     OW 5422   6.772   0.872   2.182
 1508SOL    HW1 5423   6.865   0.910   2.184
 1508SOL    HW2 5424   6.756   0.820   2.266
 1509SOL     OW 5425   4.172   1.758   6.250
 1509SOL    HW1 5426   4.093   1.751   6.311
 1509SOL    HW2 5427   4.141   1.763   6.155
 1510SOL     OW 5428   4.572   2.242   4.834
 1510SOL    HW1 5429   4.591   2.145   4.823
 1510SOL    HW2 5430   4.650   2.287   4.878
 1511SOL     OW 5431   3.613   3.078   1.732
 1511SOL    HW1 5432   3.643   3.170   1.756
 1511SOL    HW2 5433   3.691   3.025   1.698
 1512SOL     OW 5434   0.370   5.028   1.505
 1512SOL    HW1 5435   0.398   4.950   1.560
 1512SOL    HW2 5436   0.386   5.113   1.556
 1513SOL     OW 5437   3.409   0.906   4.066
 1513SOL    HW1 5438   3.452   0.837   4.124
 1513SOL    HW2 5439   3.460   0.992   4.074
 1514SOL     OW 5440   4.050   1.899   6.016
 1514SOL    HW1 5441   3.954   1.875   6.026
 1514SOL    HW2 5442   4.066   1.990   6.055
 1515SOL     OW 5443   5.661   2.328   3.555
 1515SOL    HW1 5444   5.623   2.256   3.498
 1515SOL    HW2 5445   5.718   2.288   3.627
 1516SOL     OW 5446   6.248   0.251   0.414
 1516SOL    HW1 5447   6.259   0.341   0.371
 1516SOL    HW2 5448   6.225   0.264   0.511
 1517SOL     OW 5449   4.685   6.326   3.695
 1517SOL    HW1 5450   4.718   6.262   3.765
 1517SOL    HW2 5451   4.732   6.308   3.609
 1518SOL     OW 5452   1.017   3.233   0.317
 1518SOL    HW1 5453   1.046   3.320   0.278
 1518SOL    HW2 5454   1.087   3.200   0.381
 1519SOL     OW 5455   6.147   4.855   1.473
 1519SOL    HW1 5456   6.209   4.801   1.530
 1519SOL    HW2 5457   6.089   4.793   1.420
 1520SOL     OW 5458   0.455   3.637   2.353
 1520SOL    HW1 5459   0.359   3.647   2.376
 1520SOL    HW2 5460   0.465   3.619   2.255
 1521SOL     OW 5461   1.896   4.016   6.481
 1521SOL    HW1 5462   1.983   3.995   6.438
 1521SOL    HW2 5463   1.899   3.992   6.578
 1522SOL     OW 5464   6.393   0.027   5.433
 1522SOL    HW1 5465   6.341   7.021   5.513
 1522SOL    HW2 5466   6.486   0.053   5.461
 1523SOL     OW 5467   5.481   5.031   1.184
 1523SOL    HW1 5468   5.443   5.027   1.091
 1523SOL    HW2 5469   5.498   5.127   1.209
 1524SOL     OW 5470   1.832   2.159   1.918
 1524SOL    HW1 5471   1.816   2.062   1.939
 1524SOL    HW2 5472   1.910   2.192   1.971
 1525SOL     OW 5473   6.571   2.601   6.723
 1525SOL    HW1 5474   6.490   2.560   6.765
 1525SOL    HW2 5475   6.618   2.658   6.791
 1526SOL     OW 5476   6.832   6.941   6.824
 1526SOL    HW1 5477   6.763   6.950   6.752
 1526SOL    HW2 5478   6.832   0.002   6.881
 1527SOL     OW 5479   3.311   1.460   5.203
 1527SOL    HW1 5480   3.233   1.411   5.163
 1527SOL    HW2 5481   3.282   1.549   5.237
 1528SOL     OW 5482   5.052   6.173   2.860
 1528SOL    HW1 5483   5.073   6.195   2.764
 1528SOL    HW2 5484   5.137   6.165   2.911
 1529SOL     OW 5485   3.924   0.591   0.467
 1529SOL    HW1 5486   3.912   0.661   0.537
 1529SOL    HW2 5487   3.998   0.618   0.405
 1530SOL     OW 5488   3.217   1.789   2.234
 1530SOL    HW1 5489   3.262   1.876   2.256
 1530SOL    HW2 5490   3.233   1.724   2.309
 1531SOL     OW 5491   4.293   0.956   5.118
 1531SOL    HW1 5492   4.251   1.046   5.102
 1531SOL    HW2 5493   4.323   0.951   5.214
 1532SOL     OW 5494   2.641   3.500   5.972
 1532SOL    HW1 5495   2.606   3.540   6.057
 1532SOL    HW2 5496   2.567   3.497   5.904
 1533SOL     OW 5497   6.740   3.267   6.971
 1533SOL    HW1 5498   6.655   3.264   6.919
 1533SOL    HW2 5499   6.736   3.343   0.014
 1534SOL     OW 5500   1.996   4.976   6.722
 1534SOL    HW1 5501   1.954   4.887   6.737
 1534SOL    HW2 5502   1.995   4.998   6.624
 1535SOL     OW 5503   5.010   6.425   3.727
 1535SOL    HW1 5504   5.001   6.469   3.816
 1535SOL    HW2 5505   5.058   6.487   3.664
 1536SOL     OW 5506   4.071   4.283   5.307
 1536SOL    HW1 5507   4.109   4.353   5.246
 1536SOL    HW2 5508   4.060   4.197   5.256
 1537SOL     OW 5509   4.635   6.239   3.162
 1537SOL    HW1 5510   4.600   6.199   3.078
 1537SOL    HW2 5511   4.615   6.337   3.162
 1538SOL     OW 5512   3.942   6.288   5.813
 1538SOL    HW1 5513   3.970   6.332   5.898
 1538SOL    HW2 5514   3.878   6.214   5.832
 1539SOL     OW 5515   4.080   3.975   1.854
 1539SOL    HW1 5516   3.994   4.017   1.824
 1539SOL    HW2 5517   4.157   4.020   1.808
 1540SOL     OW 5518   1.801   6.075   5.928
 1540SOL    HW1 5519   1.807   6.129   6.012
 1540SOL    HW2 5520   1.876   6.008   5.927
 1541SOL     OW 5521   3.751   2.895   2.612
 1541SOL    HW1 5522   3.656   2.921   2.594
 1541SOL    HW2 5523   3.793   2.861   2.528
 1542SOL     OW 5524   6.286   6.100   2.033
 1542SOL    HW1 5525   6.311   6.033   2.103
 1542SOL    HW2 5526   6.367   6.154   2.010
 1543SOL     OW 5527   3.473   4.452   5.468
 1543SOL    HW1 5528   3.479   4.353   5.483
 1543SOL    HW2 5529   3.519   4.476   5.383
 1544SOL     OW 5530   3.248   3.667   3.015
 1544SOL    HW1 5531   3.163   3.719   3.004
 1544SOL    HW2 5532   3.305   3.711   3.084
 1545SOL     OW 5533   4.690   0.805   4.244
 1545SOL    HW1 5534   4.783   0.784   4.217
 1545SOL    HW2 5535   4.670   0.901   4.222
 1546SOL     OW 5536   3.655   6.411   6.091
 1546SOL    HW1 5537   3.685   6.505   6.077
 1546SOL    HW2 5538   3.586   6.387   6.022
 1547SOL     OW 5539   1.439   3.875   2.983
 1547SOL    HW1 5540   1.479   3.799   3.035
 1547SOL    HW2 5541   1.403   3.943   3.047
 1548SOL     OW 5542   4.806   3.989   5.716
 1548SOL    HW1 5543   4.806   3.895   5.751
 1548SOL    HW2 5544   4.879   4.041   5.760
 1549SOL     OW 5545   4.488   1.057   3.302
 1549SOL    HW1 5546   4.502   1.120   3.225
 1549SOL    HW2 5547   4.558   0.985   3.299
 1550SOL     OW 5548   2.886   4.638   6.991
 1550SOL    HW1 5549   2.878   4.641   0.069
 1550SOL    HW2 5550   2.829   4.709   6.951
 1551SOL     OW 5551   2.264   4.259   6.216
 1551SOL    HW1 5552   2.363   4.263   6.231
 1551SOL    HW2 5553   2.246   4.272   6.118
 1552SOL     OW 5554   6.653   6.409   6.928
 1552SOL    HW1 5555   6.704   6.377   6.848
 1552SOL    HW2 5556   6.629   6.505   6.915
 1553SOL     OW 5557   0.186   0.985   5.503
 1553SOL    HW1 5558   0.208   1.022   5.412
 1553SOL    HW2 5559   0.117   1.043   5.547
 1554SOL     OW 5560   4.692   1.356   3.485
 1554SOL    HW1 5561   4.614   1.408   3.521
 1554SOL    HW2 5562   4.696   1.368   3.386
 1555SOL     OW 5563   4.794   1.999   0.502
 1555SOL    HW1 5564   4.712   2.048   0.472
 1555SOL    HW2 5565   4.808   1.919   0.444
 1556SOL     OW 5566   2.512   1.128   0.754
 1556SOL    HW1 5567   2.583   1.095   0.692
 1556SOL    HW2 5568   2.549   1.136   0.847
 1557SOL     OW 5569   2.029   1.097   6.593
 1557SOL    HW1 5570   1.939   1.056   6.579
 1557SOL    HW2 5571   2.099   1.036   6.558
 1558SOL     OW 5572   5.602   0.887   4.723
 1558SOL    HW1 5573   5.616   0.814   4.790
 1558SOL    HW2 5574   5.637   0.973   4.760
 1559SOL     OW 5575   0.196   2.589   0.139
 1559SOL    HW1 5576   0.155   2.598   0.230
 1559SOL    HW2 5577   0.186   2.495   0.107
 1560SOL     OW 5578   2.814   2.227   6.016
 1560SOL    HW1 5579   2.745   2.292   5.986
 1560SOL    HW2 5580   2.771   2.153   6.067
 1561SOL     OW 5581   0.360   6.224   3.099
 1561SOL    HW1 5582   0.274   6.220   3.048
 1561SOL    HW2 5583   0.343   6.199   3.194
 1562SOL     OW 5584   3.684   5.440   2.806
 1562SOL    HW1 5585   3.593   5.481   2.811
 1562SOL    HW2 5586   3.750   5.510   2.777
 1563SOL     OW 5587   2.349   0.324   5.966
 1563SOL    HW1 5588   2.415   0.251   5.946
 1563SOL    HW2 5589   2.378   0.372   6.049
 1564SOL     OW 5590   1.196   3.221   3.012
 1564SOL    HW1 5591   1.294   3.202   2.998
 1564SOL    HW2 5592   1.155   3.145   3.063
 1565SOL     OW 5593   4.586   5.144   4.678
 1565SOL    HW1 5594   4.504   5.155   4.734
 1565SOL    HW2 5595   4.667   5.165   4.734
 1566SOL     OW 5596   5.055   4.711   3.954
 1566SOL    HW1 5597   4.979   4.648   3.968
 1566SOL    HW2 5598   5.093   4.737   4.042
 1567SOL     OW 5599   6.181   6.081   6.928
 1567SOL    HW1 5600   6.251   6.027   6.975
 1567SOL    HW2 5601   6.168   6.046   6.836
 1568SOL     OW 5602   1.966   5.519   1.078
 1568SOL    HW1 5603   1.878   5.480   1.052
 1568SOL    HW2 5604   1.962   5.551   1.172
 1569SOL     OW 5605   3.164   6.892   3.659
 1569SOL    HW1 5606   3.067   6.889   3.685
 1569SOL    HW2 5607   3.175   6.852   3.568
 1570SOL     OW 5608   2.133   6.851   0.672
 1570SOL    HW1 5609   2.069   6.802   0.731
 1570SOL    HW2 5610   2.226   6.818   0.688
 1571SOL     OW 5611   6.142   1.710   2.446
 1571SOL    HW1 5612   6.241   1.707   2.460
 1571SOL    HW2 5613   6.112   1.624   2.406
 1572SOL     OW 5614   0.837   6.026   0.496
 1572SOL    HW1 5615   0.896   5.948   0.515
 1572SOL    HW2 5616   0.751   5.994   0.457
 1573SOL     OW 5617   6.341   3.230   1.905
 1573SOL    HW1 5618   6.262   3.278   1.868
 1573SOL    HW2 5619   6.335   3.229   2.005
 1574SOL     OW 5620   0.093   1.264   2.974
 1574SOL    HW1 5621   0.143   1.336   3.020
 1574SOL    HW2 5622   0.129   1.175   3.001
 1575SOL     OW 5623   2.495   2.107   1.218
 1575SOL    HW1 5624   2.445   2.030   1.179
 1575SOL    HW2 5625   2.587   2.078   1.244
 1576SOL     OW 5626   0.676   0.956   3.035
 1576SOL    HW1 5627   0.589   0.997   3.062
 1576SOL    HW2 5628   0.669   0.921   2.942
 1577SOL     OW 5629   2.620   0.854   5.400
 1577SOL    HW1 5630   2.626   0.923   5.329
 1577SOL    HW2 5631   2.634   0.897   5.490
 1578SOL     OW 5632   5.547   2.663   6.118
 1578SOL    HW1 5633   5.469   2.726   6.124
 1578SOL    HW2 5634   5.522   2.585   6.062
 1579SOL     OW 5635   0.982   1.868   2.534
 1579SOL    HW1 5636   1.000   1.966   2.527
 1579SOL    HW2 5637   0.938   1.847   2.621
 1580SOL     OW 5638   3.177   4.071   4.059
 1580SOL    HW1 5639   3.263   4.043   4.018
 1580SOL    HW2 5640   3.109   3.999   4.046
 1581SOL     OW 5641   6.616   4.352   5.547
 1581SOL    HW1 5642   6.602   4.261   5.508
 1581SOL    HW2 5643   6.713   4.374   5.548
 1582SOL     OW 5644   2.548   0.002   4.100
 1582SOL    HW1 5645   2.572   0.063   4.176
 1582SOL    HW2 5646   2.479   6.957   4.130
 1583SOL     OW 5647   0.806   5.434   3.447
 1583SOL    HW1 5648   0.750   5.381   3.510
 1583SOL    HW2 5649   0.830   5.378   3.368
 1584SOL     OW 5650   0.625   5.993   6.328
 1584SOL    HW1 5651   0.605   6.040   6.242
 1584SOL    HW2 5652   0.719   6.014   6.357
 1585SOL     OW 5653   5.082   1.375   3.500
 1585SOL    HW1 5654   5.016   1.390   3.574
 1585SOL    HW2 5655   5.098   1.277   3.489
 1586SOL     OW 5656   3.412   4.948   1.988
 1586SOL    HW1 5657   3.484   4.882   1.966
 1586SOL    HW2 5658   3.356   4.912   2.063
 1587SOL     OW 5659   3.133   5.696   6.462
 1587SOL    HW1 5660   3.115   5.646   6.378
 1587SOL    HW2 5661   3.167   5.787   6.441
 1588SOL     OW 5662   3.893   0.402   2.845
 1588SOL    HW1 5663   3.972   0.452   2.810
 1588SOL    HW2 5664   3.909   0.375   2.939
 1589SOL     OW 5665   6.458   2.993   2.274
 1589SOL    HW1 5666   6.468   2.909   2.221
 1589SOL    HW2 5667   6.394   3.054   2.228
 1590SOL     OW 5668   4.007   6.616   5.536
 1590SOL    HW1 5669   4.069   6.687   5.571
 1590SOL    HW2 5670   4.060   6.544   5.491
 1591SOL     OW 5671   6.959   5.056   2.036
 1591SOL    HW1 5672   6.954   5.091   1.942
 1591SOL    HW2 5673   0.006   5.108   2.087
 1592SOL     OW 5674   1.822   3.941   6.973
 1592SOL    HW1 5675   1.833   3.892   0.038
 1592SOL    HW2 5676   1.768   4.024   6.988
 1593SOL     OW 5677   1.182   6.212   5.758
 1593SOL    HW1 5678   1.236   6.245   5.680
 1593SOL    HW2 5679   1.225   6.130   5.796
 1594SOL     OW 5680   0.598   6.360   1.620
 1594SOL    HW1 5681   0.569   6.421   1.694
 1594SOL    HW2 5682   0.546   6.383   1.537
 1595SOL     OW 5683   1.440   5.396   0.148
 1595SOL    HW1 5684   1.527   5.396   0.098
 1595SOL    HW2 5685   1.448   5.451   0.230
 1596SOL     OW 5686   0.338   2.726   3.672
 1596SOL    HW1 5687   0.333   2.679   3.583
 1596SOL    HW2 5688   0.246   2.751   3.702
 1597SOL     OW 5689   1.269   6.273   6.978
 1597SOL    HW1 5690   1.364   6.243   6.984
 1597SOL    HW2 5691   1.265   6.373   6.979
 1598SOL     OW 5692   6.893   4.115   5.648
 1598SOL    HW1 5693   6.963   4.064   5.598
 1598SOL    HW2 5694   6.897   4.211   5.623
 1599SOL     OW 5695   4.811   5.143   4.796
 1599SOL    HW1 5696   4.860   5.196   4.865
 1599SOL    HW2 5697   4.808   5.047   4.823
 1600SOL     OW 5698   4.471   1.255   3.122
 1600SOL    HW1 5699   4.454   1.349   3.152
 1600SOL    HW2 5700   4.528   1.256   3.040
 1601SOL     OW 5701   6.873   5.675   4.744
 1601SOL    HW1 5702   6.953   5.644   4.795
 1601SOL    HW2 5703   6.801   5.605   4.748
 1602SOL     OW 5704   4.206   5.869   3.090
 1602SOL    HW1 5705   4.179   5.853   3.184
 1602SOL    HW2 5706   4.270   5.798   3.061
 1603SOL     OW 5707   1.074   6.341   3.465
 1603SOL    HW1 5708   1.121   6.255   3.446
 1603SOL    HW2 5709   1.077   6.399   3.384
 1604SOL     OW 5710   5.966   4.457   1.469
 1604SOL    HW1 5711   6.059   4.420   1.458
 1604SOL    HW2 5712   5.971   4.543   1.518
 1605SOL     OW 5713   6.451   5.371   1.254
 1605SOL    HW1 5714   6.496   5.320   1.182
 1605SOL    HW2 5715   6.393   5.310   1.308
 1606SOL     OW 5716   3.436   0.895   5.627
 1606SOL    HW1 5717   3.499   0.957   5.580
 1606SOL    HW2 5718   3.411   0.934   5.715
 1607SOL     OW 5719   4.188   1.175   0.992
 1607SOL    HW1 5720   4.178   1.275   0.995
 1607SOL    HW2 5721   4.146   1.135   1.074
 1608SOL     OW 5722   0.819   0.743   3.466
 1608SOL    HW1 5723   0.864   0.772   3.382
 1608SOL    HW2 5724   0.799   0.823   3.523
 1609SOL     OW 5725   4.303   0.036   0.274
 1609SOL    HW1 5726   4.337   0.031   0.368
 1609SOL    HW2 5727   4.227   6.994   0.263
 1610SOL     OW 5728   5.996   4.696   6.395
 1610SOL    HW1 5729   6.079   4.726   6.442
 1610SOL    HW2 5730   5.949   4.776   6.356
 1611SOL     OW 5731   2.503   3.557   0.916
 1611SOL    HW1 5732   2.540   3.647   0.940
 1611SOL    HW2 5733   2.452   3.520   0.994
 1612SOL     OW 5734   2.748   6.686   6.436
 1612SOL    HW1 5735   2.794   6.742   6.368
 1612SOL    HW2 5736   2.744   6.736   6.523
 1613SOL     OW 5737   1.543   5.304   2.104
 1613SOL    HW1 5738   1.468   5.362   2.135
 1613SOL    HW2 5739   1.624   5.360   2.086
 1614SOL     OW 5740   5.640   3.474   0.167
 1614SOL    HW1 5741   5.686   3.460   0.254
 1614SOL    HW2 5742   5.667   3.403   0.103
 1615SOL     OW 5743   5.650   5.040   0.831
 1615SOL    HW1 5744   5.566   5.064   0.879
 1615SOL    HW2 5745   5.629   5.018   0.736
 1616SOL     OW 5746   3.039   1.358   5.110
 1616SOL    HW1 5747   3.059   1.351   5.012
 1616SOL    HW2 5748   2.981   1.438   5.127
 1617SOL     OW 5749   6.196   6.900   2.715
 1617SOL    HW1 5750   6.222   6.903   2.619
 1617SOL    HW2 5751   6.147   6.984   2.739
 1618SOL     OW 5752   1.732   4.369   1.976
 1618SOL    HW1 5753   1.753   4.324   1.889
 1618SOL    HW2 5754   1.661   4.317   2.024
 1619SOL     OW 5755   1.449   3.563   2.075
 1619SOL    HW1 5756   1.497   3.508   2.143
 1619SOL    HW2 5757   1.504   3.643   2.051
 1620SOL     OW 5758   2.805   4.786   1.797
 1620SOL    HW1 5759   2.832   4.879   1.821
 1620SOL    HW2 5760   2.828   4.725   1.872
 1621SOL     OW 5761   0.300   1.022   0.666
 1621SOL    HW1 5762   0.308   1.114   0.627
 1621SOL    HW2 5763   0.205   1.003   0.689
 1622SOL     OW 5764   0.603   3.082   4.806
 1622SOL    HW1 5765   0.554   3.066   4.720
 1622SOL    HW2 5766   0.619   2.994   4.851
 1623SOL     OW 5767   2.186   3.131   4.880
 1623SOL    HW1 5768   2.203   3.229   4.890
 1623SOL    HW2 5769   2.263   3.080   4.919
 1624SOL     OW 5770   2.880   0.991   4.952
 1624SOL    HW1 5771   2.869   1.072   5.010
 1624SOL    HW2 5772   2.805   0.988   4.886
 1625SOL     OW 5773   0.860   5.296   0.263
 1625SOL    HW1 5774   0.859   5.244   0.178
 1625SOL    HW2 5775   0.832   5.236   0.339
 1626SOL     OW 5776   4.051   2.100   0.259
 1626SOL    HW1 5777   4.065   2.193   0.227
 1626SOL    HW2 5778   3.987   2.053   0.198
 1627SOL     OW 5779   6.047   3.606   3.031
 1627SOL    HW1 5780   6.065   3.513   3.000
 1627SOL    HW2 5781   6.026   3.605   3.128
 1628SOL     OW 5782   4.703   4.145   6.908
 1628SOL    HW1 5783   4.781   4.206   6.897
 1628SOL    HW2 5784   4.704   4.075   6.837
 1629SOL     OW 5785   2.940   0.882   4.168
 1629SOL    HW1 5786   2.999   0.961   4.181
 1629SOL    HW2 5787   2.974   0.806   4.224
 1630SOL     OW 5788   1.235   5.007   5.329
 1630SOL    HW1 5789   1.262   4.977   5.238
 1630SOL    HW2 5790   1.315   5.044   5.377
 1631SOL     OW 5791   1.417   2.928   6.777
 1631SOL    HW1 5792   1.414   2.894   6.683
 1631SOL    HW2 5793   1.418   2.851   6.840
 1632SOL     OW 5794   6.770   2.198   0.277
 1632SOL    HW1 5795   6.718   2.268   0.325
 1632SOL    HW2 5796   6.841   2.241   0.221
 1633SOL     OW 5797   5.430   3.629   4.426
 1633SOL    HW1 5798   5.356   3.602   4.488
 1633SOL    HW2 5799   5.421   3.726   4.404
 1634SOL     OW 5800   4.369   5.698   4.846
 1634SOL    HW1 5801   4.355   5.675   4.942
 1634SOL    HW2 5802   4.345   5.794   4.830
 1635SOL     OW 5803   0.352   4.795   6.097
 1635SOL    HW1 5804   0.272   4.734   6.100
 1635SOL    HW2 5805   0.434   4.741   6.078
 1636SOL     OW 5806   3.074   4.312   1.677
 1636SOL    HW1 5807   3.044   4.393   1.727
 1636SOL    HW2 5808   2.998   4.247   1.671
 1637SOL     OW 5809   1.001   0.514   2.522
 1637SOL    HW1 5810   0.909   0.550   2.534
 1637SOL    HW2 5811   1.009   0.427   2.571
 1638SOL     OW 5812   0.224   4.520   3.540
 1638SOL    HW1 5813   0.308   4.512   3.592
 1638SOL    HW2 5814   0.241   4.494   3.445
 1639SOL     OW 5815   4.877   0.091   2.314
 1639SOL    HW1 5816   4.914   7.020   2.302
 1639SOL    HW2 5817   4.807   0.090   2.384
 1640SOL     OW 5818   5.980   0.841   0.144
 1640SOL    HW1 5819   5.931   0.756   0.126
 1640SOL    HW2 5820   6.060   0.846   0.085
 1641SOL     OW 5821   4.898   2.492   3.510
 1641SOL    HW1 5822   4.907   2.587   3.480
 1641SOL    HW2 5823   4.815   2.452   3.472
 1642SOL     OW 5824   5.930   3.648   6.239
 1642SOL    HW1 5825   5.900   3.556   6.212
 1642SOL    HW2 5826   5.997   3.640   6.313
 1643SOL     OW 5827   3.025   4.847   5.053
 1643SOL    HW1 5828   3.064   4.839   5.145
 1643SOL    HW2 5829   2.983   4.760   5.027
 1644SOL     OW 5830   6.241   3.602   0.565
 1644SOL    HW1 5831   6.162   3.605   0.627
 1644SOL    HW2 5832   6.247   3.687   0.514
 1645SOL     OW 5833   3.139   5.361   5.403
 1645SOL    HW1 5834   3.224   5.395   5.365
 1645SOL    HW2 5835   3.078   5.437   5.425
 1646SOL     OW 5836   2.885   6.204   0.309
 1646SOL    HW1 5837   2.948   6.129   0.288
 1646SOL    HW2 5838   2.937   6.286   0.332
 1647SOL     OW 5839   5.717   2.878   4.674
 1647SOL    HW1 5840   5.781   2.939   4.628
 1647SOL    HW2 5841   5.636   2.865   4.616
 1648SOL     OW 5842   5.504   5.012   0.577
 1648SOL    HW1 5843   5.419   5.049   0.615
 1648SOL    HW2 5844   5.555   5.086   0.533
 1649SOL     OW 5845   3.130   0.824   4.637
 1649SOL    HW1 5846   3.062   0.853   4.570
 1649SOL    HW2 5847   3.167   0.904   4.684
 1650SOL     OW 5848   1.760   6.164   5.663
 1650SOL    HW1 5849   1.773   6.161   5.762
 1650SOL    HW2 5850   1.778   6.073   5.625
 1651SOL     OW 5851   0.839   2.025   1.398
 1651SOL    HW1 5852   0.845   1.925   1.406
 1651SOL    HW2 5853   0.779   2.060   1.470
 1652SOL     OW 5854   1.183   3.959   2.616
 1652SOL    HW1 5855   1.147   3.925   2.529
 1652SOL    HW2 5856   1.197   3.882   2.678
 1653SOL     OW 5857   1.097   0.072   1.023
 1653SOL    HW1 5858   1.081   7.018   1.088
 1653SOL    HW2 5859   1.195   0.091   1.018
 1654SOL     OW 5860   0.638   3.896   1.319
 1654SOL    HW1 5861   0.602   3.817   1.269
 1654SOL    HW2 5862   0.655   3.971   1.256
 1655SOL     OW 5863   7.010   2.396   5.359
 1655SOL    HW1 5864   6.967   2.306   5.363
 1655SOL    HW2 5865   0.079   2.388   5.319
 1656SOL     OW 5866   2.679   4.589   2.326
 1656SOL    HW1 5867   2.613   4.582   2.251
 1656SOL    HW2 5868   2.765   4.626   2.291
 1657SOL     OW 5869   0.125   1.028   3.419
 1657SOL    HW1 5870   0.111   0.961   3.346
 1657SOL    HW2 5871   0.037   1.056   3.457
 1658SOL     OW 5872   0.535   5.948   0.960
 1658SOL    HW1 5873   0.596   6.016   1.001
 1658SOL    HW2 5874   0.444   5.988   0.947
 1659SOL     OW 5875   3.821   0.393   6.016
 1659SOL    HW1 5876   3.740   0.335   6.020
 1659SOL    HW2 5877   3.874   0.371   5.934
 1660SOL     OW 5878   1.029   5.355   3.910
 1660SOL    HW1 5879   1.073   5.434   3.953
 1660SOL    HW2 5880   1.041   5.274   3.967
 1661SOL     OW 5881   2.706   0.476   1.845
 1661SOL    HW1 5882   2.693   0.389   1.892
 1661SOL    HW2 5883   2.736   0.460   1.751
 1662SOL     OW 5884   6.520   0.709   4.288
 1662SOL    HW1 5885   6.523   0.634   4.355
 1662SOL    HW2 5886   6.457   0.685   4.214
 1663SOL     OW 5887   4.466   5.953   2.190
 1663SOL    HW1 5888   4.451   5.873   2.249
 1663SOL    HW2 5889   4.512   6.025   2.242
 1664SOL     OW 5890   2.092   0.501   4.449
 1664SOL    HW1 5891   2.058   0.594   4.459
 1664SOL    HW2 5892   2.016   0.440   4.426
 1665SOL     OW 5893   0.031   1.724   2.919
 1665SOL    HW1 5894   0.082   1.689   2.841
 1665SOL    HW2 5895   0.092   1.777   2.978
 1666SOL     OW 5896   5.273   2.700   6.844
 1666SOL    HW1 5897   5.257   2.714   6.941
 1666SOL    HW2 5898   5.290   2.603   6.826
 1667SOL     OW 5899   6.918   5.553   1.441
 1667SOL    HW1 5900   6.898   5.495   1.362
 1667SOL    HW2 5901   6.920   5.649   1.412
 1668SOL     OW 5902   5.133   6.249   5.473
 1668SOL    HW1 5903   5.165   6.334   5.515
 1668SOL    HW2 5904   5.156   6.172   5.532
 1669SOL     OW 5905   6.863   5.594   6.432
 1669SOL    HW1 5906   6.796   5.663   6.461
 1669SOL    HW2 5907   6.946   5.605   6.486
 1670SOL     OW 5908   0.026   3.635   5.580
 1670SOL    HW1 5909   0.015   3.598   5.673
 1670SOL    HW2 5910   0.014   3.735   5.583
 1671SOL     OW 5911   5.208   1.348   1.530
 1671SOL    HW1 5912   5.212   1.292   1.613
 1671SOL    HW2 5913   5.183   1.442   1.554
 1672SOL     OW 5914   1.916   2.930   1.113
 1672SOL    HW1 5915   1.927   2.999   1.042
 1672SOL    HW2 5916   1.963   2.959   1.196
 1673SOL     OW 5917   0.620   1.746   4.329
 1673SOL    HW1 5918   0.604   1.754   4.231
 1673SOL    HW2 5919   0.587   1.656   4.360
 1674SOL     OW 5920   0.801   3.756   2.392
 1674SOL    HW1 5921   0.768   3.752   2.298
 1674SOL    HW2 5922   0.752   3.688   2.448
 1675SOL     OW 5923   4.847   0.042   6.572
 1675SOL    HW1 5924   4.843   0.011   6.476
 1675SOL    HW2 5925   4.922   0.106   6.583
 1676SOL     OW 5926   1.849   2.590   1.933
 1676SOL    HW1 5927   1.923   2.546   1.882
 1676SOL    HW2 5928   1.781   2.627   1.869
 1677SOL     OW 5929   2.931   3.729   4.981
 1677SOL    HW1 5930   2.911   3.707   4.886
 1677SOL    HW2 5931   3.024   3.699   5.003
 1678SOL     OW 5932   4.849   3.996   4.392
 1678SOL    HW1 5933   4.861   4.004   4.293
 1678SOL    HW2 5934   4.815   4.083   4.428
 1679SOL     OW 5935   2.483   2.382   4.230
 1679SOL    HW1 5936   2.437   2.465   4.197
 1679SOL    HW2 5937   2.440   2.302   4.189
 1680SOL     OW 5938   0.133   3.126   4.695
 1680SOL    HW1 5939   0.203   3.155   4.630
 1680SOL    HW2 5940   0.173   3.060   4.759
 1681SOL     OW 5941   6.742   5.889   0.341
 1681SOL    HW1 5942   6.688   5.872   0.259
 1681SOL    HW2 5943   6.838   5.869   0.322
 1682SOL     OW 5944   1.156   0.877   4.296
 1682SOL    HW1 5945   1.196   0.963   4.328
 1682SOL    HW2 5946   1.197   0.851   4.209
 1683SOL     OW 5947   4.785   5.165   1.431
 1683SOL    HW1 5948   4.693   5.141   1.403
 1683SOL    HW2 5949   4.802   5.131   1.524
 1684SOL     OW 5950   1.656   5.806   2.225
 1684SOL    HW1 5951   1.731   5.809   2.291
 1684SOL    HW2 5952   1.678   5.866   2.147
 1685SOL     OW 5953   2.630   0.926   5.123
 1685SOL    HW1 5954   2.649   0.976   5.039
 1685SOL    HW2 5955   2.578   0.844   5.102
 1686SOL     OW 5956   2.773   5.838   5.098
 1686SOL    HW1 5957   2.835   5.767   5.065
 1686SOL    HW2 5958   2.735   5.888   5.021
 1687SOL     OW 5959   2.021   3.848   1.417
 1687SOL    HW1 5960   2.000   3.796   1.500
 1687SOL    HW2 5961   2.083   3.795   1.359
 1688SOL     OW 5962   1.904   2.692   4.177
 1688SOL    HW1 5963   1.871   2.734   4.262
 1688SOL    HW2 5964   1.932   2.764   4.113
 1689SOL     OW 5965   6.074   1.680   2.729
 1689SOL    HW1 5966   6.121   1.705   2.644
 1689SOL    HW2 5967   6.075   1.757   2.792
 1690SOL     OW 5968   1.653   2.840   3.575
 1690SOL    HW1 5969   1.634   2.840   3.477
 1690SOL    HW2 5970   1.661   2.935   3.607
 1691SOL     OW 5971   5.700   3.853   3.267
 1691SOL    HW1 5972   5.788   3.899   3.277
 1691SOL    HW2 5973   5.711   3.770   3.212
 1692SOL     OW 5974   5.409   6.926   1.342
 1692SOL    HW1 5975   5.473   6.988   1.386
 1692SOL    HW2 5976   5.457   6.843   1.312
 1693SOL     OW 5977   0.329   2.206   1.809
 1693SOL    HW1 5978   0.300   2.179   1.900
 1693SOL    HW2 5979   0.391   2.138   1.771
 1694SOL     OW 5980   5.497   0.571   2.661
 1694SOL    HW1 5981   5.463   0.479   2.680
 1694SOL    HW2 5982   5.593   0.578   2.688
 1695SOL     OW 5983   3.286   1.198   5.631
 1695SOL    HW1 5984   3.315   1.124   5.691
 1695SOL    HW2 5985   3.190   1.220   5.649
 1696SOL     OW 5986   4.764   4.317   0.759
 1696SOL    HW1 5987   4.679   4.265   0.764
 1696SOL    HW2 5988   4.761   4.391   0.826
 1697SOL     OW 5989   5.559   6.983   0.819
 1697SOL    HW1 5990   5.524   0.052   0.845
 1697SOL    HW2 5991   5.637   6.995   0.757
 1698SOL     OW 5992   4.137   0.324   0.181
 1698SOL    HW1 5993   4.039   0.304   0.195
 1698SOL    HW2 5994   4.171   0.269   0.105
 1699SOL     OW 5995   1.508   0.658   0.710
 1699SOL    HW1 5996   1.468   0.589   0.770
 1699SOL    HW2 5997   1.502   0.627   0.615
 1700SOL     OW 5998   5.411   2.664   3.206
 1700SOL    HW1 5999   5.383   2.568   3.194
 1700SOL    HW2 6000   5.354   2.706   3.277
 1701SOL     OW 6001   4.621   4.474   6.417
 1701SOL    HW1 6002   4.625   4.446   6.513
 1701SOL    HW2 6003   4.551   4.544   6.406
 1702SOL     OW 6004   6.887   2.568   0.098
 1702SOL    HW1 6005   6.910   2.478   0.137
 1702SOL    HW2 6006   6.789   2.584   0.107
 1703SOL     OW 6007   3.086   2.766   1.747
 1703SOL    HW1 6008   3.055   2.682   1.791
 1703SOL    HW2 6009   3.107   2.748   1.651
 1704SOL     OW 6010   1.028   2.288   0.626
 1704SOL    HW1 6011   0.950   2.347   0.608
 1704SOL    HW2 6012   1.005   2.222   0.697
 1705SOL     OW 6013   3.528   1.835   1.682
 1705SOL    HW1 6014   3.434   1.834   1.647
 1705SOL    HW2 6015   3.530   1.789   1.771
 1706SOL     OW 6016   4.485   1.065   2.299
 1706SOL    HW1 6017   4.512   1.159   2.280
 1706SOL    HW2 6018   4.442   1.026   2.217
 1707SOL     OW 6019   5.522   2.222   1.925
 1707SOL    HW1 6020   5.545   2.209   1.828
 1707SOL    HW2 6021   5.606   2.225   1.979
 1708SOL     OW 6022   5.118   5.225   2.137
 1708SOL    HW1 6023   5.085   5.163   2.207
 1708SOL    HW2 6024   5.099   5.187   2.046
 1709SOL     OW 6025   3.298   5.422   2.337
 1709SOL    HW1 6026   3.350   5.348   2.380
 1709SOL    HW2 6027   3.259   5.390   2.251
 1710SOL     OW 6028   5.346   5.394   4.076
 1710SOL    HW1 6029   5.351   5.415   3.979
 1710SOL    HW2 6030   5.275   5.449   4.119
 1711SOL     OW 6031   0.822   4.857   4.252
 1711SOL    HW1 6032   0.794   4.859   4.156
 1711SOL    HW2 6033   0.883   4.779   4.267
 1712SOL     OW 6034   6.953   2.603   5.675
 1712SOL    HW1 6035   6.935   2.660   5.755
 1712SOL    HW2 6036   6.951   2.659   5.592
 1713SOL     OW 6037   5.137   2.795   1.694
 1713SOL    HW1 6038   5.221   2.748   1.721
 1713SOL    HW2 6039   5.085   2.737   1.632
 1714SOL     OW 6040   3.370   1.966   5.712
 1714SOL    HW1 6041   3.351   1.927   5.622
 1714SOL    HW2 6042   3.350   2.064   5.709
 1715SOL     OW 6043   0.289   5.753   2.793
 1715SOL    HW1 6044   0.243   5.842   2.795
 1715SOL    HW2 6045   0.383   5.763   2.826
 1716SOL     OW 6046   4.860   6.822   3.077
 1716SOL    HW1 6047   4.867   6.766   3.160
 1716SOL    HW2 6048   4.764   6.849   3.064
 1717SOL     OW 6049   2.440   6.370   5.900
 1717SOL    HW1 6050   2.407   6.464   5.897
 1717SOL    HW2 6051   2.367   6.309   5.929
 1718SOL     OW 6052   2.026   1.877   0.978
 1718SOL    HW1 6053   1.989   1.951   1.034
 1718SOL    HW2 6054   2.006   1.895   0.882
 1719SOL     OW 6055   1.853   3.414   0.617
 1719SOL    HW1 6056   1.777   3.479   0.618
 1719SOL    HW2 6057   1.870   3.380   0.709
 1720SOL     OW 6058   0.339   2.694   6.949
 1720SOL    HW1 6059   0.359   2.791   6.962
 1720SOL    HW2 6060   0.269   2.666   7.015
 1721SOL     OW 6061   1.551   6.302   1.474
 1721SOL    HW1 6062   1.477   6.345   1.422
 1721SOL    HW2 6063   1.622   6.369   1.494
 1722SOL     OW 6064   3.671   1.365   4.056
 1722SOL    HW1 6065   3.717   1.411   4.132
 1722SOL    HW2 6066   3.735   1.355   3.979
 1723SOL     OW 6067   5.794   2.501   2.839
 1723SOL    HW1 6068   5.695   2.496   2.831
 1723SOL    HW2 6069   5.836   2.491   2.748
 1724SOL     OW 6070   6.887   2.799   1.235
 1724SOL    HW1 6071   6.820   2.751   1.179
 1724SOL    HW2 6072   6.906   2.746   1.317
 1725SOL     OW 6073   1.746   4.917   6.320
 1725SOL    HW1 6074   1.844   4.914   6.342
 1725SOL    HW2 6075   1.702   4.988   6.374
 1726SOL     OW 6076   5.611   4.608   5.300
 1726SOL    HW1 6077   5.537   4.673   5.319
 1726SOL    HW2 6078   5.571   4.523   5.264
 1727SOL     OW 6079   3.199   3.313   4.015
 1727SOL    HW1 6080   3.222   3.378   3.942
 1727SOL    HW2 6081   3.271   3.314   4.084
 1728SOL     OW 6082   4.603   4.951   5.566
 1728SOL    HW1 6083   4.617   4.972   5.662
 1728SOL    HW2 6084   4.661   5.010   5.510
 1729SOL     OW 6085   2.422   4.384   3.228
 1729SOL    HW1 6086   2.474   4.439   3.293
 1729SOL    HW2 6087   2.391   4.441   3.152
 1730SOL     OW 6088   0.943   6.986   5.680
 1730SOL    HW1 6089   0.990   6.921   5.739
 1730SOL    HW2 6090   0.965   6.967   5.584
 1731SOL     OW 6091   6.611   3.885   2.864
 1731SOL    HW1 6092   6.547   3.836   2.922
 1731SOL    HW2 6093   6.701   3.841   2.868
 1732SOL     OW 6094   2.231   4.969   5.775
 1732SOL    HW1 6095   2.330   4.979   5.788
 1732SOL    HW2 6096   2.192   5.057   5.747
 1733SOL     OW 6097   1.649   4.202   1.426
 1733SOL    HW1 6098   1.621   4.221   1.332
 1733SOL    HW2 6099   1.643   4.285   1.481
 1734SOL     OW 6100   4.343   3.184   1.143
 1734SOL    HW1 6101   4.399   3.102   1.156
 1734SOL    HW2 6102   4.403   3.264   1.135
 1735SOL     OW 6103   5.215   5.951   0.677
 1735SOL    HW1 6104   5.210   5.913   0.769
 1735SOL    HW2 6105   5.234   6.049   0.683
 1736SOL     OW 6106   3.335   3.023   0.326
 1736SOL    HW1 6107   3.242   3.052   0.302
 1736SOL    HW2 6108   3.354   3.046   0.421
 1737SOL     OW 6109   2.875   1.344   4.249
 1737SOL    HW1 6110   2.962   1.343   4.299
 1737SOL    HW2 6111   2.874   1.269   4.183
 1738SOL     OW 6112   2.105   2.213   3.945
 1738SOL    HW1 6113   2.038   2.147   3.910
 1738SOL    HW2 6114   2.057   2.296   3.974
 1739SOL     OW 6115   0.285   1.982   5.555
 1739SOL    HW1 6116   0.319   1.963   5.647
 1739SOL    HW2 6117   0.362   2.006   5.495
 1740SOL     OW 6118   6.801   1.744   5.566
 1740SOL    HW1 6119   6.899   1.754   5.581
 1740SOL    HW2 6120   6.763   1.683   5.636
 1741SOL     OW 6121   2.370   1.209   3.844
 1741SOL    HW1 6122   2.434   1.175   3.775
 1741SOL    HW2 6123   2.418   1.226   3.929
 1742SOL     OW 6124   5.649   0.666   6.139
 1742SOL    HW1 6125   5.635   0.721   6.057
 1742SOL    HW2 6126   5.721   0.707   6.194
 1743SOL     OW 6127   1.288   2.437   1.180
 1743SOL    HW1 6128   1.257   2.439   1.085
 1743SOL    HW2 6129   1.256   2.520   1.227
 1744SOL     OW 6130   6.878   1.815   2.496
 1744SOL    HW1 6131   6.780   1.808   2.516
 1744SOL    HW2 6132   6.928   1.751   2.555
 1745SOL     OW 6133   6.254   6.495   2.668
 1745SOL    HW1 6134   6.315   6.470   2.593
 1745SOL    HW2 6135   6.170   6.534   2.631
 1746SOL     OW 6136   1.552   4.760   4.549
 1746SOL    HW1 6137   1.589   4.838   4.599
 1746SOL    HW2 6138   1.458   4.743   4.579
 1747SOL     OW 6139   5.823   1.840   2.546
 1747SOL    HW1 6140   5.861   1.761   2.497
 1747SOL    HW2 6141   5.738   1.814   2.591
 1748SOL     OW 6142   1.166   0.457   4.789
 1748SOL    HW1 6143   1.070   0.466   4.818
 1748SOL    HW2 6144   1.197   0.364   4.807
 1749SOL     OW 6145   2.652   0.514   5.144
 1749SOL    HW1 6146   2.559   0.546   5.123
 1749SOL    HW2 6147   2.718   0.583   5.115
 1750SOL     OW 6148   5.207   6.936   4.261
 1750SOL    HW1 6149   5.167   0.005   4.276
 1750SOL    HW2 6150   5.306   6.944   4.257
 1751SOL     OW 6151   4.028   6.487   5.045
 1751SOL    HW1 6152   4.117   6.481   5.089
 1751SOL    HW2 6153   4.002   6.397   5.009
 1752SOL     OW 6154   7.009   2.094   1.263
 1752SOL    HW1 6155   0.054   2.152   1.215
 1752SOL    HW2 6156   6.997   2.127   1.356
 1753SOL     OW 6157   0.226   1.168   0.960
 1753SOL    HW1 6158   0.265   1.251   0.921
 1753SOL    HW2 6159   0.127   1.178   0.968
 1754SOL     OW 6160   2.237   4.192   0.347
 1754SOL    HW1 6161   2.301   4.252   0.395
 1754SOL    HW2 6162   2.220   4.228   0.255
 1755SOL     OW 6163   6.958   6.018   2.165
 1755SOL    HW1 6164   6.906   6.068   2.234
 1755SOL    HW2 6165   6.913   6.027   2.076
 1756SOL     OW 6166   4.148   5.847   5.697
 1756SOL    HW1 6167   4.105   5.915   5.638
 1756SOL    HW2 6168   4.201   5.783   5.642
 1757SOL     OW 6169   2.763   5.298   4.877
 1757SOL    HW1 6170   2.810   5.215   4.906
 1757SOL    HW2 6171   2.665   5.281   4.870
 1758SOL     OW 6172   1.969   0.168   4.202
 1758SOL    HW1 6173   2.026   0.186   4.122
 1758SOL    HW2 6174   1.960   0.251   4.256
 1759SOL     OW 6175   1.741   5.539   6.388
 1759SOL    HW1 6176   1.712   5.443   6.389
 1759SOL    HW2 6177   1.826   5.548   6.441
 1760SOL     OW 6178   5.589   1.576   2.913
 1760SOL    HW1 6179   5.648   1.574   2.833
 1760SOL    HW2 6180   5.624   1.643   2.979
 1761SOL     OW 6181   6.918   0.063   0.875
 1761SOL    HW1 6182   6.995   0.122   0.850
 1761SOL    HW2 6183   6.905   7.016   0.804
 1762SOL     OW 6184   0.092   1.107   5.238
 1762SOL    HW1 6185   0.166   1.116   5.171
 1762SOL    HW2 6186   0.043   1.021   5.222
 1763SOL     OW 6187   1.283   3.642   3.512
 1763SOL    HW1 6188   1.335   3.704   3.453
 1763SOL    HW2 6189   1.341   3.566   3.540
 1764SOL     OW 6190   2.076   3.724   2.636
 1764SOL    HW1 6191   1.979   3.737   2.617
 1764SOL    HW2 6192   2.087   3.681   2.726
 1765SOL     OW 6193   3.479   0.952   0.919
 1765SOL    HW1 6194   3.571   0.958   0.959
 1765SOL    HW2 6195   3.411   0.956   0.992
 1766SOL     OW 6196   4.658   4.294   2.870
 1766SOL    HW1 6197   4.679   4.235   2.792
 1766SOL    HW2 6198   4.698   4.256   2.953
 1767SOL     OW 6199   0.301   3.414   3.100
 1767SOL    HW1 6200   0.264   3.331   3.140
 1767SOL    HW2 6201   0.318   3.482   3.171
 1768SOL     OW 6202   4.303   1.308   6.020
 1768SOL    HW1 6203   4.387   1.304   5.967
 1768SOL    HW2 6204   4.263   1.217   6.029
 1769SOL     OW 6205   4.393   2.320   6.149
 1769SOL    HW1 6206   4.416   2.227   6.180
 1769SOL    HW2 6207   4.463   2.384   6.181
 1770SOL     OW 6208   6.901   4.198   4.403
 1770SOL    HW1 6209   6.936   4.252   4.480
 1770SOL    HW2 6210   6.879   4.259   4.327
 1771SOL     OW 6211   1.699   5.037   0.178
 1771SOL    HW1 6212   1.613   4.994   0.150
 1771SOL    HW2 6213   1.680   5.122   0.225
 1772SOL     OW 6214   3.272   0.121   3.600
 1772SOL    HW1 6215   3.236   0.040   3.647
 1772SOL    HW2 6216   3.371   0.125   3.612
 1773SOL     OW 6217   3.289   4.031   6.852
 1773SOL    HW1 6218   3.341   4.115   6.839
 1773SOL    HW2 6219   3.349   3.960   6.888
 1774SOL     OW 6220   4.541   0.559   1.737
 1774SOL    HW1 6221   4.618   0.577   1.675
 1774SOL    HW2 6222   4.568   0.489   1.803
 1775SOL     OW 6223   2.010   5.772   4.340
 1775SOL    HW1 6224   1.911   5.764   4.356
 1775SOL    HW2 6225   2.059   5.749   4.424
 1776SOL     OW 6226   4.317   0.796   5.637
 1776SOL    HW1 6227   4.236   0.795   5.695
 1776SOL    HW2 6228   4.384   0.731   5.673
 1777SOL     OW 6229   3.060   5.681   5.765
 1777SOL    HW1 6230   3.096   5.636   5.683
 1777SOL    HW2 6231   3.067   5.780   5.754
 1778SOL     OW 6232   4.244   2.249   4.553
 1778SOL    HW1 6233   4.226   2.229   4.457
 1778SOL    HW2 6234   4.284   2.340   4.561
 1779SOL     OW 6235   4.308   2.076   3.964
 1779SOL    HW1 6236   4.260   2.034   4.041
 1779SOL    HW2 6237   4.323   2.007   3.893
 1780SOL     OW 6238   2.155   4.477   5.624
 1780SOL    HW1 6239   2.099   4.433   5.553
 1780SOL    HW2 6240   2.240   4.426   5.636
 1781SOL     OW 6241   4.815   5.459   3.730
 1781SOL    HW1 6242   4.795   5.519   3.652
 1781SOL    HW2 6243   4.750   5.476   3.804
 1782SOL     OW 6244   2.931   1.621   3.243
 1782SOL    HW1 6245   2.976   1.575   3.319
 1782SOL    HW2 6246   2.832   1.619   3.258
 1783SOL     OW 6247   2.154   3.113   6.634
 1783SOL    HW1 6248   2.075   3.053   6.625
 1783SOL    HW2 6249   2.137   3.198   6.583
 1784SOL     OW 6250   3.197   0.676   2.798
 1784SOL    HW1 6251   3.290   0.680   2.835
 1784SOL    HW2 6252   3.160   0.769   2.790
 1785SOL     OW 6253   5.265   5.301   3.779
 1785SOL    HW1 6254   5.343   5.364   3.781
 1785SOL    HW2 6255   5.224   5.302   3.688
 1786SOL     OW 6256   1.420   3.133   0.685
 1786SOL    HW1 6257   1.499   3.099   0.634
 1786SOL    HW2 6258   1.378   3.058   0.736
 1787SOL     OW 6259   1.836   0.708   4.792
 1787SOL    HW1 6260   1.773   0.750   4.857
 1787SOL    HW2 6261   1.806   0.615   4.770
 1788SOL     OW 6262   3.069   3.936   0.090
 1788SOL    HW1 6263   3.092   3.851   0.043
 1788SOL    HW2 6264   3.123   4.011   0.051
 1789SOL     OW 6265   6.500   2.468   2.008
 1789SOL    HW1 6266   6.483   2.540   2.075
 1789SOL    HW2 6267   6.476   2.379   2.047
 1790SOL     OW 6268   4.010   6.255   4.656
 1790SOL    HW1 6269   4.102   6.230   4.686
 1790SOL    HW2 6270   4.016   6.308   4.572
 1791SOL     OW 6271   0.589   2.021   4.744
 1791SOL    HW1 6272   0.575   2.112   4.705
 1791SOL    HW2 6273   0.564   2.022   4.841
 1792SOL     OW 6274   0.404   1.582   4.658
 1792SOL    HW1 6275   0.322   1.638   4.655
 1792SOL    HW2 6276   0.447   1.592   4.748
 1793SOL     OW 6277   6.629   0.457   3.889
 1793SOL    HW1 6278   6.658   0.552   3.879
 1793SOL    HW2 6279   6.536   0.455   3.927
 1794SOL     OW 6280   5.262   6.539   6.666
 1794SOL    HW1 6281   5.215   6.626   6.681
 1794SOL    HW2 6282   5.228   6.471   6.731
 1795SOL     OW 6283   0.242   4.905   2.579
 1795SOL    HW1 6284   0.335   4.913   2.613
 1795SOL    HW2 6285   0.244   4.892   2.480
 1796SOL     OW 6286   1.830   1.480   4.334
 1796SOL    HW1 6287   1.837   1.565   4.386
 1796SOL    HW2 6288   1.909   1.422   4.354
 1797SOL     OW 6289   1.636   0.463   5.873
 1797SOL    HW1 6290   1.597   0.371   5.862
 1797SOL    HW2 6291   1.566   0.531   5.853
 1798SOL     OW 6292   4.837   2.694   5.193
 1798SOL    HW1 6293   4.870   2.696   5.099
 1798SOL    HW2 6294   4.875   2.771   5.244
 1799SOL     OW 6295   6.017   1.788   6.615
 1799SOL    HW1 6296   6.079   1.783   6.693
 1799SOL    HW2 6297   6.051   1.855   6.550
 1800SOL     OW 6298   4.956   4.386   3.975
 1800SOL    HW1 6299   4.879   4.379   4.037
 1800SOL    HW2 6300   4.924   4.381   3.880
 1801SOL     OW 6301   1.165   1.425   2.321
 1801SOL    HW1 6302   1.129   1.501   2.376
 1801SOL    HW2 6303   1.098   1.399   2.252
 1802SOL     OW 6304   5.348   5.373   2.516
 1802SOL    HW1 6305   5.304   5.283   2.506
 1802SOL    HW2 6306   5.338   5.405   2.610
 1803SOL     OW 6307   6.521   6.265   0.824
 1803SOL    HW1 6308   6.562   6.174   0.816
 1803SOL    HW2 6309   6.565   6.327   0.759
 1804SOL     OW 6310   3.110   3.108   5.387
 1804SOL    HW1 6311   3.011   3.089   5.383
 1804SOL    HW2 6312   3.134   3.173   5.315
 1805SOL     OW 6313   0.567   3.991   5.849
 1805SOL    HW1 6314   0.630   3.995   5.771
 1805SOL    HW2 6315   0.619   3.984   5.934
 1806SOL     OW 6316   1.667   1.837   1.560
 1806SOL    HW1 6317   1.709   1.816   1.649
 1806SOL    HW2 6318   1.739   1.843   1.490
 1807SOL     OW 6319   6.119   2.277   6.705
 1807SOL    HW1 6320   6.218   2.274   6.694
 1807SOL    HW2 6321   6.076   2.293   6.617
 1808SOL     OW 6322   6.164   4.200   4.911
 1808SOL    HW1 6323   6.189   4.183   5.007
 1808SOL    HW2 6324   6.073   4.241   4.906
 1809SOL     OW 6325   2.173   2.397   4.638
 1809SOL    HW1 6326   2.126   2.466   4.582
 1809SOL    HW2 6327   2.245   2.441   4.692
 1810SOL     OW 6328   2.213   0.409   5.352
 1810SOL    HW1 6329   2.264   0.494   5.349
 1810SOL    HW2 6330   2.252   0.344   5.288
 1811SOL     OW 6331   4.285   4.655   3.301
 1811SOL    HW1 6332   4.278   4.652   3.401
 1811SOL    HW2 6333   4.328   4.741   3.273
 1812SOL     OW 6334   4.685   0.286   5.736
 1812SOL    HW1 6335   4.760   0.341   5.700
 1812SOL    HW2 6336   4.718   0.193   5.755
 1813SOL     OW 6337   4.246   4.920   1.309
 1813SOL    HW1 6338   4.292   4.885   1.391
 1813SOL    HW2 6339   4.215   5.014   1.326
 1814SOL     OW 6340   6.516   1.027   0.479
 1814SOL    HW1 6341   6.559   1.093   0.419
 1814SOL    HW2 6342   6.445   0.977   0.429
 1815SOL     OW 6343   6.324   1.312   2.273
 1815SOL    HW1 6344   6.285   1.221   2.285
 1815SOL    HW2 6345   6.412   1.305   2.226
 1816SOL     OW 6346   1.613   4.819   0.880
 1816SOL    HW1 6347   1.712   4.833   0.882
 1816SOL    HW2 6348   1.583   4.783   0.968
 1817SOL     OW 6349   3.821   6.651   3.480
 1817SOL    HW1 6350   3.731   6.627   3.517
 1817SOL    HW2 6351   3.863   6.721   3.537
 1818SOL     OW 6352   2.388   5.870   1.226
 1818SOL    HW1 6353   2.390   5.969   1.243
 1818SOL    HW2 6354   2.371   5.853   1.129
 1819SOL     OW 6355   1.166   6.049   1.659
 1819SOL    HW1 6356   1.142   5.955   1.635
 1819SOL    HW2 6357   1.210   6.094   1.581
 1820SOL     OW 6358   2.975   0.034   2.458
 1820SOL    HW1 6359   2.961   7.002   2.375
 1820SOL    HW2 6360   2.905   0.011   2.526
 1821SOL     OW 6361   2.463   1.065   1.810
 1821SOL    HW1 6362   2.432   1.038   1.719
 1821SOL    HW2 6363   2.388   1.109   1.859
 1822SOL     OW 6364   1.168   3.004   1.067
 1822SOL    HW1 6365   1.233   3.075   1.094
 1822SOL    HW2 6366   1.207   2.914   1.086
 1823SOL     OW 6367   3.202   5.869   3.086
 1823SOL    HW1 6368   3.117   5.871   3.138
 1823SOL    HW2 6369   3.190   5.812   3.005
 1824SOL     OW 6370   3.559   3.440   0.257
 1824SOL    HW1 6371   3.488   3.509   0.272
 1824SOL    HW2 6372   3.583   3.437   0.160
 1825SOL     OW 6373   1.953   1.982   4.659
 1825SOL    HW1 6374   1.908   2.001   4.571
 1825SOL    HW2 6375   1.958   2.066   4.713
 1826SOL     OW 6376   3.479   1.557   1.393
 1826SOL    HW1 6377   3.434   1.476   1.430
 1826SOL    HW2 6378   3.570   1.532   1.359
 1827SOL     OW 6379   6.950   5.701   1.086
 1827SOL    HW1 6380   6.901   5.627   1.040
 1827SOL    HW2 6381   0.021   5.708   1.048
 1828SOL     OW 6382   1.671   2.296   0.511
 1828SOL    HW1 6383   1.728   2.302   0.429
 1828SOL    HW2 6384   1.638   2.387   0.536
 1829SOL     OW 6385   3.152   0.962   2.853
 1829SOL    HW1 6386   3.175   0.992   2.946
 1829SOL    HW2 6387   3.235   0.965   2.796
 1830SOL     OW 6388   5.630   6.444   4.185
 1830SOL    HW1 6389   5.720   6.434   4.227
 1830SOL    HW2 6390   5.638   6.500   4.103
 1831SOL     OW 6391   5.831   6.911   1.797
 1831SOL    HW1 6392   5.884   6.827   1.806
 1831SOL    HW2 6393   5.794   6.918   1.704
 1832SOL     OW 6394   4.575   2.073   1.707
 1832SOL    HW1 6395   4.534   2.013   1.775
 1832SOL    HW2 6396   4.619   2.018   1.636
 1833SOL     OW 6397   5.397   0.862   0.825
 1833SOL    HW1 6398   5.433   0.947   0.786
 1833SOL    HW2 6399   5.324   0.884   0.890
 1834SOL     OW 6400   2.477   3.369   0.729
 1834SOL    HW1 6401   2.529   3.389   0.646
 1834SOL    HW2 6402   2.473   3.451   0.786
 1835SOL     OW 6403   0.670   4.928   2.469
 1835SOL    HW1 6404   0.635   5.006   2.417
 1835SOL    HW2 6405   0.622   4.921   2.556
 1836SOL     OW 6406   5.324   2.090   1.351
 1836SOL    HW1 6407   5.293   2.078   1.445
 1836SOL    HW2 6408   5.271   2.030   1.290
 1837SOL     OW 6409   1.042   0.090   4.521
 1837SOL    HW1 6410   0.949   0.073   4.555
 1837SOL    HW2 6411   1.038   0.142   4.436
 1838SOL     OW 6412   6.635   1.202   5.806
 1838SOL    HW1 6413   6.608   1.257   5.728
 1838SOL    HW2 6414   6.646   1.106   5.778
 1839SOL     OW 6415   6.968   1.983   4.979
 1839SOL    HW1 6416   0.022   1.947   4.923
 1839SOL    HW2 6417   6.999   1.993   5.074
 1840SOL     OW 6418   3.835   0.319   1.759
 1840SOL    HW1 6419   3.826   0.297   1.856
 1840SOL    HW2 6420   3.829   0.236   1.705
 1841SOL     OW 6421   2.111   1.527   3.663
 1841SOL    HW1 6422   2.066   1.484   3.742
 1841SOL    HW2 6423   2.089   1.624   3.662
 1842SOL     OW 6424   1.295   5.786   0.172
 1842SOL    HW1 6425   1.365   5.759   0.239
 1842SOL    HW2 6426   1.313   5.880   0.143
 1843SOL     OW 6427   5.899   1.711   3.809
 1843SOL    HW1 6428   5.963   1.712   3.886
 1843SOL    HW2 6429   5.876   1.616   3.786
 1844SOL     OW 6430   3.247   6.208   5.340
 1844SOL    HW1 6431   3.268   6.269   5.417
 1844SOL    HW2 6432   3.151   6.179   5.346
 1845SOL     OW 6433   3.197   6.828   4.755
 1845SOL    HW1 6434   3.286   6.872   4.746
 1845SOL    HW2 6435   3.140   6.881   4.817
 1846SOL     OW 6436   3.237   1.527   1.889
 1846SOL    HW1 6437   3.187   1.500   1.807
 1846SOL    HW2 6438   3.310   1.460   1.907
 1847SOL     OW 6439   1.471   0.781   6.629
 1847SOL    HW1 6440   1.387   0.794   6.681
 1847SOL    HW2 6441   1.466   0.694   6.580
 1848SOL     OW 6442   2.049   6.142   3.481
 1848SOL    HW1 6443   1.973   6.119   3.421
 1848SOL    HW2 6444   2.045   6.239   3.505
 1849SOL     OW 6445   4.244   2.885   1.680
 1849SOL    HW1 6446   4.342   2.875   1.699
 1849SOL    HW2 6447   4.201   2.795   1.678
 1850SOL     OW 6448   0.536   2.547   2.367
 1850SOL    HW1 6449   0.526   2.582   2.273
 1850SOL    HW2 6450   0.594   2.609   2.419
 1851SOL     OW 6451   0.365   2.894   0.331
 1851SOL    HW1 6452   0.345   2.797   0.343
 1851SOL    HW2 6453   0.439   2.905   0.265
 1852SOL     OW 6454   6.572   4.253   2.302
 1852SOL    HW1 6455   6.558   4.182   2.372
 1852SOL    HW2 6456   6.618   4.331   2.344
 1853SOL     OW 6457   0.561   2.677   3.192
 1853SOL    HW1 6458   0.641   2.734   3.210
 1853SOL    HW2 6459   0.489   2.734   3.151
 1854SOL     OW 6460   2.533   5.403   3.125
 1854SOL    HW1 6461   2.436   5.389   3.105
 1854SOL    HW2 6462   2.542   5.461   3.206
 1855SOL     OW 6463   5.166   3.093   5.390
 1855SOL    HW1 6464   5.151   3.102   5.488
 1855SOL    HW2 6465   5.252   3.045   5.373
 1856SOL     OW 6466   5.399   4.027   5.996
 1856SOL    HW1 6467   5.352   3.947   5.958
 1856SOL    HW2 6468   5.497   4.021   5.974
 1857SOL     OW 6469   4.245   2.257   6.478
 1857SOL    HW1 6470   4.319   2.210   6.526
 1857SOL    HW2 6471   4.182   2.190   6.440
 1858SOL     OW 6472   5.588   3.680   2.758
 1858SOL    HW1 6473   5.581   3.727   2.670
 1858SOL    HW2 6474   5.534   3.596   2.756
 1859SOL     OW 6475   4.674   1.793   4.124
 1859SOL    HW1 6476   4.717   1.883   4.121
 1859SOL    HW2 6477   4.724   1.735   4.188
 1860SOL     OW 6478   0.424   1.155   5.413
 1860SOL    HW1 6479   0.397   1.252   5.415
 1860SOL    HW2 6480   0.454   1.128   5.504
 1861SOL     OW 6481   6.597   6.648   1.925
 1861SOL    HW1 6482   6.655   6.579   1.969
 1861SOL    HW2 6483   6.600   6.733   1.978
 1862SOL     OW 6484   3.271   0.147   6.921
 1862SOL    HW1 6485   3.244   0.222   6.861
 1862SOL    HW2 6486   3.216   0.148   7.004
 1863SOL     OW 6487   0.479   3.047   3.349
 1863SOL    HW1 6488   0.434   3.034   3.437
 1863SOL    HW2 6489   0.572   3.080   3.363
 1864SOL     OW 6490   1.624   6.558   5.282
 1864SOL    HW1 6491   1.686   6.604   5.217
 1864SOL    HW2 6492   1.618   6.461   5.259
 1865SOL     OW 6493   4.108   6.663   0.207
 1865SOL    HW1 6494   4.028   6.626   0.160
 1865SOL    HW2 6495   4.078   6.718   0.285
 1866SOL     OW 6496   5.896   5.009   3.544
 1866SOL    HW1 6497   5.965   4.939   3.528
 1866SOL    HW2 6498   5.866   5.048   3.457
 1867SOL     OW 6499   0.614   3.959   0.109
 1867SOL    HW1 6500   0.651   3.878   0.155
 1867SOL    HW2 6501   0.548   4.005   0.169
 1868SOL     OW 6502   4.645   3.432   6.482
 1868SOL    HW1 6503   4.592   3.361   6.435
 1868SOL    HW2 6504   4.615   3.437   6.578
 1869SOL     OW 6505   6.758   3.266   4.757
 1869SOL    HW1 6506   6.849   3.281   4.795
 1869SOL    HW2 6507   6.722   3.352   4.722
 1870SOL     OW 6508   1.831   2.650   4.688
 1870SOL    HW1 6509   1.818   2.663   4.590
 1870SOL    HW2 6510   1.796   2.730   4.738
 1871SOL     OW 6511   0.653   0.744   0.026
 1871SOL    HW1 6512   0.576   0.783   0.077
 1871SOL    HW2 6513   0.731   0.807   0.030
 1872SOL     OW 6514   4.393   1.800   0.202
 1872SOL    HW1 6515   4.392   1.887   0.151
 1872SOL    HW2 6516   4.457   1.807   0.278
 1873SOL     OW 6517   5.851   1.163   5.922
 1873SOL    HW1 6518   5.758   1.180   5.955
 1873SOL    HW2 6519   5.915   1.219   5.974
 1874SOL     OW 6520   2.261   0.880   0.157
 1874SOL    HW1 6521   2.188   0.941   0.191
 1874SOL    HW2 6522   2.347   0.931   0.152
 1875SOL     OW 6523   0.179   0.585   0.535
 1875SOL    HW1 6524   0.205   0.674   0.498
 1875SOL    HW2 6525   0.178   0.589   0.635
 1876SOL     OW 6526   3.090   6.204   5.883
 1876SOL    HW1 6527   3.174   6.156   5.856
 1876SOL    HW2 6528   3.110   6.264   5.960
 1877SOL     OW 6529   0.216   1.866   3.042
 1877SOL    HW1 6530   0.236   1.945   2.984
 1877SOL    HW2 6531   0.301   1.822   3.069
 1878SOL     OW 6532   6.300   3.129   4.068
 1878SOL    HW1 6533   6.399   3.141   4.071
 1878SOL    HW2 6534   6.257   3.199   4.126
 1879SOL     OW 6535   1.967   5.492   3.631
 1879SOL    HW1 6536   1.870   5.475   3.643
 1879SOL    HW2 6537   2.007   5.520   3.718
 1880SOL     OW 6538   6.902   1.768   4.248
 1880SOL    HW1 6539   6.861   1.683   4.282
 1880SOL    HW2 6540   6.993   1.778   4.288
 1881SOL     OW 6541   0.925   2.850   2.813
 1881SOL    HW1 6542   0.901   2.808   2.901
 1881SOL    HW2 6543   0.873   2.805   2.740
 1882SOL     OW 6544   0.942   3.740   6.898
 1882SOL    HW1 6545   0.945   3.697   6.808
 1882SOL    HW2 6546   0.980   3.833   6.892
 1883SOL     OW 6547   1.294   3.028   3.794
 1883SOL    HW1 6548   1.254   2.941   3.765
 1883SOL    HW2 6549   1.314   3.084   3.714
 1884SOL     OW 6550   5.815   2.578   6.789
 1884SOL    HW1 6551   5.787   2.501   6.731
 1884SOL    HW2 6552   5.882   2.545   6.856
 1885SOL     OW 6553   0.652   2.558   6.302
 1885SOL    HW1 6554   0.722   2.565   6.372
 1885SOL    HW2 6555   0.669   2.477   6.246
 1886SOL     OW 6556   2.123   1.164   1.657
 1886SOL    HW1 6557   2.200   1.192   1.600
 1886SOL    HW2 6558   2.049   1.131   1.598
 1887SOL     OW 6559   1.046   5.966   6.308
 1887SOL    HW1 6560   0.978   5.969   6.235
 1887SOL    HW2 6561   1.133   6.003   6.274
 1888SOL     OW 6562   2.911   2.377   6.534
 1888SOL    HW1 6563   2.830   2.370   6.592
 1888SOL    HW2 6564   2.989   2.334   6.580
 1889SOL     OW 6565   5.489   2.917   6.512
 1889SOL    HW1 6566   5.563   2.868   6.559
 1889SOL    HW2 6567   5.420   2.852   6.482
 1890SOL     OW 6568   1.369   5.586   5.241
 1890SOL    HW1 6569   1.352   5.582   5.142
 1890SOL    HW2 6570   1.427   5.510   5.268
 1891SOL     OW 6571   5.492   2.309   3.186
 1891SOL    HW1 6572   5.451   2.272   3.270
 1891SOL    HW2 6573   5.560   2.245   3.151
 1892SOL     OW 6574   3.637   0.560   0.662
 1892SOL    HW1 6575   3.601   0.653   0.675
 1892SOL    HW2 6576   3.673   0.526   0.749
 1893SOL     OW 6577   3.394   2.888   6.643
 1893SOL    HW1 6578   3.483   2.934   6.642
 1893SOL    HW2 6579   3.407   2.791   6.663
 1894SOL     OW 6580   3.822   3.584   3.117
 1894SOL    HW1 6581   3.771   3.658   3.073
 1894SOL    HW2 6582   3.801   3.498   3.071
 1895SOL     OW 6583   6.001   0.936   2.211
 1895SOL    HW1 6584   5.948   0.852   2.207
 1895SOL    HW2 6585   6.094   0.919   2.181
 1896SOL     OW 6586   0.421   0.545   2.260
 1896SOL    HW1 6587   0.359   0.478   2.220
 1896SOL    HW2 6588   0.493   0.498   2.311
 1897SOL     OW 6589   1.334   4.699   2.693
 1897SOL    HW1 6590   1.309   4.660   2.604
 1897SOL    HW2 6591   1.349   4.625   2.758
 1898SOL     OW 6592   3.318   4.881   2.429
 1898SOL    HW1 6593   3.354   4.892   2.522
 1898SOL    HW2 6594   3.305   4.971   2.387
 1899SOL     OW 6595   1.041   1.622   2.463
 1899SOL    HW1 6596   1.006   1.712   2.488
 1899SOL    HW2 6597   0.994   1.552   2.518
 1900SOL     OW 6598   1.170   0.099   5.942
 1900SOL    HW1 6599   1.236   0.047   5.887
 1900SOL    HW2 6600   1.183   0.197   5.926
 1901SOL     OW 6601   2.295   1.649   1.800
 1901SOL    HW1 6602   2.358   1.725   1.813
 1901SOL    HW2 6603   2.210   1.683   1.758
 1902SOL     OW 6604   2.381   2.516   4.795
 1902SOL    HW1 6605   2.461   2.476   4.750
 1902SOL    HW2 6606   2.378   2.614   4.777
 1903SOL     OW 6607   6.421   3.052   3.430
 1903SOL    HW1 6608   6.381   2.986   3.494
 1903SOL    HW2 6609   6.347   3.098   3.380
 1904SOL     OW 6610   5.835   6.795   4.787
 1904SOL    HW1 6611   5.820   6.893   4.778
 1904SOL    HW2 6612   5.901   6.764   4.718
 1905SOL     OW 6613   2.080   0.958   4.037
 1905SOL    HW1 6614   2.121   0.935   3.948
 1905SOL    HW2 6615   1.992   1.003   4.022
 1906SOL     OW 6616   2.349   0.230   5.178
 1906SOL    HW1 6617   2.342   0.165   5.102
 1906SOL    HW2 6618   2.445   0.248   5.199
 1907SOL     OW 6619   3.509   6.468   3.224
 1907SOL    HW1 6620   3.515   6.472   3.125
 1907SOL    HW2 6621   3.592   6.427   3.261
 1908SOL     OW 6622   3.972   0.422   5.299
 1908SOL    HW1 6623   3.932   0.416   5.208
 1908SOL    HW2 6624   4.066   0.456   5.292
 1909SOL     OW 6625   0.716   4.302   2.722
 1909SOL    HW1 6626   0.755   4.374   2.780
 1909SOL    HW2 6627   0.705   4.218   2.776
 1910SOL     OW 6628   6.848   3.069   6.428
 1910SOL    HW1 6629   6.799   2.983   6.411
 1910SOL    HW2 6630   6.783   3.145   6.424
 1911SOL     OW 6631   5.467   3.669   5.103
 1911SOL    HW1 6632   5.555   3.656   5.057
 1911SOL    HW2 6633   5.425   3.580   5.120
 1912SOL     OW 6634   2.892   0.045   0.860
 1912SOL    HW1 6635   2.967   0.100   0.825
 1912SOL    HW2 6636   2.907   6.970   0.836
 1913SOL     OW 6637   1.185   5.885   5.404
 1913SOL    HW1 6638   1.163   5.788   5.401
 1913SOL    HW2 6639   1.107   5.936   5.440
 1914SOL     OW 6640   3.931   2.983   6.739
 1914SOL    HW1 6641   3.954   2.985   6.837
 1914SOL    HW2 6642   3.924   3.077   6.705
 1915SOL     OW 6643   3.663   2.057   5.146
 1915SOL    HW1 6644   3.645   2.071   5.243
 1915SOL    HW2 6645   3.597   2.109   5.092
 1916SOL     OW 6646   3.572   5.756   1.274
 1916SOL    HW1 6647   3.491   5.746   1.216
 1916SOL    HW2 6648   3.564   5.839   1.329
 1917SOL     OW 6649   2.895   3.256   5.022
 1917SOL    HW1 6650   2.845   3.292   5.101
 1917SOL    HW2 6651   2.909   3.329   4.955
 1918SOL     OW 6652   0.661   1.219   5.791
 1918SOL    HW1 6653   0.614   1.234   5.879
 1918SOL    HW2 6654   0.729   1.291   5.777
 1919SOL     OW 6655   2.634   0.769   1.566
 1919SOL    HW1 6656   2.579   0.690   1.594
 1919SOL    HW2 6657   2.583   0.853   1.582
 1920SOL     OW 6658   1.786   4.640   2.635
 1920SOL    HW1 6659   1.729   4.559   2.647
 1920SOL    HW2 6660   1.806   4.681   2.724
 1921SOL     OW 6661   1.160   4.818   0.074
 1921SOL    HW1 6662   1.126   4.893   0.130
 1921SOL    HW2 6663   1.222   4.854   0.004
 1922SOL     OW 6664   2.513   4.506   0.695
 1922SOL    HW1 6665   2.608   4.481   0.713
 1922SOL    HW2 6666   2.481   4.569   0.765
 1923SOL     OW 6667   3.028   0.691   5.784
 1923SOL    HW1 6668   2.960   0.646   5.725
 1923SOL    HW2 6669   2.993   0.780   5.813
 1924SOL     OW 6670   4.418   5.343   1.400
 1924SOL    HW1 6671   4.411   5.434   1.442
 1924SOL    HW2 6672   4.450   5.278   1.468
 1925SOL     OW 6673   1.847   4.445   0.406
 1925SOL    HW1 6674   1.834   4.351   0.377
 1925SOL    HW2 6675   1.930   4.482   0.365
 1926SOL     OW 6676   2.370   6.745   3.333
 1926SOL    HW1 6677   2.368   6.746   3.433
 1926SOL    HW2 6678   2.375   6.838   3.298
 1927SOL     OW 6679   3.312   4.016   6.420
 1927SOL    HW1 6680   3.388   4.065   6.464
 1927SOL    HW2 6681   3.333   4.002   6.323
 1928SOL     OW 6682   6.475   4.425   5.769
 1928SOL    HW1 6683   6.539   4.394   5.699
 1928SOL    HW2 6684   6.522   4.484   5.834
 1929SOL     OW 6685   0.790   5.172   1.316
 1929SOL    HW1 6686   0.774   5.074   1.307
 1929SOL    HW2 6687   0.810   5.194   1.411
 1930SOL     OW 6688   3.635   3.718   6.729
 1930SOL    HW1 6689   3.670   3.693   6.638
 1930SOL    HW2 6690   3.541   3.686   6.739
 1931SOL     OW 6691   0.431   3.439   2.701
 1931SOL    HW1 6692   0.352   3.487   2.740
 1931SOL    HW2 6693   0.412   3.341   2.699
 1932SOL     OW 6694   4.940   3.690   3.283
 1932SOL    HW1 6695   5.035   3.672   3.308
 1932SOL    HW2 6696   4.902   3.611   3.235
 1933SOL     OW 6697   1.998   4.175   0.631
 1933SOL    HW1 6698   1.941   4.219   0.562
 1933SOL    HW2 6699   2.092   4.165   0.596
 1934SOL     OW 6700   0.516   6.877   5.139
 1934SOL    HW1 6701   0.537   6.784   5.169
 1934SOL    HW2 6702   0.419   6.883   5.116
 1935SOL     OW 6703   4.414   5.911   3.910
 1935SOL    HW1 6704   4.373   5.963   3.836
 1935SOL    HW2 6705   4.460   5.973   3.974
 1936SOL     OW 6706   5.882   3.705   4.082
 1936SOL    HW1 6707   5.912   3.729   3.990
 1936SOL    HW2 6708   5.802   3.644   4.076
 1937SOL     OW 6709   3.794   0.017   1.132
 1937SOL    HW1 6710   3.894   0.023   1.123
 1937SOL    HW2 6711   3.755   0.109   1.136
 1938SOL     OW 6712   1.690   1.891   1.204
 1938SOL    HW1 6713   1.702   1.988   1.184
 1938SOL    HW2 6714   1.727   1.872   1.295
 1939SOL     OW 6715   6.627   0.186   4.819
 1939SOL    HW1 6716   6.625   0.142   4.909
 1939SOL    HW2 6717   6.646   0.284   4.830
 1940SOL     OW 6718   5.130   4.834   0.748
 1940SOL    HW1 6719   5.140   4.827   0.649
 1940SOL    HW2 6720   5.103   4.744   0.785
 1941SOL     OW 6721   0.503   3.956   3.739
 1941SOL    HW1 6722   0.552   3.965   3.652
 1941SOL    HW2 6723   0.468   3.862   3.748
 1942SOL     OW 6724   5.457   1.308   0.985
 1942SOL    HW1 6725   5.526   1.274   1.049
 1942SOL    HW2 6726   5.489   1.393   0.943
 1943SOL     OW 6727   2.418   6.214   3.251
 1943SOL    HW1 6728   2.497   6.194   3.192
 1943SOL    HW2 6729   2.448   6.272   3.327
 1944SOL     OW 6730   6.302   2.859   7.003
 1944SOL    HW1 6731   6.344   2.891   6.918
 1944SOL    HW2 6732   6.373   2.850   0.052
 1945SOL     OW 6733   4.096   5.506   0.954
 1945SOL    HW1 6734   4.068   5.506   1.050
 1945SOL    HW2 6735   4.191   5.476   0.947
 1946SOL     OW 6736   6.548   0.043   1.052
 1946SOL    HW1 6737   6.584   7.020   1.134
 1946SOL    HW2 6738   6.467   0.096   1.076
 1947SOL     OW 6739   4.975   6.161   5.067
 1947SOL    HW1 6740   4.954   6.110   5.151
 1947SOL    HW2 6741   5.011   6.098   4.998
 1948SOL     OW 6742   5.731   5.524   4.071
 1948SOL    HW1 6743   5.718   5.458   3.997
 1948SOL    HW2 6744   5.767   5.610   4.033
 1949SOL     OW 6745   3.502   4.323   6.340
 1949SOL    HW1 6746   3.502   4.240   6.396
 1949SOL    HW2 6747   3.581   4.380   6.364
 1950SOL     OW 6748   3.881   4.064   6.998
 1950SOL    HW1 6749   3.827   4.021   6.925
 1950SOL    HW2 6750   3.972   4.086   6.963
 1951SOL     OW 6751   6.250   3.396   0.069
 1951SOL    HW1 6752   6.268   3.354   0.158
 1951SOL    HW2 6753   6.152   3.405   0.055
 1952SOL     OW 6754   4.708   3.321   0.763
 1952SOL    HW1 6755   4.736   3.275   0.848
 1952SOL    HW2 6756   4.719   3.257   0.686
 1953SOL     OW 6757   6.576   1.394   5.627
 1953SOL    HW1 6758   6.487   1.415   5.585
 1953SOL    HW2 6759   6.617   1.479   5.661
 1954SOL     OW 6760   6.222   0.546   2.868
 1954SOL    HW1 6761   6.225   0.646   2.872
 1954SOL    HW2 6762   6.220   0.509   2.961
 1955SOL     OW 6763   0.458   1.135   2.775
 1955SOL    HW1 6764   0.551   1.098   2.770
 1955SOL    HW2 6765   0.403   1.096   2.702
 1956SOL     OW 6766   5.186   0.071   2.698
 1956SOL    HW1 6767   5.168   0.114   2.787
 1956SOL    HW2 6768   5.282   0.084   2.674
 1957SOL     OW 6769   5.725   4.615   4.281
 1957SOL    HW1 6770   5.680   4.554   4.216
 1957SOL    HW2 6771   5.819   4.585   4.296
 1958SOL     OW 6772   5.125   2.042   2.219
 1958SOL    HW1 6773   5.167   2.051   2.129
 1958SOL    HW2 6774   5.028   2.023   2.209
 1959SOL     OW 6775   0.983   0.446   4.471
 1959SOL    HW1 6776   1.048   0.516   4.443
 1959SOL    HW2 6777   0.971   0.380   4.397
 1960SOL     OW 6778   6.718   4.520   2.381
 1960SOL    HW1 6779   6.654   4.565   2.444
 1960SOL    HW2 6780   6.812   4.534   2.413
 1961SOL     OW 6781   6.107   4.087   3.540
 1961SOL    HW1 6782   6.137   4.180   3.560
 1961SOL    HW2 6783   6.187   4.029   3.522
 1962SOL     OW 6784   1.435   6.555   3.736
 1962SOL    HW1 6785   1.357   6.604   3.774
 1962SOL    HW2 6786   1.513   6.561   3.798
 1963SOL     OW 6787   0.844   2.286   1.063
 1963SOL    HW1 6788   0.858   2.190   1.038
 1963SOL    HW2 6789   0.873   2.345   0.987
 1964SOL     OW 6790   4.633   4.639   0.635
 1964SOL    HW1 6791   4.540   4.634   0.599
 1964SOL    HW2 6792   4.637   4.593   0.724
 1965SOL     OW 6793   1.975   3.016   4.437
 1965SOL    HW1 6794   1.976   3.058   4.527
 1965SOL    HW2 6795   2.032   3.070   4.374
 1966SOL     OW 6796   0.074   6.427   1.049
 1966SOL    HW1 6797   0.083   6.479   0.964
 1966SOL    HW2 6798   0.002   6.358   1.038
 1967SOL     OW 6799   5.800   2.699   6.023
 1967SOL    HW1 6800   5.856   2.645   6.086
 1967SOL    HW2 6801   5.703   2.686   6.045
 1968SOL     OW 6802   1.757   6.384   6.101
 1968SOL    HW1 6803   1.836   6.322   6.098
 1968SOL    HW2 6804   1.718   6.384   6.192
 1969SOL     OW 6805   0.479   1.572   1.086
 1969SOL    HW1 6806   0.400   1.545   1.142
 1969SOL    HW2 6807   0.561   1.575   1.144
 1970SOL     OW 6808   2.676   6.375   6.051
 1970SOL    HW1 6809   2.713   6.467   6.059
 1970SOL    HW2 6810   2.583   6.380   6.013
 1971SOL     OW 6811   0.657   0.235   5.693
 1971SOL    HW1 6812   0.674   0.170   5.619
 1971SOL    HW2 6813   0.584   0.200   5.752
 1972SOL     OW 6814   5.722   2.209   2.126
 1972SOL    HW1 6815   5.747   2.175   2.217
 1972SOL    HW2 6816   5.761   2.149   2.056
 1973SOL     OW 6817   3.540   2.998   0.115
 1973SOL    HW1 6818   3.496   2.937   0.049
 1973SOL    HW2 6819   3.470   3.046   0.168
 1974SOL     OW 6820   6.029   6.973   5.230
 1974SOL    HW1 6821   5.983   6.928   5.154
 1974SOL    HW2 6822   6.128   6.960   5.223
 1975SOL     OW 6823   1.824   1.360   4.086
 1975SOL    HW1 6824   1.770   1.420   4.027
 1975SOL    HW2 6825   1.838   1.404   4.175
 1976SOL     OW 6826   0.077   6.874   0.120
 1976SOL    HW1 6827   0.126   6.953   0.158
 1976SOL    HW2 6828   7.013   6.862   0.170
 1977SOL     OW 6829   1.267   3.141   4.911
 1977SOL    HW1 6830   1.323   3.152   4.993
 1977SOL    HW2 6831   1.240   3.231   4.877
 1978SOL     OW 6832   1.876   6.320   2.889
 1978SOL    HW1 6833   1.880   6.273   2.978
 1978SOL    HW2 6834   1.885   6.418   2.904
 1979SOL     OW 6835   6.063   4.016   6.152
 1979SOL    HW1 6836   5.982   3.959   6.135
 1979SOL    HW2 6837   6.083   4.018   6.250
 1980SOL     OW 6838   3.643   0.168   4.646
 1980SOL    HW1 6839   3.714   0.231   4.677
 1980SOL    HW2 6840   3.588   0.211   4.575
 1981SOL     OW 6841   0.039   2.541   2.667
 1981SOL    HW1 6842   0.111   2.532   2.737
 1981SOL    HW2 6843   0.081   2.547   2.577
 1982SOL     OW 6844   0.312   4.501   4.130
 1982SOL    HW1 6845   0.392   4.523   4.186
 1982SOL    HW2 6846   0.232   4.549   4.166
 1983SOL     OW 6847   1.110   0.696   2.982
 1983SOL    HW1 6848   1.033   0.683   2.920
 1983SOL    HW2 6849   1.154   0.608   2.999
 1984SOL     OW 6850   4.881   1.642   5.226
 1984SOL    HW1 6851   4.970   1.647   5.270
 1984SOL    HW2 6852   4.812   1.683   5.287
 1985SOL     OW 6853   1.316   6.466   2.477
 1985SOL    HW1 6854   1.230   6.433   2.437
 1985SOL    HW2 6855   1.337   6.412   2.559
 1986SOL     OW 6856   2.346   1.178   6.521
 1986SOL    HW1 6857   2.299   1.094   6.549
 1986SOL    HW2 6858   2.293   1.257   6.551
 1987SOL     OW 6859   1.908   2.519   2.625
 1987SOL    HW1 6860   1.837   2.588   2.608
 1987SOL    HW2 6861   1.866   2.438   2.665
 1988SOL     OW 6862   6.479   3.758   1.155
 1988SOL    HW1 6863   6.501   3.819   1.079
 1988SOL    HW2 6864   6.544   3.683   1.158
 1989SOL     OW 6865   2.048   5.477   5.232
 1989SOL    HW1 6866   2.138   5.489   5.189
 1989SOL    HW2 6867   2.047   5.523   5.320
 1990SOL     OW 6868   3.667   6.055   0.694
 1990SOL    HW1 6869   3.623   6.141   0.665
 1990SOL    HW2 6870   3.672   5.992   0.617
 1991SOL     OW 6871   3.506   5.522   6.779
 1991SOL    HW1 6872   3.593   5.521   6.730
 1991SOL    HW2 6873   3.504   5.447   6.845
 1992SOL     OW 6874   0.357   0.824   0.502
 1992SOL    HW1 6875   0.324   0.881   0.577
 1992SOL    HW2 6876   0.455   0.807   0.512
 1993SOL     OW 6877   3.437   2.298   5.351
 1993SOL    HW1 6878   3.406   2.308   5.446
 1993SOL    HW2 6879   3.361   2.318   5.289
 1994SOL     OW 6880   0.868   1.408   0.274
 1994SOL    HW1 6881   0.793   1.440   0.332
 1994SOL    HW2 6882   0.940   1.478   0.271
 1995SOL     OW 6883   5.151   2.480   3.610
 1995SOL    HW1 6884   5.185   2.388   3.631
 1995SOL    HW2 6885   5.055   2.476   3.585
 1996SOL     OW 6886   1.978   3.022   0.332
 1996SOL    HW1 6887   1.938   3.099   0.380
 1996SOL    HW2 6888   2.011   3.052   0.242
 1997SOL     OW 6889   3.318   1.590   4.840
 1997SOL    HW1 6890   3.336   1.682   4.806
 1997SOL    HW2 6891   3.381   1.525   4.797
 1998SOL     OW 6892   2.601   4.655   6.848
 1998SOL    HW1 6893   2.586   4.593   6.771
 1998SOL    HW2 6894   2.606   4.601   6.933
 1999SOL     OW 6895   2.066   6.187   6.455
 1999SOL    HW1 6896   2.096   6.262   6.396
 1999SOL    HW2 6897   2.031   6.113   6.398
 2000SOL     OW 6898   4.302   2.571   5.405
 2000SOL    HW1 6899   4.233   2.550   5.336
 2000SOL    HW2 6900   4.273   2.533   5.493
 2001SOL     OW 6901   2.781   0.059   1.140
 2001SOL    HW1 6902   2.821   0.151   1.145
 2001SOL    HW2 6903   2.791   0.024   1.046
 2002SOL     OW 6904   0.512   4.514   7.011
 2002SOL    HW1 6905   0.519   4.603   0.036
 2002SOL    HW2 6906   0.527   4.441   0.056
 2003SOL     OW 6907   6.217   5.755   2.555
 2003SOL    HW1 6908   6.234   5.734   2.652
 2003SOL    HW2 6909   6.288   5.712   2.499
 2004SOL     OW 6910   4.720   1.634   4.844
 2004SOL    HW1 6911   4.649   1.696   4.877
 2004SOL    HW2 6912   4.810   1.667   4.872
 2005SOL     OW 6913   0.555   5.226   0.124
 2005SOL    HW1 6914   0.602   5.163   0.186
 2005SOL    HW2 6915   0.472   5.260   0.168
 2006SOL     OW 6916   5.849   0.322   3.282
 2006SOL    HW1 6917   5.912   0.283   3.214
 2006SOL    HW2 6918   5.877   0.415   3.304
 2007SOL     OW 6919   4.694   4.540   0.902
 2007SOL    HW1 6920   4.643   4.488   0.971
 2007SOL    HW2 6921   4.736   4.620   0.945
 2008SOL     OW 6922   2.283   4.586   3.751
 2008SOL    HW1 6923   2.323   4.657   3.809
 2008SOL    HW2 6924   2.205   4.545   3.797
 2009SOL     OW 6925   5.124   0.755   2.626
 2009SOL    HW1 6926   5.097   0.794   2.539
 2009SOL    HW2 6927   5.043   0.730   2.678
 2010SOL     OW 6928   2.061   1.996   1.761
 2010SOL    HW1 6929   2.093   1.917   1.813
 2010SOL    HW2 6930   2.065   2.077   1.819
 2011SOL     OW 6931   6.650   6.380   4.750
 2011SOL    HW1 6932   6.650   6.441   4.829
 2011SOL    HW2 6933   6.636   6.435   4.667
 2012SOL     OW 6934   1.409   4.030   2.502
 2012SOL    HW1 6935   1.318   4.013   2.540
 2012SOL    HW2 6936   1.439   3.950   2.450
 2013SOL     OW 6937   5.869   2.643   3.470
 2013SOL    HW1 6938   5.940   2.686   3.526
 2013SOL    HW2 6939   5.794   2.613   3.529
 2014SOL     OW 6940   2.738   6.079   3.558
 2014SOL    HW1 6941   2.780   6.027   3.484
 2014SOL    HW2 6942   2.772   6.044   3.646
 2015SOL     OW 6943   1.805   0.484   6.927
 2015SOL    HW1 6944   1.871   0.491   7.001
 2015SOL    HW2 6945   1.846   0.519   6.842
 2016SOL     OW 6946   1.761   5.721   6.183
 2016SOL    HW1 6947   1.682   5.782   6.195
 2016SOL    HW2 6948   1.741   5.632   6.225
 2017SOL     OW 6949   3.565   6.810   4.427
 2017SOL    HW1 6950   3.612   6.722   4.433
 2017SOL    HW2 6951   3.519   6.817   4.338
 2018SOL     OW 6952   5.318   1.258   5.711
 2018SOL    HW1 6953   5.317   1.170   5.759
 2018SOL    HW2 6954   5.329   1.331   5.778
 2019SOL     OW 6955   5.319   3.250   6.123
 2019SOL    HW1 6956   5.283   3.339   6.152
 2019SOL    HW2 6957   5.419   3.253   6.123
 2020SOL     OW 6958   1.697   6.992   5.376
 2020SOL    HW1 6959   1.734   0.055   5.338
 2020SOL    HW2 6960   1.600   7.003   5.395
 2021SOL     OW 6961   0.638   6.238   4.998
 2021SOL    HW1 6962   0.577   6.182   4.942
 2021SOL    HW2 6963   0.732   6.226   4.967
 2022SOL     OW 6964   1.228   3.954   3.570
 2022SOL    HW1 6965   1.198   3.962   3.666
 2022SOL    HW2 6966   1.306   3.892   3.565
 2023SOL     OW 6967   6.756   0.695   6.828
 2023SOL    HW1 6968   6.763   0.630   6.752
 2023SOL    HW2 6969   6.733   0.785   6.791
 2024SOL     OW 6970   0.023   6.412   3.293
 2024SOL    HW1 6971   7.004   6.368   3.213
 2024SOL    HW2 6972   0.034   6.510   3.275
 2025SOL     OW 6973   3.164   1.281   3.519
 2025SOL    HW1 6974   3.071   1.249   3.534
 2025SOL    HW2 6975   3.209   1.221   3.453
 2026SOL     OW 6976   6.953   3.088   5.360
 2026SOL    HW1 6977   6.979   3.158   5.427
 2026SOL    HW2 6978   6.856   3.098   5.337
 2027SOL     OW 6979   1.466   0.331   0.482
 2027SOL    HW1 6980   1.555   0.316   0.525
 2027SOL    HW2 6981   1.394   0.297   0.543
 2028SOL     OW 6982   2.873   6.388   4.844
 2028SOL    HW1 6983   2.782   6.406   4.805
 2028SOL    HW2 6984   2.863   6.345   4.933
 2029SOL     OW 6985   6.845   0.923   0.114
 2029SOL    HW1 6986   6.886   0.838   0.080
 2029SOL    HW2 6987   6.873   0.936   0.210
 2030SOL     OW 6988   2.927   0.752   3.196
 2030SOL    HW1 6989   2.959   0.710   3.281
 2030SOL    HW2 6990   2.944   0.690   3.120
 2031SOL     OW 6991   6.628   5.917   1.245
 2031SOL    HW1 6992   6.560   5.870   1.189
 2031SOL    HW2 6993   6.703   5.855   1.266
 2032SOL     OW 6994   4.876   0.627   2.229
 2032SOL    HW1 6995   4.925   0.686   2.293
 2032SOL    HW2 6996   4.888   0.532   2.256
 2033SOL     OW 6997   3.165   3.204   5.649
 2033SOL    HW1 6998   3.145   3.175   5.556
 2033SOL    HW2 6999   3.141   3.301   5.659
 2034SOL     OW 7000   2.407   5.439   5.780
 2034SOL    HW1 7001   2.418   5.535   5.806
 2034SOL    HW2 7002   2.310   5.420   5.764
 2035SOL     OW 7003   6.655   6.231   4.018
 2035SOL    HW1 7004   6.664   6.266   4.112
 2035SOL    HW2 7005   6.678   6.134   4.016
 2036SOL     OW 7006   1.336   4.486   2.864
 2036SOL    HW1 7007   1.270   4.494   2.938
 2036SOL    HW2 7008   1.428   4.479   2.901
 2037SOL     OW 7009   6.441   3.162   5.709
 2037SOL    HW1 7010   6.532   3.158   5.668
 2037SOL    HW2 7011   6.399   3.072   5.706
 2038SOL     OW 7012   1.707   2.282   0.025
 2038SOL    HW1 7013   1.624   2.339   0.033
 2038SOL    HW2 7014   1.787   2.342   0.016
 2039SOL     OW 7015   0.049   5.154   4.252
 2039SOL    HW1 7016   0.126   5.175   4.191
 2039SOL    HW2 7017   7.011   5.087   4.208
 2040SOL     OW 7018   2.763   3.378   5.699
 2040SOL    HW1 7019   2.780   3.446   5.628
 2040SOL    HW2 7020   2.734   3.423   5.783
 2041SOL     OW 7021   1.014   6.232   6.091
 2041SOL    HW1 7022   1.103   6.203   6.057
 2041SOL    HW2 7023   1.025   6.283   6.176
 2042SOL     OW 7024   4.573   6.088   6.867
 2042SOL    HW1 7025   4.564   6.126   6.960
 2042SOL    HW2 7026   4.572   6.163   6.801
 2043SOL     OW 7027   6.253   4.008   2.926
 2043SOL    HW1 7028   6.298   4.092   2.957
 2043SOL    HW2 7029   6.285   3.986   2.834
 2044SOL     OW 7030   0.036   0.622   2.078
 2044SOL    HW1 7031   0.089   0.634   2.162
 2044SOL    HW2 7032   6.969   0.581   2.100
 2045SOL     OW 7033   1.415   5.241   4.239
 2045SOL    HW1 7034   1.339   5.272   4.296
 2045SOL    HW2 7035   1.453   5.157   4.278
 2046SOL     OW 7036   6.826   2.291   4.172
 2046SOL    HW1 7037   6.823   2.391   4.180
 2046SOL    HW2 7038   6.751   2.252   4.225
 2047SOL     OW 7039   6.915   2.668   6.809
 2047SOL    HW1 7040   6.845   2.679   6.880
 2047SOL    HW2 7041   6.998   2.716   6.836
 2048SOL     OW 7042   1.733   6.629   5.779
 2048SOL    HW1 7043   1.807   6.697   5.777
 2048SOL    HW2 7044   1.772   6.540   5.803
 2049SOL     OW 7045   5.914   2.030   4.998
 2049SOL    HW1 7046   5.886   1.944   4.956
 2049SOL    HW2 7047   6.013   2.041   4.990
 2050SOL     OW 7048   6.214   2.289   4.067
 2050SOL    HW1 7049   6.253   2.202   4.039
 2050SOL    HW2 7050   6.115   2.281   4.076
 2051SOL     OW 7051   0.744   5.930   0.152
 2051SOL    HW1 7052   0.788   6.008   0.108
 2051SOL    HW2 7053   0.661   5.961   0.198
 2052SOL     OW 7054   1.355   3.193   1.114
 2052SOL    HW1 7055   1.399   3.256   1.178
 2052SOL    HW2 7056   1.318   3.243   1.036
 2053SOL     OW 7057   6.528   5.886   4.201
 2053SOL    HW1 7058   6.484   5.832   4.129
 2053SOL    HW2 7059   6.594   5.949   4.159
 2054SOL     OW 7060   3.378   4.111   3.123
 2054SOL    HW1 7061   3.372   4.118   3.222
 2054SOL    HW2 7062   3.470   4.136   3.092
 2055SOL     OW 7063   5.662   3.573   4.042
 2055SOL    HW1 7064   5.631   3.612   3.955
 2055SOL    HW2 7065   5.635   3.477   4.047
 2056SOL     OW 7066   4.425   5.630   2.094
 2056SOL    HW1 7067   4.464   5.540   2.078
 2056SOL    HW2 7068   4.326   5.622   2.103
 2057SOL     OW 7069   5.117   4.201   5.660
 2057SOL    HW1 7070   5.182   4.125   5.654
 2057SOL    HW2 7071   5.079   4.205   5.753
 2058SOL     OW 7072   0.079   0.788   3.307
 2058SOL    HW1 7073   7.018   0.842   3.290
 2058SOL    HW2 7074   0.058   0.712   3.368
 2059SOL     OW 7075   1.995   5.923   6.637
 2059SOL    HW1 7076   2.000   5.908   6.538
 2059SOL    HW2 7077   1.938   6.003   6.656
 2060SOL     OW 7078   0.488   4.089   1.451
 2060SOL    HW1 7079   0.485   4.080   1.550
 2060SOL    HW2 7080   0.541   4.014   1.412
 2061SOL     OW 7081   1.273   1.903   2.480
 2061SOL    HW1 7082   1.180   1.940   2.484
 2061SOL    HW2 7083   1.288   1.842   2.558
 2062SOL     OW 7084   6.542   5.672   4.903
 2062SOL    HW1 7085   6.529   5.684   4.804
 2062SOL    HW2 7086   6.623   5.616   4.920
 2063SOL     OW 7087   1.281   6.449   5.472
 2063SOL    HW1 7088   1.356   6.421   5.532
 2063SOL    HW2 7089   1.265   6.378   5.403
 2064SOL     OW 7090   0.626   2.653   5.185
 2064SOL    HW1 7091   0.623   2.750   5.212
 2064SOL    HW2 7092   0.715   2.633   5.145
 2065SOL     OW 7093   5.832   2.288   5.728
 2065SOL    HW1 7094   5.853   2.277   5.631
 2065SOL    HW2 7095   5.918   2.296   5.780
 2066SOL     OW 7096   0.507   4.576   4.333
 2066SOL    HW1 7097   0.503   4.673   4.357
 2066SOL    HW2 7098   0.509   4.521   4.417
 2067SOL     OW 7099   6.884   5.378   0.986
 2067SOL    HW1 7100   6.814   5.307   0.986
 2067SOL    HW2 7101   6.907   5.402   0.891
 2068SOL     OW 7102   2.300   0.354   4.336
 2068SOL    HW1 7103   2.303   0.342   4.236
 2068SOL    HW2 7104   2.231   0.422   4.359
 2069SOL     OW 7105   6.349   2.670   3.850
 2069SOL    HW1 7106   6.373   2.744   3.912
 2069SOL    HW2 7107   6.428   2.645   3.795
 2070SOL     OW 7108   0.908   0.855   1.352
 2070SOL    HW1 7109   0.982   0.802   1.394
 2070SOL    HW2 7110   0.926   0.952   1.366
 2071SOL     OW 7111   5.983   0.232   6.014
 2071SOL    HW1 7112   5.923   0.153   6.024
 2071SOL    HW2 7113   5.988   0.281   6.101
 2072SOL     OW 7114   4.289   5.168   3.934
 2072SOL    HW1 7115   4.286   5.093   3.999
 2072SOL    HW2 7116   4.381   5.176   3.895
 2073SOL     OW 7117   4.498   6.545   5.034
 2073SOL    HW1 7118   4.576   6.591   5.077
 2073SOL    HW2 7119   4.502   6.557   4.935
 2074SOL     OW 7120   2.036   2.210   6.287
 2074SOL    HW1 7121   1.941   2.240   6.280
 2074SOL    HW2 7122   2.064   2.168   6.200
 2075SOL     OW 7123   6.701   2.637   3.271
 2075SOL    HW1 7124   6.796   2.610   3.258
 2075SOL    HW2 7125   6.662   2.665   3.183
 2076SOL     OW 7126   5.542   0.102   6.097
 2076SOL    HW1 7127   5.633   0.097   6.138
 2076SOL    HW2 7128   5.514   0.198   6.091
 2077SOL     OW 7129   6.219   2.214   3.079
 2077SOL    HW1 7130   6.267   2.165   3.006
 2077SOL    HW2 7131   6.138   2.259   3.042
 2078SOL     OW 7132   1.339   5.575   6.062
 2078SOL    HW1 7133   1.383   5.548   5.976
 2078SOL    HW2 7134   1.301   5.667   6.054
 2079SOL     OW 7135   6.543   2.180   3.044
 2079SOL    HW1 7136   6.573   2.087   3.067
 2079SOL    HW2 7137   6.526   2.231   3.128
 2080SOL     OW 7138   1.790   0.443   4.820
 2080SOL    HW1 7139   1.773   0.427   4.917
 2080SOL    HW2 7140   1.736   0.379   4.766
 2081SOL     OW 7141   0.917   6.334   4.649
 2081SOL    HW1 7142   0.908   6.292   4.739
 2081SOL    HW2 7143   1.012   6.326   4.618
 2082SOL     OW 7144   0.653   6.778   3.237
 2082SOL    HW1 7145   0.660   6.813   3.331
 2082SOL    HW2 7146   0.599   6.694   3.237
 2083SOL     OW 7147   0.894   4.774   5.763
 2083SOL    HW1 7148   0.882   4.695   5.823
 2083SOL    HW2 7149   0.991   4.784   5.741
 2084SOL     OW 7150   0.733   4.572   3.127
 2084SOL    HW1 7151   0.645   4.619   3.127
 2084SOL    HW2 7152   0.729   4.494   3.189
 2085SOL     OW 7153   5.260   1.055   0.540
 2085SOL    HW1 7154   5.342   1.035   0.487
 2085SOL    HW2 7155   5.286   1.074   0.635
 2086SOL     OW 7156   3.870   0.098   6.537
 2086SOL    HW1 7157   3.795   0.134   6.482
 2086SOL    HW2 7158   3.857   0.000   6.551
 2087SOL     OW 7159   4.815   1.263   1.717
 2087SOL    HW1 7160   4.798   1.352   1.758
 2087SOL    HW2 7161   4.884   1.271   1.645
 2088SOL     OW 7162   1.070   5.975   6.743
 2088SOL    HW1 7163   1.091   5.965   6.840
 2088SOL    HW2 7164   1.000   5.908   6.717
 2089SOL     OW 7165   4.772   2.777   6.015
 2089SOL    HW1 7166   4.699   2.797   6.081
 2089SOL    HW2 7167   4.805   2.863   5.977
 2090SOL     OW 7168   4.175   3.479   6.270
 2090SOL    HW1 7169   4.217   3.554   6.218
 2090SOL    HW2 7170   4.080   3.468   6.240
 2091SOL     OW 7171   0.013   4.977   0.555
 2091SOL    HW1 7172   0.004   4.894   0.499
 2091SOL    HW2 7173   0.087   4.965   0.621
 2092SOL     OW 7174   5.241   3.747   0.308
 2092SOL    HW1 7175   5.244   3.680   0.235
 2092SOL    HW2 7176   5.190   3.828   0.278
 2093SOL     OW 7177   3.086   2.000   1.094
 2093SOL    HW1 7178   3.177   2.036   1.075
 2093SOL    HW2 7179   3.054   1.947   1.015
 2094SOL     OW 7180   5.778   1.625   1.978
 2094SOL    HW1 7181   5.832   1.692   2.029
 2094SOL    HW2 7182   5.710   1.584   2.038
 2095SOL     OW 7183   6.873   6.622   5.049
 2095SOL    HW1 7184   6.914   6.564   5.119
 2095SOL    HW2 7185   6.914   6.602   4.960
 2096SOL     OW 7186   4.983   4.615   3.152
 2096SOL    HW1 7187   4.935   4.601   3.065
 2096SOL    HW2 7188   5.007   4.525   3.191
 2097SOL     OW 7189   3.078   2.793   6.363
 2097SOL    HW1 7190   3.071   2.847   6.280
 2097SOL    HW2 7191   3.009   2.721   6.362
 2098SOL     OW 7192   4.649   5.998   1.706
 2098SOL    HW1 7193   4.659   5.969   1.801
 2098SOL    HW2 7194   4.722   6.062   1.682
 2099SOL     OW 7195   3.654   2.027   6.419
 2099SOL    HW1 7196   3.726   2.080   6.465
 2099SOL    HW2 7197   3.694   1.945   6.379
 2100SOL     OW 7198   5.261   1.888   0.633
 2100SOL    HW1 7199   5.209   1.840   0.562
 2100SOL    HW2 7200   5.346   1.924   0.594
 2101SOL     OW 7201   0.351   6.474   1.162
 2101SOL    HW1 7202   0.392   6.549   1.109
 2101SOL    HW2 7203   0.257   6.460   1.133
 2102SOL     OW 7204   4.999   4.194   2.434
 2102SOL    HW1 7205   5.072   4.159   2.493
 2102SOL    HW2 7206   5.038   4.218   2.345
 2103SOL     OW 7207   3.810   3.714   6.939
 2103SOL    HW1 7208   3.741   3.726   7.011
 2103SOL    HW2 7209   3.765   3.713   6.850
 2104SOL     OW 7210   1.732   4.358   2.452
 2104SOL    HW1 7211   1.737   4.454   2.424
 2104SOL    HW2 7212   1.643   4.342   2.496
 2105SOL     OW 7213   4.761   4.678   6.810
 2105SOL    HW1 7214   4.793   4.631   6.892
 2105SOL    HW2 7215   4.665   4.655   6.793
 2106SOL     OW 7216   5.884   3.370   1.101
 2106SOL    HW1 7217   5.941   3.300   1.146
 2106SOL    HW2 7218   5.935   3.412   1.027
 2107SOL     OW 7219   6.725   2.238   5.410
 2107SOL    HW1 7220   6.777   2.216   5.327
 2107SOL    HW2 7221   6.701   2.153   5.457
 2108SOL     OW 7222   5.967   5.481   5.197
 2108SOL    HW1 7223   5.888   5.447   5.147
 2108SOL    HW2 7224   6.051   5.449   5.154
 2109SOL     OW 7225   4.170   5.958   2.186
 2109SOL    HW1 7226   4.264   5.931   2.164
 2109SOL    HW2 7227   4.171   6.047   2.232
 2110SOL     OW 7228   2.876   0.624   0.696
 2110SOL    HW1 7229   2.941   0.694   0.724
 2110SOL    HW2 7230   2.858   0.632   0.598
 2111SOL     OW 7231   2.013   2.920   6.919
 2111SOL    HW1 7232   2.098   2.970   6.932
 2111SOL    HW2 7233   1.936   2.983   6.930
 2112SOL     OW 7234   5.374   2.233   0.771
 2112SOL    HW1 7235   5.378   2.141   0.810
 2112SOL    HW2 7236   5.333   2.295   0.838
 2113SOL     OW 7237   2.497   1.356   4.746
 2113SOL    HW1 7238   2.472   1.417   4.671
 2113SOL    HW2 7239   2.415   1.333   4.799
 2114SOL     OW 7240   2.440   1.587   6.875
 2114SOL    HW1 7241   2.454   1.510   6.813
 2114SOL    HW2 7242   2.527   1.616   6.914
 2115SOL     OW 7243   0.474   4.414   2.823
 2115SOL    HW1 7244   0.536   4.337   2.807
 2115SOL    HW2 7245   0.406   4.388   2.891
 2116SOL     OW 7246   0.831   3.937   2.606
 2116SOL    HW1 7247   0.886   4.015   2.580
 2116SOL    HW2 7248   0.816   3.879   2.526
 2117SOL     OW 7249   6.500   4.492   1.340
 2117SOL    HW1 7250   6.556   4.409   1.339
 2117SOL    HW2 7251   6.516   4.544   1.256
 2118SOL     OW 7252   5.932   3.140   3.034
 2118SOL    HW1 7253   5.922   3.080   2.954
 2118SOL    HW2 7254   5.914   3.088   3.117
 2119SOL     OW 7255   1.181   0.274   1.451
 2119SOL    HW1 7256   1.273   0.246   1.478
 2119SOL    HW2 7257   1.115   0.228   1.511
 2120SOL     OW 7258   0.515   4.311   3.423
 2120SOL    HW1 7259   0.575   4.379   3.382
 2120SOL    HW2 7260   0.450   4.279   3.354
 2121SOL     OW 7261   1.338   3.027   5.399
 2121SOL    HW1 7262   1.338   2.929   5.384
 2121SOL    HW2 7263   1.412   3.052   5.462
 2122SOL     OW 7264   6.162   5.495   6.712
 2122SOL    HW1 7265   6.134   5.590   6.701
 2122SOL    HW2 7266   6.106   5.436   6.653
 2123SOL     OW 7267   6.719   5.260   2.051
 2123SOL    HW1 7268   6.769   5.278   2.135
 2123SOL    HW2 7269   6.622   5.280   2.064
 2124SOL     OW 7270   3.207   1.735   1.093
 2124SOL    HW1 7271   3.169   1.783   1.015
 2124SOL    HW2 7272   3.137   1.725   1.164
 2125SOL     OW 7273   1.690   6.533   2.199
 2125SOL    HW1 7274   1.727   6.506   2.288
 2125SOL    HW2 7275   1.597   6.567   2.210
 2126SOL     OW 7276   3.988   2.912   6.397
 2126SOL    HW1 7277   3.937   2.829   6.374
 2126SOL    HW2 7278   4.081   2.888   6.424
 2127SOL     OW 7279   0.689   1.758   6.022
 2127SOL    HW1 7280   0.683   1.817   6.103
 2127SOL    HW2 7281   0.742   1.804   5.951
 2128SOL     OW 7282   6.167   2.855   2.979
 2128SOL    HW1 7283   6.179   2.953   2.995
 2128SOL    HW2 7284   6.237   2.804   3.027
 2129SOL     OW 7285   5.016   3.488   5.196
 2129SOL    HW1 7286   4.996   3.403   5.246
 2129SOL    HW2 7287   4.935   3.515   5.144
 2130SOL     OW 7288   2.894   6.639   2.961
 2130SOL    HW1 7289   2.963   6.609   3.027
 2130SOL    HW2 7290   2.939   6.665   2.876
 2131SOL     OW 7291   5.032   1.791   0.773
 2131SOL    HW1 7292   4.996   1.842   0.851
 2131SOL    HW2 7293   5.111   1.840   0.735
 2132SOL     OW 7294   3.280   1.162   0.459
 2132SOL    HW1 7295   3.192   1.117   0.442
 2132SOL    HW2 7296   3.305   1.216   0.379
 2133SOL     OW 7297   3.393   2.270   1.317
 2133SOL    HW1 7298   3.309   2.302   1.362
 2133SOL    HW2 7299   3.456   2.234   1.385
 2134SOL     OW 7300   0.889   1.038   4.223
 2134SOL    HW1 7301   0.971   0.981   4.214
 2134SOL    HW2 7302   0.821   0.990   4.279
 2135SOL     OW 7303   0.664   1.913   4.081
 2135SOL    HW1 7304   0.687   1.980   4.151
 2135SOL    HW2 7305   0.588   1.948   4.026
 2136SOL     OW 7306   1.063   4.163   4.564
 2136SOL    HW1 7307   1.160   4.177   4.546
 2136SOL    HW2 7308   1.052   4.098   4.639
 2137SOL     OW 7309   0.062   6.015   4.147
 2137SOL    HW1 7310   0.127   5.949   4.109
 2137SOL    HW2 7311   0.060   6.096   4.089
 2138SOL     OW 7312   6.835   0.845   1.339
 2138SOL    HW1 7313   6.919   0.811   1.382
 2138SOL    HW2 7314   6.781   0.768   1.306
 2139SOL     OW 7315   3.507   0.725   2.898
 2139SOL    HW1 7316   3.473   0.801   2.842
 2139SOL    HW2 7317   3.590   0.752   2.946
 2140SOL     OW 7318   3.463   5.811   3.153
 2140SOL    HW1 7319   3.506   5.901   3.147
 2140SOL    HW2 7320   3.367   5.819   3.125
 2141SOL     OW 7321   6.573   4.498   1.075
 2141SOL    HW1 7322   6.516   4.438   1.019
 2141SOL    HW2 7323   6.668   4.466   1.072
 2142SOL     OW 7324   1.381   2.020   3.072
 2142SOL    HW1 7325   1.412   2.074   2.993
 2142SOL    HW2 7326   1.288   1.988   3.056
 2143SOL     OW 7327   3.193   4.812   1.431
 2143SOL    HW1 7328   3.139   4.824   1.347
 2143SOL    HW2 7329   3.221   4.716   1.438
 2144SOL     OW 7330   1.803   5.664   3.086
 2144SOL    HW1 7331   1.709   5.630   3.089
 2144SOL    HW2 7332   1.838   5.675   3.179
 2145SOL     OW 7333   3.474   6.460   4.306
 2145SOL    HW1 7334   3.380   6.443   4.333
 2145SOL    HW2 7335   3.481   6.458   4.206
 2146SOL     OW 7336   2.608   3.567   1.700
 2146SOL    HW1 7337   2.564   3.638   1.646
 2146SOL    HW2 7338   2.540   3.523   1.759
 2147SOL     OW 7339   0.561   1.206   6.575
 2147SOL    HW1 7340   0.506   1.232   6.655
 2147SOL    HW2 7341   0.640   1.267   6.568
 2148SOL     OW 7342   5.230   2.637   4.441
 2148SOL    HW1 7343   5.184   2.718   4.475
 2148SOL    HW2 7344   5.232   2.639   4.341
 2149SOL     OW 7345   3.705   1.340   1.115
 2149SOL    HW1 7346   3.779   1.278   1.143
 2149SOL    HW2 7347   3.720   1.430   1.156
 2150SOL     OW 7348   2.444   2.532   2.397
 2150SOL    HW1 7349   2.436   2.630   2.378
 2150SOL    HW2 7350   2.416   2.514   2.492
 2151SOL     OW 7351   1.855   1.130   3.950
 2151SOL    HW1 7352   1.776   1.074   3.974
 2151SOL    HW2 7353   1.855   1.213   4.006
 2152SOL     OW 7354   3.887   6.675   1.191
 2152SOL    HW1 7355   3.789   6.693   1.188
 2152SOL    HW2 7356   3.923   6.672   1.098
 2153SOL     OW 7357   3.652   0.059   3.039
 2153SOL    HW1 7358   3.652   0.059   2.939
 2153SOL    HW2 7359   3.649   6.986   3.072
 2154SOL     OW 7360   5.091   0.591   4.661
 2154SOL    HW1 7361   5.133   0.514   4.710
 2154SOL    HW2 7362   5.111   0.584   4.564
 2155SOL     OW 7363   2.004   5.267   0.227
 2155SOL    HW1 7364   2.026   5.185   0.279
 2155SOL    HW2 7365   1.932   5.246   0.160
 2156SOL     OW 7366   2.380   0.754   2.569
 2156SOL    HW1 7367   2.402   0.783   2.662
 2156SOL    HW2 7368   2.295   0.700   2.570
 2157SOL     OW 7369   5.995   0.756   3.128
 2157SOL    HW1 7370   6.085   0.793   3.105
 2157SOL    HW2 7371   5.999   0.712   3.218
 2158SOL     OW 7372   3.953   6.566   0.923
 2158SOL    HW1 7373   3.910   6.487   0.880
 2158SOL    HW2 7374   4.052   6.554   0.926
 2159SOL     OW 7375   2.498   6.487   5.562
 2159SOL    HW1 7376   2.522   6.394   5.589
 2159SOL    HW2 7377   2.547   6.552   5.620
 2160SOL     OW 7378   4.450   3.542   1.158
 2160SOL    HW1 7379   4.419   3.518   1.067
 2160SOL    HW2 7380   4.550   3.542   1.160
 2161SOL     OW 7381   5.175   3.635   3.446
 2161SOL    HW1 7382   5.239   3.711   3.458
 2161SOL    HW2 7383   5.200   3.561   3.508
 2162SOL     OW 7384   2.862   0.696   0.419
 2162SOL    HW1 7385   2.826   0.786   0.396
 2162SOL    HW2 7386   2.821   0.627   0.360
 2163SOL     OW 7387   6.841   4.690   6.330
 2163SOL    HW1 7388   6.912   4.760   6.340
 2163SOL    HW2 7389   6.778   4.716   6.257
 2164SOL     OW 7390   1.530   2.458   0.132
 2164SOL    HW1 7391   1.471   2.427   0.206
 2164SOL    HW2 7392   1.535   2.558   0.133
 2165SOL     OW 7393   1.266   1.739   2.729
 2165SOL    HW1 7394   1.195   1.802   2.760
 2165SOL    HW2 7395   1.229   1.646   2.725
 2166SOL     OW 7396   1.882   2.331   5.282
 2166SOL    HW1 7397   1.868   2.426   5.254
 2166SOL    HW2 7398   1.960   2.292   5.233
 2167SOL     OW 7399   1.423   0.783   3.574
 2167SOL    HW1 7400   1.369   0.711   3.618
 2167SOL    HW2 7401   1.386   0.801   3.483
 2168SOL     OW 7402   0.741   1.633   3.633
 2168SOL    HW1 7403   0.841   1.640   3.632
 2168SOL    HW2 7404   0.712   1.562   3.569
 2169SOL     OW 7405   5.457   2.222   5.606
 2169SOL    HW1 7406   5.509   2.212   5.522
 2169SOL    HW2 7407   5.361   2.238   5.584
 2170SOL     OW 7408   5.898   4.887   6.015
 2170SOL    HW1 7409   5.904   4.791   5.988
 2170SOL    HW2 7410   5.825   4.932   5.964
 2171SOL     OW 7411   6.518   3.032   1.755
 2171SOL    HW1 7412   6.614   3.062   1.757
 2171SOL    HW2 7413   6.461   3.099   1.803
 2172SOL     OW 7414   2.948   1.872   0.228
 2172SOL    HW1 7415   3.035   1.865   0.180
 2172SOL    HW2 7416   2.885   1.930   0.175
 2173SOL     OW 7417   4.183   0.128   5.587
 2173SOL    HW1 7418   4.211   0.149   5.681
 2173SOL    HW2 7419   4.255   0.159   5.524
 2174SOL     OW 7420   5.729   5.036   5.851
 2174SOL    HW1 7421   5.650   5.045   5.790
 2174SOL    HW2 7422   5.755   5.126   5.885
 2175SOL     OW 7423   3.369   2.060   3.561
 2175SOL    HW1 7424   3.400   2.123   3.632
 2175SOL    HW2 7425   3.309   1.991   3.601
 2176SOL     OW 7426   0.559   3.376   7.019
 2176SOL    HW1 7427   0.582   3.293   6.968
 2176SOL    HW2 7428   0.619   3.383   0.077
 2177SOL     OW 7429   6.662   0.999   3.560
 2177SOL    HW1 7430   6.706   0.910   3.565
 2177SOL    HW2 7431   6.698   1.058   3.632
 2178SOL     OW 7432   1.524   4.096   0.318
 2178SOL    HW1 7433   1.489   4.046   0.398
 2178SOL    HW2 7434   1.524   4.035   0.239
 2179SOL     OW 7435   1.364   5.612   4.967
 2179SOL    HW1 7436   1.363   5.698   4.916
 2179SOL    HW2 7437   1.433   5.551   4.928
 2180SOL     OW 7438   2.827   3.523   1.845
 2180SOL    HW1 7439   2.783   3.434   1.860
 2180SOL    HW2 7440   2.766   3.581   1.790
 2181SOL     OW 7441   4.988   4.207   5.413
 2181SOL    HW1 7442   4.925   4.129   5.420
 2181SOL    HW2 7443   5.045   4.210   5.495
 2182SOL     OW 7444   6.463   2.823   4.883
 2182SOL    HW1 7445   6.542   2.775   4.921
 2182SOL    HW2 7446   6.444   2.787   4.791
 2183SOL     OW 7447   3.505   3.386   6.460
 2183SOL    HW1 7448   3.553   3.369   6.545
 2183SOL    HW2 7449   3.524   3.312   6.395
 2184SOL     OW 7450   4.013   1.469   5.546
 2184SOL    HW1 7451   4.022   1.547   5.609
 2184SOL    HW2 7452   4.096   1.413   5.551
 2185SOL     OW 7453   1.492   2.090   0.559
 2185SOL    HW1 7454   1.415   2.152   0.569
 2185SOL    HW2 7455   1.578   2.141   0.568
 2186SOL     OW 7456   6.976   4.739   2.442
 2186SOL    HW1 7457   0.036   4.722   2.385
 2186SOL    HW2 7458   7.005   4.772   2.532
 2187SOL     OW 7459   0.525   1.948   1.848
 2187SOL    HW1 7460   0.596   1.995   1.899
 2187SOL    HW2 7461   0.466   1.897   1.912
 2188SOL     OW 7462   5.464   6.249   4.075
 2188SOL    HW1 7463   5.405   6.207   4.145
 2188SOL    HW2 7464   5.531   6.308   4.119
 2189SOL     OW 7465   1.791   6.555   6.892
 2189SOL    HW1 7466   1.765   6.637   6.944
 2189SOL    HW2 7467   1.887   6.563   6.863
 2190SOL     OW 7468   0.594   2.892   2.318
 2190SOL    HW1 7469   0.641   2.980   2.314
 2190SOL    HW2 7470   0.511   2.897   2.263
 2191SOL     OW 7471   3.237   1.567   6.565
 2191SOL    HW1 7472   3.282   1.507   6.500
 2191SOL    HW2 7473   3.303   1.601   6.632
 2192SOL     OW 7474   3.862   6.973   3.473
 2192SOL    HW1 7475   3.873   0.029   3.411
 2192SOL    HW2 7476   3.765   6.961   3.495
 2193SOL     OW 7477   0.481   6.108   6.541
 2193SOL    HW1 7478   0.557   6.080   6.483
 2193SOL    HW2 7479   0.434   6.027   6.576
 2194SOL     OW 7480   2.342   4.766   6.717
 2194SOL    HW1 7481   2.439   4.761   6.742
 2194SOL    HW2 7482   2.287   4.759   6.800
 2195SOL     OW 7483   6.956   6.973   3.477
 2195SOL    HW1 7484   6.914   6.929   3.557
 2195SOL    HW2 7485   6.891   6.972   3.401
 2196SOL     OW 7486   3.542   6.993   5.647
 2196SOL    HW1 7487   3.479   6.927   5.688
 2196SOL    HW2 7488   3.504   0.003   5.560
 2197SOL     OW 7489   3.717   3.744   1.366
 2197SOL    HW1 7490   3.675   3.709   1.282
 2197SOL    HW2 7491   3.800   3.795   1.344
 2198SOL     OW 7492   6.418   1.128   6.867
 2198SOL    HW1 7493   6.499   1.122   6.924
 2198SOL    HW2 7494   6.438   1.184   6.787
 2199SOL     OW 7495   4.847   0.870   2.881
 2199SOL    HW1 7496   4.825   0.875   2.783
 2199SOL    HW2 7497   4.927   0.811   2.894
 2200SOL     OW 7498   3.913   0.222   4.721
 2200SOL    HW1 7499   3.946   0.174   4.802
 2200SOL    HW2 7500   3.932   0.168   4.639
 2201SOL     OW 7501   6.529   2.790   2.593
 2201SOL    HW1 7502   6.605   2.804   2.657
 2201SOL    HW2 7503   6.445   2.775   2.644
 2202SOL     OW 7504   3.583   4.995   3.496
 2202SOL    HW1 7505   3.491   5.023   3.524
 2202SOL    HW2 7506   3.632   4.959   3.575
 2203SOL     OW 7507   2.084   2.526   1.793
 2203SOL    HW1 7508   2.146   2.454   1.824
 2203SOL    HW2 7509   2.135   2.594   1.740
 2204SOL     OW 7510   3.863   1.833   6.781
 2204SOL    HW1 7511   3.929   1.820   6.855
 2204SOL    HW2 7512   3.870   1.926   6.745
 2205SOL     OW 7513   2.039   6.902   6.145
 2205SOL    HW1 7514   2.077   6.987   6.181
 2205SOL    HW2 7515   1.943   6.917   6.118
 2206SOL     OW 7516   2.621   3.913   5.583
 2206SOL    HW1 7517   2.614   3.903   5.484
 2206SOL    HW2 7518   2.537   3.954   5.619
 2207SOL     OW 7519   2.144   3.746   6.710
 2207SOL    HW1 7520   2.235   3.732   6.671
 2207SOL    HW2 7521   2.107   3.658   6.739
 2208SOL     OW 7522   1.864   5.327   2.494
 2208SOL    HW1 7523   1.849   5.278   2.580
 2208SOL    HW2 7524   1.776   5.350   2.452
 2209SOL     OW 7525   1.501   5.493   5.828
 2209SOL    HW1 7526   1.455   5.411   5.861
 2209SOL    HW2 7527   1.583   5.467   5.778
 2210SOL     OW 7528   6.835   4.382   3.744
 2210SOL    HW1 7529   6.806   4.329   3.824
 2210SOL    HW2 7530   6.754   4.418   3.697
 2211SOL     OW 7531   5.072   0.672   6.725
 2211SOL    HW1 7532   5.153   0.638   6.773
 2211SOL    HW2 7533   4.990   0.647   6.777
 2212SOL     OW 7534   1.771   6.225   0.222
 2212SOL    HW1 7535   1.726   6.301   0.268
 2212SOL    HW2 7536   1.865   6.217   0.255
 2213SOL     OW 7537   3.991   2.706   5.313
 2213SOL    HW1 7538   4.053   2.645   5.264
 2213SOL    HW2 7539   3.919   2.737   5.252
 2214SOL     OW 7540   4.653   2.406   5.644
 2214SOL    HW1 7541   4.733   2.349   5.663
 2214SOL    HW2 7542   4.574   2.369   5.694
 2215SOL     OW 7543   6.458   1.853   0.104
 2215SOL    HW1 7544   6.436   1.773   0.048
 2215SOL    HW2 7545   6.394   1.858   0.181
 2216SOL     OW 7546   1.781   0.877   6.431
 2216SOL    HW1 7547   1.761   0.884   6.529
 2216SOL    HW2 7548   1.698   0.848   6.382
 2217SOL     OW 7549   3.549   0.238   1.226
 2217SOL    HW1 7550   3.616   0.307   1.252
 2217SOL    HW2 7551   3.485   0.276   1.160
 2218SOL     OW 7552   0.932   6.939   0.853
 2218SOL    HW1 7553   0.895   6.961   0.762
 2218SOL    HW2 7554   1.026   6.974   0.860
 2219SOL     OW 7555   0.656   3.457   2.534
 2219SOL    HW1 7556   0.744   3.438   2.579
 2219SOL    HW2 7557   0.585   3.468   2.603
 2220SOL     OW 7558   0.303   0.693   4.570
 2220SOL    HW1 7559   0.354   0.706   4.655
 2220SOL    HW2 7560   0.298   0.779   4.521
 2221SOL     OW 7561   6.349   0.975   6.122
 2221SOL    HW1 7562   6.365   0.895   6.063
 2221SOL    HW2 7563   6.379   1.057   6.074
 2222SOL     OW 7564   3.792   0.756   1.121
 2222SOL    HW1 7565   3.890   0.771   1.135
 2222SOL    HW2 7566   3.758   0.694   1.192
 2223SOL     OW 7567   6.039   6.527   4.113
 2223SOL    HW1 7568   6.130   6.528   4.155
 2223SOL    HW2 7569   6.049   6.519   4.014
 2224SOL     OW 7570   2.146   4.595   2.104
 2224SOL    HW1 7571   2.050   4.585   2.078
 2224SOL    HW2 7572   2.161   4.685   2.145
 2225SOL     OW 7573   6.331   5.708   3.211
 2225SOL    HW1 7574   6.417   5.658   3.221
 2225SOL    HW2 7575   6.258   5.645   3.183
 2226SOL     OW 7576   4.126   4.137   0.453
 2226SOL    HW1 7577   4.136   4.107   0.358
 2226SOL    HW2 7578   4.205   4.191   0.480
 2227SOL     OW 7579   5.485   3.626   7.005
 2227SOL    HW1 7580   5.466   3.562   6.929
 2227SOL    HW2 7581   5.539   3.579   0.053
 2228SOL     OW 7582   2.874   5.500   1.271
 2228SOL    HW1 7583   2.884   5.600   1.266
 2228SOL    HW2 7584   2.836   5.476   1.360
 2229SOL     OW 7585   4.074   1.462   4.881
 2229SOL    HW1 7586   4.037   1.442   4.791
 2229SOL    HW2 7587   4.039   1.395   4.947
 2230SOL     OW 7588   0.030   5.791   5.559
 2230SOL    HW1 7589   0.026   5.692   5.571
 2230SOL    HW2 7590   6.989   5.835   5.624
 2231SOL     OW 7591   1.791   0.824   1.391
 2231SOL    HW1 7592   1.839   0.910   1.372
 2231SOL    HW2 7593   1.727   0.805   1.317
 2232SOL     OW 7594   1.452   1.913   3.855
 2232SOL    HW1 7595   1.375   1.873   3.904
 2232SOL    HW2 7596   1.493   1.844   3.796
 2233SOL     OW 7597   2.429   4.354   1.337
 2233SOL    HW1 7598   2.402   4.384   1.429
 2233SOL    HW2 7599   2.457   4.259   1.339
 2234SOL     OW 7600   4.834   2.277   2.024
 2234SOL    HW1 7601   4.835   2.184   1.987
 2234SOL    HW2 7602   4.903   2.285   2.096
 2235SOL     OW 7603   2.027   0.173   0.930
 2235SOL    HW1 7604   1.984   0.137   0.847
 2235SOL    HW2 7605   2.112   0.122   0.948
 2236SOL     OW 7606   0.652   4.371   6.799
 2236SOL    HW1 7607   0.572   4.413   6.841
 2236SOL    HW2 7608   0.698   4.438   6.740
 2237SOL     OW 7609   5.313   4.438   4.545
 2237SOL    HW1 7610   5.277   4.392   4.463
 2237SOL    HW2 7611   5.412   4.427   4.548
 2238SOL     OW 7612   5.735   5.688   1.833
 2238SOL    HW1 7613   5.707   5.648   1.920
 2238SOL    HW2 7614   5.654   5.721   1.784
 2239SOL     OW 7615   3.702   5.241   3.514
 2239SOL    HW1 7616   3.617   5.241   3.460
 2239SOL    HW2 7617   3.680   5.250   3.611
 2240SOL     OW 7618   5.594   5.890   4.009
 2240SOL    HW1 7619   5.608   5.983   3.976
 2240SOL    HW2 7620   5.498   5.864   3.999
 2241SOL     OW 7621   0.625   6.823   2.338
 2241SOL    HW1 7622   0.596   6.743   2.283
 2241SOL    HW2 7623   0.619   6.800   2.435
 2242SOL     OW 7624   5.282   2.651   2.889
 2242SOL    HW1 7625   5.219   2.627   2.815
 2242SOL    HW2 7626   5.340   2.572   2.910
 2243SOL     OW 7627   2.981   6.150   5.353
 2243SOL    HW1 7628   2.924   6.070   5.335
 2243SOL    HW2 7629   2.955   6.190   5.441
 2244SOL     OW 7630   3.433   0.425   3.112
 2244SOL    HW1 7631   3.333   0.434   3.120
 2244SOL    HW2 7632   3.462   0.457   3.023
 2245SOL     OW 7633   0.672   2.289   1.712
 2245SOL    HW1 7634   0.632   2.316   1.799
 2245SOL    HW2 7635   0.734   2.212   1.726
 2246SOL     OW 7636   1.004   1.391   4.662
 2246SOL    HW1 7637   0.940   1.333   4.612
 2246SOL    HW2 7638   0.998   1.485   4.628
 2247SOL     OW 7639   2.837   2.847   5.856
 2247SOL    HW1 7640   2.929   2.817   5.832
 2247SOL    HW2 7641   2.787   2.872   5.773
 2248SOL     OW 7642   4.015   3.937   6.731
 2248SOL    HW1 7643   4.065   3.936   6.818
 2248SOL    HW2 7644   4.050   4.009   6.672
 2249SOL     OW 7645   6.399   6.422   2.422
 2249SOL    HW1 7646   6.411   6.330   2.459
 2249SOL    HW2 7647   6.322   6.423   2.358
 2250SOL     OW 7648   5.328   3.652   0.833
 2250SOL    HW1 7649   5.253   3.616   0.778
 2250SOL    HW2 7650   5.356   3.741   0.799
 2251SOL     OW 7651   5.369   1.578   0.200
 2251SOL    HW1 7652   5.272   1.564   0.182
 2251SOL    HW2 7653   5.422   1.552   0.119
 2252SOL     OW 7654   6.751   2.379   3.728
 2252SOL    HW1 7655   6.769   2.338   3.638
 2252SOL    HW2 7656   6.716   2.309   3.790
 2253SOL     OW 7657   0.747   3.372   0.195
 2253SOL    HW1 7658   0.735   3.410   0.287
 2253SOL    HW2 7659   0.825   3.309   0.195
 2254SOL     OW 7660   2.061   2.818   5.804
 2254SOL    HW1 7661   2.108   2.807   5.716
 2254SOL    HW2 7662   1.968   2.782   5.796
 2255SOL     OW 7663   5.039   2.386   0.429
 2255SOL    HW1 7664   5.037   2.419   0.524
 2255SOL    HW2 7665   5.121   2.419   0.384
 2256SOL     OW 7666   4.094   6.724   1.595
 2256SOL    HW1 7667   4.115   6.626   1.595
 2256SOL    HW2 7668   4.103   6.760   1.688
 2257SOL     OW 7669   0.347   2.983   4.093
 2257SOL    HW1 7670   0.270   2.920   4.082
 2257SOL    HW2 7671   0.424   2.933   4.133
 2258SOL     OW 7672   0.844   5.395   5.410
 2258SOL    HW1 7673   0.757   5.351   5.433
 2258SOL    HW2 7674   0.910   5.325   5.384
 2259SOL     OW 7675   4.658   3.756   6.964
 2259SOL    HW1 7676   4.731   3.747   0.010
 2259SOL    HW2 7677   4.609   3.669   6.956
 2260SOL     OW 7678   5.472   4.641   2.907
 2260SOL    HW1 7679   5.385   4.594   2.891
 2260SOL    HW2 7680   5.541   4.575   2.937
 2261SOL     OW 7681   6.195   6.592   0.826
 2261SOL    HW1 7682   6.242   6.506   0.809
 2261SOL    HW2 7683   6.197   6.613   0.924
 2262SOL     OW 7684   5.748   2.593   2.266
 2262SOL    HW1 7685   5.696   2.511   2.245
 2262SOL    HW2 7686   5.697   2.674   2.236
 2263SOL     OW 7687   2.729   5.590   5.941
 2263SOL    HW1 7688   2.653   5.576   6.004
 2263SOL    HW2 7689   2.814   5.561   5.986
 2264SOL     OW 7690   3.405   3.371   1.565
 2264SOL    HW1 7691   3.362   3.332   1.647
 2264SOL    HW2 7692   3.343   3.438   1.525
 2265SOL     OW 7693   0.405   0.555   4.168
 2265SOL    HW1 7694   0.352   0.639   4.183
 2265SOL    HW2 7695   0.350   0.490   4.117
 2266SOL     OW 7696   6.005   1.496   1.334
 2266SOL    HW1 7697   5.968   1.509   1.242
 2266SOL    HW2 7698   6.104   1.478   1.328
 2267SOL     OW 7699   5.195   2.259   4.976
 2267SOL    HW1 7700   5.278   2.252   5.031
 2267SOL    HW2 7701   5.193   2.185   4.908
 2268SOL     OW 7702   6.384   3.850   6.462
 2268SOL    HW1 7703   6.303   3.900   6.430
 2268SOL    HW2 7704   6.361   3.799   6.544
 2269SOL     OW 7705   5.798   5.800   5.059
 2269SOL    HW1 7706   5.780   5.898   5.056
 2269SOL    HW2 7707   5.790   5.767   5.153
 2270SOL     OW 7708   3.579   3.192   6.930
 2270SOL    HW1 7709   3.639   3.135   6.987
 2270SOL    HW2 7710   3.587   3.163   6.834
 2271SOL     OW 7711   5.940   3.995   0.497
 2271SOL    HW1 7712   5.927   4.019   0.593
 2271SOL    HW2 7713   5.894   4.062   0.439
 2272SOL     OW 7714   5.617   2.152   5.351
 2272SOL    HW1 7715   5.544   2.085   5.355
 2272SOL    HW2 7716   5.695   2.114   5.301
 2273SOL     OW 7717   1.508   0.912   1.580
 2273SOL    HW1 7718   1.562   0.828   1.585
 2273SOL    HW2 7719   1.566   0.988   1.552
 2274SOL     OW 7720   1.112   2.412   6.024
 2274SOL    HW1 7721   1.055   2.452   6.096
 2274SOL    HW2 7722   1.095   2.313   6.020
 2275SOL     OW 7723   5.529   0.408   4.504
 2275SOL    HW1 7724   5.573   0.496   4.524
 2275SOL    HW2 7725   5.475   0.380   4.584
 2276SOL     OW 7726   2.887   4.944   1.243
 2276SOL    HW1 7727   2.871   5.017   1.176
 2276SOL    HW2 7728   2.920   4.863   1.195
 2277SOL     OW 7729   3.465   4.098   4.413
 2277SOL    HW1 7730   3.377   4.054   4.395
 2277SOL    HW2 7731   3.529   4.030   4.450
 2278SOL     OW 7732   5.312   6.243   4.500
 2278SOL    HW1 7733   5.343   6.329   4.459
 2278SOL    HW2 7734   5.296   6.256   4.598
 2279SOL     OW 7735   4.809   5.679   4.640
 2279SOL    HW1 7736   4.753   5.649   4.717
 2279SOL    HW2 7737   4.882   5.613   4.623
 2280SOL     OW 7738   6.937   6.333   4.636
 2280SOL    HW1 7739   6.837   6.329   4.641
 2280SOL    HW2 7740   6.974   6.241   4.628
 2281SOL     OW 7741   3.252   1.035   1.812
 2281SOL    HW1 7742   3.158   1.002   1.800
 2281SOL    HW2 7743   3.269   1.055   1.908
 2282SOL     OW 7744   5.416   0.351   4.738
 2282SOL    HW1 7745   5.351   0.406   4.792
 2282SOL    HW2 7746   5.471   0.295   4.800
 2283SOL     OW 7747   6.820   4.384   1.115
 2283SOL    HW1 7748   6.865   4.300   1.085
 2283SOL    HW2 7749   6.883   4.461   1.105
 2284SOL     OW 7750   2.289   1.664   0.278
 2284SOL    HW1 7751   2.226   1.589   0.300
 2284SOL    HW2 7752   2.383   1.631   0.282
 2285SOL     OW 7753   1.468   3.009   0.397
 2285SOL    HW1 7754   1.526   3.016   0.478
 2285SOL    HW2 7755   1.429   3.099   0.376
 2286SOL     OW 7756   0.160   6.757   4.531
 2286SOL    HW1 7757   0.073   6.785   4.574
 2286SOL    HW2 7758   0.141   6.698   4.453
 2287SOL     OW 7759   2.224   2.816   2.003
 2287SOL    HW1 7760   2.277   2.731   2.002
 2287SOL    HW2 7761   2.160   2.816   1.926
 2288SOL     OW 7762   6.532   4.785   4.529
 2288SOL    HW1 7763   6.459   4.723   4.557
 2288SOL    HW2 7764   6.600   4.792   4.603
 2289SOL     OW 7765   6.373   4.462   2.609
 2289SOL    HW1 7766   6.372   4.467   2.709
 2289SOL    HW2 7767   6.387   4.367   2.581
 2290SOL     OW 7768   2.187   3.967   2.192
 2290SOL    HW1 7769   2.188   3.873   2.158
 2290SOL    HW2 7770   2.196   4.030   2.115
 2291SOL     OW 7771   2.051   2.097   0.233
 2291SOL    HW1 7772   1.963   2.053   0.212
 2291SOL    HW2 7773   2.124   2.030   0.224
 2292SOL     OW 7774   5.076   2.262   2.967
 2292SOL    HW1 7775   5.040   2.189   3.025
 2292SOL    HW2 7776   5.015   2.340   2.970
 2293SOL     OW 7777   6.683   0.210   0.882
 2293SOL    HW1 7778   6.780   0.184   0.884
 2293SOL    HW2 7779   6.630   0.147   0.937
 2294SOL     OW 7780   3.511   1.662   6.295
 2294SOL    HW1 7781   3.497   1.570   6.259
 2294SOL    HW2 7782   3.443   1.724   6.256
 2295SOL     OW 7783   0.593   1.539   2.930
 2295SOL    HW1 7784   0.536   1.609   2.973
 2295SOL    HW2 7785   0.628   1.478   3.001
 2296SOL     OW 7786   3.483   5.293   2.488
 2296SOL    HW1 7787   3.552   5.227   2.459
 2296SOL    HW2 7788   3.418   5.249   2.551
 2297SOL     OW 7789   4.694   4.615   5.795
 2297SOL    HW1 7790   4.715   4.589   5.701
 2297SOL    HW2 7791   4.620   4.682   5.796
 2298SOL     OW 7792   3.937   3.398   2.721
 2298SOL    HW1 7793   3.887   3.470   2.673
 2298SOL    HW2 7794   3.944   3.317   2.662
 2299SOL     OW 7795   4.876   4.540   5.110
 2299SOL    HW1 7796   4.932   4.467   5.071
 2299SOL    HW2 7797   4.858   4.520   5.206
 2300SOL     OW 7798   2.783   6.690   3.218
 2300SOL    HW1 7799   2.728   6.770   3.240
 2300SOL    HW2 7800   2.787   6.678   3.119
 2301SOL     OW 7801   3.903   2.990   3.400
 2301SOL    HW1 7802   3.880   2.966   3.494
 2301SOL    HW2 7803   3.954   3.076   3.399
 2302SOL     OW 7804   3.615   0.576   1.365
 2302SOL    HW1 7805   3.663   0.496   1.402
 2302SOL    HW2 7806   3.606   0.645   1.437
 2303SOL     OW 7807   2.622   3.258   1.129
 2303SOL    HW1 7808   2.580   3.341   1.166
 2303SOL    HW2 7809   2.715   3.279   1.097
 2304SOL     OW 7810   5.745   6.020   4.519
 2304SOL    HW1 7811   5.669   5.995   4.458
 2304SOL    HW2 7812   5.724   6.107   4.563
 2305SOL     OW 7813   2.246   0.661   3.080
 2305SOL    HW1 7814   2.288   0.742   3.121
 2305SOL    HW2 7815   2.317   0.605   3.036
 2306SOL     OW 7816   2.000   5.155   1.527
 2306SOL    HW1 7817   2.038   5.188   1.614
 2306SOL    HW2 7818   2.014   5.224   1.456
 2307SOL     OW 7819   0.367   3.028   5.539
 2307SOL    HW1 7820   0.330   3.003   5.449
 2307SOL    HW2 7821   0.316   2.979   5.610
 2308SOL     OW 7822   3.010   4.676   1.205
 2308SOL    HW1 7823   3.021   4.619   1.124
 2308SOL    HW2 7824   3.044   4.627   1.285
 2309SOL     OW 7825   1.997   0.994   5.139
 2309SOL    HW1 7826   2.011   0.895   5.131
 2309SOL    HW2 7827   1.903   1.017   5.115
 2310SOL     OW 7828   5.937   5.904   1.928
 2310SOL    HW1 7829   6.014   5.894   1.866
 2310SOL    HW2 7830   5.884   5.818   1.929
 2311SOL     OW 7831   2.121   6.436   0.977
 2311SOL    HW1 7832   2.094   6.348   0.940
 2311SOL    HW2 7833   2.201   6.470   0.927
 2312SOL     OW 7834   4.894   5.434   3.375
 2312SOL    HW1 7835   4.932   5.374   3.446
 2312SOL    HW2 7836   4.965   5.458   3.309
 2313SOL     OW 7837   4.871   5.802   2.324
 2313SOL    HW1 7838   4.904   5.890   2.291
 2313SOL    HW2 7839   4.773   5.794   2.305
 2314SOL     OW 7840   4.933   5.948   2.947
 2314SOL    HW1 7841   4.877   5.907   2.876
 2314SOL    HW2 7842   4.979   6.028   2.911
 2315SOL     OW 7843   5.048   3.094   6.118
 2315SOL    HW1 7844   5.138   3.139   6.118
 2315SOL    HW2 7845   5.016   3.083   6.212
 2316SOL     OW 7846   4.485   1.650   3.904
 2316SOL    HW1 7847   4.422   1.578   3.934
 2316SOL    HW2 7848   4.503   1.711   3.981
 2317SOL     OW 7849   0.301   5.719   3.155
 2317SOL    HW1 7850   0.318   5.803   3.103
 2317SOL    HW2 7851   0.312   5.640   3.095
 2318SOL     OW 7852   0.718   2.707   3.464
 2318SOL    HW1 7853   0.737   2.731   3.559
 2318SOL    HW2 7854   0.622   2.681   3.455
 2319SOL     OW 7855   1.286   4.820   4.352
 2319SOL    HW1 7856   1.304   4.739   4.408
 2319SOL    HW2 7857   1.192   4.851   4.367
 2320SOL     OW 7858   0.771   2.486   3.771
 2320SOL    HW1 7859   0.772   2.412   3.704
 2320SOL    HW2 7860   0.688   2.541   3.759
 2321SOL     OW 7861   3.220   0.894   5.459
 2321SOL    HW1 7862   3.241   0.964   5.391
 2321SOL    HW2 7863   3.295   0.887   5.524
 2322SOL     OW 7864   2.393   1.853   5.126
 2322SOL    HW1 7865   2.446   1.884   5.047
 2322SOL    HW2 7866   2.381   1.929   5.190
 2323SOL     OW 7867   3.177   4.841   2.161
 2323SOL    HW1 7868   3.221   4.849   2.250
 2323SOL    HW2 7869   3.078   4.852   2.171
 2324SOL     OW 7870   0.171   6.264   2.893
 2324SOL    HW1 7871   0.078   6.298   2.878
 2324SOL    HW2 7872   0.224   6.274   2.809
 2325SOL     OW 7873   0.376   4.310   1.333
 2325SOL    HW1 7874   0.412   4.232   1.385
 2325SOL    HW2 7875   0.435   4.390   1.347
 2326SOL     OW 7876   3.304   4.097   6.112
 2326SOL    HW1 7877   3.350   4.185   6.105
 2326SOL    HW2 7878   3.357   4.027   6.065
 2327SOL     OW 7879   5.842   2.481   4.536
 2327SOL    HW1 7880   5.769   2.453   4.599
 2327SOL    HW2 7881   5.931   2.462   4.578
 2328SOL     OW 7882   4.496   1.785   3.456
 2328SOL    HW1 7883   4.533   1.842   3.529
 2328SOL    HW2 7884   4.403   1.757   3.479
 2329SOL     OW 7885   1.661   5.123   4.516
 2329SOL    HW1 7886   1.623   5.174   4.593
 2329SOL    HW2 7887   1.592   5.111   4.445
 2330SOL     OW 7888   6.978   4.135   2.701
 2330SOL    HW1 7889   6.902   4.159   2.761
 2330SOL    HW2 7890   7.004   4.215   2.647
 2331SOL     OW 7891   6.183   4.928   6.727
 2331SOL    HW1 7892   6.122   5.001   6.699
 2331SOL    HW2 7893   6.246   4.962   6.796
 2332SOL     OW 7894   3.987   1.885   5.276
 2332SOL    HW1 7895   4.064   1.825   5.293
 2332SOL    HW2 7896   3.982   1.906   5.179
 2333SOL     OW 7897   6.429   5.083   2.989
 2333SOL    HW1 7898   6.525   5.107   3.004
 2333SOL    HW2 7899   6.420   4.983   2.986
 2334SOL     OW 7900   2.963   0.369   0.321
 2334SOL    HW1 7901   2.939   0.365   0.418
 2334SOL    HW2 7902   2.896   0.317   0.267
 2335SOL     OW 7903   6.277   0.828   3.099
 2335SOL    HW1 7904   6.313   0.903   3.154
 2335SOL    HW2 7905   6.337   0.811   3.022
 2336SOL     OW 7906   4.305   1.916   5.516
 2336SOL    HW1 7907   4.285   1.846   5.448
 2336SOL    HW2 7908   4.385   1.889   5.570
 2337SOL     OW 7909   4.758   1.040   3.773
 2337SOL    HW1 7910   4.685   1.087   3.725
 2337SOL    HW2 7911   4.789   0.962   3.719
 2338SOL     OW 7912   0.735   0.219   6.952
 2338SOL    HW1 7913   0.819   0.192   6.999
 2338SOL    HW2 7914   0.727   0.319   6.953
 2339SOL     OW 7915   3.607   3.817   5.116
 2339SOL    HW1 7916   3.648   3.793   5.028
 2339SOL    HW2 7917   3.509   3.829   5.105
 2340SOL     OW 7918   4.779   6.727   5.602
 2340SOL    HW1 7919   4.834   6.659   5.553
 2340SOL    HW2 7920   4.689   6.688   5.624
 2341SOL     OW 7921   4.991   3.554   0.973
 2341SOL    HW1 7922   4.952   3.548   0.882
 2341SOL    HW2 7923   5.008   3.650   0.996
 2342SOL     OW 7924   0.830   6.254   5.880
 2342SOL    HW1 7925   0.915   6.255   5.934
 2342SOL    HW2 7926   0.843   6.307   5.796
 2343SOL     OW 7927   1.755   6.520   1.404
 2343SOL    HW1 7928   1.672   6.576   1.400
 2343SOL    HW2 7929   1.813   6.551   1.479
 2344SOL     OW 7930   2.052   0.953   1.096
 2344SOL    HW1 7931   2.046   0.976   0.999
 2344SOL    HW2 7932   2.048   0.853   1.107
 2345SOL     OW 7933   2.149   6.211   5.458
 2345SOL    HW1 7934   2.222   6.192   5.523
 2345SOL    HW2 7935   2.065   6.234   5.508
 2346SOL     OW 7936   5.020   3.162   4.876
 2346SOL    HW1 7937   4.970   3.222   4.938
 2346SOL    HW2 7938   4.959   3.090   4.843
 2347SOL     OW 7939   1.929   4.120   1.995
 2347SOL    HW1 7940   1.864   4.175   1.943
 2347SOL    HW2 7941   2.008   4.099   1.938
 2348SOL     OW 7942   2.870   5.987   3.778
 2348SOL    HW1 7943   2.943   6.034   3.827
 2348SOL    HW2 7944   2.910   5.934   3.703
 2349SOL     OW 7945   0.441   6.265   0.181
 2349SOL    HW1 7946   0.442   6.257   0.082
 2349SOL    HW2 7947   0.489   6.187   0.221
 2350SOL     OW 7948   4.671   6.988   5.997
 2350SOL    HW1 7949   4.578   6.957   5.982
 2350SOL    HW2 7950   4.670   0.064   6.021
 2351SOL     OW 7951   3.010   5.492   3.502
 2351SOL    HW1 7952   3.053   5.440   3.576
 2351SOL    HW2 7953   2.926   5.535   3.536
 2352SOL     OW 7954   0.561   4.696   2.825
 2352SOL    HW1 7955   0.659   4.714   2.811
 2352SOL    HW2 7956   0.543   4.599   2.812
 2353SOL     OW 7957   2.437   4.472   4.543
 2353SOL    HW1 7958   2.441   4.512   4.634
 2353SOL    HW2 7959   2.376   4.393   4.544
 2354SOL     OW 7960   3.851   2.704   6.282
 2354SOL    HW1 7961   3.858   2.668   6.189
 2354SOL    HW2 7962   3.795   2.643   6.337
 2355SOL     OW 7963   0.636   5.256   0.647
 2355SOL    HW1 7964   0.709   5.322   0.628
 2355SOL    HW2 7965   0.559   5.303   0.690
 2356SOL     OW 7966   2.126   4.149   1.155
 2356SOL    HW1 7967   2.102   4.161   1.251
 2356SOL    HW2 7968   2.096   4.229   1.103
 2357SOL     OW 7969   3.689   4.926   4.178
 2357SOL    HW1 7970   3.749   5.005   4.167
 2357SOL    HW2 7971   3.745   4.843   4.186
 2358SOL     OW 7972   3.218   6.124   4.359
 2358SOL    HW1 7973   3.245   6.159   4.449
 2358SOL    HW2 7974   3.122   6.096   4.361
 2359SOL     OW 7975   1.970   1.049   6.313
 2359SOL    HW1 7976   2.059   1.007   6.334
 2359SOL    HW2 7977   1.897   0.992   6.351
 2360SOL     OW 7978   4.857   5.755   5.762
 2360SOL    HW1 7979   4.780   5.818   5.748
 2360SOL    HW2 7980   4.931   5.802   5.810
 2361SOL     OW 7981   2.583   0.209   3.943
 2361SOL    HW1 7982   2.537   0.151   4.010
 2361SOL    HW2 7983   2.665   0.162   3.909
 2362SOL     OW 7984   4.782   6.904   5.005
 2362SOL    HW1 7985   4.775   6.979   4.939
 2362SOL    HW2 7986   4.690   6.878   5.035
 2363SOL     OW 7987   4.455   2.614   5.140
 2363SOL    HW1 7988   4.473   2.706   5.175
 2363SOL    HW2 7989   4.369   2.580   5.178
 2364SOL     OW 7990   5.963   1.773   2.104
 2364SOL    HW1 7991   6.008   1.860   2.082
 2364SOL    HW2 7992   6.033   1.703   2.121
 2365SOL     OW 7993   5.454   3.476   5.861
 2365SOL    HW1 7994   5.426   3.571   5.873
 2365SOL    HW2 7995   5.531   3.472   5.797
 2366SOL     OW 7996   1.098   4.051   5.393
 2366SOL    HW1 7997   1.026   4.080   5.330
 2366SOL    HW2 7998   1.071   3.966   5.438
 2367SOL     OW 7999   1.723   3.579   6.500
 2367SOL    HW1 8000   1.689   3.561   6.407
 2367SOL    HW2 8001   1.821   3.559   6.503
 2368SOL     OW 8002   4.787   0.992   5.082
 2368SOL    HW1 8003   4.754   1.016   4.991
 2368SOL    HW2 8004   4.756   1.061   5.148
 2369SOL     OW 8005   2.616   2.358   3.974
 2369SOL    HW1 8006   2.619   2.395   4.067
 2369SOL    HW2 8007   2.614   2.258   3.978
 2370SOL     OW 8008   4.394   3.859   6.869
 2370SOL    HW1 8009   4.388   3.761   6.853
 2370SOL    HW2 8010   4.489   3.888   6.863
 2371SOL     OW 8011   1.842   5.757   1.884
 2371SOL    HW1 8012   1.839   5.695   1.962
 2371SOL    HW2 8013   1.866   5.849   1.916
 2372SOL     OW 8014   0.632   1.614   6.964
 2372SOL    HW1 8015   0.708   1.550   6.974
 2372SOL    HW2 8016   0.547   1.564   6.952
 2373SOL     OW 8017   6.182   0.995   6.795
 2373SOL    HW1 8018   6.181   0.979   6.696
 2373SOL    HW2 8019   6.242   1.072   6.815
 2374SOL     OW 8020   6.043   5.571   3.678
 2374SOL    HW1 8021   5.956   5.613   3.708
 2374SOL    HW2 8022   6.104   5.643   3.645
 2375SOL     OW 8023   0.896   0.103   4.846
 2375SOL    HW1 8024   0.875   0.008   4.823
 2375SOL    HW2 8025   0.994   0.112   4.864
 2376SOL     OW 8026   5.722   2.741   3.274
 2376SOL    HW1 8027   5.650   2.678   3.246
 2376SOL    HW2 8028   5.778   2.698   3.345
 2377SOL     OW 8029   3.516   3.531   4.408
 2377SOL    HW1 8030   3.446   3.489   4.465
 2377SOL    HW2 8031   3.569   3.460   4.362
 2378SOL     OW 8032   5.426   1.987   0.427
 2378SOL    HW1 8033   5.461   1.908   0.376
 2378SOL    HW2 8034   5.396   2.057   0.362
 2379SOL     OW 8035   6.676   2.769   6.940
 2379SOL    HW1 8036   6.717   2.851   6.980
 2379SOL    HW2 8037   6.656   2.703   7.012
 2380SOL     OW 8038   6.841   0.661   5.401
 2380SOL    HW1 8039   6.935   0.669   5.433
 2380SOL    HW2 8040   6.801   0.576   5.436
 2381SOL     OW 8041   1.617   4.453   4.740
 2381SOL    HW1 8042   1.555   4.501   4.801
 2381SOL    HW2 8043   1.667   4.384   4.791
 2382SOL     OW 8044   2.082   5.469   2.560
 2382SOL    HW1 8045   2.102   5.535   2.488
 2382SOL    HW2 8046   1.989   5.433   2.547
 2383SOL     OW 8047   5.656   6.479   6.595
 2383SOL    HW1 8048   5.662   6.562   6.651
 2383SOL    HW2 8049   5.569   6.434   6.613
 2384SOL     OW 8050   1.004   1.555   1.590
 2384SOL    HW1 8051   0.943   1.531   1.666
 2384SOL    HW2 8052   1.099   1.533   1.615
 2385SOL     OW 8053   0.063   0.406   0.954
 2385SOL    HW1 8054   0.026   0.404   1.047
 2385SOL    HW2 8055   0.163   0.403   0.957
 2386SOL     OW 8056   3.102   5.309   4.513
 2386SOL    HW1 8057   3.039   5.368   4.564
 2386SOL    HW2 8058   3.187   5.359   4.495
 2387SOL     OW 8059   6.659   2.997   4.477
 2387SOL    HW1 8060   6.577   2.992   4.533
 2387SOL    HW2 8061   6.740   2.992   4.535
 2388SOL     OW 8062   1.265   1.573   5.452
 2388SOL    HW1 8063   1.218   1.556   5.539
 2388SOL    HW2 8064   1.248   1.667   5.423
 2389SOL     OW 8065   4.329   4.670   4.208
 2389SOL    HW1 8066   4.256   4.649   4.272
 2389SOL    HW2 8067   4.380   4.586   4.187
 2390SOL     OW 8068   3.659   3.671   4.875
 2390SOL    HW1 8069   3.617   3.686   4.786
 2390SOL    HW2 8070   3.751   3.632   4.863
 2391SOL     OW 8071   3.481   4.305   6.077
 2391SOL    HW1 8072   3.492   4.340   6.170
 2391SOL    HW2 8073   3.460   4.381   6.016
 2392SOL     OW 8074   3.193   4.709   6.495
 2392SOL    HW1 8075   3.219   4.801   6.526
 2392SOL    HW2 8076   3.100   4.711   6.460
 2393SOL     OW 8077   3.919   5.198   1.258
 2393SOL    HW1 8078   3.834   5.236   1.296
 2393SOL    HW2 8079   3.909   5.187   1.159
 2394SOL     OW 8080   1.203   3.775   4.571
 2394SOL    HW1 8081   1.133   3.711   4.540
 2394SOL    HW2 8082   1.227   3.837   4.497
 2395SOL     OW 8083   0.009   2.671   6.547
 2395SOL    HW1 8084   6.968   2.670   6.625
 2395SOL    HW2 8085   0.100   2.696   6.577
 2396SOL     OW 8086   6.041   6.084   0.572
 2396SOL    HW1 8087   5.950   6.094   0.610
 2396SOL    HW2 8088   6.101   6.040   0.640
 2397SOL     OW 8089   6.679   4.912   0.105
 2397SOL    HW1 8090   6.679   4.958   0.194
 2397SOL    HW2 8091   6.652   4.817   0.117
 2398SOL     OW 8092   2.655   4.740   4.641
 2398SOL    HW1 8093   2.694   4.798   4.712
 2398SOL    HW2 8094   2.605   4.664   4.683
 2399SOL     OW 8095   4.388   1.559   3.218
 2399SOL    HW1 8096   4.300   1.605   3.206
 2399SOL    HW2 8097   4.438   1.601   3.293
 2400SOL     OW 8098   2.803   3.567   0.940
 2400SOL    HW1 8099   2.821   3.482   0.890
 2400SOL    HW2 8100   2.704   3.586   0.937
 2401SOL     OW 8101   3.389   0.319   4.702
 2401SOL    HW1 8102   3.478   0.322   4.748
 2401SOL    HW2 8103   3.318   0.350   4.764
 2402SOL     OW 8104   0.154   1.764   3.743
 2402SOL    HW1 8105   0.151   1.730   3.650
 2402SOL    HW2 8106   0.144   1.864   3.742
 2403SOL     OW 8107   3.347   3.121   0.583
 2403SOL    HW1 8108   3.267   3.152   0.635
 2403SOL    HW2 8109   3.430   3.141   0.635
 2404SOL     OW 8110   5.584   1.801   1.827
 2404SOL    HW1 8111   5.504   1.788   1.886
 2404SOL    HW2 8112   5.662   1.752   1.865
 2405SOL     OW 8113   3.726   4.059   5.194
 2405SOL    HW1 8114   3.679   3.977   5.163
 2405SOL    HW2 8115   3.667   4.108   5.259
 2406SOL     OW 8116   1.945   0.976   2.794
 2406SOL    HW1 8117   1.873   0.913   2.767
 2406SOL    HW2 8118   2.033   0.928   2.797
 2407SOL     OW 8119   4.525   2.370   2.877
 2407SOL    HW1 8120   4.583   2.353   2.957
 2407SOL    HW2 8121   4.555   2.453   2.831
 2408SOL     OW 8122   3.718   4.848   3.250
 2408SOL    HW1 8123   3.667   4.814   3.329
 2408SOL    HW2 8124   3.815   4.854   3.273
 2409SOL     OW 8125   1.932   2.464   1.590
 2409SOL    HW1 8126   1.995   2.471   1.668
 2409SOL    HW2 8127   1.909   2.368   1.574
 2410SOL     OW 8128   6.726   3.390   5.328
 2410SOL    HW1 8129   6.809   3.445   5.337
 2410SOL    HW2 8130   6.646   3.449   5.323
 2411SOL     OW 8131   3.438   4.171   5.563
 2411SOL    HW1 8132   3.376   4.136   5.493
 2411SOL    HW2 8133   3.393   4.168   5.652
 2412SOL     OW 8134   2.807   3.366   0.348
 2412SOL    HW1 8135   2.750   3.284   0.341
 2412SOL    HW2 8136   2.808   3.414   0.261
 2413SOL     OW 8137   5.968   3.568   6.620
 2413SOL    HW1 8138   6.035   3.507   6.663
 2413SOL    HW2 8139   5.940   3.529   6.532
 2414SOL     OW 8140   5.871   3.663   2.780
 2414SOL    HW1 8141   5.914   3.628   2.864
 2414SOL    HW2 8142   5.785   3.708   2.803
 2415SOL     OW 8143   2.116   0.539   1.684
 2415SOL    HW1 8144   2.200   0.563   1.733
 2415SOL    HW2 8145   2.114   0.588   1.596
 2416SOL     OW 8146   1.512   1.390   4.564
 2416SOL    HW1 8147   1.501   1.458   4.491
 2416SOL    HW2 8148   1.469   1.423   4.648
 2417SOL     OW 8149   5.574   2.108   0.611
 2417SOL    HW1 8150   5.521   2.179   0.656
 2417SOL    HW2 8151   5.515   2.059   0.546
 2418SOL     OW 8152   3.333   3.891   5.081
 2418SOL    HW1 8153   3.289   3.980   5.068
 2418SOL    HW2 8154   3.272   3.831   5.134
 2419SOL     OW 8155   0.819   6.951   5.197
 2419SOL    HW1 8156   0.747   7.015   5.170
 2419SOL    HW2 8157   0.817   6.871   5.137
 2420SOL     OW 8158   3.831   6.890   2.322
 2420SOL    HW1 8159   3.879   6.881   2.409
 2420SOL    HW2 8160   3.786   6.979   2.318
 2421SOL     OW 8161   2.993   0.277   4.760
 2421SOL    HW1 8162   2.963   0.249   4.668
 2421SOL    HW2 8163   2.916   0.318   4.808
 2422SOL     OW 8164   4.919   0.756   0.763
 2422SOL    HW1 8165   5.018   0.748   0.770
 2422SOL    HW2 8166   4.880   0.769   0.854
 2423SOL     OW 8167   2.291   5.906   2.231
 2423SOL    HW1 8168   2.306   5.893   2.329
 2423SOL    HW2 8169   2.249   5.995   2.216
 2424SOL     OW 8170   5.477   6.313   6.727
 2424SOL    HW1 8171   5.501   6.216   6.731
 2424SOL    HW2 8172   5.379   6.325   6.745
 2425SOL     OW 8173   6.635   6.563   4.983
 2425SOL    HW1 8174   6.732   6.573   5.008
 2425SOL    HW2 8175   6.592   6.653   4.980
 2426SOL     OW 8176   1.195   5.997   4.883
 2426SOL    HW1 8177   1.200   6.095   4.900
 2426SOL    HW2 8178   1.144   5.952   4.956
 2427SOL     OW 8179   5.216   5.418   6.674
 2427SOL    HW1 8180   5.183   5.481   6.604
 2427SOL    HW2 8181   5.310   5.389   6.652
 2428SOL     OW 8182   0.465   0.406   3.485
 2428SOL    HW1 8183   0.409   0.461   3.547
 2428SOL    HW2 8184   0.414   0.387   3.402
 2429SOL     OW 8185   5.783   5.342   2.980
 2429SOL    HW1 8186   5.770   5.245   3.000
 2429SOL    HW2 8187   5.867   5.374   3.023
 2430SOL     OW 8188   5.332   2.848   0.826
 2430SOL    HW1 8189   5.240   2.888   0.828
 2430SOL    HW2 8190   5.389   2.892   0.896
 2431SOL     OW 8191   4.305   0.966   1.450
 2431SOL    HW1 8192   4.379   0.969   1.383
 2431SOL    HW2 8193   4.324   0.895   1.518
 2432SOL     OW 8194   3.859   6.558   2.700
 2432SOL    HW1 8195   3.834   6.652   2.722
 2432SOL    HW2 8196   3.785   6.497   2.726
 2433SOL     OW 8197   2.479   6.823   0.203
 2433SOL    HW1 8198   2.514   6.808   0.295
 2433SOL    HW2 8199   2.501   6.743   0.146
 2434SOL     OW 8200   5.339   1.471   3.548
 2434SOL    HW1 8201   5.331   1.571   3.540
 2434SOL    HW2 8202   5.248   1.431   3.548
 2435SOL     OW 8203   5.101   4.736   0.477
 2435SOL    HW1 8204   5.118   4.714   0.381
 2435SOL    HW2 8205   5.003   4.730   0.495
 2436SOL     OW 8206   1.514   6.654   1.462
 2436SOL    HW1 8207   1.509   6.642   1.561
 2436SOL    HW2 8208   1.540   6.748   1.442
 2437SOL     OW 8209   5.344   5.648   1.429
 2437SOL    HW1 8210   5.327   5.747   1.430
 2437SOL    HW2 8211   5.402   5.625   1.351
 2438SOL     OW 8212   3.932   0.782   4.706
 2438SOL    HW1 8213   4.024   0.788   4.744
 2438SOL    HW2 8214   3.869   0.749   4.776
 2439SOL     OW 8215   0.776   4.001   0.436
 2439SOL    HW1 8216   0.757   3.968   0.343
 2439SOL    HW2 8217   0.703   3.972   0.497
 2440SOL     OW 8218   3.798   6.745   5.343
 2440SOL    HW1 8219   3.725   6.679   5.327
 2440SOL    HW2 8220   3.879   6.699   5.378
 2441SOL     OW 8221   5.428   0.499   0.376
 2441SOL    HW1 8222   5.508   0.439   0.366
 2441SOL    HW2 8223   5.407   0.510   0.474
 2442SOL     OW 8224   5.632   5.518   2.826
 2442SOL    HW1 8225   5.693   5.465   2.884
 2442SOL    HW2 8226   5.670   5.609   2.812
 2443SOL     OW 8227   2.854   0.581   6.262
 2443SOL    HW1 8228   2.891   0.537   6.180
 2443SOL    HW2 8229   2.766   0.624   6.239
 2444SOL     OW 8230   3.533   3.952   6.969
 2444SOL    HW1 8231   3.525   4.025   0.015
 2444SOL    HW2 8232   3.597   3.980   6.897
 2445SOL     OW 8233   6.737   1.507   2.099
 2445SOL    HW1 8234   6.763   1.423   2.147
 2445SOL    HW2 8235   6.649   1.539   2.134
 2446SOL     OW 8236   0.847   2.741   4.723
 2446SOL    HW1 8237   0.749   2.743   4.739
 2446SOL    HW2 8238   0.866   2.774   4.631
 2447SOL     OW 8239   2.338   1.572   1.105
 2447SOL    HW1 8240   2.391   1.503   1.057
 2447SOL    HW2 8241   2.398   1.643   1.141
 2448SOL     OW 8242   6.629   1.238   4.266
 2448SOL    HW1 8243   6.534   1.210   4.258
 2448SOL    HW2 8244   6.689   1.158   4.261
 2449SOL     OW 8245   0.160   3.648   2.581
 2449SOL    HW1 8246   0.137   3.651   2.678
 2449SOL    HW2 8247   0.250   3.689   2.567
 2450SOL     OW 8248   3.137   5.259   6.039
 2450SOL    HW1 8249   3.110   5.167   6.011
 2450SOL    HW2 8250   3.147   5.262   6.139
 2451SOL     OW 8251   1.381   0.045   3.749
 2451SOL    HW1 8252   1.310   0.110   3.777
 2451SOL    HW2 8253   1.389   6.994   3.817
 2452SOL     OW 8254   3.473   1.675   4.011
 2452SOL    HW1 8255   3.447   1.593   4.062
 2452SOL    HW2 8256   3.424   1.677   3.923
 2453SOL     OW 8257   6.905   3.286   0.643
 2453SOL    HW1 8258   6.939   3.342   0.567
 2453SOL    HW2 8259   6.978   3.227   0.677
 2454SOL     OW 8260   3.441   0.779   6.244
 2454SOL    HW1 8261   3.349   0.813   6.265
 2454SOL    HW2 8262   3.482   0.740   6.327
 2455SOL     OW 8263   4.130   0.558   0.770
 2455SOL    HW1 8264   4.170   0.520   0.687
 2455SOL    HW2 8265   4.182   0.527   0.850
 2456SOL     OW 8266   6.275   2.587   0.045
 2456SOL    HW1 8267   6.270   2.683   0.020
 2456SOL    HW2 8268   6.240   2.575   0.138
 2457SOL     OW 8269   6.007   0.285   6.851
 2457SOL    HW1 8270   6.064   0.245   6.923
 2457SOL    HW2 8271   5.971   0.373   6.883
 2458SOL     OW 8272   1.705   6.127   4.228
 2458SOL    HW1 8273   1.785   6.125   4.289
 2458SOL    HW2 8274   1.622   6.139   4.282
 2459SOL     OW 8275   2.666   5.928   6.167
 2459SOL    HW1 8276   2.754   5.901   6.128
 2459SOL    HW2 8277   2.673   6.020   6.205
 2460SOL     OW 8278   1.675   1.483   1.332
 2460SOL    HW1 8279   1.701   1.492   1.428
 2460SOL    HW2 8280   1.752   1.446   1.280
 2461SOL     OW 8281   4.680   0.878   3.231
 2461SOL    HW1 8282   4.682   0.805   3.163
 2461SOL    HW2 8283   4.711   0.964   3.189
 2462SOL     OW 8284   1.783   5.315   6.635
 2462SOL    HW1 8285   1.696   5.363   6.646
 2462SOL    HW2 8286   1.774   5.222   6.672
 2463SOL     OW 8287   6.254   1.713   6.071
 2463SOL    HW1 8288   6.330   1.658   6.108
 2463SOL    HW2 8289   6.189   1.733   6.145
 2464SOL     OW 8290   2.152   4.157   2.594
 2464SOL    HW1 8291   2.203   4.189   2.674
 2464SOL    HW2 8292   2.182   4.065   2.570
 2465SOL     OW 8293   0.694   0.241   0.443
 2465SOL    HW1 8294   0.618   0.237   0.378
 2465SOL    HW2 8295   0.749   0.322   0.425
 2466SOL     OW 8296   2.536   1.734   2.987
 2466SOL    HW1 8297   2.553   1.730   2.889
 2466SOL    HW2 8298   2.620   1.763   3.034
 2467SOL     OW 8299   4.939   1.376   5.128
 2467SOL    HW1 8300   4.893   1.464   5.132
 2467SOL    HW2 8301   4.924   1.326   5.214
 2468SOL     OW 8302   4.401   6.651   1.768
 2468SOL    HW1 8303   4.381   6.684   1.860
 2468SOL    HW2 8304   4.339   6.576   1.746
 2469SOL     OW 8305   4.338   3.867   5.685
 2469SOL    HW1 8306   4.251   3.825   5.659
 2469SOL    HW2 8307   4.321   3.958   5.723
 2470SOL     OW 8308   4.347   4.589   6.273
 2470SOL    HW1 8309   4.248   4.586   6.285
 2470SOL    HW2 8310   4.371   4.560   6.181
 2471SOL     OW 8311   2.731   5.991   0.440
 2471SOL    HW1 8312   2.795   6.056   0.399
 2471SOL    HW2 8313   2.670   5.956   0.369
 2472SOL     OW 8314   4.824   2.664   4.038
 2472SOL    HW1 8315   4.828   2.602   3.960
 2472SOL    HW2 8316   4.870   2.622   4.116
 2473SOL     OW 8317   1.663   3.751   4.971
 2473SOL    HW1 8318   1.689   3.779   5.064
 2473SOL    HW2 8319   1.578   3.796   4.945
 2474SOL     OW 8320   0.470   5.334   1.099
 2474SOL    HW1 8321   0.445   5.249   1.145
 2474SOL    HW2 8322   0.523   5.392   1.162
 2475SOL     OW 8323   4.491   0.928   2.737
 2475SOL    HW1 8324   4.424   0.999   2.716
 2475SOL    HW2 8325   4.514   0.931   2.834
 2476SOL     OW 8326   7.017   1.540   3.138
 2476SOL    HW1 8327   7.021   1.620   3.077
 2476SOL    HW2 8328   0.082   1.491   3.133
 2477SOL     OW 8329   4.551   1.314   2.277
 2477SOL    HW1 8330   4.515   1.364   2.356
 2477SOL    HW2 8331   4.532   1.366   2.194
 2478SOL     OW 8332   6.302   1.005   1.831
 2478SOL    HW1 8333   6.394   1.043   1.841
 2478SOL    HW2 8334   6.288   0.974   1.737
 2479SOL     OW 8335   1.516   3.750   1.149
 2479SOL    HW1 8336   1.578   3.673   1.137
 2479SOL    HW2 8337   1.421   3.719   1.140
 2480SOL     OW 8338   4.851   4.122   0.919
 2480SOL    HW1 8339   4.835   4.178   0.837
 2480SOL    HW2 8340   4.764   4.103   0.964
 2481SOL     OW 8341   2.374   0.420   0.512
 2481SOL    HW1 8342   2.292   0.430   0.569
 2481SOL    HW2 8343   2.402   0.509   0.478
 2482SOL     OW 8344   4.880   3.369   6.153
 2482SOL    HW1 8345   4.885   3.320   6.240
 2482SOL    HW2 8346   4.817   3.322   6.091
 2483SOL     OW 8347   2.395   1.342   0.108
 2483SOL    HW1 8348   2.343   1.320   0.191
 2483SOL    HW2 8349   2.344   1.409   0.054
 2484SOL     OW 8350   3.408   0.833   0.167
 2484SOL    HW1 8351   3.467   0.816   0.246
 2484SOL    HW2 8352   3.430   0.769   0.094
 2485SOL     OW 8353   6.246   3.892   1.431
 2485SOL    HW1 8354   6.315   3.824   1.403
 2485SOL    HW2 8355   6.249   3.903   1.530
 2486SOL     OW 8356   1.862   4.786   4.397
 2486SOL    HW1 8357   1.800   4.766   4.473
 2486SOL    HW2 8358   1.945   4.828   4.432
 2487SOL     OW 8359   4.061   5.760   0.310
 2487SOL    HW1 8360   3.967   5.747   0.278
 2487SOL    HW2 8361   4.123   5.703   0.255
 2488SOL     OW 8362   2.178   4.513   2.662
 2488SOL    HW1 8363   2.174   4.491   2.565
 2488SOL    HW2 8364   2.266   4.483   2.700
 2489SOL     OW 8365   1.256   5.528   2.441
 2489SOL    HW1 8366   1.261   5.502   2.345
 2489SOL    HW2 8367   1.340   5.575   2.468
 2490SOL     OW 8368   6.488   4.921   1.644
 2490SOL    HW1 8369   6.430   4.910   1.724
 2490SOL    HW2 8370   6.522   4.832   1.614
 2491SOL     OW 8371   2.666   5.431   1.119
 2491SOL    HW1 8372   2.665   5.494   1.041
 2491SOL    HW2 8373   2.741   5.454   1.180
 2492SOL     OW 8374   4.408   2.273   1.404
 2492SOL    HW1 8375   4.491   2.219   1.386
 2492SOL    HW2 8376   4.330   2.211   1.411
 2493SOL     OW 8377   5.714   1.101   1.720
 2493SOL    HW1 8378   5.615   1.092   1.709
 2493SOL    HW2 8379   5.757   1.012   1.714
 2494SOL     OW 8380   5.888   3.528   2.042
 2494SOL    HW1 8381   5.870   3.548   2.138
 2494SOL    HW2 8382   5.876   3.430   2.026
 2495SOL     OW 8383   5.556   0.255   4.272
 2495SOL    HW1 8384   5.469   0.287   4.236
 2495SOL    HW2 8385   5.564   0.280   4.369
 2496SOL     OW 8386   6.847   3.429   5.710
 2496SOL    HW1 8387   6.863   3.426   5.809
 2496SOL    HW2 8388   6.838   3.525   5.681
 2497SOL     OW 8389   0.531   0.466   0.624
 2497SOL    HW1 8390   0.547   0.484   0.526
 2497SOL    HW2 8391   0.560   0.373   0.646
 2498SOL     OW 8392   2.965   0.972   4.475
 2498SOL    HW1 8393   2.928   0.994   4.565
 2498SOL    HW2 8394   2.984   1.057   4.426
 2499SOL     OW 8395   5.628   2.046   3.125
 2499SOL    HW1 8396   5.714   2.052   3.075
 2499SOL    HW2 8397   5.645   2.058   3.223
 2500SOL     OW 8398   4.827   2.792   0.227
 2500SOL    HW1 8399   4.887   2.755   0.298
 2500SOL    HW2 8400   4.793   2.717   0.170
 2501SOL     OW 8401   5.726   5.411   6.750
 2501SOL    HW1 8402   5.716   5.387   6.846
 2501SOL    HW2 8403   5.646   5.379   6.698
 2502SOL     OW 8404   1.677   5.455   3.507
 2502SOL    HW1 8405   1.771   5.469   3.476
 2502SOL    HW2 8406   1.616   5.516   3.458
 2503SOL     OW 8407   3.287   5.602   4.353
 2503SOL    HW1 8408   3.211   5.666   4.343
 2503SOL    HW2 8409   3.300   5.580   4.449
 2504SOL     OW 8410   3.753   5.431   4.789
 2504SOL    HW1 8411   3.819   5.451   4.716
 2504SOL    HW2 8412   3.762   5.500   4.861
 2505SOL     OW 8413   1.464   6.094   3.553
 2505SOL    HW1 8414   1.440   5.997   3.560
 2505SOL    HW2 8415   1.415   6.146   3.623
 2506SOL     OW 8416   6.787   3.718   5.317
 2506SOL    HW1 8417   6.691   3.696   5.303
 2506SOL    HW2 8418   6.806   3.727   5.415
 2507SOL     OW 8419   0.783   4.392   1.124
 2507SOL    HW1 8420   0.865   4.433   1.084
 2507SOL    HW2 8421   0.804   4.359   1.216
 2508SOL     OW 8422   2.140   1.659   2.513
 2508SOL    HW1 8423   2.176   1.580   2.464
 2508SOL    HW2 8424   2.140   1.739   2.454
 2509SOL     OW 8425   0.004   2.612   1.920
 2509SOL    HW1 8426   6.927   2.610   1.903
 2509SOL    HW2 8427   0.053   2.580   1.839
 2510SOL     OW 8428   3.311   4.567   1.471
 2510SOL    HW1 8429   3.217   4.541   1.448
 2510SOL    HW2 8430   3.319   4.584   1.569
 2511SOL     OW 8431   2.908   1.461   3.601
 2511SOL    HW1 8432   2.995   1.493   3.564
 2511SOL    HW2 8433   2.907   1.474   3.700
 2512SOL     OW 8434   4.975   4.713   4.933
 2512SOL    HW1 8435   4.947   4.637   4.991
 2512SOL    HW2 8436   5.061   4.690   4.886
 2513SOL     OW 8437   1.077   3.954   4.767
 2513SOL    HW1 8438   1.101   3.887   4.697
 2513SOL    HW2 8439   1.103   3.920   4.857
 2514SOL     OW 8440   6.501   3.456   4.306
 2514SOL    HW1 8441   6.486   3.404   4.390
 2514SOL    HW2 8442   6.468   3.550   4.319
 2515SOL     OW 8443   1.363   6.316   0.546
 2515SOL    HW1 8444   1.274   6.288   0.507
 2515SOL    HW2 8445   1.387   6.253   0.620
 2516SOL     OW 8446   6.531   0.866   2.890
 2516SOL    HW1 8447   6.531   0.871   2.790
 2516SOL    HW2 8448   6.505   0.956   2.927
 2517SOL     OW 8449   0.781   5.625   6.030
 2517SOL    HW1 8450   0.685   5.598   6.029
 2517SOL    HW2 8451   0.805   5.666   5.941
 2518SOL     OW 8452   1.359   4.339   0.030
 2518SOL    HW1 8453   1.306   4.403   0.086
 2518SOL    HW2 8454   1.445   4.320   0.076
 2519SOL     OW 8455   5.049   6.878   3.690
 2519SOL    HW1 8456   4.956   6.906   3.713
 2519SOL    HW2 8457   5.113   6.917   3.755
 2520SOL     OW 8458   2.354   1.963   6.704
 2520SOL    HW1 8459   2.438   1.937   6.751
 2520SOL    HW2 8460   2.305   1.881   6.676
 2521SOL     OW 8461   1.194   0.171   4.913
 2521SOL    HW1 8462   1.213   0.086   4.864
 2521SOL    HW2 8463   1.224   0.162   5.009
 2522SOL     OW 8464   0.644   3.164   5.541
 2522SOL    HW1 8465   0.643   3.263   5.556
 2522SOL    HW2 8466   0.551   3.128   5.552
 2523SOL     OW 8467   0.643   2.751   1.760
 2523SOL    HW1 8468   0.649   2.676   1.826
 2523SOL    HW2 8469   0.547   2.770   1.739
 2524SOL     OW 8470   0.959   5.979   5.484
 2524SOL    HW1 8471   0.974   5.993   5.582
 2524SOL    HW2 8472   0.866   5.945   5.470
 2525SOL     OW 8473   1.087   2.291   4.738
 2525SOL    HW1 8474   1.015   2.223   4.726
 2525SOL    HW2 8475   1.060   2.376   4.693
 2526SOL     OW 8476   1.495   4.156   5.508
 2526SOL    HW1 8477   1.493   4.120   5.601
 2526SOL    HW2 8478   1.475   4.254   5.510
 2527SOL     OW 8479   5.398   5.680   4.776
 2527SOL    HW1 8480   5.436   5.734   4.701
 2527SOL    HW2 8481   5.464   5.676   4.851
 2528SOL     OW 8482   5.452   4.672   1.134
 2528SOL    HW1 8483   5.550   4.653   1.128
 2528SOL    HW2 8484   5.425   4.677   1.231
 2529SOL     OW 8485   6.436   6.865   6.303
 2529SOL    HW1 8486   6.389   6.952   6.319
 2529SOL    HW2 8487   6.515   6.880   6.244
 2530SOL     OW 8488   2.227   0.225   4.858
 2530SOL    HW1 8489   2.198   0.233   4.763
 2530SOL    HW2 8490   2.193   0.139   4.897
 2531SOL     OW 8491   5.126   5.731   4.154
 2531SOL    HW1 8492   5.078   5.644   4.149
 2531SOL    HW2 8493   5.126   5.764   4.249
 2532SOL     OW 8494   0.984   6.718   0.530
 2532SOL    HW1 8495   0.949   6.643   0.587
 2532SOL    HW2 8496   0.918   6.738   0.458
 2533SOL     OW 8497   3.065   0.323   3.019
 2533SOL    HW1 8498   3.018   0.343   2.933
 2533SOL    HW2 8499   3.099   0.229   3.017
 2534SOL     OW 8500   3.351   1.344   3.102
 2534SOL    HW1 8501   3.367   1.316   3.197
 2534SOL    HW2 8502   3.254   1.368   3.090
 2535SOL     OW 8503   3.138   2.556   5.997
 2535SOL    HW1 8504   3.179   2.534   6.085
 2535SOL    HW2 8505   3.042   2.579   6.010
 2536SOL     OW 8506   0.146   2.019   4.560
 2536SOL    HW1 8507   0.087   2.099   4.546
 2536SOL    HW2 8508   0.237   2.038   4.523
 2537SOL     OW 8509   4.148   0.175   6.252
 2537SOL    HW1 8510   4.188   0.232   6.179
 2537SOL    HW2 8511   4.094   0.102   6.211
 2538SOL     OW 8512   1.102   5.180   5.010
 2538SOL    HW1 8513   1.071   5.211   4.921
 2538SOL    HW2 8514   1.162   5.100   5.000
 2539SOL     OW 8515   5.093   0.927   5.633
 2539SOL    HW1 8516   5.084   1.026   5.647
 2539SOL    HW2 8517   5.031   0.898   5.560
 2540SOL     OW 8518   4.093   1.125   2.522
 2540SOL    HW1 8519   4.008   1.173   2.543
 2540SOL    HW2 8520   4.146   1.178   2.456
 2541SOL     OW 8521   2.039   6.811   5.125
 2541SOL    HW1 8522   2.112   6.743   5.120
 2541SOL    HW2 8523   2.013   6.825   5.221
 2542SOL     OW 8524   4.844   0.733   5.875
 2542SOL    HW1 8525   4.933   0.762   5.910
 2542SOL    HW2 8526   4.857   0.671   5.798
 2543SOL     OW 8527   1.663   1.605   2.778
 2543SOL    HW1 8528   1.748   1.563   2.747
 2543SOL    HW2 8529   1.589   1.538   2.774
 2544SOL     OW 8530   0.281   5.639   1.233
 2544SOL    HW1 8531   0.250   5.544   1.236
 2544SOL    HW2 8532   0.278   5.678   1.325
 2545SOL     OW 8533   2.040   0.703   1.909
 2545SOL    HW1 8534   2.026   0.786   1.855
 2545SOL    HW2 8535   2.053   0.625   1.848
 2546SOL     OW 8536   0.641   1.826   1.646
 2546SOL    HW1 8537   0.738   1.804   1.657
 2546SOL    HW2 8538   0.607   1.867   1.731
 2547SOL     OW 8539   5.908   3.627   0.391
 2547SOL    HW1 8540   5.976   3.657   0.458
 2547SOL    HW2 8541   5.952   3.615   0.302
 2548SOL     OW 8542   2.650   6.672   5.710
 2548SOL    HW1 8543   2.700   6.599   5.758
 2548SOL    HW2 8544   2.660   6.758   5.759
 2549SOL     OW 8545   1.697   0.283   1.289
 2549SOL    HW1 8546   1.775   0.222   1.306
 2549SOL    HW2 8547   1.729   0.364   1.240
 2550SOL     OW 8548   6.690   0.796   6.075
 2550SOL    HW1 8549   6.696   0.840   6.164
 2550SOL    HW2 8550   6.598   0.759   6.063
 2551SOL     OW 8551   3.573   5.097   0.255
 2551SOL    HW1 8552   3.655   5.114   0.199
 2551SOL    HW2 8553   3.596   5.107   0.351
 2552SOL     OW 8554   1.979   5.505   6.580
 2552SOL    HW1 8555   1.975   5.585   6.640
 2552SOL    HW2 8556   1.934   5.428   6.625
 2553SOL     OW 8557   4.291   3.347   6.878
 2553SOL    HW1 8558   4.327   3.254   6.878
 2553SOL    HW2 8559   4.282   3.380   6.784
 2554SOL     OW 8560   1.758   6.248   6.959
 2554SOL    HW1 8561   1.774   6.345   6.941
 2554SOL    HW2 8562   1.769   6.229   0.035
 2555SOL     OW 8563   6.146   6.485   6.836
 2555SOL    HW1 8564   6.090   6.407   6.808
 2555SOL    HW2 8565   6.174   6.537   6.756
 2556SOL     OW 8566   4.630   5.449   0.207
 2556SOL    HW1 8567   4.630   5.488   0.114
 2556SOL    HW2 8568   4.666   5.517   0.271
 2557SOL     OW 8569   2.777   2.715   6.592
 2557SOL    HW1 8570   2.833   2.795   6.614
 2557SOL    HW2 8571   2.815   2.668   6.513
 2558SOL     OW 8572   4.505   3.052   5.577
 2558SOL    HW1 8573   4.412   3.021   5.595
 2558SOL    HW2 8574   4.541   3.100   5.657
 2559SOL     OW 8575   6.182   3.666   4.213
 2559SOL    HW1 8576   6.168   3.699   4.120
 2559SOL    HW2 8577   6.100   3.683   4.267
 2560SOL     OW 8578   5.722   3.291   4.025
 2560SOL    HW1 8579   5.698   3.223   3.955
 2560SOL    HW2 8580   5.673   3.271   4.110
 2561SOL     OW 8581   2.431   0.104   4.362
 2561SOL    HW1 8582   2.529   0.125   4.360
 2561SOL    HW2 8583   2.378   0.188   4.360
 2562SOL     OW 8584   1.526   6.034   2.375
 2562SOL    HW1 8585   1.598   5.965   2.358
 2562SOL    HW2 8586   1.539   6.111   2.313
 2563SOL     OW 8587   3.829   2.326   0.152
 2563SOL    HW1 8588   3.850   2.323   0.250
 2563SOL    HW2 8589   3.897   2.382   0.105
 2564SOL     OW 8590   1.655   6.463   6.339
 2564SOL    HW1 8591   1.584   6.458   6.408
 2564SOL    HW2 8592   1.718   6.538   6.361
 2565SOL     OW 8593   6.792   0.412   0.613
 2565SOL    HW1 8594   6.755   0.456   0.531
 2565SOL    HW2 8595   6.811   0.316   0.593
 2566SOL     OW 8596   1.478   6.925   1.405
 2566SOL    HW1 8597   1.463   0.002   1.414
 2566SOL    HW2 8598   1.390   6.878   1.403
 2567SOL     OW 8599   1.175   1.303   1.757
 2567SOL    HW1 8600   1.092   1.257   1.789
 2567SOL    HW2 8601   1.219   1.247   1.687
 2568SOL     OW 8602   3.365   6.742   0.158
 2568SOL    HW1 8603   3.280   6.787   0.186
 2568SOL    HW2 8604   3.362   6.723   0.060
 2569SOL     OW 8605   2.806   1.129   1.799
 2569SOL    HW1 8606   2.714   1.090   1.800
 2569SOL    HW2 8607   2.800   1.227   1.818
 2570SOL     OW 8608   5.578   0.632   6.907
 2570SOL    HW1 8609   5.627   0.698   6.963
 2570SOL    HW2 8610   5.643   0.573   6.859
 2571SOL     OW 8611   1.912   4.116   5.605
 2571SOL    HW1 8612   1.971   4.196   5.611
 2571SOL    HW2 8613   1.833   4.137   5.547
 2572SOL     OW 8614   2.338   5.469   0.464
 2572SOL    HW1 8615   2.310   5.429   0.377
 2572SOL    HW2 8616   2.288   5.554   0.480
 2573SOL     OW 8617   6.574   1.646   1.765
 2573SOL    HW1 8618   6.487   1.671   1.722
 2573SOL    HW2 8619   6.641   1.719   1.750
 2574SOL     OW 8620   6.028   3.568   0.156
 2574SOL    HW1 8621   6.083   3.637   0.109
 2574SOL    HW2 8622   5.991   3.503   0.090
 2575SOL     OW 8623   4.985   5.272   6.771
 2575SOL    HW1 8624   5.056   5.315   6.715
 2575SOL    HW2 8625   5.006   5.175   6.784
 2576SOL     OW 8626   3.800   0.044   4.420
 2576SOL    HW1 8627   3.844   6.982   4.452
 2576SOL    HW2 8628   3.739   0.079   4.491
 2577SOL     OW 8629   3.720   6.755   1.639
 2577SOL    HW1 8630   3.695   6.662   1.611
 2577SOL    HW2 8631   3.655   6.787   1.709
 2578SOL     OW 8632   5.039   1.997   3.685
 2578SOL    HW1 8633   5.127   2.013   3.730
 2578SOL    HW2 8634   4.983   1.938   3.742
 2579SOL     OW 8635   1.621   6.256   2.820
 2579SOL    HW1 8636   1.594   6.208   2.903
 2579SOL    HW2 8637   1.720   6.268   2.819
 2580SOL     OW 8638   2.742   3.285   6.815
 2580SOL    HW1 8639   2.701   3.200   6.850
 2580SOL    HW2 8640   2.764   3.274   6.718
 2581SOL     OW 8641   0.063   4.003   1.111
 2581SOL    HW1 8642   0.153   4.033   1.141
 2581SOL    HW2 8643   0.072   3.917   1.060
 2582SOL     OW 8644   1.004   4.447   2.402
 2582SOL    HW1 8645   0.918   4.439   2.352
 2582SOL    HW2 8646   1.000   4.390   2.484
 2583SOL     OW 8647   0.546   1.576   0.812
 2583SOL    HW1 8648   0.485   1.576   0.891
 2583SOL    HW2 8649   0.581   1.484   0.796
 2584SOL     OW 8650   4.266   5.565   0.230
 2584SOL    HW1 8651   4.186   5.511   0.204
 2584SOL    HW2 8652   4.328   5.508   0.284
 2585SOL     OW 8653   5.115   2.434   0.873
 2585SOL    HW1 8654   5.089   2.517   0.824
 2585SOL    HW2 8655   5.201   2.449   0.921
 2586SOL     OW 8656   3.578   1.471   3.486
 2586SOL    HW1 8657   3.663   1.449   3.533
 2586SOL    HW2 8658   3.565   1.570   3.483
 2587SOL     OW 8659   0.629   0.956   3.388
 2587SOL    HW1 8660   0.624   0.861   3.357
 2587SOL    HW2 8661   0.585   0.965   3.478
 2588SOL     OW 8662   4.241   0.701   6.000
 2588SOL    HW1 8663   4.269   0.682   6.094
 2588SOL    HW2 8664   4.154   0.751   6.000
 2589SOL     OW 8665   0.187   6.018   6.715
 2589SOL    HW1 8666   0.151   6.111   6.709
 2589SOL    HW2 8667   0.248   6.011   6.794
 2590SOL     OW 8668   3.298   6.183   0.997
 2590SOL    HW1 8669   3.370   6.193   1.067
 2590SOL    HW2 8670   3.320   6.242   0.920
 2591SOL     OW 8671   0.052   5.888   2.386
 2591SOL    HW1 8672   0.008   5.921   2.302
 2591SOL    HW2 8673   0.017   5.797   2.409
 2592SOL     OW 8674   3.707   6.401   1.135
 2592SOL    HW1 8675   3.703   6.317   1.190
 2592SOL    HW2 8676   3.799   6.412   1.098
 2593SOL     OW 8677   3.156   5.750   0.878
 2593SOL    HW1 8678   3.238   5.806   0.889
 2593SOL    HW2 8679   3.182   5.658   0.848
 2594SOL     OW 8680   1.076   4.860   6.162
 2594SOL    HW1 8681   1.069   4.921   6.241
 2594SOL    HW2 8682   1.116   4.910   6.085
 2595SOL     OW 8683   6.720   1.654   3.997
 2595SOL    HW1 8684   6.777   1.736   4.005
 2595SOL    HW2 8685   6.663   1.662   3.915
 2596SOL     OW 8686   3.923   1.730   1.985
 2596SOL    HW1 8687   3.914   1.829   1.984
 2596SOL    HW2 8688   3.851   1.689   1.930
 2597SOL     OW 8689   1.473   4.430   5.881
 2597SOL    HW1 8690   1.544   4.381   5.829
 2597SOL    HW2 8691   1.397   4.452   5.820
 2598SOL     OW 8692   5.973   1.339   3.469
 2598SOL    HW1 8693   6.045   1.337   3.539
 2598SOL    HW2 8694   5.975   1.255   3.416
 2599SOL     OW 8695   1.818   6.788   1.094
 2599SOL    HW1 8696   1.725   6.793   1.057
 2599SOL    HW2 8697   1.821   6.832   1.184
 2600SOL     OW 8698   5.266   3.672   4.658
 2600SOL    HW1 8699   5.319   3.748   4.695
 2600SOL    HW2 8700   5.242   3.608   4.731
 2601SOL     OW 8701   1.851   1.901   0.529
 2601SOL    HW1 8702   1.784   1.829   0.550
 2601SOL    HW2 8703   1.824   1.946   0.444
 2602SOL     OW 8704   0.551   4.202   4.060
 2602SOL    HW1 8705   0.489   4.251   3.998
 2602SOL    HW2 8706   0.633   4.257   4.075
 2603SOL     OW 8707   2.573   1.396   3.075
 2603SOL    HW1 8708   2.589   1.493   3.096
 2603SOL    HW2 8709   2.622   1.340   3.141
 2604SOL     OW 8710   4.965   1.924   2.886
 2604SOL    HW1 8711   4.918   2.012   2.899
 2604SOL    HW2 8712   4.955   1.894   2.791
 2605SOL     OW 8713   1.914   4.221   2.923
 2605SOL    HW1 8714   1.907   4.144   2.859
 2605SOL    HW2 8715   1.876   4.194   3.012
 2606SOL     OW 8716   5.957   4.448   2.042
 2606SOL    HW1 8717   5.893   4.496   1.982
 2606SOL    HW2 8718   5.988   4.365   1.997
 2607SOL     OW 8719   1.338   1.205   1.141
 2607SOL    HW1 8720   1.337   1.107   1.123
 2607SOL    HW2 8721   1.379   1.222   1.231
 2608SOL     OW 8722   4.774   4.777   1.402
 2608SOL    HW1 8723   4.720   4.696   1.426
 2608SOL    HW2 8724   4.712   4.853   1.381
 2609SOL     OW 8725   6.858   1.617   0.480
 2609SOL    HW1 8726   6.765   1.623   0.444
 2609SOL    HW2 8727   6.857   1.636   0.579
 2610SOL     OW 8728   0.834   4.770   4.643
 2610SOL    HW1 8729   0.803   4.680   4.612
 2610SOL    HW2 8730   0.773   4.840   4.606
 2611SOL     OW 8731   4.882   6.842   0.959
 2611SOL    HW1 8732   4.876   6.933   0.917
 2611SOL    HW2 8733   4.894   6.852   1.057
 2612SOL     OW 8734   6.803   6.954   5.884
 2612SOL    HW1 8735   6.858   6.910   5.813
 2612SOL    HW2 8736   6.784   0.027   5.859
 2613SOL     OW 8737   2.339   6.099   6.529
 2613SOL    HW1 8738   2.367   6.178   6.584
 2613SOL    HW2 8739   2.248   6.116   6.490
 2614SOL     OW 8740   6.797   0.493   5.703
 2614SOL    HW1 8741   6.872   0.520   5.764
 2614SOL    HW2 8742   6.835   0.457   5.617
 2615SOL     OW 8743   0.262   2.691   3.134
 2615SOL    HW1 8744   0.321   2.756   3.086
 2615SOL    HW2 8745   0.178   2.737   3.163
 2616SOL     OW 8746   3.153   3.597   5.100
 2616SOL    HW1 8747   3.132   3.499   5.111
 2616SOL    HW2 8748   3.158   3.640   5.190
 2617SOL     OW 8749   3.396   6.454   0.462
 2617SOL    HW1 8750   3.431   6.548   0.462
 2617SOL    HW2 8751   3.367   6.430   0.369
 2618SOL     OW 8752   0.000   0.583   4.323
 2618SOL    HW1 8753   6.951   0.623   4.264
 2618SOL    HW2 8754   6.984   0.567   4.414
 2619SOL     OW 8755   4.337   1.937   3.209
 2619SOL    HW1 8756   4.405   1.912   3.278
 2619SOL    HW2 8757   4.368   1.903   3.119
 2620SOL     OW 8758   6.649   0.155   3.469
 2620SOL    HW1 8759   6.590   0.109   3.535
 2620SOL    HW2 8760   6.609   0.244   3.445
 2621SOL     OW 8761   1.349   5.761   2.872
 2621SOL    HW1 8762   1.348   5.787   2.775
 2621SOL    HW2 8763   1.288   5.684   2.887
 2622SOL     OW 8764   1.853   3.410   5.220
 2622SOL    HW1 8765   1.869   3.476   5.293
 2622SOL    HW2 8766   1.940   3.371   5.190
 2623SOL     OW 8767   1.611   0.885   5.840
 2623SOL    HW1 8768   1.542   0.913   5.907
 2623SOL    HW2 8769   1.689   0.845   5.888
 2624SOL     OW 8770   6.706   1.257   5.429
 2624SOL    HW1 8771   6.644   1.222   5.359
 2624SOL    HW2 8772   6.653   1.308   5.497
 2625SOL     OW 8773   1.944   3.160   5.008
 2625SOL    HW1 8774   2.023   3.195   4.957
 2625SOL    HW2 8775   1.862   3.166   4.951
 2626SOL     OW 8776   0.692   0.506   5.665
 2626SOL    HW1 8777   0.695   0.410   5.695
 2626SOL    HW2 8778   0.598   0.537   5.663
 2627SOL     OW 8779   1.387   1.003   5.983
 2627SOL    HW1 8780   1.393   1.071   5.909
 2627SOL    HW2 8781   1.319   0.934   5.958
 2628SOL     OW 8782   1.938   4.674   5.441
 2628SOL    HW1 8783   1.962   4.717   5.528
 2628SOL    HW2 8784   1.975   4.728   5.365
 2629SOL     OW 8785   3.012   3.063   1.523
 2629SOL    HW1 8786   3.067   2.979   1.526
 2629SOL    HW2 8787   2.962   3.073   1.609
 2630SOL     OW 8788   3.343   2.078   2.603
 2630SOL    HW1 8789   3.269   2.114   2.660
 2630SOL    HW2 8790   3.412   2.035   2.661
 2631SOL     OW 8791   5.603   0.932   5.315
 2631SOL    HW1 8792   5.682   0.915   5.256
 2631SOL    HW2 8793   5.588   1.031   5.323
 2632SOL     OW 8794   4.754   3.073   6.485
 2632SOL    HW1 8795   4.783   2.978   6.476
 2632SOL    HW2 8796   4.817   3.133   6.435
 2633SOL     OW 8797   0.481   2.315   4.729
 2633SOL    HW1 8798   0.433   2.402   4.724
 2633SOL    HW2 8799   0.450   2.255   4.655
 2634SOL     OW 8800   0.689   4.542   3.424
 2634SOL    HW1 8801   0.752   4.615   3.395
 2634SOL    HW2 8802   0.614   4.583   3.476
 2635SOL     OW 8803   6.799   5.498   5.647
 2635SOL    HW1 8804   6.896   5.477   5.630
 2635SOL    HW2 8805   6.748   5.489   5.562
 2636SOL     OW 8806   4.012   0.823   5.254
 2636SOL    HW1 8807   4.051   0.903   5.300
 2636SOL    HW2 8808   3.965   0.766   5.321
 2637SOL     OW 8809   4.927   1.560   3.357
 2637SOL    HW1 8810   4.867   1.611   3.419
 2637SOL    HW2 8811   4.989   1.504   3.411
 2638SOL     OW 8812   6.747   0.195   3.906
 2638SOL    HW1 8813   6.808   0.225   3.832
 2638SOL    HW2 8814   6.698   0.274   3.943
 2639SOL     OW 8815   0.444   5.360   0.811
 2639SOL    HW1 8816   0.473   5.338   0.904
 2639SOL    HW2 8817   0.400   5.449   0.809
 2640SOL     OW 8818   0.544   6.325   5.501
 2640SOL    HW1 8819   0.599   6.353   5.580
 2640SOL    HW2 8820   0.604   6.303   5.424
 2641SOL     OW 8821   5.486   3.307   2.445
 2641SOL    HW1 8822   5.481   3.403   2.473
 2641SOL    HW2 8823   5.574   3.290   2.400
 2642SOL     OW 8824   4.732   6.571   3.815
 2642SOL    HW1 8825   4.739   6.489   3.759
 2642SOL    HW2 8826   4.817   6.585   3.865
 2643SOL     OW 8827   0.540   3.567   3.649
 2643SOL    HW1 8828   0.630   3.605   3.625
 2643SOL    HW2 8829   0.522   3.486   3.594
 2644SOL     OW 8830   5.530   6.562   5.606
 2644SOL    HW1 8831   5.556   6.540   5.512
 2644SOL    HW2 8832   5.600   6.529   5.669
 2645SOL     OW 8833   4.255   6.056   4.124
 2645SOL    HW1 8834   4.332   6.093   4.073
 2645SOL    HW2 8835   4.275   5.961   4.151
 2646SOL     OW 8836   6.197   0.950   6.538
 2646SOL    HW1 8837   6.158   0.937   6.447
 2646SOL    HW2 8838   6.267   0.881   6.554
 2647SOL     OW 8839   6.179   0.197   1.939
 2647SOL    HW1 8840   6.191   0.200   1.840
 2647SOL    HW2 8841   6.201   0.286   1.978
 2648SOL     OW 8842   0.528   0.070   4.247
 2648SOL    HW1 8843   0.552   6.997   4.268
 2648SOL    HW2 8844   0.438   0.073   4.204
 2649SOL     OW 8845   5.729   3.241   0.049
 2649SOL    HW1 8846   5.654   3.175   0.053
 2649SOL    HW2 8847   5.815   3.192   0.033
 2650SOL     OW 8848   1.309   4.824   3.761
 2650SOL    HW1 8849   1.305   4.828   3.861
 2650SOL    HW2 8850   1.217   4.808   3.725
 2651SOL     OW 8851   1.750   1.550   0.935
 2651SOL    HW1 8852   1.836   1.579   0.977
 2651SOL    HW2 8853   1.675   1.565   0.998
 2652SOL     OW 8854   4.133   3.549   4.655
 2652SOL    HW1 8855   4.224   3.581   4.681
 2652SOL    HW2 8856   4.135   3.450   4.641
 2653SOL     OW 8857   5.124   6.535   4.903
 2653SOL    HW1 8858   5.063   6.604   4.866
 2653SOL    HW2 8859   5.144   6.556   4.999
 2654SOL     OW 8860   4.425   6.449   2.224
 2654SOL    HW1 8861   4.443   6.401   2.309
 2654SOL    HW2 8862   4.371   6.531   2.243
 2655SOL     OW 8863   4.285   6.250   4.351
 2655SOL    HW1 8864   4.301   6.340   4.311
 2655SOL    HW2 8865   4.248   6.188   4.281
 2656SOL     OW 8866   3.955   4.935   4.813
 2656SOL    HW1 8867   3.867   4.890   4.824
 2656SOL    HW2 8868   4.006   4.891   4.739
 2657SOL     OW 8869   1.303   4.282   6.510
 2657SOL    HW1 8870   1.272   4.187   6.517
 2657SOL    HW2 8871   1.235   4.343   6.551
 2658SOL     OW 8872   4.938   4.456   1.086
 2658SOL    HW1 8873   4.857   4.460   1.144
 2658SOL    HW2 8874   5.019   4.443   1.142
 2659SOL     OW 8875   5.251   3.090   4.405
 2659SOL    HW1 8876   5.320   3.066   4.336
 2659SOL    HW2 8877   5.189   3.159   4.369
 2660SOL     OW 8878   1.796   0.344   1.787
 2660SOL    HW1 8879   1.869   0.297   1.837
 2660SOL    HW2 8880   1.835   0.418   1.733
 2661SOL     OW 8881   2.448   0.487   1.264
 2661SOL    HW1 8882   2.375   0.447   1.320
 2661SOL    HW2 8883   2.425   0.477   1.168
 2662SOL     OW 8884   4.947   6.719   4.801
 2662SOL    HW1 8885   4.917   6.770   4.882
 2662SOL    HW2 8886   4.883   6.735   4.726
 2663SOL     OW 8887   3.036   3.969   6.751
 2663SOL    HW1 8888   3.116   4.007   6.797
 2663SOL    HW2 8889   2.975   3.928   6.819
 2664SOL     OW 8890   4.240   3.667   5.236
 2664SOL    HW1 8891   4.223   3.569   5.251
 2664SOL    HW2 8892   4.324   3.694   5.283
 2665SOL     OW 8893   2.649   2.867   5.349
 2665SOL    HW1 8894   2.601   2.781   5.330
 2665SOL    HW2 8895   2.601   2.942   5.303
 2666SOL     OW 8896   6.006   4.734   1.287
 2666SOL    HW1 8897   6.047   4.685   1.210
 2666SOL    HW2 8898   5.910   4.708   1.296
 2667SOL     OW 8899   0.153   5.839   4.347
 2667SOL    HW1 8900   0.102   5.897   4.282
 2667SOL    HW2 8901   0.227   5.893   4.387
 2668SOL     OW 8902   6.876   2.949   4.961
 2668SOL    HW1 8903   6.794   2.982   5.010
 2668SOL    HW2 8904   6.861   2.958   4.863
 2669SOL     OW 8905   2.727   4.347   5.283
 2669SOL    HW1 8906   2.793   4.405   5.236
 2669SOL    HW2 8907   2.768   4.257   5.298
 2670SOL     OW 8908   5.506   2.987   5.898
 2670SOL    HW1 8909   5.475   3.072   5.855
 2670SOL    HW2 8910   5.599   2.967   5.868
 2671SOL     OW 8911   4.429   5.613   6.389
 2671SOL    HW1 8912   4.355   5.661   6.438
 2671SOL    HW2 8913   4.401   5.519   6.370
 2672SOL     OW 8914   2.016   5.084   0.689
 2672SOL    HW1 8915   1.925   5.044   0.678
 2672SOL    HW2 8916   2.073   5.023   0.744
 2673SOL     OW 8917   5.905   1.164   2.318
 2673SOL    HW1 8918   5.878   1.197   2.227
 2673SOL    HW2 8919   5.960   1.081   2.308
 2674SOL     OW 8920   1.034   4.446   3.662
 2674SOL    HW1 8921   1.123   4.470   3.703
 2674SOL    HW2 8922   1.046   4.369   3.600
 2675SOL     OW 8923   6.202   5.075   3.964
 2675SOL    HW1 8924   6.108   5.055   3.995
 2675SOL    HW2 8925   6.202   5.159   3.910
 2676SOL     OW 8926   3.790   2.115   1.076
 2676SOL    HW1 8927   3.725   2.191   1.074
 2676SOL    HW2 8928   3.879   2.149   1.106
 2677SOL     OW 8929   2.590   3.425   0.506
 2677SOL    HW1 8930   2.687   3.417   0.485
 2677SOL    HW2 8931   2.540   3.453   0.424
 2678SOL     OW 8932   0.388   2.791   1.381
 2678SOL    HW1 8933   0.329   2.863   1.345
 2678SOL    HW2 8934   0.482   2.825   1.385
 2679SOL     OW 8935   2.315   4.219   1.718
 2679SOL    HW1 8936   2.405   4.208   1.675
 2679SOL    HW2 8937   2.267   4.296   1.675
 2680SOL     OW 8938   1.173   1.499   0.286
 2680SOL    HW1 8939   1.191   1.403   0.304
 2680SOL    HW2 8940   1.189   1.552   0.369
 2681SOL     OW 8941   1.525   2.746   4.384
 2681SOL    HW1 8942   1.461   2.705   4.319
 2681SOL    HW2 8943   1.560   2.676   4.446
 2682SOL     OW 8944   4.956   4.342   3.154
 2682SOL    HW1 8945   4.951   4.276   3.079
 2682SOL    HW2 8946   4.866   4.383   3.167
 2683SOL     OW 8947   2.791   5.407   1.505
 2683SOL    HW1 8948   2.827   5.314   1.509
 2683SOL    HW2 8949   2.706   5.412   1.558
 2684SOL     OW 8950   4.771   5.636   1.703
 2684SOL    HW1 8951   4.832   5.714   1.714
 2684SOL    HW2 8952   4.714   5.650   1.622
 2685SOL     OW 8953   5.710   6.514   6.191
 2685SOL    HW1 8954   5.770   6.593   6.179
 2685SOL    HW2 8955   5.622   6.544   6.227
 2686SOL     OW 8956   1.852   1.889   5.648
 2686SOL    HW1 8957   1.785   1.841   5.592
 2686SOL    HW2 8958   1.902   1.824   5.705
 2687SOL     OW 8959   4.933   5.092   1.215
 2687SOL    HW1 8960   5.018   5.060   1.256
 2687SOL    HW2 8961   4.870   5.119   1.288
 2688SOL     OW 8962   3.585   3.981   0.326
 2688SOL    HW1 8963   3.524   3.938   0.259
 2688SOL    HW2 8964   3.630   4.060   0.284
 2689SOL     OW 8965   1.425   4.388   3.567
 2689SOL    HW1 8966   1.483   4.470   3.569
 2689SOL    HW2 8967   1.464   4.322   3.503
 2690SOL     OW 8968   3.642   2.916   4.378
 2690SOL    HW1 8969   3.569   2.902   4.445
 2690SOL    HW2 8970   3.602   2.934   4.289
 2691SOL     OW 8971   1.820   5.571   2.829
 2691SOL    HW1 8972   1.775   5.482   2.826
 2691SOL    HW2 8973   1.803   5.615   2.917
 2692SOL     OW 8974   3.268   5.592   2.562
 2692SOL    HW1 8975   3.301   5.549   2.478
 2692SOL    HW2 8976   3.239   5.686   2.542
 2693SOL     OW 8977   2.220   5.297   3.822
 2693SOL    HW1 8978   2.150   5.359   3.788
 2693SOL    HW2 8979   2.311   5.332   3.798
 2694SOL     OW 8980   3.710   5.949   2.868
 2694SOL    HW1 8981   3.802   5.954   2.908
 2694SOL    HW2 8982   3.678   5.854   2.871
 2695SOL     OW 8983   5.550   0.612   1.867
 2695SOL    HW1 8984   5.553   0.639   1.771
 2695SOL    HW2 8985   5.624   0.546   1.885
 2696SOL     OW 8986   3.877   3.377   5.699
 2696SOL    HW1 8987   3.937   3.393   5.620
 2696SOL    HW2 8988   3.790   3.425   5.685
 2697SOL     OW 8989   3.358   1.289   2.644
 2697SOL    HW1 8990   3.410   1.275   2.728
 2697SOL    HW2 8991   3.277   1.345   2.663
 2698SOL     OW 8992   1.906   5.900   0.399
 2698SOL    HW1 8993   1.864   5.823   0.448
 2698SOL    HW2 8994   1.942   5.868   0.311
 2699SOL     OW 8995   2.290   6.038   0.225
 2699SOL    HW1 8996   2.199   6.061   0.191
 2699SOL    HW2 8997   2.286   6.022   0.324
 2700SOL     OW 8998   2.504   3.623   0.113
 2700SOL    HW1 8999   2.448   3.613   0.031
 2700SOL    HW2 9000   2.580   3.686   0.094
 2701SOL     OW 9001   5.441   1.509   5.869
 2701SOL    HW1 9002   5.503   1.556   5.807
 2701SOL    HW2 9003   5.492   1.439   5.921
 2702SOL     OW 9004   0.731   3.135   3.407
 2702SOL    HW1 9005   0.758   3.199   3.478
 2702SOL    HW2 9006   0.813   3.091   3.369
 2703SOL     OW 9007   1.032   6.912   1.217
 2703SOL    HW1 9008   1.040   6.914   1.317
 2703SOL    HW2 9009   0.952   6.856   1.192
 2704SOL     OW 9010   7.004   5.387   1.639
 2704SOL    HW1 9011   6.948   5.435   1.571
 2704SOL    HW2 9012   0.079   5.409   1.624
 2705SOL     OW 9013   0.003   5.523   4.907
 2705SOL    HW1 9014   0.093   5.545   4.942
 2705SOL    HW2 9015   6.967   5.489   4.981
 2706SOL     OW 9016   6.844   5.183   2.424
 2706SOL    HW1 9017   6.831   5.084   2.427
 2706SOL    HW2 9018   6.924   5.209   2.478
 2707SOL     OW 9019   4.037   7.010   3.853
 2707SOL    HW1 9020   3.995   0.078   3.836
 2707SOL    HW2 9021   4.073   6.973   3.767
 2708SOL     OW 9022   0.396   2.631   0.383
 2708SOL    HW1 9023   0.408   2.632   0.482
 2708SOL    HW2 9024   0.355   2.544   0.356
 2709SOL     OW 9025   5.349   0.205   6.949
 2709SOL    HW1 9026   5.388   0.217   0.019
 2709SOL    HW2 9027   5.369   0.113   6.916
 2710SOL     OW 9028   0.649   3.705   4.110
 2710SOL    HW1 9029   0.670   3.729   4.015
 2710SOL    HW2 9030   0.562   3.655   4.114
 2711SOL     OW 9031   2.457   0.860   3.733
 2711SOL    HW1 9032   2.380   0.856   3.796
 2711SOL    HW2 9033   2.535   0.906   3.777
 2712SOL     OW 9034   3.073   4.469   1.365
 2712SOL    HW1 9035   2.991   4.427   1.404
 2712SOL    HW2 9036   3.107   4.411   1.290
 2713SOL     OW 9037   2.616   2.531   4.601
 2713SOL    HW1 9038   2.557   2.602   4.563
 2713SOL    HW2 9039   2.680   2.572   4.667
 2714SOL     OW 9040   3.652   2.540   0.148
 2714SOL    HW1 9041   3.712   2.461   0.139
 2714SOL    HW2 9042   3.582   2.521   0.217
 2715SOL     OW 9043   5.043   1.625   1.109
 2715SOL    HW1 9044   4.951   1.600   1.077
 2715SOL    HW2 9045   5.037   1.665   1.200
 2716SOL     OW 9046   5.213   3.972   2.315
 2716SOL    HW1 9047   5.179   4.038   2.248
 2716SOL    HW2 9048   5.137   3.924   2.357
 2717SOL     OW 9049   1.082   6.583   2.674
 2717SOL    HW1 9050   1.118   6.642   2.601
 2717SOL    HW2 9051   1.155   6.521   2.705
 2718SOL     OW 9052   1.348   1.576   4.957
 2718SOL    HW1 9053   1.292   1.652   4.989
 2718SOL    HW2 9054   1.292   1.493   4.951
 2719SOL     OW 9055   0.599   4.692   2.096
 2719SOL    HW1 9056   0.632   4.612   2.045
 2719SOL    HW2 9057   0.669   4.763   2.095
 2720SOL     OW 9058   2.208   5.497   1.999
 2720SOL    HW1 9059   2.241   5.590   1.982
 2720SOL    HW2 9060   2.128   5.500   2.059
 2721SOL     OW 9061   2.745   0.152   3.498
 2721SOL    HW1 9062   2.766   0.205   3.415
 2721SOL    HW2 9063   2.732   0.215   3.575
 2722SOL     OW 9064   7.002   5.274   0.542
 2722SOL    HW1 9065   6.944   5.313   0.470
 2722SOL    HW2 9066   6.997   5.174   0.538
 2723SOL     OW 9067   0.354   0.194   6.543
 2723SOL    HW1 9068   0.408   0.116   6.511
 2723SOL    HW2 9069   0.368   0.206   6.641
 2724SOL     OW 9070   1.976   6.759   0.088
 2724SOL    HW1 9071   1.914   6.787   0.014
 2724SOL    HW2 9072   2.049   6.702   0.049
 2725SOL     OW 9073   5.078   4.324   4.419
 2725SOL    HW1 9074   5.081   4.355   4.514
 2725SOL    HW2 9075   4.983   4.311   4.391
 2726SOL     OW 9076   0.605   2.242   0.886
 2726SOL    HW1 9077   0.584   2.161   0.832
 2726SOL    HW2 9078   0.674   2.220   0.955
 2727SOL     OW 9079   0.448   4.933   3.529
 2727SOL    HW1 9080   0.349   4.936   3.546
 2727SOL    HW2 9081   0.496   4.982   3.601
 2728SOL     OW 9082   4.659   6.692   5.957
 2728SOL    HW1 9083   4.609   6.679   5.871
 2728SOL    HW2 9084   4.723   6.768   5.946
 2729SOL     OW 9085   0.148   6.178   0.744
 2729SOL    HW1 9086   0.223   6.209   0.802
 2729SOL    HW2 9087   0.178   6.177   0.649
 2730SOL     OW 9088   1.902   5.968   1.661
 2730SOL    HW1 9089   1.939   5.983   1.569
 2730SOL    HW2 9090   1.977   5.952   1.725
 2731SOL     OW 9091   3.630   4.129   3.051
 2731SOL    HW1 9092   3.726   4.135   3.079
 2731SOL    HW2 9093   3.625   4.086   2.961
 2732SOL     OW 9094   5.523   3.075   1.674
 2732SOL    HW1 9095   5.428   3.104   1.661
 2732SOL    HW2 9096   5.554   3.025   1.593
 2733SOL     OW 9097   6.456   1.866   4.304
 2733SOL    HW1 9098   6.478   1.774   4.272
 2733SOL    HW2 9099   6.358   1.883   4.294
 2734SOL     OW 9100   3.120   5.814   1.148
 2734SOL    HW1 9101   3.115   5.777   1.055
 2734SOL    HW2 9102   3.027   5.821   1.186
 2735SOL     OW 9103   1.072   3.533   1.655
 2735SOL    HW1 9104   1.093   3.631   1.648
 2735SOL    HW2 9105   1.153   3.480   1.628
 2736SOL     OW 9106   5.981   6.348   4.793
 2736SOL    HW1 9107   5.961   6.417   4.862
 2736SOL    HW2 9108   6.076   6.320   4.800
 2737SOL     OW 9109   2.778   3.730   5.811
 2737SOL    HW1 9110   2.754   3.646   5.861
 2737SOL    HW2 9111   2.703   3.796   5.818
 2738SOL     OW 9112   5.035   6.467   2.054
 2738SOL    HW1 9113   4.974   6.388   2.052
 2738SOL    HW2 9114   5.010   6.531   1.982
 2739SOL     OW 9115   0.905   4.266   1.636
 2739SOL    HW1 9116   0.927   4.306   1.725
 2739SOL    HW2 9117   0.963   4.186   1.620
 2740SOL     OW 9118   0.044   3.872   2.729
 2740SOL    HW1 9119   0.059   3.845   2.634
 2740SOL    HW2 9120   0.020   3.969   2.734
 2741SOL     OW 9121   6.323   0.796   4.744
 2741SOL    HW1 9122   6.230   0.822   4.720
 2741SOL    HW2 9123   6.385   0.873   4.725
 2742SOL     OW 9124   2.252   5.094   0.562
 2742SOL    HW1 9125   2.156   5.094   0.591
 2742SOL    HW2 9126   2.291   5.003   0.579
 2743SOL     OW 9127   6.444   4.889   2.436
 2743SOL    HW1 9128   6.378   4.831   2.388
 2743SOL    HW2 9129   6.400   4.975   2.461
 2744SOL     OW 9130   4.755   2.299   6.842
 2744SOL    HW1 9131   4.764   2.230   6.770
 2744SOL    HW2 9132   4.701   2.376   6.808
 2745SOL     OW 9133   0.059   0.166   5.461
 2745SOL    HW1 9134   0.058   0.113   5.377
 2745SOL    HW2 9135   0.143   0.219   5.467
 2746SOL     OW 9136   2.409   1.564   4.517
 2746SOL    HW1 9137   2.312   1.551   4.501
 2746SOL    HW2 9138   2.445   1.633   4.453
 2747SOL     OW 9139   5.737   3.715   6.591
 2747SOL    HW1 9140   5.690   3.627   6.604
 2747SOL    HW2 9141   5.835   3.702   6.600
 2748SOL     OW 9142   4.931   1.514   1.826
 2748SOL    HW1 9143   5.026   1.508   1.793
 2748SOL    HW2 9144   4.895   1.605   1.807
 2749SOL     OW 9145   0.436   4.486   2.374
 2749SOL    HW1 9146   0.397   4.461   2.463
 2749SOL    HW2 9147   0.506   4.557   2.387
 2750SOL     OW 9148   0.853   4.493   1.477
 2750SOL    HW1 9149   0.863   4.417   1.541
 2750SOL    HW2 9150   0.789   4.560   1.514
 2751SOL     OW 9151   1.141   4.480   1.426
 2751SOL    HW1 9152   1.200   4.478   1.506
 2751SOL    HW2 9153   1.046   4.467   1.454
 2752SOL     OW 9154   3.975   5.547   5.604
 2752SOL    HW1 9155   3.925   5.633   5.595
 2752SOL    HW2 9156   3.960   5.509   5.695
 2753SOL     OW 9157   0.366   6.619   5.415
 2753SOL    HW1 9158   0.375   6.557   5.494
 2753SOL    HW2 9159   0.283   6.673   5.425
 2754SOL     OW 9160   0.705   0.329   1.904
 2754SOL    HW1 9161   0.625   0.313   1.846
 2754SOL    HW2 9162   0.770   0.388   1.857
 2755SOL     OW 9163   2.357   6.604   2.814
 2755SOL    HW1 9164   2.416   6.677   2.846
 2755SOL    HW2 9165   2.369   6.523   2.871
 2756SOL     OW 9166   5.820   5.236   6.323
 2756SOL    HW1 9167   5.900   5.258   6.378
 2756SOL    HW2 9168   5.756   5.182   6.377
 2757SOL     OW 9169   2.695   0.329   7.019
 2757SOL    HW1 9170   2.719   0.411   0.050
 2757SOL    HW2 9171   2.680   0.355   6.923
 2758SOL     OW 9172   3.878   6.490   3.772
 2758SOL    HW1 9173   3.970   6.525   3.756
 2758SOL    HW2 9174   3.848   6.438   3.693
 2759SOL     OW 9175   5.798   6.681   5.363
 2759SOL    HW1 9176   5.803   6.581   5.357
 2759SOL    HW2 9177   5.855   6.722   5.291
 2760SOL     OW 9178   0.908   5.864   2.060
 2760SOL    HW1 9179   0.905   5.934   1.988
 2760SOL    HW2 9180   0.824   5.868   2.114
 2761SOL     OW 9181   2.014   5.220   5.279
 2761SOL    HW1 9182   2.032   5.161   5.200
 2761SOL    HW2 9183   2.069   5.303   5.271
 2762SOL     OW 9184   1.544   0.740   4.811
 2762SOL    HW1 9185   1.589   0.754   4.724
 2762SOL    HW2 9186   1.520   0.643   4.821
 2763SOL     OW 9187   4.648   1.951   3.627
 2763SOL    HW1 9188   4.675   2.044   3.601
 2763SOL    HW2 9189   4.730   1.898   3.650
 2764SOL     OW 9190   6.065   0.984   1.601
 2764SOL    HW1 9191   6.140   0.981   1.535
 2764SOL    HW2 9192   6.069   1.070   1.652
 2765SOL     OW 9193   6.201   0.098   0.658
 2765SOL    HW1 9194   6.136   0.046   0.713
 2765SOL    HW2 9195   6.205   0.059   0.566
 2766SOL     OW 9196   5.013   2.981   0.777
 2766SOL    HW1 9197   4.932   2.966   0.720
 2766SOL    HW2 9198   4.984   3.005   0.870
 2767SOL     OW 9199   6.941   5.578   6.909
 2767SOL    HW1 9200   6.938   5.662   6.855
 2767SOL    HW2 9201   6.894   5.505   6.859
 2768SOL     OW 9202   4.044   0.672   1.203
 2768SOL    HW1 9203   4.058   0.600   1.135
 2768SOL    HW2 9204   4.120   0.673   1.267
 2769SOL     OW 9205   2.102   4.890   4.458
 2769SOL    HW1 9206   2.155   4.906   4.376
 2769SOL    HW2 9207   2.156   4.913   4.539
 2770SOL     OW 9208   4.297   6.186   6.312
 2770SOL    HW1 9209   4.345   6.108   6.272
 2770SOL    HW2 9210   4.198   6.174   6.300
 2771SOL     OW 9211   6.344   0.933   3.381
 2771SOL    HW1 9212   6.306   0.984   3.459
 2771SOL    HW2 9213   6.366   0.840   3.410
 2772SOL     OW 9214   3.855   1.907   0.896
 2772SOL    HW1 9215   3.838   1.986   0.955
 2772SOL    HW2 9216   3.813   1.922   0.807
 2773SOL     OW 9217   6.352   2.133   5.198
 2773SOL    HW1 9218   6.404   2.213   5.227
 2773SOL    HW2 9219   6.283   2.111   5.266
 2774SOL     OW 9220   5.763   2.951   2.551
 2774SOL    HW1 9221   5.811   2.986   2.632
 2774SOL    HW2 9222   5.733   2.858   2.568
 2775SOL     OW 9223   6.249   4.833   5.891
 2775SOL    HW1 9224   6.298   4.805   5.808
 2775SOL    HW2 9225   6.264   4.765   5.963
 2776SOL     OW 9226   4.467   4.738   5.886
 2776SOL    HW1 9227   4.367   4.733   5.883
 2776SOL    HW2 9228   4.495   4.831   5.908
 2777SOL     OW 9229   3.159   1.904   1.350
 2777SOL    HW1 9230   3.162   1.996   1.389
 2777SOL    HW2 9231   3.123   1.908   1.257
 2778SOL     OW 9232   1.641   0.272   5.402
 2778SOL    HW1 9233   1.566   0.297   5.341
 2778SOL    HW2 9234   1.655   0.344   5.470
 2779SOL     OW 9235   5.006   6.584   1.792
 2779SOL    HW1 9236   4.956   6.655   1.743
 2779SOL    HW2 9237   5.102   6.611   1.803
 2780SOL     OW 9238   6.863   6.719   6.966
 2780SOL    HW1 9239   6.842   6.807   6.923
 2780SOL    HW2 9240   6.947   6.682   6.927
 2781SOL     OW 9241   5.257   6.670   1.786
 2781SOL    HW1 9242   5.328   6.611   1.824
 2781SOL    HW2 9243   5.299   6.753   1.750
 2782SOL     OW 9244   4.739   2.068   5.953
 2782SOL    HW1 9245   4.817   2.126   5.976
 2782SOL    HW2 9246   4.716   2.079   5.857
 2783SOL     OW 9247   5.259   4.468   2.857
 2783SOL    HW1 9248   5.314   4.408   2.915
 2783SOL    HW2 9249   5.163   4.464   2.885
 2784SOL     OW 9250   3.247   1.628   2.444
 2784SOL    HW1 9251   3.257   1.542   2.395
 2784SOL    HW2 9252   3.156   1.633   2.485
 2785SOL     OW 9253   5.078   2.679   0.717
 2785SOL    HW1 9254   5.077   2.680   0.617
 2785SOL    HW2 9255   5.165   2.716   0.751
 2786SOL     OW 9256   5.123   0.115   2.987
 2786SOL    HW1 9257   5.134   0.022   3.023
 2786SOL    HW2 9258   5.188   0.176   3.033
 2787SOL     OW 9259   5.096   0.763   6.006
 2787SOL    HW1 9260   5.037   0.809   6.072
 2787SOL    HW2 9261   5.184   0.743   6.048
 2788SOL     OW 9262   2.182   5.205   6.098
 2788SOL    HW1 9263   2.211   5.140   6.168
 2788SOL    HW2 9264   2.098   5.251   6.128
 2789SOL     OW 9265   1.549   2.584   3.658
 2789SOL    HW1 9266   1.551   2.556   3.562
 2789SOL    HW2 9267   1.582   2.678   3.666
 2790SOL     OW 9268   3.717   5.740   2.470
 2790SOL    HW1 9269   3.757   5.801   2.401
 2790SOL    HW2 9270   3.685   5.656   2.426
 2791SOL     OW 9271   0.205   3.177   3.229
 2791SOL    HW1 9272   0.275   3.110   3.204
 2791SOL    HW2 9273   0.150   3.142   3.305
 2792SOL     OW 9274   1.673   6.884   4.226
 2792SOL    HW1 9275   1.739   6.863   4.154
 2792SOL    HW2 9276   1.592   6.828   4.214
 2793SOL     OW 9277   5.838   4.196   1.551
 2793SOL    HW1 9278   5.828   4.252   1.468
 2793SOL    HW2 9279   5.935   4.176   1.565
 2794SOL     OW 9280   0.252   2.757   6.618
 2794SOL    HW1 9281   0.273   2.819   6.694
 2794SOL    HW2 9282   0.316   2.773   6.543
 2795SOL     OW 9283   0.720   2.812   0.646
 2795SOL    HW1 9284   0.753   2.729   0.601
 2795SOL    HW2 9285   0.780   2.889   0.624
 2796SOL     OW 9286   0.240   6.392   3.660
 2796SOL    HW1 9287   0.169   6.407   3.729
 2796SOL    HW2 9288   0.200   6.398   3.569
 2797SOL     OW 9289   4.766   5.450   4.829
 2797SOL    HW1 9290   4.807   5.388   4.896
 2797SOL    HW2 9291   4.718   5.523   4.876
 2798SOL     OW 9292   0.391   5.348   1.999
 2798SOL    HW1 9293   0.394   5.405   2.081
 2798SOL    HW2 9294   0.344   5.262   2.019
 2799SOL     OW 9295   6.043   5.352   6.489
 2799SOL    HW1 9296   6.054   5.435   6.434
 2799SOL    HW2 9297   6.098   5.278   6.450
 2800SOL     OW 9298   4.535   6.334   0.332
 2800SOL    HW1 9299   4.516   6.264   0.400
 2800SOL    HW2 9300   4.449   6.376   0.302
 2801SOL     OW 9301   6.555   5.848   5.733
 2801SOL    HW1 9302   6.512   5.758   5.720
 2801SOL    HW2 9303   6.654   5.837   5.738
 2802SOL     OW 9304   5.260   0.520   4.877
 2802SOL    HW1 9305   5.183   0.481   4.927
 2802SOL    HW2 9306   5.250   0.620   4.872
 2803SOL     OW 9307   4.183   5.867   6.150
 2803SOL    HW1 9308   4.264   5.902   6.196
 2803SOL    HW2 9309   4.168   5.771   6.177
 2804SOL     OW 9310   0.443   4.590   5.214
 2804SOL    HW1 9311   0.496   4.671   5.188
 2804SOL    HW2 9312   0.500   4.508   5.202
 2805SOL     OW 9313   6.177   2.962   1.979
 2805SOL    HW1 9314   6.201   3.036   1.915
 2805SOL    HW2 9315   6.121   3.000   2.053
 2806SOL     OW 9316   0.343   3.704   6.023
 2806SOL    HW1 9317   0.295   3.752   5.949
 2806SOL    HW2 9318   0.424   3.755   6.050
 2807SOL     OW 9319   3.686   6.670   3.888
 2807SOL    HW1 9320   3.716   6.764   3.872
 2807SOL    HW2 9321   3.752   6.607   3.846
 2808SOL     OW 9322   6.590   4.705   1.986
 2808SOL    HW1 9323   6.648   4.780   2.017
 2808SOL    HW2 9324   6.569   4.646   2.064
 2809SOL     OW 9325   5.916   3.070   0.979
 2809SOL    HW1 9326   5.882   3.035   1.066
 2809SOL    HW2 9327   5.937   2.993   0.918
 2810SOL     OW 9328   3.230   5.380   3.637
 2810SOL    HW1 9329   3.289   5.436   3.695
 2810SOL    HW2 9330   3.167   5.328   3.695
 2811SOL     OW 9331   1.090   1.840   3.596
 2811SOL    HW1 9332   1.101   1.936   3.570
 2811SOL    HW2 9333   1.019   1.833   3.666
 2812SOL     OW 9334   5.463   2.886   6.795
 2812SOL    HW1 9335   5.465   2.909   6.698
 2812SOL    HW2 9336   5.396   2.813   6.810
 2813SOL     OW 9337   0.543   0.382   6.467
 2813SOL    HW1 9338   0.631   0.342   6.445
 2813SOL    HW2 9339   0.474   0.310   6.477
 2814SOL     OW 9340   3.772   3.652   5.252
 2814SOL    HW1 9341   3.723   3.723   5.202
 2814SOL    HW2 9342   3.803   3.581   5.188
 2815SOL     OW 9343   6.437   6.609   5.969
 2815SOL    HW1 9344   6.502   6.559   5.912
 2815SOL    HW2 9345   6.453   6.587   6.065
 2816SOL     OW 9346   6.176   5.038   3.653
 2816SOL    HW1 9347   6.132   5.126   3.637
 2816SOL    HW2 9348   6.272   5.042   3.625
 2817SOL     OW 9349   3.541   6.859   1.804
 2817SOL    HW1 9350   3.587   6.939   1.842
 2817SOL    HW2 9351   3.445   6.859   1.834
 2818SOL     OW 9352   0.457   0.526   1.504
 2818SOL    HW1 9353   0.408   0.511   1.590
 2818SOL    HW2 9354   0.420   0.463   1.435
 2819SOL     OW 9355   1.121   0.586   1.799
 2819SOL    HW1 9356   1.162   0.529   1.871
 2819SOL    HW2 9357   1.138   0.682   1.820
 2820SOL     OW 9358   0.714   2.389   2.787
 2820SOL    HW1 9359   0.648   2.423   2.720
 2820SOL    HW2 9360   0.667   2.331   2.853
 2821SOL     OW 9361   4.032   4.110   6.188
 2821SOL    HW1 9362   4.122   4.145   6.163
 2821SOL    HW2 9363   4.026   4.013   6.165
 2822SOL     OW 9364   4.048   2.207   0.870
 2822SOL    HW1 9365   4.017   2.277   0.805
 2822SOL    HW2 9366   4.031   2.239   0.963
 2823SOL     OW 9367   4.436   0.637   1.019
 2823SOL    HW1 9368   4.405   0.730   0.999
 2823SOL    HW2 9369   4.526   0.641   1.062
 2824SOL     OW 9370   1.820   1.671   3.321
 2824SOL    HW1 9371   1.820   1.759   3.369
 2824SOL    HW2 9372   1.872   1.604   3.374
 2825SOL     OW 9373   5.483   6.781   6.938
 2825SOL    HW1 9374   5.416   6.851   6.913
 2825SOL    HW2 9375   5.435   6.697   6.965
 2826SOL     OW 9376   4.962   1.044   0.204
 2826SOL    HW1 9377   5.022   1.016   0.279
 2826SOL    HW2 9378   4.902   1.117   0.236
 2827SOL     OW 9379   0.748   1.498   6.070
 2827SOL    HW1 9380   0.742   1.594   6.045
 2827SOL    HW2 9381   0.818   1.486   6.141
 2828SOL     OW 9382   2.650   1.652   0.685
 2828SOL    HW1 9383   2.554   1.678   0.689
 2828SOL    HW2 9384   2.688   1.677   0.596
 2829SOL     OW 9385   2.958   3.414   4.774
 2829SOL    HW1 9386   2.942   3.488   4.708
 2829SOL    HW2 9387   3.056   3.406   4.792
 2830SOL     OW 9388   2.201   3.249   5.909
 2830SOL    HW1 9389   2.257   3.283   5.833
 2830SOL    HW2 9390   2.135   3.319   5.936
 2831SOL     OW 9391   0.624   4.876   3.747
 2831SOL    HW1 9392   0.591   4.782   3.750
 2831SOL    HW2 9393   0.647   4.900   3.652
 2832SOL     OW 9394   1.151   3.444   2.308
 2832SOL    HW1 9395   1.208   3.362   2.316
 2832SOL    HW2 9396   1.073   3.425   2.249
 2833SOL     OW 9397   2.663   2.023   2.325
 2833SOL    HW1 9398   2.575   2.054   2.362
 2833SOL    HW2 9399   2.715   2.102   2.292
 2834SOL     OW 9400   4.264   6.016   5.897
 2834SOL    HW1 9401   4.216   5.981   5.977
 2834SOL    HW2 9402   4.234   5.966   5.815
 2835SOL     OW 9403   0.638   6.132   1.739
 2835SOL    HW1 9404   0.640   6.221   1.693
 2835SOL    HW2 9405   0.666   6.061   1.676
 2836SOL     OW 9406   0.187   6.669   2.352
 2836SOL    HW1 9407   0.227   6.697   2.264
 2836SOL    HW2 9408   0.261   6.648   2.416
 2837SOL     OW 9409   4.439   5.030   2.394
 2837SOL    HW1 9410   4.343   5.011   2.416
 2837SOL    HW2 9411   4.495   4.953   2.423
 2838SOL     OW 9412   3.354   3.693   0.599
 2838SOL    HW1 9413   3.377   3.596   0.611
 2838SOL    HW2 9414   3.431   3.740   0.556
 2839SOL     OW 9415   6.681   2.603   3.003
 2839SOL    HW1 9416   6.672   2.509   2.970
 2839SOL    HW2 9417   6.774   2.636   2.987
 2840SOL     OW 9418   1.219   0.449   3.007
 2840SOL    HW1 9419   1.297   0.444   2.944
 2840SOL    HW2 9420   1.244   0.407   3.094
 2841SOL     OW 9421   6.948   1.325   6.124
 2841SOL    HW1 9422   6.981   1.343   6.217
 2841SOL    HW2 9423   6.849   1.313   6.126
 2842SOL     OW 9424   0.385   4.251   3.650
 2842SOL    HW1 9425   0.434   4.292   3.573
 2842SOL    HW2 9426   0.443   4.182   3.693
 2843SOL     OW 9427   2.196   2.582   2.640
 2843SOL    HW1 9428   2.100   2.560   2.657
 2843SOL    HW2 9429   2.229   2.644   2.711
 2844SOL     OW 9430   6.813   5.408   6.698
 2844SOL    HW1 9431   6.897   5.356   6.683
 2844SOL    HW2 9432   6.756   5.404   6.616
 2845SOL     OW 9433   5.779   3.411   1.786
 2845SOL    HW1 9434   5.775   3.353   1.705
 2845SOL    HW2 9435   5.781   3.354   1.869
 2846SOL     OW 9436   4.362   1.252   0.189
 2846SOL    HW1 9437   4.301   1.202   0.127
 2846SOL    HW2 9438   4.322   1.342   0.209
 2847SOL     OW 9439   5.343   4.123   3.563
 2847SOL    HW1 9440   5.310   4.197   3.505
 2847SOL    HW2 9441   5.441   4.112   3.550
 2848SOL     OW 9442   1.937   2.989   5.214
 2848SOL    HW1 9443   2.029   2.965   5.244
 2848SOL    HW2 9444   1.942   3.064   5.149
 2849SOL     OW 9445   4.234   0.176   0.632
 2849SOL    HW1 9446   4.267   0.083   0.648
 2849SOL    HW2 9447   4.311   0.236   0.610
 2850SOL     OW 9448   1.847   0.007   2.647
 2850SOL    HW1 9449   1.823   0.043   2.557
 2850SOL    HW2 9450   1.901   6.945   2.636
 2851SOL     OW 9451   5.712   1.671   5.808
 2851SOL    HW1 9452   5.793   1.729   5.801
 2851SOL    HW2 9453   5.717   1.616   5.891
 2852SOL     OW 9454   6.507   3.646   6.881
 2852SOL    HW1 9455   6.572   3.570   6.888
 2852SOL    HW2 9456   6.454   3.637   6.797
 2853SOL     OW 9457   2.224   1.015   6.828
 2853SOL    HW1 9458   2.166   1.072   6.886
 2853SOL    HW2 9459   2.256   0.936   6.880
 2854SOL     OW 9460   5.005   0.534   5.056
 2854SOL    HW1 9461   4.968   0.457   5.108
 2854SOL    HW2 9462   4.968   0.620   5.092
 2855SOL     OW 9463   1.883   1.954   6.033
 2855SOL    HW1 9464   1.971   1.955   5.984
 2855SOL    HW2 9465   1.844   2.046   6.031
 2856SOL     OW 9466   0.349   3.527   5.647
 2856SOL    HW1 9467   0.371   3.547   5.743
 2856SOL    HW2 9468   0.276   3.588   5.616
 2857SOL     OW 9469   1.934   3.111   1.966
 2857SOL    HW1 9470   1.842   3.075   1.974
 2857SOL    HW2 9471   1.975   3.078   1.880
 2858SOL     OW 9472   4.805   4.299   1.972
 2858SOL    HW1 9473   4.813   4.212   1.922
 2858SOL    HW2 9474   4.716   4.340   1.952
 2859SOL     OW 9475   5.395   0.793   6.796
 2859SOL    HW1 9476   5.456   0.871   6.788
 2859SOL    HW2 9477   5.445   0.717   6.839
 2860SOL     OW 9478   2.299   2.352   1.875
 2860SOL    HW1 9479   2.364   2.416   1.916
 2860SOL    HW2 9480   2.349   2.273   1.837
 2861SOL     OW 9481   3.738   5.186   5.651
 2861SOL    HW1 9482   3.784   5.157   5.567
 2861SOL    HW2 9483   3.640   5.167   5.643
 2862SOL     OW 9484   5.180   1.922   2.461
 2862SOL    HW1 9485   5.188   2.002   2.402
 2862SOL    HW2 9486   5.135   1.848   2.411
 2863SOL     OW 9487   4.400   1.525   6.850
 2863SOL    HW1 9488   4.494   1.491   6.847
 2863SOL    HW2 9489   4.369   1.545   6.758
 2864SOL     OW 9490   4.160   1.532   2.014
 2864SOL    HW1 9491   4.135   1.436   2.029
 2864SOL    HW2 9492   4.078   1.587   2.004
 2865SOL     OW 9493   3.747   6.094   5.831
 2865SOL    HW1 9494   3.670   6.077   5.893
 2865SOL    HW2 9495   3.712   6.125   5.742
 2866SOL     OW 9496   6.676   5.397   6.429
 2866SOL    HW1 9497   6.744   5.470   6.422
 2866SOL    HW2 9498   6.675   5.343   6.345
 2867SOL     OW 9499   0.109   6.162   3.426
 2867SOL    HW1 9500   0.125   6.091   3.359
 2867SOL    HW2 9501   0.037   6.223   3.394
 2868SOL     OW 9502   1.646   1.184   5.422
 2868SOL    HW1 9503   1.666   1.138   5.509
 2868SOL    HW2 9504   1.598   1.269   5.440
 2869SOL     OW 9505   6.876   1.132   3.460
 2869SOL    HW1 9506   6.788   1.124   3.506
 2869SOL    HW2 9507   6.868   1.192   3.381
 2870SOL     OW 9508   0.460   1.389   5.027
 2870SOL    HW1 9509   0.548   1.343   5.043
 2870SOL    HW2 9510   0.477   1.480   4.990
 2871SOL     OW 9511   6.993   1.393   6.402
 2871SOL    HW1 9512   7.015   1.307   6.448
 2871SOL    HW2 9513   6.922   1.441   6.453
 2872SOL     OW 9514   2.481   2.369   2.148
 2872SOL    HW1 9515   2.451   2.414   2.232
 2872SOL    HW2 9516   2.482   2.270   2.162
 2873SOL     OW 9517   6.713   5.824   2.886
 2873SOL    HW1 9518   6.777   5.891   2.923
 2873SOL    HW2 9519   6.737   5.733   2.920
 2874SOL     OW 9520   5.071   0.325   3.504
 2874SOL    HW1 9521   5.048   0.422   3.503
 2874SOL    HW2 9522   5.009   0.276   3.566
 2875SOL     OW 9523   5.066   0.719   1.207
 2875SOL    HW1 9524   5.161   0.694   1.191
 2875SOL    HW2 9525   5.054   0.744   1.303
 2876SOL     OW 9526   2.030   7.001   1.982
 2876SOL    HW1 9527   2.084   0.055   2.019
 2876SOL    HW2 9528   1.935   0.008   1.971
 2877SOL     OW 9529   2.439   1.889   5.965
 2877SOL    HW1 9530   2.484   1.972   5.932
 2877SOL    HW2 9531   2.448   1.817   5.896
 2878SOL     OW 9532   3.727   4.385   5.296
 2878SOL    HW1 9533   3.653   4.325   5.267
 2878SOL    HW2 9534   3.811   4.332   5.307
 2879SOL     OW 9535   5.287   5.160   0.289
 2879SOL    HW1 9536   5.230   5.187   0.212
 2879SOL    HW2 9537   5.248   5.194   0.374
 2880SOL     OW 9538   0.066   0.786   2.400
 2880SOL    HW1 9539   0.006   0.707   2.412
 2880SOL    HW2 9540   0.013   0.865   2.370
 2881SOL     OW 9541   4.646   5.560   6.540
 2881SOL    HW1 9542   4.565   5.576   6.484
 2881SOL    HW2 9543   4.660   5.638   6.601
 2882SOL     OW 9544   7.012   5.646   2.473
 2882SOL    HW1 9545   6.970   5.568   2.426
 2882SOL    HW2 9546   0.047   5.614   2.548
 2883SOL     OW 9547   6.026   0.253   3.073
 2883SOL    HW1 9548   6.058   0.165   3.038
 2883SOL    HW2 9549   5.950   0.286   3.017
 2884SOL     OW 9550   1.326   0.022   2.884
 2884SOL    HW1 9551   1.245   6.985   2.882
 2884SOL    HW2 9552   1.314   0.092   2.954
 2885SOL     OW 9553   1.546   3.837   3.586
 2885SOL    HW1 9554   1.577   3.932   3.595
 2885SOL    HW2 9555   1.621   3.775   3.608
 2886SOL     OW 9556   0.907   3.703   5.994
 2886SOL    HW1 9557   0.875   3.727   6.086
 2886SOL    HW2 9558   1.005   3.721   5.986
 2887SOL     OW 9559   0.609   1.021   5.596
 2887SOL    HW1 9560   0.656   1.087   5.654
 2887SOL    HW2 9561   0.532   0.982   5.646
 2888SOL     OW 9562   6.958   4.258   6.579
 2888SOL    HW1 9563   7.008   4.324   6.522
 2888SOL    HW2 9564   6.882   4.304   6.624
 2889SOL     OW 9565   2.705   6.359   2.614
 2889SOL    HW1 9566   2.609   6.379   2.592
 2889SOL    HW2 9567   2.758   6.353   2.529
 2890SOL     OW 9568   1.538   6.625   0.123
 2890SOL    HW1 9569   1.523   6.583   0.033
 2890SOL    HW2 9570   1.459   6.609   0.181
 2891SOL     OW 9571   1.165   4.860   3.445
 2891SOL    HW1 9572   1.223   4.868   3.364
 2891SOL    HW2 9573   1.163   4.947   3.494
 2892SOL     OW 9574   5.742   3.412   0.410
 2892SOL    HW1 9575   5.651   3.449   0.431
 2892SOL    HW2 9576   5.810   3.484   0.420
 2893SOL     OW 9577   6.532   5.324   4.491
 2893SOL    HW1 9578   6.457   5.283   4.440
 2893SOL    HW2 9579   6.571   5.399   4.438
 2894SOL     OW 9580   0.975   3.754   2.050
 2894SOL    HW1 9581   0.893   3.706   2.082
 2894SOL    HW2 9582   1.056   3.698   2.069
 2895SOL     OW 9583   5.314   2.471   5.746
 2895SOL    HW1 9584   5.294   2.390   5.691
 2895SOL    HW2 9585   5.264   2.550   5.710
 2896SOL     OW 9586   4.640   5.697   5.260
 2896SOL    HW1 9587   4.606   5.707   5.354
 2896SOL    HW2 9588   4.683   5.782   5.232
 2897SOL     OW 9589   4.014   5.058   3.315
 2897SOL    HW1 9590   3.970   5.070   3.404
 2897SOL    HW2 9591   4.042   4.963   3.305
 2898SOL     OW 9592   4.518   4.729   4.567
 2898SOL    HW1 9593   4.490   4.796   4.498
 2898SOL    HW2 9594   4.469   4.748   4.653
 2899SOL     OW 9595   0.922   1.680   7.021
 2899SOL    HW1 9596   0.918   1.747   6.947
 2899SOL    HW2 9597   1.000   1.619   7.006
 2900SOL     OW 9598   1.794   3.325   5.955
 2900SOL    HW1 9599   1.733   3.317   5.875
 2900SOL    HW2 9600   1.877   3.374   5.928
 2901SOL     OW 9601   3.016   5.414   3.241
 2901SOL    HW1 9602   3.016   5.314   3.252
 2901SOL    HW2 9603   3.012   5.458   3.330
 2902SOL     OW 9604   5.593   5.840   3.145
 2902SOL    HW1 9605   5.531   5.819   3.070
 2902SOL    HW2 9606   5.575   5.933   3.178
 2903SOL     OW 9607   3.202   0.346   0.581
 2903SOL    HW1 9608   3.107   0.341   0.553
 2903SOL    HW2 9609   3.213   0.414   0.653
 2904SOL     OW 9610   2.400   4.740   4.400
 2904SOL    HW1 9611   2.490   4.767   4.367
 2904SOL    HW2 9612   2.407   4.654   4.451
 2905SOL     OW 9613   1.347   2.153   4.713
 2905SOL    HW1 9614   1.270   2.212   4.688
 2905SOL    HW2 9615   1.410   2.204   4.771
 2906SOL     OW 9616   4.499   5.343   2.104
 2906SOL    HW1 9617   4.591   5.335   2.066
 2906SOL    HW2 9618   4.454   5.254   2.104
 2907SOL     OW 9619   0.941   1.013   3.125
 2907SOL    HW1 9620   0.849   1.000   3.089
 2907SOL    HW2 9621   0.937   1.029   3.224
 2908SOL     OW 9622   5.510   6.655   3.515
 2908SOL    HW1 9623   5.440   6.614   3.457
 2908SOL    HW2 9624   5.491   6.632   3.611
 2909SOL     OW 9625   1.653   5.816   3.739
 2909SOL    HW1 9626   1.629   5.720   3.756
 2909SOL    HW2 9627   1.632   5.869   3.821
 2910SOL     OW 9628   4.784   0.762   4.503
 2910SOL    HW1 9629   4.736   0.762   4.415
 2910SOL    HW2 9630   4.722   0.728   4.574
 2911SOL     OW 9631   0.948   5.671   3.534
 2911SOL    HW1 9632   0.852   5.666   3.509
 2911SOL    HW2 9633   0.995   5.737   3.474
 2912SOL     OW 9634   5.418   0.290   6.472
 2912SOL    HW1 9635   5.349   0.251   6.412
 2912SOL    HW2 9636   5.382   0.296   6.565
 2913SOL     OW 9637   3.009   5.098   2.172
 2913SOL    HW1 9638   2.921   5.061   2.200
 2913SOL    HW2 9639   3.051   5.146   2.249
 2914SOL     OW 9640   6.572   6.125   6.430
 2914SOL    HW1 9641   6.624   6.210   6.441
 2914SOL    HW2 9642   6.616   6.069   6.360
 2915SOL     OW 9643   4.356   1.876   3.785
 2915SOL    HW1 9644   4.444   1.902   3.744
 2915SOL    HW2 9645   4.359   1.779   3.810
 2916SOL     OW 9646   0.593   6.580   0.940
 2916SOL    HW1 9647   0.575   6.549   0.847
 2916SOL    HW2 9648   0.691   6.595   0.952
 2917SOL     OW 9649   2.638   0.756   3.391
 2917SOL    HW1 9650   2.547   0.727   3.419
 2917SOL    HW2 9651   2.650   0.854   3.409
 2918SOL     OW 9652   5.939   4.652   4.912
 2918SOL    HW1 9653   5.886   4.572   4.882
 2918SOL    HW2 9654   5.957   4.646   5.010
 2919SOL     OW 9655   5.755   0.994   2.714
 2919SOL    HW1 9656   5.797   0.924   2.772
 2919SOL    HW2 9657   5.754   0.962   2.619
 2920SOL     OW 9658   2.940   1.545   1.409
 2920SOL    HW1 9659   3.025   1.512   1.450
 2920SOL    HW2 9660   2.864   1.525   1.470
 2921SOL     OW 9661   0.693   0.277   4.740
 2921SOL    HW1 9662   0.729   0.213   4.808
 2921SOL    HW2 9663   0.668   0.226   4.657
 2922SOL     OW 9664   4.588   1.018   0.986
 2922SOL    HW1 9665   4.507   1.030   0.930
 2922SOL    HW2 9666   4.670   1.032   0.930
 2923SOL     OW 9667   6.341   5.122   2.503
 2923SOL    HW1 9668   6.377   5.171   2.583
 2923SOL    HW2 9669   6.244   5.142   2.493
 2924SOL     OW 9670   6.856   2.213   5.905
 2924SOL    HW1 9671   6.945   2.173   5.887
 2924SOL    HW2 9672   6.866   2.312   5.918
 2925SOL     OW 9673   5.063   0.836   2.325
 2925SOL    HW1 9674   5.130   0.843   2.251
 2925SOL    HW2 9675   4.979   0.883   2.298
 2926SOL     OW 9676   6.845   1.912   4.015
 2926SOL    HW1 9677   6.925   1.968   3.995
 2926SOL    HW2 9678   6.859   1.863   4.102
 2927SOL     OW 9679   1.606   4.004   1.082
 2927SOL    HW1 9680   1.565   3.919   1.112
 2927SOL    HW2 9681   1.699   3.986   1.049
 2928SOL     OW 9682   0.038   1.144   6.514
 2928SOL    HW1 9683   0.118   1.131   6.455
 2928SOL    HW2 9684   0.008   1.055   6.549
 2929SOL     OW 9685   0.468   2.274   0.059
 2929SOL    HW1 9686   0.551   2.234   0.097
 2929SOL    HW2 9687   0.493   2.352   0.001
 2930SOL     OW 9688   4.877   0.599   4.816
 2930SOL    HW1 9689   4.913   0.573   4.906
 2930SOL    HW2 9690   4.952   0.604   4.750
 2931SOL     OW 9691   5.411   4.865   6.817
 2931SOL    HW1 9692   5.439   4.850   6.912
 2931SOL    HW2 9693   5.458   4.801   6.757
 2932SOL     OW 9694   0.911   5.378   1.795
 2932SOL    HW1 9695   0.977   5.330   1.854
 2932SOL    HW2 9696   0.910   5.475   1.819
 2933SOL     OW 9697   0.203   5.415   3.401
 2933SOL    HW1 9698   0.199   5.325   3.445
 2933SOL    HW2 9699   0.290   5.425   3.353
 2934SOL     OW 9700   4.567   1.772   0.421
 2934SOL    HW1 9701   4.562   1.673   0.408
 2934SOL    HW2 9702   4.633   1.793   0.493
 2935SOL     OW 9703   6.468   3.246   6.874
 2935SOL    HW1 9704   6.412   3.286   6.947
 2935SOL    HW2 9705   6.456   3.298   6.790
 2936SOL     OW 9706   3.996   6.762   0.672
 2936SOL    HW1 9707   3.970   6.856   0.695
 2936SOL    HW2 9708   3.917   6.714   0.634
 2937SOL     OW 9709   5.074   4.592   0.850
 2937SOL    HW1 9710   5.158   4.540   0.866
 2937SOL    HW2 9711   5.000   4.553   0.904
 2938SOL     OW 9712   4.662   5.151   6.207
 2938SOL    HW1 9713   4.621   5.171   6.296
 2938SOL    HW2 9714   4.730   5.079   6.217
 2939SOL     OW 9715   1.728   0.820   2.535
 2939SOL    HW1 9716   1.765   0.733   2.567
 2939SOL    HW2 9717   1.662   0.855   2.602
 2940SOL     OW 9718   5.554   4.849   5.981
 2940SOL    HW1 9719   5.616   4.924   5.957
 2940SOL    HW2 9720   5.604   4.781   6.035
 2941SOL     OW 9721   1.811   1.978   4.434
 2941SOL    HW1 9722   1.787   2.072   4.458
 2941SOL    HW2 9723   1.731   1.932   4.397
 2942SOL     OW 9724   2.427   2.293   0.411
 2942SOL    HW1 9725   2.464   2.384   0.424
 2942SOL    HW2 9726   2.361   2.272   0.483
 2943SOL     OW 9727   4.607   4.283   3.608
 2943SOL    HW1 9728   4.618   4.258   3.512
 2943SOL    HW2 9729   4.549   4.364   3.615
 2944SOL     OW 9730   2.923   6.140   4.310
 2944SOL    HW1 9731   2.879   6.103   4.228
 2944SOL    HW2 9732   2.914   6.240   4.311
 2945SOL     OW 9733   3.002   3.766   3.653
 2945SOL    HW1 9734   3.013   3.836   3.582
 2945SOL    HW2 9735   3.054   3.685   3.627
 2946SOL     OW 9736   0.860   4.554   6.123
 2946SOL    HW1 9737   0.949   4.515   6.098
 2946SOL    HW2 9738   0.871   4.615   6.201
 2947SOL     OW 9739   0.121   3.682   0.994
 2947SOL    HW1 9740   0.131   3.672   1.093
 2947SOL    HW2 9741   0.172   3.609   0.948
 2948SOL     OW 9742   0.850   4.505   5.204
 2948SOL    HW1 9743   0.879   4.496   5.300
 2948SOL    HW2 9744   0.842   4.601   5.180
 2949SOL     OW 9745   2.523   5.654   0.659
 2949SOL    HW1 9746   2.425   5.643   0.674
 2949SOL    HW2 9747   2.560   5.570   0.618
 2950SOL     OW 9748   5.199   4.808   4.161
 2950SOL    HW1 9749   5.234   4.842   4.249
 2950SOL    HW2 9750   5.270   4.814   4.092
 2951SOL     OW 9751   6.164   0.797   0.678
 2951SOL    HW1 9752   6.114   0.806   0.764
 2951SOL    HW2 9753   6.170   0.886   0.633
 2952SOL     OW 9754   6.979   4.476   5.278
 2952SOL    HW1 9755   6.909   4.404   5.280
 2952SOL    HW2 9756   6.935   4.566   5.277
 2953SOL     OW 9757   4.978   3.373   2.311
 2953SOL    HW1 9758   4.923   3.350   2.230
 2953SOL    HW2 9759   5.073   3.344   2.296
 2954SOL     OW 9760   0.878   5.643   1.913
 2954SOL    HW1 9761   0.874   5.733   1.957
 2954SOL    HW2 9762   0.786   5.615   1.886
 2955SOL     OW 9763   0.946   4.018   2.036
 2955SOL    HW1 9764   0.958   3.919   2.032
 2955SOL    HW2 9765   1.035   4.062   2.033
 2956SOL     OW 9766   5.272   5.917   3.301
 2956SOL    HW1 9767   5.207   5.992   3.287
 2956SOL    HW2 9768   5.226   5.841   3.348
 2957SOL     OW 9769   6.206   3.575   2.082
 2957SOL    HW1 9770   6.117   3.619   2.095
 2957SOL    HW2 9771   6.211   3.536   1.990
 2958SOL     OW 9772   2.708   4.678   4.134
 2958SOL    HW1 9773   2.640   4.615   4.098
 2958SOL    HW2 9774   2.711   4.670   4.234
 2959SOL     OW 9775   4.658   3.919   0.349
 2959SOL    HW1 9776   4.623   4.008   0.377
 2959SOL    HW2 9777   4.630   3.849   0.414
 2960SOL     OW 9778   3.383   0.881   6.883
 2960SOL    HW1 9779   3.443   0.815   6.839
 2960SOL    HW2 9780   3.418   0.973   6.867
 2961SOL     OW 9781   5.165   3.499   2.579
 2961SOL    HW1 9782   5.100   3.572   2.600
 2961SOL    HW2 9783   5.236   3.534   2.518
 2962SOL     OW 9784   5.127   6.870   3.058
 2962SOL    HW1 9785   5.028   6.861   3.069
 2962SOL    HW2 9786   5.174   6.826   3.134
 2963SOL     OW 9787   2.361   1.056   6.169
 2963SOL    HW1 9788   2.392   0.985   6.106
 2963SOL    HW2 9789   2.310   1.014   6.244
 2964SOL     OW 9790   0.412   0.110   3.533
 2964SOL    HW1 9791   0.465   0.194   3.518
 2964SOL    HW2 9792   0.448   0.061   3.612
 2965SOL     OW 9793   6.964   1.404   4.014
 2965SOL    HW1 9794   6.997   1.491   3.978
 2965SOL    HW2 9795   6.943   1.413   4.111
 2966SOL     OW 9796   4.860   5.859   3.461
 2966SOL    HW1 9797   4.845   5.842   3.558
 2966SOL    HW2 9798   4.772   5.869   3.415
 2967SOL     OW 9799   6.873   0.741   4.891
 2967SOL    HW1 9800   6.919   0.682   4.957
 2967SOL    HW2 9801   6.826   0.685   4.823
 2968SOL     OW 9802   1.139   2.945   6.510
 2968SOL    HW1 9803   1.097   2.953   6.601
 2968SOL    HW2 9804   1.232   2.910   6.520
 2969SOL     OW 9805   5.009   1.551   4.008
 2969SOL    HW1 9806   5.039   1.558   4.103
 2969SOL    HW2 9807   5.089   1.537   3.949
 2970SOL     OW 9808   1.890   4.021   6.083
 2970SOL    HW1 9809   1.904   4.092   6.151
 2970SOL    HW2 9810   1.916   3.932   6.121
 2971SOL     OW 9811   4.993   4.391   0.338
 2971SOL    HW1 9812   4.913   4.449   0.318
 2971SOL    HW2 9813   5.003   4.381   0.437
 2972SOL     OW 9814   6.388   4.537   6.321
 2972SOL    HW1 9815   6.455   4.464   6.315
 2972SOL    HW2 9816   6.298   4.498   6.344
 2973SOL     OW 9817   5.865   6.366   2.733
 2973SOL    HW1 9818   5.911   6.292   2.685
 2973SOL    HW2 9819   5.881   6.452   2.684
 2974SOL     OW 9820   0.946   4.667   3.362
 2974SOL    HW1 9821   1.044   4.684   3.374
 2974SOL    HW2 9822   0.920   4.689   3.268
 2975SOL     OW 9823   5.535   3.297   4.225
 2975SOL    HW1 9824   5.543   3.269   4.321
 2975SOL    HW2 9825   5.451   3.351   4.212
 2976SOL     OW 9826   4.632   1.901   2.813
 2976SOL    HW1 9827   4.665   1.992   2.787
 2976SOL    HW2 9828   4.702   1.833   2.791
 2977SOL     OW 9829   2.453   6.496   2.580
 2977SOL    HW1 9830   2.361   6.463   2.558
 2977SOL    HW2 9831   2.450   6.542   2.669
 2978SOL     OW 9832   5.275   4.357   0.350
 2978SOL    HW1 9833   5.178   4.378   0.343
 2978SOL    HW2 9834   5.318   4.363   0.260
 2979SOL     OW 9835   3.575   0.689   4.184
 2979SOL    HW1 9836   3.574   0.631   4.103
 2979SOL    HW2 9837   3.577   0.632   4.266
 2980SOL     OW 9838   1.403   5.859   5.174
 2980SOL    HW1 9839   1.405   5.770   5.129
 2980SOL    HW2 9840   1.323   5.865   5.234
 2981SOL     OW 9841   2.572   1.478   5.886
 2981SOL    HW1 9842   2.657   1.506   5.842
 2981SOL    HW2 9843   2.496   1.530   5.847
 2982SOL     OW 9844   3.671   4.952   2.765
 2982SOL    HW1 9845   3.584   4.902   2.763
 2982SOL    HW2 9846   3.656   5.044   2.803
 2983SOL     OW 9847   0.365   1.454   2.780
 2983SOL    HW1 9848   0.421   1.415   2.706
 2983SOL    HW2 9849   0.422   1.468   2.861
 2984SOL     OW 9850   5.216   5.096   1.290
 2984SOL    HW1 9851   5.221   5.172   1.226
 2984SOL    HW2 9852   5.309   5.062   1.308
 2985SOL     OW 9853   1.856   3.033   5.488
 2985SOL    HW1 9854   1.862   3.019   5.389
 2985SOL    HW2 9855   1.856   2.944   5.534
 2986SOL     OW 9856   3.300   4.138   3.703
 2986SOL    HW1 9857   3.384   4.134   3.757
 2986SOL    HW2 9858   3.226   4.174   3.760
 2987SOL     OW 9859   6.857   1.407   4.268
 2987SOL    HW1 9860   6.774   1.362   4.236
 2987SOL    HW2 9861   6.878   1.376   4.361
 2988SOL     OW 9862   1.464   5.693   2.484
 2988SOL    HW1 9863   1.540   5.703   2.548
 2988SOL    HW2 9864   1.499   5.680   2.392
 2989SOL     OW 9865   6.259   5.802   6.091
 2989SOL    HW1 9866   6.325   5.863   6.046
 2989SOL    HW2 9867   6.197   5.856   6.147
 2990SOL     OW 9868   3.650   1.762   4.845
 2990SOL    HW1 9869   3.645   1.860   4.828
 2990SOL    HW2 9870   3.661   1.745   4.943
 2991SOL     OW 9871   6.627   4.004   5.256
 2991SOL    HW1 9872   6.644   4.095   5.217
 2991SOL    HW2 9873   6.700   3.982   5.321
 2992SOL     OW 9874   2.624   6.212   5.124
 2992SOL    HW1 9875   2.607   6.307   5.101
 2992SOL    HW2 9876   2.714   6.203   5.165
 2993SOL     OW 9877   0.740   4.688   1.702
 2993SOL    HW1 9878   0.835   4.718   1.698
 2993SOL    HW2 9879   0.727   4.628   1.780
 2994SOL     OW 9880   4.221   5.997   0.275
 2994SOL    HW1 9881   4.206   6.075   0.214
 2994SOL    HW2 9882   4.139   5.940   0.278
 2995SOL     OW 9883   3.055   2.186   5.867
 2995SOL    HW1 9884   2.978   2.210   5.926
 2995SOL    HW2 9885   3.074   2.088   5.875
 2996SOL     OW 9886   1.334   1.573   3.326
 2996SOL    HW1 9887   1.299   1.592   3.418
 2996SOL    HW2 9888   1.416   1.628   3.310
 2997SOL     OW 9889   6.143   0.008   3.016
 2997SOL    HW1 9890   6.222   0.060   2.983
 2997SOL    HW2 9891   6.095   6.989   2.938
 2998SOL     OW 9892   4.533   0.031   3.862
 2998SOL    HW1 9893   4.562   6.966   3.903
 2998SOL    HW2 9894   4.481   0.084   3.929
 2999SOL     OW 9895   2.542   4.917   4.956
 2999SOL    HW1 9896   2.452   4.876   4.942
 2999SOL    HW2 9897   2.576   4.895   5.047
 3000SOL     OW 9898   2.828   3.760   6.257
 3000SOL    HW1 9899   2.853   3.853   6.229
 3000SOL    HW2 9900   2.863   3.742   6.349
 3001SOL     OW 9901   5.802   0.152   6.209
 3001SOL    HW1 9902   5.786   0.207   6.291
 3001SOL    HW2 9903   5.882   0.094   6.222
 3002SOL     OW 9904   3.357   1.276   6.766
 3002SOL    HW1 9905   3.369   1.270   6.666
 3002SOL    HW2 9906   3.408   1.355   6.800
 3003SOL     OW 9907   1.687   6.933   0.625
 3003SOL    HW1 9908   1.653   6.849   0.582
 3003SOL    HW2 9909   1.629   7.010   0.599
 3004SOL     OW 9910   0.988   4.716   3.043
 3004SOL    HW1 9911   1.049   4.637   3.040
 3004SOL    HW2 9912   0.893   4.684   3.048
 3005SOL     OW 9913   2.291   1.846   0.834
 3005SOL    HW1 9914   2.324   1.893   0.752
 3005SOL    HW2 9915   2.287   1.911   0.910
 3006SOL     OW 9916   5.410   1.518   5.257
 3006SOL    HW1 9917   5.474   1.480   5.191
 3006SOL    HW2 9918   5.394   1.452   5.330
 3007SOL     OW 9919   5.162   4.406   1.203
 3007SOL    HW1 9920   5.222   4.405   1.123
 3007SOL    HW2 9921   5.215   4.385   1.285
 3008SOL     OW 9922   3.542   2.448   5.989
 3008SOL    HW1 9923   3.471   2.463   5.920
 3008SOL    HW2 9924   3.522   2.502   6.071
 3009SOL     OW 9925   0.213   1.677   2.680
 3009SOL    HW1 9926   0.270   1.598   2.701
 3009SOL    HW2 9927   0.266   1.761   2.696
 3010SOL     OW 9928   3.865   6.152   3.151
 3010SOL    HW1 9929   3.947   6.139   3.207
 3010SOL    HW2 9930   3.883   6.121   3.058
 3011SOL     OW 9931   5.819   1.333   2.136
 3011SOL    HW1 9932   5.810   1.315   2.038
 3011SOL    HW2 9933   5.748   1.398   2.164
 3012SOL     OW 9934   2.010   3.780   6.203
 3012SOL    HW1 9935   2.027   3.724   6.285
 3012SOL    HW2 9936   2.090   3.837   6.185
 3013SOL     OW 9937   5.872   5.821   4.360
 3013SOL    HW1 9938   5.830   5.899   4.406
 3013SOL    HW2 9939   5.942   5.854   4.296
 3014SOL     OW 9940   4.418   2.468   4.582
 3014SOL    HW1 9941   4.492   2.518   4.537
 3014SOL    HW2 9942   4.412   2.497   4.678
 3015SOL     OW 9943   3.114   1.666   0.409
 3015SOL    HW1 9944   3.060   1.603   0.464
 3015SOL    HW2 9945   3.100   1.760   0.441
 3016SOL     OW 9946   2.299   6.395   4.234
 3016SOL    HW1 9947   2.390   6.357   4.249
 3016SOL    HW2 9948   2.230   6.339   4.280
 3017SOL     OW 9949   6.724   4.867   2.378
 3017SOL    HW1 9950   6.792   4.803   2.415
 3017SOL    HW2 9951   6.635   4.848   2.419
 3018SOL     OW 9952   3.100   6.763   6.111
 3018SOL    HW1 9953   3.126   6.749   6.015
 3018SOL    HW2 9954   3.155   6.837   6.150
 3019SOL     OW 9955   0.963   0.182   0.102
 3019SOL    HW1 9956   1.024   0.260   0.090
 3019SOL    HW2 9957   0.943   0.169   0.199
 3020SOL     OW 9958   3.905   2.814   1.754
 3020SOL    HW1 9959   3.851   2.845   1.676
 3020SOL    HW2 9960   3.970   2.744   1.725
 3021SOL     OW 9961   3.166   0.020   6.136
 3021SOL    HW1 9962   3.109   0.051   6.059
 3021SOL    HW2 9963   3.178   0.095   6.201
 3022SOL     OW 9964   3.318   5.478   4.602
 3022SOL    HW1 9965   3.412   5.472   4.569
 3022SOL    HW2 9966   3.318   5.511   4.696
 3023SOL     OW 9967   3.489   6.862   2.895
 3023SOL    HW1 9968   3.534   6.863   2.984
 3023SOL    HW2 9969   3.446   6.774   2.880
 3024SOL     OW 9970   4.795   0.103   4.850
 3024SOL    HW1 9971   4.779   0.201   4.841
 3024SOL    HW2 9972   4.888   0.081   4.819
 3025SOL     OW 9973   2.932   7.002   0.580
 3025SOL    HW1 9974   2.901   7.004   0.485
 3025SOL    HW2 9975   2.858   0.010   0.640
 3026SOL     OW 9976   1.349   0.314   6.967
 3026SOL    HW1 9977   1.340   0.271   6.877
 3026SOL    HW2 9978   1.412   0.391   6.961
 3027SOL     OW 9979   4.119   0.617   3.032
 3027SOL    HW1 9980   4.167   0.533   3.059
 3027SOL    HW2 9981   4.182   0.678   2.984
 3028SOL     OW 9982   1.169   3.615   5.949
 3028SOL    HW1 9983   1.259   3.607   5.992
 3028SOL    HW2 9984   1.108   3.544   5.984
 3029SOL     OW 9985   6.963   2.653   5.278
 3029SOL    HW1 9986   6.983   2.570   5.329
 3029SOL    HW2 9987   6.950   2.729   5.342
 3030SOL     OW 9988   0.163   3.153   0.060
 3030SOL    HW1 9989   0.245   3.096   0.066
 3030SOL    HW2 9990   0.133   3.157   6.986
 3031SOL     OW 9991   0.395   4.020   0.309
 3031SOL    HW1 9992   0.361   3.927   0.301
 3031SOL    HW2 9993   0.416   4.041   0.404
 3032SOL     OW 9994   2.965   6.808   0.762
 3032SOL    HW1 9995   3.056   6.766   0.764
 3032SOL    HW2 9996   2.959   6.869   0.683
 3033SOL     OW 9997   5.932   1.968   1.519
 3033SOL    HW1 9998   5.850   1.919   1.488
 3033SOL    HW2 9999   5.905   2.053   1.564
 3034SOL     OW10000   2.091   5.479   2.836
 3034SOL    HW110001   1.995   5.461   2.857
 3034SOL    HW210002   2.109   5.458   2.740
 3035SOL     OW10003   0.062   3.140   6.772
 3035SOL    HW110004   7.001   3.190   6.796
 3035SOL    HW210005   0.067   3.127   6.673
 3036SOL     OW10006   2.053   1.510   6.381
 3036SOL    HW110007   2.008   1.422   6.396
 3036SOL    HW210008   2.018   1.577   6.447
 3037SOL     OW10009   6.300   6.184   5.152
 3037SOL    HW110010   6.367   6.223   5.089
 3037SOL    HW210011   6.341   6.108   5.202
 3038SOL     OW10012   5.126   6.230   5.897
 3038SOL    HW110013   5.163   6.144   5.932
 3038SOL    HW210014   5.087   6.283   5.972
 3039SOL     OW10015   6.549   3.287   0.331
 3039SOL    HW110016   6.456   3.289   0.368
 3039SOL    HW210017   6.571   3.377   0.294
 3040SOL     OW10018   3.742   4.012   5.956
 3040SOL    HW110019   3.836   4.014   5.924
 3040SOL    HW210020   3.728   4.086   6.022
 3041SOL     OW10021   1.917   2.905   4.008
 3041SOL    HW110022   1.923   2.858   3.920
 3041SOL    HW210023   1.838   2.966   4.007
 3042SOL     OW10024   4.975   5.755   2.044
 3042SOL    HW110025   4.921   5.678   2.078
 3042SOL    HW210026   5.040   5.783   2.114
 3043SOL     OW10027   2.515   4.505   1.677
 3043SOL    HW110028   2.426   4.501   1.631
 3043SOL    HW210029   2.509   4.460   1.766
 3044SOL     OW10030   3.701   4.236   5.684
 3044SOL    HW110031   3.738   4.326   5.707
 3044SOL    HW210032   3.604   4.244   5.662
 3045SOL     OW10033   4.579   0.227   3.040
 3045SOL    HW110034   4.547   0.317   3.071
 3045SOL    HW210035   4.665   0.239   2.989
 3046SOL     OW10036   2.428   0.499   6.202
 3046SOL    HW110037   2.489   0.468   6.274
 3046SOL    HW210038   2.341   0.526   6.242
 3047SOL     OW10039   6.273   0.436   2.049
 3047SOL    HW110040   6.312   0.426   2.141
 3047SOL    HW210041   6.219   0.520   2.045
 3048SOL     OW10042   3.972   2.344   1.744
 3048SOL    HW110043   3.881   2.349   1.784
 3048SOL    HW210044   3.993   2.249   1.721
 3049SOL     OW10045   1.911   6.699   2.384
 3049SOL    HW110046   1.947   6.758   2.456
 3049SOL    HW210047   1.848   6.751   2.326
 3050SOL     OW10048   3.060   1.303   1.747
 3050SOL    HW110049   3.017   1.304   1.837
 3050SOL    HW210050   3.027   1.225   1.695
 3051SOL     OW10051   2.136   4.804   6.903
 3051SOL    HW110052   2.084   4.718   6.909
 3051SOL    HW210053   2.089   4.868   6.843
 3052SOL     OW10054   4.902   6.191   1.748
 3052SOL    HW110055   4.920   6.096   1.721
 3052SOL    HW210056   4.978   6.249   1.718
 3053SOL     OW10057   6.962   2.128   0.049
 3053SOL    HW110058   6.882   2.118   7.010
 3053SOL    HW210059   0.020   2.085   0.005
 3054SOL     OW10060   6.746   1.909   0.474
 3054SOL    HW110061   6.834   1.868   0.497
 3054SOL    HW210062   6.745   1.933   0.377
 3055SOL     OW10063   5.100   0.645   4.342
 3055SOL    HW110064   5.021   0.702   4.323
 3055SOL    HW210065   5.180   0.702   4.360
 3056SOL     OW10066   6.525   0.039   5.047
 3056SOL    HW110067   6.518   6.980   5.106
 3056SOL    HW210068   6.434   0.072   5.023
 3057SOL     OW10069   4.425   6.299   2.474
 3057SOL    HW110070   4.482   6.228   2.433
 3057SOL    HW210071   4.396   6.269   2.565
 3058SOL     OW10072   0.291   4.335   1.964
 3058SOL    HW110073   0.255   4.273   1.895
 3058SOL    HW210074   0.391   4.326   1.968
 3059SOL     OW10075   2.729   2.082   4.245
 3059SOL    HW110076   2.794   2.026   4.296
 3059SOL    HW210077   2.685   2.147   4.307
 3060SOL     OW10078   0.877   5.554   0.140
 3060SOL    HW110079   0.823   5.491   0.197
 3060SOL    HW210080   0.960   5.581   0.190
 3061SOL     OW10081   0.276   6.590   4.801
 3061SOL    HW110082   0.239   6.538   4.724
 3061SOL    HW210083   0.269   6.688   4.781
 3062SOL     OW10084   2.195   0.613   0.867
 3062SOL    HW110085   2.267   0.545   0.885
 3062SOL    HW210086   2.156   0.598   0.777
 3063SOL     OW10087   2.518   4.808   1.921
 3063SOL    HW110088   2.615   4.805   1.898
 3063SOL    HW210089   2.465   4.817   1.836
 3064SOL     OW10090   5.496   4.383   2.314
 3064SOL    HW110091   5.535   4.391   2.405
 3064SOL    HW210092   5.543   4.311   2.263
 3065SOL     OW10093   2.019   0.863   0.457
 3065SOL    HW110094   2.087   0.857   0.530
 3065SOL    HW210095   2.039   0.942   0.399
 3066SOL     OW10096   4.718   5.616   1.112
 3066SOL    HW110097   4.690   5.698   1.162
 3066SOL    HW210098   4.801   5.635   1.060
 3067SOL     OW10099   3.059   1.654   5.268
 3067SOL    HW110100   3.102   1.684   5.182
 3067SOL    HW210101   3.013   1.732   5.310
 3068SOL     OW10102   6.494   0.192   0.646
 3068SOL    HW110103   6.427   0.203   0.720
 3068SOL    HW210104   6.586   0.198   0.683
 3069SOL     OW10105   0.034   6.024   1.860
 3069SOL    HW110106   7.006   6.016   1.773
 3069SOL    HW210107   0.078   5.937   1.881
 3070SOL     OW10108   2.710   1.302   0.151
 3070SOL    HW110109   2.730   1.257   0.064
 3070SOL    HW210110   2.796   1.330   0.195
 3071SOL     OW10111   6.147   5.794   3.436
 3071SOL    HW110112   6.205   5.768   3.359
 3071SOL    HW210113   6.080   5.862   3.405
 3072SOL     OW10114   2.210   6.147   6.849
 3072SOL    HW110115   2.310   6.150   6.850
 3072SOL    HW210116   2.180   6.066   6.799
 3073SOL     OW10117   5.807   2.921   4.183
 3073SOL    HW110118   5.875   2.852   4.207
 3073SOL    HW210119   5.850   2.994   4.131
 3074SOL     OW10120   5.515   4.192   0.743
 3074SOL    HW110121   5.510   4.157   0.650
 3074SOL    HW210122   5.557   4.123   0.803
 3075SOL     OW10123   2.881   6.135   1.716
 3075SOL    HW110124   2.872   6.148   1.815
 3075SOL    HW210125   2.969   6.170   1.685
 3076SOL     OW10126   6.535   0.291   4.156
 3076SOL    HW110127   6.497   0.216   4.210
 3076SOL    HW210128   6.635   0.290   4.163
 3077SOL     OW10129   5.468   5.257   1.430
 3077SOL    HW110130   5.456   5.188   1.501
 3077SOL    HW210131   5.469   5.348   1.472
 3078SOL     OW10132   0.133   2.811   2.808
 3078SOL    HW110133   0.173   2.902   2.804
 3078SOL    HW210134   0.204   2.744   2.830
 3079SOL     OW10135   2.328   2.256   2.918
 3079SOL    HW110136   2.383   2.322   2.867
 3079SOL    HW210137   2.374   2.167   2.917
 3080SOL     OW10138   4.785   4.661   2.536
 3080SOL    HW110139   4.875   4.626   2.509
 3080SOL    HW210140   4.741   4.597   2.599
 3081SOL     OW10141   0.721   2.921   5.001
 3081SOL    HW110142   0.665   2.939   5.082
 3081SOL    HW210143   0.815   2.903   5.029
 3082SOL     OW10144   2.645   6.409   3.990
 3082SOL    HW110145   2.665   6.408   4.088
 3082SOL    HW210146   2.546   6.403   3.977
 3083SOL     OW10147   3.404   5.989   4.201
 3083SOL    HW110148   3.372   5.903   4.161
 3083SOL    HW210149   3.330   6.031   4.254
 3084SOL     OW10150   6.754   3.910   4.936
 3084SOL    HW110151   6.677   3.938   4.880
 3084SOL    HW210152   6.753   3.810   4.947
 3085SOL     OW10153   6.200   4.741   0.426
 3085SOL    HW110154   6.109   4.714   0.396
 3085SOL    HW210155   6.199   4.759   0.524
 3086SOL     OW10156   4.737   1.573   1.285
 3086SOL    HW110157   4.760   1.620   1.371
 3086SOL    HW210158   4.706   1.639   1.218
 3087SOL     OW10159   1.038   5.408   3.629
 3087SOL    HW110160   1.009   5.501   3.605
 3087SOL    HW210161   1.003   5.384   3.719
 3088SOL     OW10162   1.904   4.773   4.889
 3088SOL    HW110163   1.821   4.718   4.900
 3088SOL    HW210164   1.978   4.716   4.856
 3089SOL     OW10165   1.854   3.342   6.257
 3089SOL    HW110166   1.770   3.291   6.278
 3089SOL    HW210167   1.847   3.382   6.166
 3090SOL     OW10168   2.458   2.170   1.736
 3090SOL    HW110169   2.501   2.117   1.663
 3090SOL    HW210170   2.521   2.243   1.765
 3091SOL     OW10171   1.465   0.222   1.468
 3091SOL    HW110172   1.553   0.233   1.515
 3091SOL    HW210173   1.470   0.264   1.377
 3092SOL     OW10174   4.641   1.538   0.715
 3092SOL    HW110175   4.622   1.450   0.671
 3092SOL    HW210176   4.560   1.596   0.711
 3093SOL     OW10177   5.438   6.541   6.277
 3093SOL    HW110178   5.430   6.504   6.185
 3093SOL    HW210179   5.410   6.471   6.343
 3094SOL     OW10180   1.975   7.003   4.397
 3094SOL    HW110181   1.970   0.038   4.315
 3094SOL    HW210182   1.914   0.020   4.467
 3095SOL     OW10183   2.420   5.178   5.307
 3095SOL    HW110184   2.464   5.182   5.397
 3095SOL    HW210185   2.487   5.152   5.238
 3096SOL     OW10186   1.573   5.732   5.424
 3096SOL    HW110187   1.525   5.734   5.336
 3096SOL    HW210188   1.517   5.778   5.493
 3097SOL     OW10189   6.005   2.577   0.411
 3097SOL    HW110190   5.991   2.637   0.332
 3097SOL    HW210191   5.932   2.509   0.415
 3098SOL     OW10192   2.109   2.847   1.760
 3098SOL    HW110193   2.145   2.812   1.674
 3098SOL    HW210194   2.022   2.894   1.743
 3099SOL     OW10195   1.051   6.977   3.855
 3099SOL    HW110196   1.050   6.940   3.948
 3099SOL    HW210197   1.120   0.027   3.848
 3100SOL     OW10198   6.884   5.634   3.855
 3100SOL    HW110199   6.838   5.668   3.936
 3100SOL    HW210200   6.826   5.649   3.775
 3101SOL     OW10201   5.731   6.650   6.846
 3101SOL    HW110202   5.714   6.571   6.906
 3101SOL    HW210203   5.668   6.724   6.870
 3102SOL     OW10204   6.770   4.880   2.082
 3102SOL    HW110205   6.759   4.866   2.180
 3102SOL    HW210206   6.852   4.935   2.065
 3103SOL     OW10207   4.333   0.797   2.364
 3103SOL    HW110208   4.345   0.876   2.304
 3103SOL    HW210209   4.400   0.727   2.340
 3104SOL     OW10210   5.162   0.901   4.715
 3104SOL    HW110211   5.068   0.926   4.695
 3104SOL    HW210212   5.176   0.803   4.697
 3105SOL     OW10213   6.093   4.425   1.174
 3105SOL    HW110214   6.065   4.507   1.126
 3105SOL    HW210215   6.042   4.346   1.138
 3106SOL     OW10216   5.693   0.913   3.356
 3106SOL    HW110217   5.715   0.817   3.375
 3106SOL    HW210218   5.642   0.951   3.433
 3107SOL     OW10219   4.521   1.462   5.087
 3107SOL    HW110220   4.618   1.439   5.089
 3107SOL    HW210221   4.477   1.415   5.011
 3108SOL     OW10222   1.706   6.350   4.074
 3108SOL    HW110223   1.698   6.273   4.138
 3108SOL    HW210224   1.682   6.320   3.982
 3109SOL     OW10225   5.881   6.180   3.114
 3109SOL    HW110226   5.869   6.222   3.204
 3109SOL    HW210227   5.965   6.214   3.073
 3110SOL     OW10228   1.106   2.638   2.181
 3110SOL    HW110229   1.021   2.649   2.128
 3110SOL    HW210230   1.145   2.728   2.200
 3111SOL     OW10231   6.338   5.411   3.429
 3111SOL    HW110232   6.426   5.441   3.392
 3111SOL    HW210233   6.327   5.444   3.522
 3112SOL     OW10234   4.550   2.659   6.999
 3112SOL    HW110235   4.582   2.732   6.938
 3112SOL    HW210236   4.491   2.596   6.949
 3113SOL     OW10237   2.674   5.636   4.067
 3113SOL    HW110238   2.650   5.653   3.972
 3113SOL    HW210239   2.750   5.695   4.094
 3114SOL     OW10240   4.508   1.923   1.357
 3114SOL    HW110241   4.533   2.011   1.318
 3114SOL    HW210242   4.436   1.881   1.302
 3115SOL     OW10243   3.652   3.970   6.360
 3115SOL    HW110244   3.720   3.902   6.385
 3115SOL    HW210245   3.697   4.056   6.337
 3116SOL     OW10246   0.439   2.932   7.020
 3116SOL    HW110247   0.531   2.964   7.001
 3116SOL    HW210248   0.372   2.987   6.970
 3117SOL     OW10249   4.054   3.460   5.205
 3117SOL    HW110250   4.114   3.381   5.195
 3117SOL    HW210251   4.032   3.497   5.114
 3118SOL     OW10252   0.845   5.306   2.227
 3118SOL    HW110253   0.754   5.283   2.193
 3118SOL    HW210254   0.874   5.238   2.294
 3119SOL     OW10255   2.358   3.519   6.300
 3119SOL    HW110256   2.455   3.542   6.290
 3119SOL    HW210257   2.336   3.441   6.242
 3120SOL     OW10258   3.563   0.339   4.926
 3120SOL    HW110259   3.473   0.298   4.945
 3120SOL    HW210260   3.562   0.435   4.952
 3121SOL     OW10261   0.349   0.604   3.665
 3121SOL    HW110262   0.363   0.691   3.619
 3121SOL    HW210263   0.335   0.619   3.763
 3122SOL     OW10264   4.479   6.447   6.352
 3122SOL    HW110265   4.404   6.386   6.327
 3122SOL    HW210266   4.501   6.506   6.274
 3123SOL     OW10267   2.408   1.598   3.403
 3123SOL    HW110268   2.374   1.609   3.309
 3123SOL    HW210269   2.402   1.685   3.451
 3124SOL     OW10270   4.338   0.167   4.611
 3124SOL    HW110271   4.425   0.136   4.651
 3124SOL    HW210272   4.272   0.092   4.615
 3125SOL     OW10273   0.217   2.385   5.226
 3125SOL    HW110274   0.264   2.297   5.217
 3125SOL    HW210275   0.140   2.388   5.162
 3126SOL     OW10276   5.523   4.346   5.214
 3126SOL    HW110277   5.570   4.315   5.296
 3126SOL    HW210278   5.425   4.334   5.225
 3127SOL     OW10279   1.395   3.491   5.583
 3127SOL    HW110280   1.466   3.506   5.652
 3127SOL    HW210281   1.432   3.511   5.493
 3128SOL     OW10282   2.606   0.264   6.083
 3128SOL    HW110283   2.616   0.364   6.079
 3128SOL    HW210284   2.588   0.236   6.177
 3129SOL     OW10285   6.251   3.709   6.664
 3129SOL    HW110286   6.238   3.806   6.687
 3129SOL    HW210287   6.162   3.666   6.650
 3130SOL     OW10288   1.942   4.192   0.896
 3130SOL    HW110289   1.979   4.174   0.804
 3130SOL    HW210290   1.977   4.280   0.929
 3131SOL     OW10291   0.600   2.962   1.442
 3131SOL    HW110292   0.659   2.968   1.523
 3131SOL    HW210293   0.551   3.049   1.430
 3132SOL     OW10294   3.773   5.988   6.352
 3132SOL    HW110295   3.721   6.057   6.403
 3132SOL    HW210296   3.718   5.905   6.342
 3133SOL     OW10297   3.721   1.687   3.789
 3133SOL    HW110298   3.771   1.662   3.872
 3133SOL    HW210299   3.718   1.608   3.728
 3134SOL     OW10300   4.699   4.146   1.776
 3134SOL    HW110301   4.608   4.179   1.800
 3134SOL    HW210302   4.702   4.047   1.784
 3135SOL     OW10303   4.499   1.141   5.504
 3135SOL    HW110304   4.414   1.118   5.551
 3135SOL    HW210305   4.558   1.060   5.499
 3136SOL     OW10306   5.188   0.929   1.002
 3136SOL    HW110307   5.207   0.980   1.087
 3136SOL    HW210308   5.094   0.946   0.974
 3137SOL     OW10309   6.526   0.405   1.911
 3137SOL    HW110310   6.440   0.427   1.956
 3137SOL    HW210311   6.508   0.354   1.826
 3138SOL     OW10312   6.043   4.560   3.643
 3138SOL    HW110313   6.002   4.562   3.551
 3138SOL    HW210314   6.003   4.633   3.698
 3139SOL     OW10315   5.251   6.237   0.701
 3139SOL    HW110316   5.195   6.284   0.770
 3139SOL    HW210317   5.257   6.294   0.619
 3140SOL     OW10318   6.404   0.095   6.983
 3140SOL    HW110319   6.403   0.032   6.906
 3140SOL    HW210320   6.371   0.048   0.044
 3141SOL     OW10321   0.608   6.669   6.562
 3141SOL    HW110322   0.668   6.682   6.484
 3141SOL    HW210323   0.517   6.641   6.530
 3142SOL     OW10324   3.818   6.526   1.996
 3142SOL    HW110325   3.795   6.604   2.055
 3142SOL    HW210326   3.738   6.467   1.985
 3143SOL     OW10327   6.612   1.915   6.806
 3143SOL    HW110328   6.514   1.931   6.792
 3143SOL    HW210329   6.647   1.855   6.733
 3144SOL     OW10330   3.829   4.143   1.354
 3144SOL    HW110331   3.869   4.086   1.425
 3144SOL    HW210332   3.902   4.189   1.303
 3145SOL     OW10333   2.200   5.945   0.757
 3145SOL    HW110334   2.107   5.913   0.770
 3145SOL    HW210335   2.255   5.922   0.837
 3146SOL     OW10336   1.602   0.451   3.678
 3146SOL    HW110337   1.633   0.529   3.624
 3146SOL    HW210338   1.680   0.408   3.723
 3147SOL     OW10339   3.312   5.954   1.293
 3147SOL    HW110340   3.245   5.902   1.241
 3147SOL    HW210341   3.315   5.919   1.387
 3148SOL     OW10342   5.958   5.739   4.843
 3148SOL    HW110343   5.888   5.763   4.910
 3148SOL    HW210344   5.997   5.823   4.804
 3149SOL     OW10345   2.430   1.204   5.448
 3149SOL    HW110346   2.454   1.118   5.404
 3149SOL    HW210347   2.461   1.280   5.391
 3150SOL     OW10348   5.960   5.494   4.394
 3150SOL    HW110349   5.926   5.547   4.472
 3150SOL    HW210350   5.900   5.416   4.379
 3151SOL     OW10351   5.794   1.597   5.205
 3151SOL    HW110352   5.858   1.527   5.236
 3151SOL    HW210353   5.726   1.556   5.144
 3152SOL     OW10354   1.317   5.436   0.415
 3152SOL    HW110355   1.339   5.514   0.474
 3152SOL    HW210356   1.349   5.352   0.458
 3153SOL     OW10357   5.711   4.604   1.070
 3153SOL    HW110358   5.757   4.574   1.153
 3153SOL    HW210359   5.707   4.528   1.005
 3154SOL     OW10360   6.562   1.415   6.401
 3154SOL    HW110361   6.473   1.436   6.359
 3154SOL    HW210362   6.551   1.408   6.500
 3155SOL     OW10363   6.362   4.922   0.300
 3155SOL    HW110364   6.307   4.857   0.354
 3155SOL    HW210365   6.302   4.993   0.263
 3156SOL     OW10366   3.189   2.985   3.486
 3156SOL    HW110367   3.172   2.916   3.416
 3156SOL    HW210368   3.257   3.050   3.453
 3157SOL     OW10369   2.575   2.170   4.741
 3157SOL    HW110370   2.606   2.251   4.789
 3157SOL    HW210371   2.640   2.145   4.670
 3158SOL     OW10372   4.579   1.125   3.589
 3158SOL    HW110373   4.625   1.208   3.556
 3158SOL    HW210374   4.534   1.079   3.512
 3159SOL     OW10375   5.713   1.745   0.077
 3159SOL    HW110376   5.802   1.707   0.102
 3159SOL    HW210377   5.655   1.672   0.039
 3160SOL     OW10378   0.203   6.368   5.869
 3160SOL    HW110379   0.138   6.357   5.944
 3160SOL    HW210380   0.275   6.300   5.876
 3161SOL     OW10381   1.855   2.493   3.396
 3161SOL    HW110382   1.871   2.398   3.423
 3161SOL    HW210383   1.937   2.547   3.413
 3162SOL     OW10384   1.549   6.869   2.386
 3162SOL    HW110385   1.512   6.777   2.374
 3162SOL    HW210386   1.515   6.908   2.472
 3163SOL     OW10387   4.825   2.405   6.083
 3163SOL    HW110388   4.841   2.308   6.099
 3163SOL    HW210389   4.834   2.424   5.985
 3164SOL     OW10390   4.493   4.969   0.820
 3164SOL    HW110391   4.474   4.872   0.808
 3164SOL    HW210392   4.421   5.011   0.876
 3165SOL     OW10393   0.262   6.046   1.073
 3165SOL    HW110394   0.290   6.132   1.030
 3165SOL    HW210395   0.212   6.067   1.158
 3166SOL     OW10396   4.288   1.982   4.583
 3166SOL    HW110397   4.279   2.081   4.592
 3166SOL    HW210398   4.329   1.944   4.665
 3167SOL     OW10399   6.370   4.431   0.897
 3167SOL    HW110400   6.346   4.340   0.931
 3167SOL    HW210401   6.287   4.487   0.891
 3168SOL     OW10402   4.425   2.096   6.612
 3168SOL    HW110403   4.436   2.103   6.712
 3168SOL    HW210404   4.378   2.011   6.590
 3169SOL     OW10405   2.125   3.673   4.391
 3169SOL    HW110406   2.152   3.744   4.455
 3169SOL    HW210407   2.150   3.583   4.428
 3170SOL     OW10408   4.075   0.418   1.713
 3170SOL    HW110409   3.984   0.409   1.753
 3170SOL    HW210410   4.066   0.434   1.615
 3171SOL     OW10411   0.333   0.416   1.276
 3171SOL    HW110412   0.407   0.370   1.227
 3171SOL    HW210413   0.315   0.505   1.234
 3172SOL     OW10414   6.626   5.006   0.357
 3172SOL    HW110415   6.532   4.972   0.362
 3172SOL    HW210416   6.676   4.981   0.439
 3173SOL     OW10417   2.873   2.247   0.384
 3173SOL    HW110418   2.795   2.208   0.335
 3173SOL    HW210419   2.849   2.338   0.417
 3174SOL     OW10420   3.162   2.220   6.962
 3174SOL    HW110421   3.076   2.203   6.914
 3174SOL    HW210422   3.142   2.243   0.036
 3175SOL     OW10423   6.788   0.777   0.968
 3175SOL    HW110424   6.814   0.698   0.913
 3175SOL    HW210425   6.867   0.808   1.021
 3176SOL     OW10426   1.514   4.906   4.873
 3176SOL    HW110427   1.436   4.940   4.821
 3176SOL    HW210428   1.595   4.903   4.814
 3177SOL     OW10429   4.880   3.993   4.101
 3177SOL    HW110430   4.979   3.994   4.109
 3177SOL    HW210431   4.852   3.913   4.047
 3178SOL     OW10432   6.193   2.274   0.442
 3178SOL    HW110433   6.126   2.217   0.490
 3178SOL    HW210434   6.253   2.317   0.509
 3179SOL     OW10435   1.172   3.317   1.950
 3179SOL    HW110436   1.107   3.366   2.008
 3179SOL    HW210437   1.238   3.381   1.911
 3180SOL     OW10438   4.585   1.173   0.056
 3180SOL    HW110439   4.503   1.208   0.102
 3180SOL    HW210440   4.664   1.184   0.116
 3181SOL     OW10441   6.835   1.467   2.802
 3181SOL    HW110442   6.902   1.507   2.739
 3181SOL    HW210443   6.881   1.445   2.888
 3182SOL     OW10444   3.034   0.722   5.285
 3182SOL    HW110445   2.953   0.747   5.338
 3182SOL    HW210446   3.110   0.780   5.313
 3183SOL     OW10447   4.025   4.261   1.611
 3183SOL    HW110448   3.941   4.230   1.655
 3183SOL    HW210449   4.037   4.359   1.628
 3184SOL     OW10450   0.799   2.403   2.323
 3184SOL    HW110451   0.830   2.366   2.235
 3184SOL    HW210452   0.818   2.501   2.326
 3185SOL     OW10453   6.180   5.669   7.004
 3185SOL    HW110454   6.086   5.665   6.970
 3185SOL    HW210455   6.228   5.586   6.976
 3186SOL     OW10456   3.713   1.500   1.949
 3186SOL    HW110457   3.656   1.460   2.020
 3186SOL    HW210458   3.771   1.430   1.908
 3187SOL     OW10459   4.487   4.052   0.121
 3187SOL    HW110460   4.529   4.053   0.212
 3187SOL    HW210461   4.550   4.012   0.055
 3188SOL     OW10462   2.486   0.717   4.603
 3188SOL    HW110463   2.458   0.746   4.695
 3188SOL    HW210464   2.479   0.618   4.595
 3189SOL     OW10465   1.480   1.581   1.804
 3189SOL    HW110466   1.537   1.530   1.868
 3189SOL    HW210467   1.537   1.622   1.733
 3190SOL     OW10468   6.964   6.369   0.678
 3190SOL    HW110469   7.020   6.291   0.704
 3190SOL    HW210470   7.004   6.414   0.598
 3191SOL     OW10471   5.196   0.338   1.307
 3191SOL    HW110472   5.175   0.394   1.227
 3191SOL    HW210473   5.295   0.334   1.320
 3192SOL     OW10474   0.206   2.565   1.337
 3192SOL    HW110475   0.247   2.502   1.270
 3192SOL    HW210476   0.268   2.642   1.353
 3193SOL     OW10477   3.969   1.403   6.774
 3193SOL    HW110478   4.050   1.365   6.729
 3193SOL    HW210479   3.945   1.490   6.731
 3194SOL     OW10480   1.537   2.793   6.298
 3194SOL    HW110481   1.541   2.698   6.269
 3194SOL    HW210482   1.627   2.822   6.330
 3195SOL     OW10483   2.447   2.037   3.334
 3195SOL    HW110484   2.537   2.066   3.367
 3195SOL    HW210485   2.446   2.038   3.234
 3196SOL     OW10486   0.835   1.393   5.609
 3196SOL    HW110487   0.820   1.484   5.569
 3196SOL    HW210488   0.806   1.323   5.543
 3197SOL     OW10489   2.201   6.118   3.127
 3197SOL    HW110490   2.271   6.149   3.191
 3197SOL    HW210491   2.121   6.178   3.134
 3198SOL     OW10492   5.877   2.237   5.458
 3198SOL    HW110493   5.933   2.298   5.402
 3198SOL    HW210494   5.781   2.249   5.435
 3199SOL     OW10495   4.751   2.857   2.271
 3199SOL    HW110496   4.750   2.779   2.208
 3199SOL    HW210497   4.745   2.942   2.219
 3200SOL     OW10498   0.152   2.757   2.108
 3200SOL    HW110499   0.111   2.690   2.046
 3200SOL    HW210500   0.080   2.797   2.165
 3201SOL     OW10501   5.253   4.876   4.438
 3201SOL    HW110502   5.208   4.850   4.524
 3201SOL    HW210503   5.228   4.970   4.415
 3202SOL     OW10504   1.005   4.639   1.990
 3202SOL    HW110505   0.979   4.686   2.074
 3202SOL    HW210506   1.104   4.637   1.982
 3203SOL     OW10507   6.422   2.256   6.707
 3203SOL    HW110508   6.497   2.262   6.640
 3203SOL    HW210509   6.436   2.325   6.778
 3204SOL     OW10510   4.621   6.393   1.562
 3204SOL    HW110511   4.652   6.429   1.650
 3204SOL    HW210512   4.572   6.307   1.576
 3205SOL     OW10513   0.042   3.285   6.257
 3205SOL    HW110514   0.003   3.374   6.231
 3205SOL    HW210515   0.137   3.297   6.284
 3206SOL     OW10516   0.576   6.864   5.810
 3206SOL    HW110517   0.562   6.838   5.715
 3206SOL    HW210518   0.495   6.912   5.844
 3207SOL     OW10519   1.348   0.821   5.537
 3207SOL    HW110520   1.268   0.762   5.546
 3207SOL    HW210521   1.320   0.917   5.537
 3208SOL     OW10522   4.949   6.765   5.329
 3208SOL    HW110523   4.960   6.858   5.363
 3208SOL    HW210524   4.934   6.703   5.406
 3209SOL     OW10525   4.188   5.367   2.993
 3209SOL    HW110526   4.202   5.333   3.086
 3209SOL    HW210527   4.101   5.334   2.958
 3210SOL     OW10528   0.817   4.211   1.330
 3210SOL    HW110529   0.908   4.171   1.339
 3210SOL    HW210530   0.769   4.206   1.418
 3211SOL     OW10531   1.713   3.557   1.059
 3211SOL    HW110532   1.782   3.611   1.106
 3211SOL    HW210533   1.754   3.472   1.026
 3212SOL     OW10534   2.655   0.727   0.838
 3212SOL    HW110535   2.708   0.651   0.800
 3212SOL    HW210536   2.706   0.769   0.914
 3213SOL     OW10537   0.200   6.178   2.180
 3213SOL    HW110538   0.107   6.140   2.181
 3213SOL    HW210539   0.202   6.260   2.122
 3214SOL     OW10540   4.997   5.501   0.798
 3214SOL    HW110541   4.997   5.558   0.880
 3214SOL    HW210542   5.026   5.408   0.821
 3215SOL     OW10543   0.404   2.924   0.917
 3215SOL    HW110544   0.441   2.832   0.912
 3215SOL    HW210545   0.309   2.920   0.949
 3216SOL     OW10546   5.624   4.969   1.429
 3216SOL    HW110547   5.592   5.063   1.440
 3216SOL    HW210548   5.607   4.939   1.335
 3217SOL     OW10549   0.121   5.996   2.817
 3217SOL    HW110550   0.149   6.079   2.866
 3217SOL    HW210551   0.117   6.014   2.719
 3218SOL     OW10552   4.299   0.161   3.968
 3218SOL    HW110553   4.283   0.114   3.882
 3218SOL    HW210554   4.223   0.142   4.031
 3219SOL     OW10555   0.056   2.029   3.236
 3219SOL    HW110556   0.113   1.979   3.170
 3219SOL    HW210557   0.005   1.963   3.291
 3220SOL     OW10558   6.450   6.067   5.623
 3220SOL    HW110559   6.485   5.984   5.668
 3220SOL    HW210560   6.510   6.091   5.546
 3221SOL     OW10561   3.358   0.244   1.583
 3221SOL    HW110562   3.432   0.304   1.555
 3221SOL    HW210563   3.392   0.151   1.595
 3222SOL     OW10564   4.436   1.791   2.591
 3222SOL    HW110565   4.473   1.793   2.684
 3222SOL    HW210566   4.364   1.861   2.583
 3223SOL     OW10567   2.216   5.373   7.001
 3223SOL    HW110568   2.128   5.340   6.965
 3223SOL    HW210569   2.216   5.473   7.000
 3224SOL     OW10570   4.394   3.768   0.269
 3224SOL    HW110571   4.481   3.815   0.285
 3224SOL    HW210572   4.328   3.832   0.228
 3225SOL     OW10573   4.649   3.242   6.011
 3225SOL    HW110574   4.568   3.278   5.964
 3225SOL    HW210575   4.623   3.212   6.102
 3226SOL     OW10576   1.980   1.704   4.182
 3226SOL    HW110577   2.021   1.740   4.266
 3226SOL    HW210578   1.905   1.643   4.205
 3227SOL     OW10579   3.591   1.495   0.347
 3227SOL    HW110580   3.600   1.459   0.440
 3227SOL    HW210581   3.657   1.449   0.287
 3228SOL     OW10582   5.741   4.307   2.567
 3228SOL    HW110583   5.838   4.310   2.544
 3228SOL    HW210584   5.710   4.399   2.591
 3229SOL     OW10585   3.664   1.091   5.548
 3229SOL    HW110586   3.699   1.183   5.564
 3229SOL    HW210587   3.648   1.078   5.450
 3230SOL     OW10588   1.713   3.117   4.050
 3230SOL    HW110589   1.728   3.209   4.013
 3230SOL    HW210590   1.617   3.092   4.039
 3231SOL     OW10591   2.445   1.003   1.527
 3231SOL    HW110592   2.444   0.990   1.428
 3231SOL    HW210593   2.447   1.101   1.548
 3232SOL     OW10594   4.032   5.119   5.125
 3232SOL    HW110595   3.969   5.151   5.055
 3232SOL    HW210596   4.074   5.197   5.170
 3233SOL     OW10597   0.798   2.682   1.521
 3233SOL    HW110598   0.880   2.735   1.540
 3233SOL    HW210599   0.737   2.687   1.600
 3234SOL     OW10600   0.358   1.550   6.927
 3234SOL    HW110601   0.348   1.649   6.921
 3234SOL    HW210602   0.355   1.521   0.001
 3235SOL     OW10603   4.790   1.040   1.268
 3235SOL    HW110604   4.826   1.132   1.285
 3235SOL    HW210605   4.690   1.041   1.271
 3236SOL     OW10606   1.310   3.517   0.513
 3236SOL    HW110607   1.257   3.577   0.572
 3236SOL    HW210608   1.321   3.559   0.423
 3237SOL     OW10609   5.433   1.365   4.023
 3237SOL    HW110610   5.398   1.298   4.088
 3237SOL    HW210611   5.433   1.326   3.931
 3238SOL     OW10612   0.141   4.943   0.912
 3238SOL    HW110613   0.241   4.937   0.916
 3238SOL    HW210614   0.106   4.877   0.846
 3239SOL     OW10615   6.750   1.847   1.378
 3239SOL    HW110616   6.805   1.776   1.334
 3239SOL    HW210617   6.739   1.925   1.315
 3240SOL     OW10618   1.621   6.606   6.038
 3240SOL    HW110619   1.667   6.646   5.959
 3240SOL    HW210620   1.666   6.520   6.063
 3241SOL     OW10621   4.280   1.346   5.420
 3241SOL    HW110622   4.311   1.431   5.461
 3241SOL    HW210623   4.338   1.271   5.452
 3242SOL     OW10624   3.337   4.491   0.663
 3242SOL    HW110625   3.247   4.490   0.708
 3242SOL    HW210626   3.392   4.565   0.701
 3243SOL     OW10627   5.307   4.488   0.972
 3243SOL    HW110628   5.373   4.558   0.998
 3243SOL    HW210629   5.354   4.401   0.959
 3244SOL     OW10630   5.022   6.000   0.250
 3244SOL    HW110631   5.039   5.925   0.186
 3244SOL    HW210632   4.924   6.007   0.269
 3245SOL     OW10633   4.849   2.966   5.058
 3245SOL    HW110634   4.832   3.062   5.038
 3245SOL    HW210635   4.879   2.957   5.153
 3246SOL     OW10636   5.066   0.729   2.952
 3246SOL    HW110637   5.018   0.641   2.947
 3246SOL    HW210638   5.164   0.714   2.952
 3247SOL     OW10639   5.861   4.943   2.763
 3247SOL    HW110640   5.960   4.956   2.751
 3247SOL    HW210641   5.814   5.027   2.737
 3248SOL     OW10642   6.756   3.387   2.036
 3248SOL    HW110643   6.831   3.408   2.099
 3248SOL    HW210644   6.788   3.396   1.942
 3249SOL     OW10645   3.699   3.913   4.472
 3249SOL    HW110646   3.765   3.946   4.539
 3249SOL    HW210647   3.732   3.935   4.380
 3250SOL     OW10648   5.749   6.957   2.034
 3250SOL    HW110649   5.682   6.888   2.061
 3250SOL    HW210650   5.768   6.949   1.936
 3251SOL     OW10651   3.534   0.836   2.125
 3251SOL    HW110652   3.457   0.791   2.078
 3251SOL    HW210653   3.600   0.768   2.155
 3252SOL     OW10654   2.668   2.289   2.703
 3252SOL    HW110655   2.593   2.351   2.727
 3252SOL    HW210656   2.638   2.194   2.715
 3253SOL     OW10657   5.850   3.251   1.998
 3253SOL    HW110658   5.924   3.202   2.046
 3253SOL    HW210659   5.765   3.240   2.049
 3254SOL     OW10660   5.192   5.283   5.650
 3254SOL    HW110661   5.132   5.342   5.703
 3254SOL    HW210662   5.287   5.314   5.660
 3255SOL     OW10663   5.300   5.937   1.420
 3255SOL    HW110664   5.269   6.024   1.383
 3255SOL    HW210665   5.292   5.938   1.520
 3256SOL     OW10666   4.595   0.865   0.365
 3256SOL    HW110667   4.645   0.837   0.283
 3256SOL    HW210668   4.657   0.868   0.443
 3257SOL     OW10669   1.258   1.626   1.129
 3257SOL    HW110670   1.355   1.618   1.104
 3257SOL    HW210671   1.220   1.535   1.142
 3258SOL     OW10672   3.939   4.838   1.952
 3258SOL    HW110673   3.979   4.844   2.044
 3258SOL    HW210674   3.859   4.779   1.955
 3259SOL     OW10675   4.747   5.156   3.902
 3259SOL    HW110676   4.754   5.057   3.902
 3259SOL    HW210677   4.837   5.196   3.923
 3260SOL     OW10678   1.101   1.787   0.614
 3260SOL    HW110679   1.161   1.761   0.689
 3260SOL    HW210680   1.149   1.774   0.527
 3261SOL     OW10681   4.858   6.452   0.720
 3261SOL    HW110682   4.872   6.365   0.673
 3261SOL    HW210683   4.777   6.445   0.778
 3262SOL     OW10684   3.563   1.967   2.714
 3262SOL    HW110685   3.568   1.867   2.711
 3262SOL    HW210686   3.614   2.006   2.637
 3263SOL     OW10687   3.373   1.392   3.692
 3263SOL    HW110688   3.309   1.338   3.638
 3263SOL    HW210689   3.448   1.424   3.634
 3264SOL     OW10690   1.210   4.269   1.060
 3264SOL    HW110691   1.277   4.306   0.996
 3264SOL    HW210692   1.143   4.339   1.083
 3265SOL     OW10693   4.879   1.382   5.725
 3265SOL    HW110694   4.954   1.374   5.660
 3265SOL    HW210695   4.869   1.295   5.775
 3266SOL     OW10696   0.748   2.471   0.165
 3266SOL    HW110697   0.735   2.396   0.230
 3266SOL    HW210698   0.665   2.525   0.159
 3267SOL     OW10699   3.585   1.059   6.886
 3267SOL    HW110700   3.550   1.066   6.980
 3267SOL    HW210701   3.638   1.140   6.864
 3268SOL     OW10702   1.450   4.919   0.175
 3268SOL    HW110703   1.400   4.867   0.245
 3268SOL    HW210704   1.401   5.004   0.155
 3269SOL     OW10705   4.385   4.554   1.894
 3269SOL    HW110706   4.335   4.586   1.974
 3269SOL    HW210707   4.428   4.466   1.915
 3270SOL     OW10708   0.788   4.519   4.547
 3270SOL    HW110709   0.842   4.447   4.590
 3270SOL    HW210710   0.790   4.507   4.447
 3271SOL     OW10711   5.752   4.046   2.485
 3271SOL    HW110712   5.697   4.026   2.404
 3271SOL    HW210713   5.757   4.145   2.499
 3272SOL     OW10714   3.707   3.983   6.766
 3272SOL    HW110715   3.756   4.011   6.683
 3272SOL    HW210716   3.673   3.889   6.755
 3273SOL     OW10717   0.726   6.722   1.824
 3273SOL    HW110718   0.790   6.789   1.861
 3273SOL    HW210719   0.711   6.740   1.726
 3274SOL     OW10720   4.269   1.190   1.826
 3274SOL    HW110721   4.243   1.179   1.922
 3274SOL    HW210722   4.323   1.273   1.815
 3275SOL     OW10723   0.469   0.560   6.256
 3275SOL    HW110724   0.537   0.560   6.182
 3275SOL    HW210725   0.503   0.505   6.332
 3276SOL     OW10726   3.449   6.123   0.166
 3276SOL    HW110727   3.412   6.031   0.149
 3276SOL    HW210728   3.539   6.115   0.209
 3277SOL     OW10729   4.864   0.097   0.458
 3277SOL    HW110730   4.919   0.025   0.500
 3277SOL    HW210731   4.873   0.092   0.358
 3278SOL     OW10732   0.008   1.169   5.900
 3278SOL    HW110733   6.977   1.091   5.932
 3278SOL    HW210734   7.016   1.247   5.962
 3279SOL     OW10735   6.209   1.678   0.570
 3279SOL    HW110736   6.135   1.687   0.503
 3279SOL    HW210737   6.291   1.644   0.524
 3280SOL     OW10738   3.674   4.951   4.866
 3280SOL    HW110739   3.676   5.048   4.890
 3280SOL    HW210740   3.608   4.937   4.792
 3281SOL     OW10741   2.349   5.176   1.095
 3281SOL    HW110742   2.422   5.184   1.163
 3281SOL    HW210743   2.290   5.256   1.100
 3282SOL     OW10744   1.008   5.895   4.687
 3282SOL    HW110745   0.966   5.815   4.729
 3282SOL    HW210746   1.077   5.932   4.749
 3283SOL     OW10747   4.150   1.304   0.676
 3283SOL    HW110748   4.178   1.264   0.763
 3283SOL    HW210749   4.069   1.256   0.641
 3284SOL     OW10750   6.096   5.781   6.603
 3284SOL    HW110751   6.057   5.750   6.516
 3284SOL    HW210752   6.124   5.877   6.594
 3285SOL     OW10753   5.086   2.865   3.824
 3285SOL    HW110754   5.105   2.923   3.745
 3285SOL    HW210755   5.153   2.791   3.829
 3286SOL     OW10756   4.087   3.161   2.452
 3286SOL    HW110757   4.042   3.117   2.530
 3286SOL    HW210758   4.179   3.124   2.441
 3287SOL     OW10759   1.551   6.794   6.593
 3287SOL    HW110760   1.491   6.744   6.530
 3287SOL    HW210761   1.574   6.883   6.554
 3288SOL     OW10762   0.789   5.468   6.750
 3288SOL    HW110763   0.722   5.458   6.824
 3288SOL    HW210764   0.876   5.427   6.777
 3289SOL     OW10765   2.663   6.745   5.310
 3289SOL    HW110766   2.646   6.812   5.382
 3289SOL    HW210767   2.746   6.770   5.260
 3290SOL     OW10768   0.510   6.916   1.895
 3290SOL    HW110769   0.518   6.968   1.981
 3290SOL    HW210770   0.593   6.863   1.881
 3291SOL     OW10771   0.964   6.232   0.272
 3291SOL    HW110772   0.991   6.191   0.359
 3291SOL    HW210773   0.864   6.234   0.266
 3292SOL     OW10774   0.633   0.972   0.723
 3292SOL    HW110775   0.562   0.997   0.788
 3292SOL    HW210776   0.652   0.874   0.729
 3293SOL     OW10777   0.079   3.615   3.089
 3293SOL    HW110778   0.139   3.678   3.138
 3293SOL    HW210779   0.134   3.554   3.032
 3294SOL     OW10780   0.452   1.026   6.129
 3294SOL    HW110781   0.521   0.955   6.122
 3294SOL    HW210782   0.481   1.094   6.196
 3295SOL     OW10783   1.564   3.123   1.500
 3295SOL    HW110784   1.580   3.167   1.588
 3295SOL    HW210785   1.635   3.054   1.484
 3296SOL     OW10786   2.187   6.170   2.086
 3296SOL    HW110787   2.165   6.251   2.032
 3296SOL    HW210788   2.162   6.186   2.181
 3297SOL     OW10789   2.725   0.456   4.475
 3297SOL    HW110790   2.783   0.536   4.462
 3297SOL    HW210791   2.780   0.378   4.504
 3298SOL     OW10792   5.571   1.700   4.361
 3298SOL    HW110793   5.538   1.787   4.400
 3298SOL    HW210794   5.539   1.692   4.267
 3299SOL     OW10795   2.440   6.062   3.921
 3299SOL    HW110796   2.500   6.140   3.938
 3299SOL    HW210797   2.347   6.085   3.949
 3300SOL     OW10798   0.372   0.942   5.693
 3300SOL    HW110799   0.298   0.946   5.625
 3300SOL    HW210800   0.349   1.000   5.771
 3301SOL     OW10801   2.182   3.393   3.116
 3301SOL    HW110802   2.121   3.364   3.041
 3301SOL    HW210803   2.176   3.326   3.190
 3302SOL     OW10804   1.322   5.684   5.748
 3302SOL    HW110805   1.238   5.639   5.717
 3302SOL    HW210806   1.395   5.616   5.755
 3303SOL     OW10807   3.562   2.977   1.982
 3303SOL    HW110808   3.569   3.004   1.886
 3303SOL    HW210809   3.631   3.027   2.035
 3304SOL     OW10810   1.712   5.570   4.145
 3304SOL    HW110811   1.769   5.652   4.140
 3304SOL    HW210812   1.622   5.589   4.104
 3305SOL     OW10813   2.041   1.329   3.093
 3305SOL    HW110814   2.129   1.376   3.102
 3305SOL    HW210815   2.039   1.278   3.007
 3306SOL     OW10816   2.154   5.650   4.547
 3306SOL    HW110817   2.241   5.600   4.542
 3306SOL    HW210818   2.081   5.588   4.576
 3307SOL     OW10819   6.736   5.763   6.591
 3307SOL    HW110820   6.807   5.833   6.594
 3307SOL    HW210821   6.657   5.794   6.645
 3308SOL     OW10822   4.123   5.957   6.898
 3308SOL    HW110823   4.137   5.873   6.845
 3308SOL    HW210824   4.189   6.026   6.870
 3309SOL     OW10825   0.319   5.451   2.496
 3309SOL    HW110826   0.340   5.374   2.556
 3309SOL    HW210827   0.396   5.515   2.496
 3310SOL     OW10828   6.973   4.097   5.169
 3310SOL    HW110829   6.954   3.999   5.181
 3310SOL    HW210830   0.046   4.116   5.197
 3311SOL     OW10831   2.287   4.004   1.428
 3311SOL    HW110832   2.269   4.035   1.522
 3311SOL    HW210833   2.207   3.956   1.393
 3312SOL     OW10834   3.364   4.860   6.033
 3312SOL    HW110835   3.370   4.800   6.113
 3312SOL    HW210836   3.269   4.865   6.002
 3313SOL     OW10837   6.858   5.557   2.967
 3313SOL    HW110838   6.941   5.504   2.951
 3313SOL    HW210839   6.796   5.506   3.026
 3314SOL     OW10840   2.693   1.774   3.937
 3314SOL    HW110841   2.714   1.732   3.849
 3314SOL    HW210842   2.614   1.729   3.977
 3315SOL     OW10843   6.012   3.054   4.070
 3315SOL    HW110844   5.988   3.101   3.985
 3315SOL    HW210845   6.108   3.071   4.091
 3316SOL     OW10846   4.331   1.885   6.457
 3316SOL    HW110847   4.366   1.794   6.479
 3316SOL    HW210848   4.239   1.877   6.420
 3317SOL     OW10849   4.803   3.458   1.846
 3317SOL    HW110850   4.833   3.379   1.792
 3317SOL    HW210851   4.719   3.495   1.807
 3318SOL     OW10852   3.565   0.813   0.400
 3318SOL    HW110853   3.588   0.797   0.496
 3318SOL    HW210854   3.637   0.774   0.342
 3319SOL     OW10855   6.367   0.205   4.377
 3319SOL    HW110856   6.321   0.236   4.294
 3319SOL    HW210857   6.304   0.150   4.432
 3320SOL     OW10858   5.842   0.648   5.523
 3320SOL    HW110859   5.840   0.720   5.592
 3320SOL    HW210860   5.860   0.560   5.567
 3321SOL     OW10861   3.915   2.046   1.444
 3321SOL    HW110862   3.853   1.972   1.469
 3321SOL    HW210863   3.866   2.114   1.390
 3322SOL     OW10864   5.166   3.357   1.027
 3322SOL    HW110865   5.091   3.405   0.981
 3322SOL    HW210866   5.227   3.423   1.070
 3323SOL     OW10867   2.599   3.618   6.270
 3323SOL    HW110868   2.634   3.552   6.337
 3323SOL    HW210869   2.662   3.694   6.262
 3324SOL     OW10870   1.397   3.692   6.389
 3324SOL    HW110871   1.427   3.776   6.435
 3324SOL    HW210872   1.476   3.639   6.360
 3325SOL     OW10873   2.077   2.546   6.288
 3325SOL    HW110874   2.103   2.453   6.262
 3325SOL    HW210875   1.992   2.544   6.341
 3326SOL     OW10876   5.649   1.923   2.144
 3326SOL    HW110877   5.563   1.883   2.178
 3326SOL    HW210878   5.704   1.953   2.221
 3327SOL     OW10879   3.284   5.923   1.568
 3327SOL    HW110880   3.330   5.979   1.637
 3327SOL    HW210881   3.210   5.872   1.610
 3328SOL     OW10882   4.529   1.822   1.857
 3328SOL    HW110883   4.477   1.753   1.805
 3328SOL    HW210884   4.524   1.801   1.954
 3329SOL     OW10885   5.414   0.663   4.340
 3329SOL    HW110886   5.410   0.589   4.407
 3329SOL    HW210887   5.452   0.745   4.384
 3330SOL     OW10888   6.335   5.905   1.148
 3330SOL    HW110889   6.346   5.904   1.048
 3330SOL    HW210890   6.243   5.938   1.171
 3331SOL     OW10891   0.779   3.805   1.567
 3331SOL    HW110892   0.781   3.707   1.548
 3331SOL    HW210893   0.728   3.852   1.494
 3332SOL     OW10894   6.588   4.458   0.684
 3332SOL    HW110895   6.503   4.472   0.734
 3332SOL    HW210896   6.664   4.493   0.738
 3333SOL     OW10897   3.124   4.141   6.567
 3333SOL    HW110898   3.098   4.066   6.628
 3333SOL    HW210899   3.188   4.108   6.498
 3334SOL     OW10900   2.265   4.075   1.940
 3334SOL    HW110901   2.246   4.143   2.012
 3334SOL    HW210902   2.295   4.122   1.857
 3335SOL     OW10903   4.899   6.681   6.333
 3335SOL    HW110904   4.839   6.601   6.338
 3335SOL    HW210905   4.935   6.691   6.240
 3336SOL     OW10906   1.576   6.502   4.948
 3336SOL    HW110907   1.599   6.583   5.001
 3336SOL    HW210908   1.632   6.499   4.865
 3337SOL     OW10909   2.930   3.844   1.577
 3337SOL    HW110910   2.942   3.933   1.533
 3337SOL    HW210911   3.005   3.828   1.641
 3338SOL     OW10912   0.125   2.674   1.040
 3338SOL    HW110913   0.067   2.709   1.114
 3338SOL    HW210914   0.097   2.581   1.017
 3339SOL     OW10915   0.999   6.929   6.407
 3339SOL    HW110916   0.983   6.865   6.482
 3339SOL    HW210917   0.911   6.956   6.368
 3340SOL     OW10918   3.410   1.505   2.849
 3340SOL    HW110919   3.316   1.540   2.848
 3340SOL    HW210920   3.423   1.448   2.930
 3341SOL     OW10921   1.282   4.477   3.758
 3341SOL    HW110922   1.346   4.440   3.691
 3341SOL    HW210923   1.331   4.504   3.841
 3342SOL     OW10924   1.410   6.840   3.930
 3342SOL    HW110925   1.324   6.798   3.901
 3342SOL    HW210926   1.428   6.819   4.026
 3343SOL     OW10927   5.234   4.238   6.618
 3343SOL    HW110928   5.176   4.213   6.695
 3343SOL    HW210929   5.297   4.311   6.645
 3344SOL     OW10930   5.542   3.638   3.469
 3344SOL    HW110931   5.618   3.682   3.422
 3344SOL    HW210932   5.485   3.707   3.514
 3345SOL     OW10933   1.613   3.921   6.051
 3345SOL    HW110934   1.689   3.962   6.101
 3345SOL    HW210935   1.581   3.984   5.980
 3346SOL     OW10936   0.891   0.613   0.191
 3346SOL    HW110937   0.907   0.672   0.269
 3346SOL    HW210938   0.856   0.667   0.115
 3347SOL     OW10939   1.278   2.492   4.821
 3347SOL    HW110940   1.220   2.573   4.817
 3347SOL    HW210941   1.270   2.449   4.912
 3348SOL     OW10942   4.144   3.655   4.319
 3348SOL    HW110943   4.136   3.556   4.336
 3348SOL    HW210944   4.232   3.674   4.276
 3349SOL     OW10945   2.130   5.321   3.417
 3349SOL    HW110946   2.042   5.363   3.437
 3349SOL    HW210947   2.203   5.378   3.452
 3350SOL     OW10948   0.057   2.063   5.819
 3350SOL    HW110949   0.118   1.985   5.837
 3350SOL    HW210950   0.076   2.099   5.728
 3351SOL     OW10951   4.797   1.062   3.086
 3351SOL    HW110952   4.839   0.999   3.021
 3351SOL    HW210953   4.821   1.156   3.061
 3352SOL     OW10954   6.995   3.091   1.447
 3352SOL    HW110955   6.920   3.093   1.381
 3352SOL    HW210956   7.019   3.185   1.472
 3353SOL     OW10957   2.888   5.802   1.263
 3353SOL    HW110958   2.903   5.831   1.357
 3353SOL    HW210959   2.791   5.812   1.241
 3354SOL     OW10960   4.190   2.415   5.649
 3354SOL    HW110961   4.227   2.347   5.712
 3354SOL    HW210962   4.185   2.504   5.694
 3355SOL     OW10963   1.781   1.612   6.244
 3355SOL    HW110964   1.875   1.646   6.235
 3355SOL    HW210965   1.763   1.546   6.171
 3356SOL     OW10966   0.972   5.543   6.222
 3356SOL    HW110967   0.958   5.450   6.257
 3356SOL    HW210968   0.908   5.560   6.148
 3357SOL     OW10969   2.230   3.660   1.711
 3357SOL    HW110970   2.234   3.606   1.627
 3357SOL    HW210971   2.217   3.598   1.789
 3358SOL     OW10972   4.620   1.665   2.099
 3358SOL    HW110973   4.577   1.580   2.069
 3358SOL    HW210974   4.589   1.688   2.191
 3359SOL     OW10975   0.764   6.121   3.045
 3359SOL    HW110976   0.740   6.205   3.094
 3359SOL    HW210977   0.786   6.143   2.950
 3360SOL     OW10978   1.389   1.088   6.949
 3360SOL    HW110979   1.360   1.127   6.861
 3360SOL    HW210980   1.346   1.139   0.002
 3361SOL     OW10981   6.704   5.132   4.488
 3361SOL    HW110982   6.657   5.215   4.516
 3361SOL    HW210983   6.694   5.119   4.389
 3362SOL     OW10984   3.523   1.215   2.903
 3362SOL    HW110985   3.617   1.248   2.910
 3362SOL    HW210986   3.481   1.217   2.994
 3363SOL     OW10987   0.135   1.919   1.795
 3363SOL    HW110988   0.084   1.915   1.709
 3363SOL    HW210989   0.100   1.993   1.852
 3364SOL     OW10990   1.810   4.804   3.935
 3364SOL    HW110991   1.883   4.871   3.947
 3364SOL    HW210992   1.795   4.755   4.020
 3365SOL     OW10993   0.354   2.530   4.824
 3365SOL    HW110994   0.282   2.574   4.771
 3365SOL    HW210995   0.352   2.566   4.918
 3366SOL     OW10996   5.550   5.126   4.563
 3366SOL    HW110997   5.609   5.074   4.501
 3366SOL    HW210998   5.494   5.063   4.616
 3367SOL     OW10999   3.955   3.070   2.669
 3367SOL    HW111000   3.870   3.019   2.653
 3367SOL    HW211001   3.978   3.065   2.766
 3368SOL     OW11002   0.767   5.559   6.475
 3368SOL    HW111003   0.779   5.519   6.566
 3368SOL    HW211004   0.846   5.536   6.418
 3369SOL     OW11005   3.536   1.744   0.266
 3369SOL    HW111006   3.549   1.651   0.300
 3369SOL    HW211007   3.459   1.786   0.315
 3370SOL     OW11008   6.532   6.390   1.628
 3370SOL    HW111009   6.586   6.448   1.568
 3370SOL    HW211010   6.592   6.324   1.674
 3371SOL     OW11011   2.034   2.921   1.353
 3371SOL    HW111012   2.082   2.990   1.407
 3371SOL    HW211013   2.098   2.851   1.323
 3372SOL     OW11014   7.008   1.966   6.525
 3372SOL    HW111015   0.001   1.916   6.610
 3372SOL    HW211016   7.009   2.064   6.543
 3373SOL     OW11017   0.447   1.998   3.943
 3373SOL    HW111018   0.408   2.069   4.000
 3373SOL    HW211019   0.473   2.036   3.855
 3374SOL     OW11020   1.080   6.661   4.073
 3374SOL    HW111021   1.136   6.620   4.145
 3374SOL    HW211022   1.053   6.754   4.100
 3375SOL     OW11023   0.152   4.598   0.055
 3375SOL    HW111024   0.176   4.617   6.981
 3375SOL    HW211025   0.158   4.682   0.108
 3376SOL     OW11026   3.859   2.949   4.522
 3376SOL    HW111027   3.810   3.001   4.592
 3376SOL    HW211028   3.794   2.912   4.457
 3377SOL     OW11029   6.336   5.366   5.677
 3377SOL    HW111030   6.309   5.354   5.772
 3377SOL    HW211031   6.282   5.305   5.619
 3378SOL     OW11032   1.219   6.766   0.657
 3378SOL    HW111033   1.282   6.784   0.582
 3378SOL    HW211034   1.130   6.738   0.621
 3379SOL     OW11035   1.247   1.830   5.347
 3379SOL    HW111036   1.250   1.922   5.386
 3379SOL    HW211037   1.236   1.836   5.248
 3380SOL     OW11038   5.402   6.558   4.807
 3380SOL    HW111039   5.391   6.581   4.710
 3380SOL    HW211040   5.313   6.538   4.847
 3381SOL     OW11041   0.904   3.185   1.545
 3381SOL    HW111042   0.988   3.190   1.492
 3381SOL    HW211043   0.881   3.089   1.561
 3382SOL     OW11044   0.763   2.831   6.572
 3382SOL    HW111045   0.792   2.736   6.563
 3382SOL    HW211046   0.730   2.848   6.665
 3383SOL     OW11047   4.041   5.598   1.226
 3383SOL    HW111048   4.103   5.648   1.287
 3383SOL    HW211049   3.948   5.603   1.263
 3384SOL     OW11050   2.035   3.067   0.873
 3384SOL    HW111051   2.097   3.128   0.825
 3384SOL    HW211052   2.079   2.978   0.886
 3385SOL     OW11053   6.690   3.524   4.716
 3385SOL    HW111054   6.741   3.564   4.640
 3385SOL    HW211055   6.599   3.565   4.720
 3386SOL     OW11056   5.280   4.118   0.517
 3386SOL    HW111057   5.182   4.111   0.500
 3386SOL    HW211058   5.311   4.211   0.497
 3387SOL     OW11059   4.019   0.572   3.284
 3387SOL    HW111060   4.019   0.580   3.184
 3387SOL    HW211061   3.942   0.514   3.312
 3388SOL     OW11062   5.228   3.212   2.478
 3388SOL    HW111063   5.194   3.295   2.522
 3388SOL    HW211064   5.325   3.225   2.454
 3389SOL     OW11065   6.613   5.600   6.024
 3389SOL    HW111066   6.552   5.666   6.070
 3389SOL    HW211067   6.571   5.569   5.939
 3390SOL     OW11068   5.391   6.921   6.178
 3390SOL    HW111069   5.442   7.006   6.165
 3390SOL    HW211070   5.442   6.861   6.240
 3391SOL     OW11071   4.962   2.499   4.238
 3391SOL    HW111072   4.963   2.399   4.245
 3391SOL    HW211073   4.930   2.538   4.324
 3392SOL     OW11074   2.922   6.811   3.827
 3392SOL    HW111075   2.884   6.770   3.743
 3392SOL    HW211076   2.989   6.748   3.867
 3393SOL     OW11077   6.465   6.022   0.664
 3393SOL    HW111078   6.531   6.073   0.610
 3393SOL    HW211079   6.377   6.070   0.662
 3394SOL     OW11080   5.543   3.476   0.807
 3394SOL    HW111081   5.464   3.536   0.800
 3394SOL    HW211082   5.520   3.387   0.766
 3395SOL     OW11083   5.118   3.018   3.584
 3395SOL    HW111084   5.079   2.956   3.516
 3395SOL    HW211085   5.173   3.088   3.539
 3396SOL     OW11086   5.505   1.014   3.535
 3396SOL    HW111087   5.424   0.966   3.500
 3396SOL    HW211088   5.513   1.103   3.490
 3397SOL     OW11089   3.286   5.715   6.792
 3397SOL    HW111090   3.267   5.718   6.694
 3397SOL    HW211091   3.356   5.646   6.810
 3398SOL     OW11092   0.887   0.468   4.729
 3398SOL    HW111093   0.929   0.456   4.639
 3398SOL    HW211094   0.830   0.388   4.750
 3399SOL     OW11095   5.322   5.156   3.515
 3399SOL    HW111096   5.243   5.108   3.551
 3399SOL    HW211097   5.292   5.227   3.451
 3400SOL     OW11098   5.400   3.174   6.426
 3400SOL    HW111099   5.469   3.104   6.447
 3400SOL    HW211100   5.434   3.264   6.453
 3401SOL     OW11101   6.894   3.537   6.231
 3401SOL    HW111102   6.878   3.497   6.321
 3401SOL    HW211103   6.908   3.636   6.241
 3402SOL     OW11104   4.923   5.565   6.559
 3402SOL    HW111105   4.947   5.472   6.531
 3402SOL    HW211106   4.825   5.580   6.546
 3403SOL     OW11107   3.737   5.450   6.392
 3403SOL    HW111108   3.820   5.444   6.335
 3403SOL    HW211109   3.660   5.413   6.341
 3404SOL     OW11110   5.516   2.680   0.725
 3404SOL    HW111111   5.587   2.697   0.656
 3404SOL    HW211112   5.460   2.763   0.735
 3405SOL     OW11113   6.157   4.007   6.445
 3405SOL    HW111114   6.064   3.990   6.477
 3405SOL    HW211115   6.191   4.092   6.484
 3406SOL     OW11116   1.230   3.689   2.203
 3406SOL    HW111117   1.303   3.673   2.138
 3406SOL    HW211118   1.197   3.602   2.239
 3407SOL     OW11119   1.373   4.406   6.767
 3407SOL    HW111120   1.365   4.348   6.848
 3407SOL    HW211121   1.390   4.348   6.687
 3408SOL     OW11122   5.411   3.143   4.651
 3408SOL    HW111123   5.379   3.129   4.558
 3408SOL    HW211124   5.356   3.089   4.714
 3409SOL     OW11125   3.714   6.105   0.218
 3409SOL    HW111126   3.782   6.155   0.272
 3409SOL    HW211127   3.761   6.043   0.155
 3410SOL     OW11128   0.033   6.506   1.695
 3410SOL    HW111129   0.095   6.438   1.656
 3410SOL    HW211130   0.085   6.581   1.735
 3411SOL     OW11131   0.324   2.346   0.666
 3411SOL    HW111132   0.339   2.365   0.763
 3411SOL    HW211133   0.393   2.280   0.635
 3412SOL     OW11134   4.712   3.296   1.241
 3412SOL    HW111135   4.741   3.280   1.335
 3412SOL    HW211136   4.771   3.245   1.179
 3413SOL     OW11137   6.195   1.511   0.767
 3413SOL    HW111138   6.205   1.578   0.694
 3413SOL    HW211139   6.168   1.558   0.852
 3414SOL     OW11140   3.607   1.963   5.874
 3414SOL    HW111141   3.522   1.946   5.823
 3414SOL    HW211142   3.597   2.048   5.927
 3415SOL     OW11143   2.306   2.850   3.885
 3415SOL    HW111144   2.394   2.804   3.897
 3415SOL    HW211145   2.271   2.878   3.975
 3416SOL     OW11146   5.793   6.174   0.647
 3416SOL    HW111147   5.775   6.235   0.570
 3416SOL    HW211148   5.716   6.178   0.711
 3417SOL     OW11149   0.586   6.204   4.136
 3417SOL    HW111150   0.622   6.134   4.074
 3417SOL    HW211151   0.657   6.272   4.155
 3418SOL     OW11152   3.495   5.862   3.698
 3418SOL    HW111153   3.559   5.804   3.647
 3418SOL    HW211154   3.402   5.830   3.684
 3419SOL     OW11155   2.786   5.281   6.177
 3419SOL    HW111156   2.787   5.283   6.077
 3419SOL    HW211157   2.762   5.371   6.213
 3420SOL     OW11158   5.892   3.005   3.262
 3420SOL    HW111159   5.824   2.932   3.265
 3420SOL    HW211160   5.922   3.028   3.354
 3421SOL     OW11161   4.888   1.822   3.859
 3421SOL    HW111162   4.845   1.770   3.933
 3421SOL    HW211163   4.965   1.769   3.823
 3422SOL     OW11164   3.233   0.196   0.325
 3422SOL    HW111165   3.144   0.200   0.279
 3422SOL    HW211166   3.221   0.218   0.421
 3423SOL     OW11167   7.016   4.723   6.046
 3423SOL    HW111168   6.959   4.641   6.032
 3423SOL    HW211169   6.969   4.803   6.007
 3424SOL     OW11170   2.144   6.628   1.191
 3424SOL    HW111171   2.121   6.604   1.286
 3424SOL    HW211172   2.151   6.545   1.136
 3425SOL     OW11173   4.657   4.909   2.155
 3425SOL    HW111174   4.569   4.939   2.120
 3425SOL    HW211175   4.648   4.880   2.250
 3426SOL     OW11176   4.271   2.531   1.439
 3426SOL    HW111177   4.316   2.442   1.451
 3426SOL    HW211178   4.334   2.594   1.394
 3427SOL     OW11179   0.996   1.550   0.706
 3427SOL    HW111180   0.926   1.578   0.641
 3427SOL    HW211181   1.049   1.630   0.735
 3428SOL     OW11182   3.326   5.266   0.274
 3428SOL    HW111183   3.415   5.220   0.277
 3428SOL    HW211184   3.334   5.351   0.223
 3429SOL     OW11185   0.425   2.125   1.274
 3429SOL    HW111186   0.415   2.067   1.355
 3429SOL    HW211187   0.496   2.085   1.215
 3430SOL     OW11188   1.923   5.808   5.992
 3430SOL    HW111189   1.907   5.754   5.909
 3430SOL    HW211190   1.859   5.779   6.063
 3431SOL     OW11191   1.517   6.287   1.769
 3431SOL    HW111192   1.581   6.308   1.842
 3431SOL    HW211193   1.565   6.286   1.681
 3432SOL     OW11194   1.766   3.994   5.164
 3432SOL    HW111195   1.730   3.912   5.210
 3432SOL    HW211196   1.712   4.074   5.192
 3433SOL     OW11197   1.619   0.165   5.000
 3433SOL    HW111198   1.533   0.206   4.971
 3433SOL    HW211199   1.688   0.179   4.928
 3434SOL     OW11200   4.074   0.980   2.054
 3434SOL    HW111201   4.069   0.889   2.013
 3434SOL    HW211202   4.006   0.989   2.126
 3435SOL     OW11203   1.916   1.429   1.237
 3435SOL    HW111204   1.956   1.486   1.165
 3435SOL    HW211205   1.967   1.442   1.322
 3436SOL     OW11206   3.914   6.261   0.355
 3436SOL    HW111207   3.990   6.274   0.292
 3436SOL    HW211208   3.906   6.341   0.415
 3437SOL     OW11209   2.881   6.886   5.438
 3437SOL    HW111210   2.893   6.922   5.345
 3437SOL    HW211211   2.801   6.929   5.480
 3438SOL     OW11212   0.755   3.707   0.811
 3438SOL    HW111213   0.833   3.651   0.785
 3438SOL    HW211214   0.787   3.797   0.842
 3439SOL     OW11215   3.246   5.857   4.618
 3439SOL    HW111216   3.191   5.856   4.534
 3439SOL    HW211217   3.190   5.889   4.694
 3440SOL     OW11218   3.258   2.866   2.089
 3440SOL    HW111219   3.251   2.918   2.004
 3440SOL    HW211220   3.262   2.768   2.068
 3441SOL     OW11221   6.761   6.013   6.253
 3441SOL    HW111222   6.775   6.048   6.160
 3441SOL    HW211223   6.848   6.008   6.300
 3442SOL     OW11224   1.897   4.381   1.663
 3442SOL    HW111225   1.976   4.362   1.721
 3442SOL    HW211226   1.928   4.398   1.569
 3443SOL     OW11227   3.959   6.471   2.308
 3443SOL    HW111228   3.934   6.393   2.250
 3443SOL    HW211229   4.047   6.507   2.278
 3444SOL     OW11230   4.676   5.592   6.981
 3444SOL    HW111231   4.746   5.573   6.912
 3444SOL    HW211232   4.605   5.650   6.941
 3445SOL     OW11233   5.625   5.441   2.352
 3445SOL    HW111234   5.661   5.501   2.423
 3445SOL    HW211235   5.534   5.409   2.378
 3446SOL     OW11236   6.188   0.767   1.455
 3446SOL    HW111237   6.187   0.742   1.551
 3446SOL    HW211238   6.156   0.689   1.400
 3447SOL     OW11239   4.783   6.404   1.177
 3447SOL    HW111240   4.852   6.460   1.131
 3447SOL    HW211241   4.703   6.460   1.199
 3448SOL     OW11242   4.042   0.283   6.471
 3448SOL    HW111243   3.980   0.208   6.494
 3448SOL    HW211244   4.078   0.269   6.378
 3449SOL     OW11245   6.192   5.165   5.035
 3449SOL    HW111246   6.172   5.261   5.053
 3449SOL    HW211247   6.155   5.140   4.945
 3450SOL     OW11248   1.045   1.592   6.715
 3450SOL    HW111249   0.950   1.563   6.725
 3450SOL    HW211250   1.105   1.517   6.742
 3451SOL     OW11251   2.744   6.511   6.689
 3451SOL    HW111252   2.715   6.419   6.716
 3451SOL    HW211253   2.836   6.506   6.651
 3452SOL     OW11254   5.360   0.382   6.748
 3452SOL    HW111255   5.364   0.324   6.829
 3452SOL    HW211256   5.448   0.428   6.735
 3453SOL     OW11257   6.371   5.331   6.176
 3453SOL    HW111258   6.337   5.301   6.265
 3453SOL    HW211259   6.319   5.411   6.146
 3454SOL     OW11260   1.200   3.601   5.301
 3454SOL    HW111261   1.202   3.526   5.234
 3454SOL    HW211262   1.179   3.563   5.392
 3455SOL     OW11263   2.408   1.747   4.314
 3455SOL    HW111264   2.426   1.687   4.236
 3455SOL    HW211265   2.403   1.842   4.283
 3456SOL     OW11266   5.717   4.836   1.655
 3456SOL    HW111267   5.674   4.886   1.579
 3456SOL    HW211268   5.696   4.739   1.647
 3457SOL     OW11269   3.668   5.280   3.780
 3457SOL    HW111270   3.641   5.357   3.838
 3457SOL    HW211271   3.631   5.195   3.819
 3458SOL     OW11272   4.354   0.934   2.095
 3458SOL    HW111273   4.368   0.854   2.037
 3458SOL    HW211274   4.269   0.979   2.070
 3459SOL     OW11275   5.467   2.760   2.656
 3459SOL    HW111276   5.417   2.723   2.734
 3459SOL    HW211277   5.407   2.822   2.605
 3460SOL     OW11278   2.800   2.037   0.070
 3460SOL    HW111279   2.708   2.028   0.030
 3460SOL    HW211280   2.853   2.103   0.016
 3461SOL     OW11281   4.770   3.933   6.746
 3461SOL    HW111282   4.854   3.904   6.700
 3461SOL    HW211283   4.734   3.858   6.801
 3462SOL     OW11284   0.898   3.798   5.305
 3462SOL    HW111285   0.823   3.834   5.250
 3462SOL    HW211286   0.972   3.769   5.244
 3463SOL     OW11287   1.260   4.073   2.027
 3463SOL    HW111288   1.246   4.117   2.116
 3463SOL    HW211289   1.348   4.027   2.026
 3464SOL     OW11290   0.171   4.623   5.830
 3464SOL    HW111291   0.202   4.529   5.839
 3464SOL    HW211292   0.127   4.652   5.915
 3465SOL     OW11293   1.564   2.245   2.576
 3465SOL    HW111294   1.546   2.244   2.477
 3465SOL    HW211295   1.538   2.158   2.616
 3466SOL     OW11296   6.647   5.310   6.177
 3466SOL    HW111297   6.704   5.391   6.164
 3466SOL    HW211298   6.551   5.335   6.165
 3467SOL     OW11299   1.909   2.487   6.642
 3467SOL    HW111300   1.950   2.397   6.625
 3467SOL    HW211301   1.981   2.551   6.668
 3468SOL     OW11302   4.188   6.629   2.243
 3468SOL    HW111303   4.172   6.686   2.324
 3468SOL    HW211304   4.179   6.685   2.161
 3469SOL     OW11305   5.447   0.648   3.253
 3469SOL    HW111306   5.386   0.574   3.226
 3469SOL    HW211307   5.411   0.735   3.219
 3470SOL     OW11308   6.661   3.569   1.043
 3470SOL    HW111309   6.721   3.584   0.965
 3470SOL    HW211310   6.567   3.560   1.012
 3471SOL     OW11311   3.458   4.933   4.384
 3471SOL    HW111312   3.530   4.932   4.314
 3471SOL    HW211313   3.398   4.853   4.371
 3472SOL     OW11314   2.150   0.862   2.258
 3472SOL    HW111315   2.083   0.933   2.239
 3472SOL    HW211316   2.214   0.895   2.327
 3473SOL     OW11317   0.175   2.041   7.000
 3473SOL    HW111318   0.222   2.022   0.064
 3473SOL    HW211319   0.243   2.060   6.928
 3474SOL     OW11320   2.536   5.329   1.665
 3474SOL    HW111321   2.493   5.251   1.621
 3474SOL    HW211322   2.590   5.297   1.744
 3475SOL     OW11323   0.981   5.894   5.042
 3475SOL    HW111324   0.992   5.804   4.999
 3475SOL    HW211325   0.886   5.907   5.069
 3476SOL     OW11326   3.462   1.786   3.026
 3476SOL    HW111327   3.534   1.848   3.059
 3476SOL    HW211328   3.500   1.726   2.955
 3477SOL     OW11329   3.359   5.194   1.017
 3477SOL    HW111330   3.383   5.239   1.103
 3477SOL    HW211331   3.261   5.207   0.999
 3478SOL     OW11332   2.323   5.514   5.082
 3478SOL    HW111333   2.415   5.526   5.120
 3478SOL    HW211334   2.297   5.595   5.030
 3479SOL     OW11335   1.110   0.856   2.681
 3479SOL    HW111336   1.121   0.870   2.779
 3479SOL    HW211337   1.086   0.760   2.663
 3480SOL     OW11338   0.060   0.041   5.172
 3480SOL    HW111339   0.009   6.986   5.132
 3480SOL    HW211340   0.033   0.126   5.128
 3481SOL     OW11341   5.014   6.629   0.415
 3481SOL    HW111342   4.923   6.600   0.388
 3481SOL    HW211343   5.009   6.685   0.498
 3482SOL     OW11344   5.855   1.508   0.836
 3482SOL    HW111345   5.890   1.451   0.761
 3482SOL    HW211346   5.812   1.590   0.799
 3483SOL     OW11347   4.126   1.467   1.007
 3483SOL    HW111348   4.171   1.506   1.087
 3483SOL    HW211349   4.031   1.499   1.002
 3484SOL     OW11350   3.193   3.575   1.560
 3484SOL    HW111351   3.129   3.500   1.572
 3484SOL    HW211352   3.163   3.653   1.615
 3485SOL     OW11353   1.563   0.086   4.262
 3485SOL    HW111354   1.470   0.082   4.300
 3485SOL    HW211355   1.604   7.016   4.267
 3486SOL     OW11356   3.111   1.413   2.692
 3486SOL    HW111357   3.067   1.498   2.663
 3486SOL    HW211358   3.046   1.359   2.747
 3487SOL     OW11359   5.415   1.790   5.708
 3487SOL    HW111360   5.375   1.836   5.787
 3487SOL    HW211361   5.512   1.813   5.701
 3488SOL     OW11362   5.459   2.423   4.486
 3488SOL    HW111363   5.379   2.483   4.475
 3488SOL    HW211364   5.539   2.467   4.446
 3489SOL     OW11365   2.625   6.518   0.414
 3489SOL    HW111366   2.530   6.498   0.435
 3489SOL    HW211367   2.683   6.488   0.489
 3490SOL     OW11368   4.897   4.860   6.653
 3490SOL    HW111369   4.869   4.869   6.557
 3490SOL    HW211370   4.846   4.785   6.695
 3491SOL     OW11371   5.664   2.423   4.756
 3491SOL    HW111372   5.640   2.328   4.735
 3491SOL    HW211373   5.593   2.463   4.815
 3492SOL     OW11374   0.795   5.680   1.530
 3492SOL    HW111375   0.731   5.617   1.573
 3492SOL    HW211376   0.790   5.671   1.431
 3493SOL     OW11377   6.689   5.094   6.878
 3493SOL    HW111378   6.641   5.027   6.934
 3493SOL    HW211379   6.689   5.182   6.926
 3494SOL     OW11380   3.865   0.870   1.617
 3494SOL    HW111381   3.869   0.966   1.592
 3494SOL    HW211382   3.939   0.821   1.572
 3495SOL     OW11383   4.398   5.090   2.082
 3495SOL    HW111384   4.343   5.060   2.003
 3495SOL    HW211385   4.339   5.098   2.162
 3496SOL     OW11386   0.253   3.934   0.573
 3496SOL    HW111387   0.203   3.903   0.654
 3496SOL    HW211388   0.245   3.866   0.500
 3497SOL     OW11389   4.373   6.460   3.643
 3497SOL    HW111390   4.331   6.381   3.687
 3497SOL    HW211391   4.334   6.544   3.681
 3498SOL     OW11392   1.795   2.806   0.483
 3498SOL    HW111393   1.860   2.762   0.544
 3498SOL    HW211394   1.842   2.879   0.432
 3499SOL     OW11395   4.716   2.838   4.564
 3499SOL    HW111396   4.703   2.832   4.663
 3499SOL    HW211397   4.650   2.779   4.518
 3500SOL     OW11398   0.682   3.956   5.232
 3500SOL    HW111399   0.603   3.944   5.172
 3500SOL    HW211400   0.760   3.988   5.179
 3501SOL     OW11401   1.330   5.404   3.659
 3501SOL    HW111402   1.236   5.424   3.631
 3501SOL    HW211403   1.329   5.349   3.743
 3502SOL     OW11404   6.842   2.308   1.701
 3502SOL    HW111405   6.781   2.385   1.688
 3502SOL    HW211406   6.806   2.249   1.774
 3503SOL     OW11407   5.604   5.945   5.518
 3503SOL    HW111408   5.642   6.034   5.494
 3503SOL    HW211409   5.663   5.900   5.586
 3504SOL     OW11410   1.973   2.160   1.084
 3504SOL    HW111411   1.987   2.203   1.173
 3504SOL    HW211412   1.888   2.193   1.043
 3505SOL     OW11413   5.321   4.583   5.158
 3505SOL    HW111414   5.373   4.668   5.167
 3505SOL    HW211415   5.333   4.546   5.065
 3506SOL     OW11416   4.538   6.319   5.322
 3506SOL    HW111417   4.564   6.256   5.396
 3506SOL    HW211418   4.595   6.301   5.242
 3507SOL     OW11419   2.461   0.705   0.414
 3507SOL    HW111420   2.434   0.680   0.321
 3507SOL    HW211421   2.506   0.795   0.412
 3508SOL     OW11422   3.488   2.613   6.239
 3508SOL    HW111423   3.408   2.604   6.298
 3508SOL    HW211424   3.570   2.624   6.296
 3509SOL     OW11425   5.163   6.884   6.396
 3509SOL    HW111426   5.070   6.873   6.361
 3509SOL    HW211427   5.227   6.886   6.319
 3510SOL     OW11428   2.106   2.024   1.499
 3510SOL    HW111429   2.172   2.100   1.497
 3510SOL    HW211430   2.057   2.025   1.586
 3511SOL     OW11431   1.852   4.739   6.739
 3511SOL    HW111432   1.785   4.726   6.666
 3511SOL    HW211433   1.917   4.664   6.739
 3512SOL     OW11434   6.618   3.994   1.064
 3512SOL    HW111435   6.655   3.966   1.153
 3512SOL    HW211436   6.671   3.950   0.991
 3513SOL     OW11437   6.205   3.853   0.454
 3513SOL    HW111438   6.116   3.897   0.442
 3513SOL    HW211439   6.251   3.893   0.533
 3514SOL     OW11440   0.004   0.984   2.231
 3514SOL    HW111441   7.007   1.074   2.270
 3514SOL    HW211442   0.103   0.971   2.223
 3515SOL     OW11443   4.701   6.479   2.898
 3515SOL    HW111444   4.796   6.470   2.929
 3515SOL    HW211445   4.696   6.454   2.801
 3516SOL     OW11446   4.450   0.556   1.313
 3516SOL    HW111447   4.431   0.466   1.273
 3516SOL    HW211448   4.544   0.582   1.295
 3517SOL     OW11449   0.860   2.305   6.981
 3517SOL    HW111450   0.797   2.371   7.021
 3517SOL    HW211451   0.832   2.212   7.005
 3518SOL     OW11452   5.498   4.125   4.519
 3518SOL    HW111453   5.570   4.187   4.551
 3518SOL    HW211454   5.483   4.138   4.421
 3519SOL     OW11455   2.195   0.487   6.356
 3519SOL    HW111456   2.230   0.401   6.393
 3519SOL    HW211457   2.095   0.482   6.350
 3520SOL     OW11458   3.117   5.036   0.564
 3520SOL    HW111459   3.177   5.116   0.553
 3520SOL    HW211460   3.029   5.055   0.520
 3521SOL     OW11461   5.629   3.405   1.165
 3521SOL    HW111462   5.728   3.391   1.161
 3521SOL    HW211463   5.592   3.416   1.073
 3522SOL     OW11464   4.777   5.412   2.142
 3522SOL    HW111465   4.769   5.317   2.173
 3522SOL    HW211466   4.862   5.424   2.091
 3523SOL     OW11467   2.650   4.335   5.561
 3523SOL    HW111468   2.665   4.332   5.462
 3523SOL    HW211469   2.728   4.379   5.606
 3524SOL     OW11470   2.615   1.160   1.012
 3524SOL    HW111471   2.567   1.151   1.100
 3524SOL    HW211472   2.712   1.142   1.025
 3525SOL     OW11473   0.439   4.013   2.477
 3525SOL    HW111474   0.412   3.983   2.385
 3525SOL    HW211475   0.510   4.083   2.470
 3526SOL     OW11476   2.472   6.101   3.565
 3526SOL    HW111477   2.570   6.087   3.557
 3526SOL    HW211478   2.448   6.109   3.662
 3527SOL     OW11479   6.087   3.460   5.763
 3527SOL    HW111480   6.006   3.473   5.821
 3527SOL    HW211481   6.058   3.436   5.670
 3528SOL     OW11482   1.085   5.131   3.633
 3528SOL    HW111483   1.182   5.129   3.610
 3528SOL    HW211484   1.060   5.221   3.667
 3529SOL     OW11485   4.695   6.981   5.525
 3529SOL    HW111486   4.706   6.881   5.524
 3529SOL    HW211487   4.734   7.018   5.610
 3530SOL     OW11488   2.846   4.788   3.356
 3530SOL    HW111489   2.779   4.860   3.375
 3530SOL    HW211490   2.929   4.804   3.409
 3531SOL     OW11491   4.831   4.754   1.097
 3531SOL    HW111492   4.827   4.727   1.193
 3531SOL    HW211493   4.913   4.716   1.055
 3532SOL     OW11494   2.674   0.030   0.637
 3532SOL    HW111495   2.646   0.112   0.586
 3532SOL    HW211496   2.666   6.971   0.579
 3533SOL     OW11497   0.924   2.125   2.875
 3533SOL    HW111498   0.940   2.221   2.898
 3533SOL    HW211499   0.826   2.104   2.884
 3534SOL     OW11500   6.732   1.005   4.917
 3534SOL    HW111501   6.658   0.976   4.976
 3534SOL    HW211502   6.804   0.935   4.916
 3535SOL     OW11503   6.404   5.471   0.444
 3535SOL    HW111504   6.315   5.428   0.458
 3535SOL    HW211505   6.403   5.564   0.480
 3536SOL     OW11506   2.349   2.767   3.327
 3536SOL    HW111507   2.412   2.731   3.396
 3536SOL    HW211508   2.277   2.700   3.310
 3537SOL     OW11509   2.587   5.139   0.571
 3537SOL    HW111510   2.613   5.233   0.552
 3537SOL    HW211511   2.488   5.133   0.581
 3538SOL     OW11512   2.896   0.553   4.100
 3538SOL    HW111513   2.807   0.542   4.144
 3538SOL    HW211514   2.960   0.596   4.163
 3539SOL     OW11515   5.533   3.394   6.456
 3539SOL    HW111516   5.571   3.467   6.400
 3539SOL    HW211517   5.573   3.397   6.547
 3540SOL     OW11518   2.201   1.506   5.382
 3540SOL    HW111519   2.150   1.422   5.404
 3540SOL    HW211520   2.138   1.584   5.385
 3541SOL     OW11521   2.522   2.866   6.711
 3541SOL    HW111522   2.484   2.941   6.657
 3541SOL    HW211523   2.595   2.821   6.659
 3542SOL     OW11524   0.067   3.454   1.230
 3542SOL    HW111525   6.991   3.448   1.254
 3542SOL    HW211526   0.085   3.401   1.148
 3543SOL     OW11527   1.657   3.291   4.567
 3543SOL    HW111528   1.663   3.257   4.473
 3543SOL    HW211529   1.568   3.332   4.582
 3544SOL     OW11530   2.001   4.492   6.398
 3544SOL    HW111531   1.922   4.545   6.370
 3544SOL    HW211532   2.085   4.533   6.362
 3545SOL     OW11533   3.610   5.204   6.495
 3545SOL    HW111534   3.541   5.133   6.507
 3545SOL    HW211535   3.578   5.270   6.427
 3546SOL     OW11536   6.434   4.699   3.307
 3546SOL    HW111537   6.397   4.609   3.285
 3546SOL    HW211538   6.361   4.756   3.344
 3547SOL     OW11539   6.796   4.253   5.293
 3547SOL    HW111540   6.733   4.279   5.219
 3547SOL    HW211541   6.865   4.190   5.257
 3548SOL     OW11542   5.407   0.383   6.105
 3548SOL    HW111543   5.409   0.379   6.005
 3548SOL    HW211544   5.390   0.477   6.135
 3549SOL     OW11545   1.994   4.252   6.235
 3549SOL    HW111546   1.970   4.308   6.314
 3549SOL    HW211547   2.091   4.263   6.214
 3550SOL     OW11548   5.903   2.124   4.548
 3550SOL    HW111549   5.956   2.199   4.508
 3550SOL    HW211550   5.965   2.053   4.581
 3551SOL     OW11551   3.949   1.236   4.152
 3551SOL    HW111552   4.020   1.280   4.206
 3551SOL    HW211553   3.940   1.141   4.181
 3552SOL     OW11554   6.369   6.134   1.486
 3552SOL    HW111555   6.375   6.042   1.526
 3552SOL    HW211556   6.433   6.195   1.533
 3553SOL     OW11557   3.591   5.592   0.064
 3553SOL    HW111558   3.628   5.670   0.014
 3553SOL    HW211559   3.642   5.509   0.037
 3554SOL     OW11560   4.342   2.744   0.944
 3554SOL    HW111561   4.249   2.772   0.923
 3554SOL    HW211562   4.406   2.801   0.892
 3555SOL     OW11563   1.069   3.126   3.973
 3555SOL    HW111564   1.119   3.185   3.909
 3555SOL    HW211565   1.094   3.031   3.956
 3556SOL     OW11566   3.888   1.035   3.749
 3556SOL    HW111567   3.898   0.987   3.836
 3556SOL    HW211568   3.903   1.132   3.762
 3557SOL     OW11569   1.459   6.722   4.195
 3557SOL    HW111570   1.485   6.629   4.219
 3557SOL    HW211571   1.371   6.745   4.238
 3558SOL     OW11572   2.146   4.708   1.616
 3558SOL    HW111573   2.134   4.757   1.703
 3558SOL    HW211574   2.066   4.722   1.558
 3559SOL     OW11575   1.068   6.155   5.167
 3559SOL    HW111576   1.062   6.056   5.152
 3559SOL    HW211577   1.161   6.186   5.148
 3560SOL     OW11578   2.361   4.995   2.649
 3560SOL    HW111579   2.332   4.905   2.682
 3560SOL    HW211580   2.411   5.043   2.722
 3561SOL     OW11581   5.255   3.460   5.504
 3561SOL    HW111582   5.329   3.392   5.502
 3561SOL    HW211583   5.289   3.547   5.468
 3562SOL     OW11584   3.142   1.585   3.450
 3562SOL    HW111585   3.178   1.677   3.433
 3562SOL    HW211586   3.209   1.517   3.421
 3563SOL     OW11587   6.437   1.603   6.672
 3563SOL    HW111588   6.516   1.543   6.687
 3563SOL    HW211589   6.466   1.688   6.628
 3564SOL     OW11590   0.489   4.711   3.091
 3564SOL    HW111591   0.523   4.698   2.998
 3564SOL    HW211592   0.493   4.808   3.114
 3565SOL     OW11593   3.509   5.644   4.002
 3565SOL    HW111594   3.599   5.660   3.962
 3565SOL    HW211595   3.512   5.665   4.100
 3566SOL     OW11596   6.058   1.758   6.291
 3566SOL    HW111597   6.102   1.839   6.331
 3566SOL    HW211598   6.098   1.675   6.330
 3567SOL     OW11599   0.280   2.489   6.642
 3567SOL    HW111600   0.246   2.577   6.674
 3567SOL    HW211601   0.359   2.462   6.698
 3568SOL     OW11602   4.995   4.272   5.045
 3568SOL    HW111603   5.070   4.221   5.086
 3568SOL    HW211604   4.919   4.211   5.025
 3569SOL     OW11605   2.889   2.595   6.376
 3569SOL    HW111606   2.891   2.527   6.449
 3569SOL    HW211607   2.836   2.560   6.299
 3570SOL     OW11608   5.158   0.247   6.106
 3570SOL    HW111609   5.147   0.205   6.196
 3570SOL    HW211610   5.239   0.306   6.106
 3571SOL     OW11611   0.895   5.095   0.087
 3571SOL    HW111612   0.927   5.081   7.014
 3571SOL    HW211613   0.961   5.054   0.150
 3572SOL     OW11614   5.560   4.311   3.196
 3572SOL    HW111615   5.657   4.316   3.174
 3572SOL    HW211616   5.506   4.338   3.116
 3573SOL     OW11617   0.447   4.671   3.498
 3573SOL    HW111618   0.382   4.645   3.427
 3573SOL    HW211619   0.440   4.769   3.515
 3574SOL     OW11620   0.405   4.350   0.603
 3574SOL    HW111621   0.483   4.411   0.588
 3574SOL    HW211622   0.436   4.255   0.602
 3575SOL     OW11623   5.075   4.729   2.744
 3575SOL    HW111624   5.014   4.658   2.780
 3575SOL    HW211625   5.021   4.805   2.709
 3576SOL     OW11626   1.996   1.687   5.377
 3576SOL    HW111627   1.916   1.666   5.432
 3576SOL    HW211628   1.985   1.778   5.336
 3577SOL     OW11629   1.349   2.405   6.282
 3577SOL    HW111630   1.255   2.435   6.262
 3577SOL    HW211631   1.351   2.305   6.287
 3578SOL     OW11632   3.331   2.396   0.737
 3578SOL    HW111633   3.297   2.484   0.771
 3578SOL    HW211634   3.280   2.322   0.782
 3579SOL     OW11635   5.963   3.702   4.850
 3579SOL    HW111636   6.006   3.792   4.864
 3579SOL    HW211637   5.995   3.663   4.764
 3580SOL     OW11638   6.164   2.790   1.091
 3580SOL    HW111639   6.207   2.728   1.157
 3580SOL    HW211640   6.135   2.873   1.139
 3581SOL     OW11641   0.327   6.021   3.783
 3581SOL    HW111642   0.346   5.942   3.840
 3581SOL    HW211643   0.413   6.062   3.753
 3582SOL     OW11644   1.008   2.252   5.674
 3582SOL    HW111645   0.986   2.336   5.624
 3582SOL    HW211646   1.000   2.174   5.613
 3583SOL     OW11647   1.613   3.533   6.250
 3583SOL    HW111648   1.699   3.546   6.202
 3583SOL    HW211649   1.537   3.548   6.187
 3584SOL     OW11650   5.982   5.133   6.759
 3584SOL    HW111651   5.946   5.195   6.689
 3584SOL    HW211652   6.070   5.166   6.791
 3585SOL     OW11653   4.418   6.236   4.992
 3585SOL    HW111654   4.481   6.161   5.014
 3585SOL    HW211655   4.457   6.323   5.022
 3586SOL     OW11656   0.517   2.496   5.383
 3586SOL    HW111657   0.440   2.526   5.440
 3586SOL    HW211658   0.540   2.568   5.319
 3587SOL     OW11659   2.591   5.138   6.308
 3587SOL    HW111660   2.661   5.182   6.252
 3587SOL    HW211661   2.571   5.195   6.388
 3588SOL     OW11662   1.022   3.059   5.037
 3588SOL    HW111663   1.120   3.048   5.019
 3588SOL    HW211664   1.007   3.067   5.136
 3589SOL     OW11665   4.104   2.178   4.837
 3589SOL    HW111666   4.148   2.191   4.748
 3589SOL    HW211667   4.129   2.254   4.898
 3590SOL     OW11668   1.361   2.825   6.533
 3590SOL    HW111669   1.406   2.849   6.447
 3590SOL    HW211670   1.382   2.730   6.556
 3591SOL     OW11671   5.040   3.298   6.714
 3591SOL    HW111672   4.987   3.282   6.797
 3591SOL    HW211673   4.983   3.343   6.646
 3592SOL     OW11674   6.459   4.164   1.726
 3592SOL    HW111675   6.532   4.158   1.795
 3592SOL    HW211676   6.402   4.244   1.746
 3593SOL     OW11677   1.816   5.887   4.748
 3593SOL    HW111678   1.890   5.949   4.771
 3593SOL    HW211679   1.829   5.800   4.796
 3594SOL     OW11680   4.530   0.494   3.144
 3594SOL    HW111681   4.604   0.548   3.104
 3594SOL    HW211682   4.475   0.552   3.203
 3595SOL     OW11683   2.574   5.866   0.226
 3595SOL    HW111684   2.543   5.902   0.138
 3595SOL    HW211685   2.517   5.788   0.251
 3596SOL     OW11686   6.732   2.205   3.328
 3596SOL    HW111687   6.661   2.272   3.307
 3596SOL    HW211688   6.777   2.176   3.243
 3597SOL     OW11689   2.338   1.606   5.032
 3597SOL    HW111690   2.365   1.688   5.082
 3597SOL    HW211691   2.419   1.562   4.994
 3598SOL     OW11692   1.201   6.131   6.494
 3598SOL    HW111693   1.179   6.140   6.592
 3598SOL    HW211694   1.116   6.123   6.442
 3599SOL     OW11695   0.626   2.048   5.705
 3599SOL    HW111696   0.592   2.141   5.717
 3599SOL    HW211697   0.554   1.983   5.732
 3600SOL     OW11698   0.983   3.753   0.184
 3600SOL    HW111699   0.915   3.809   0.231
 3600SOL    HW211700   0.955   3.738   0.089
 3601SOL     OW11701   5.708   4.901   6.649
 3601SOL    HW111702   5.743   4.919   6.741
 3601SOL    HW211703   5.724   4.805   6.625
 3602SOL     OW11704   1.363   2.754   0.417
 3602SOL    HW111705   1.424   2.679   0.443
 3602SOL    HW211706   1.417   2.836   0.402
 3603SOL     OW11707   3.484   0.109   3.847
 3603SOL    HW111708   3.531   0.097   3.759
 3603SOL    HW211709   3.421   0.033   3.862
 3604SOL     OW11710   6.865   4.940   3.165
 3604SOL    HW111711   6.861   4.922   3.263
 3604SOL    HW211712   6.948   4.993   3.144
 3605SOL     OW11713   5.494   4.088   4.938
 3605SOL    HW111714   5.572   4.126   4.986
 3605SOL    HW211715   5.525   4.041   4.855
 3606SOL     OW11716   0.072   6.326   5.622
 3606SOL    HW111717   0.118   6.339   5.710
 3606SOL    HW211718   0.139   6.331   5.549
 3607SOL     OW11719   5.369   6.103   1.169
 3607SOL    HW111720   5.462   6.065   1.169
 3607SOL    HW211721   5.312   6.050   1.106
 3608SOL     OW11722   6.372   1.850   3.231
 3608SOL    HW111723   6.435   1.856   3.153
 3608SOL    HW211724   6.314   1.769   3.221
 3609SOL     OW11725   0.788   0.669   4.175
 3609SOL    HW111726   0.751   0.602   4.240
 3609SOL    HW211727   0.734   0.666   4.091
 3610SOL     OW11728   1.373   6.971   5.792
 3610SOL    HW111729   1.335   6.884   5.825
 3610SOL    HW211730   1.458   6.954   5.742
 3611SOL     OW11731   4.887   5.994   5.994
 3611SOL    HW111732   4.905   6.075   5.939
 3611SOL    HW211733   4.955   5.924   5.974
 3612SOL     OW11734   6.092   6.880   6.979
 3612SOL    HW111735   6.179   6.843   6.948
 3612SOL    HW211736   6.038   6.807   0.001
 3613SOL     OW11737   4.830   5.363   1.782
 3613SOL    HW111738   4.802   5.451   1.743
 3613SOL    HW211739   4.902   5.379   1.850
 3614SOL     OW11740   4.000   3.595   1.907
 3614SOL    HW111741   3.913   3.622   1.865
 3614SOL    HW211742   4.031   3.666   1.970
 3615SOL     OW11743   5.416   5.562   0.098
 3615SOL    HW111744   5.348   5.496   0.065
 3615SOL    HW211745   5.375   5.619   0.169
 3616SOL     OW11746   0.678   3.165   6.146
 3616SOL    HW111747   0.675   3.265   6.145
 3616SOL    HW211748   0.753   3.133   6.088
 3617SOL     OW11749   3.833   1.333   6.267
 3617SOL    HW111750   3.746   1.381   6.269
 3617SOL    HW211751   3.837   1.268   6.343
 3618SOL     OW11752   2.535   1.895   5.589
 3618SOL    HW111753   2.455   1.955   5.593
 3618SOL    HW211754   2.562   1.883   5.493
 3619SOL     OW11755   5.405   2.600   4.148
 3619SOL    HW111756   5.483   2.662   4.157
 3619SOL    HW211757   5.320   2.651   4.162
 3620SOL     OW11758   6.289   6.198   6.060
 3620SOL    HW111759   6.247   6.281   6.024
 3620SOL    HW211760   6.324   6.143   5.984
 3621SOL     OW11761   3.687   3.048   5.523
 3621SOL    HW111762   3.674   3.094   5.611
 3621SOL    HW211763   3.624   2.970   5.517
 3622SOL     OW11764   1.466   1.711   4.722
 3622SOL    HW111765   1.517   1.787   4.764
 3622SOL    HW211766   1.408   1.668   4.791
 3623SOL     OW11767   6.176   5.695   4.351
 3623SOL    HW111768   6.102   5.629   4.365
 3623SOL    HW211769   6.162   5.742   4.264
 3624SOL     OW11770   2.324   5.952   1.684
 3624SOL    HW111771   2.349   5.874   1.628
 3624SOL    HW211772   2.362   6.036   1.644
 3625SOL     OW11773   5.699   3.441   6.694
 3625SOL    HW111774   5.742   3.479   6.775
 3625SOL    HW211775   5.769   3.405   6.632
 3626SOL     OW11776   0.920   3.362   6.238
 3626SOL    HW111777   0.834   3.414   6.242
 3626SOL    HW211778   0.935   3.316   6.325
 3627SOL     OW11779   3.463   2.889   3.514
 3627SOL    HW111780   3.508   2.868   3.601
 3627SOL    HW211781   3.369   2.920   3.532
 3628SOL     OW11782   1.234   1.524   1.914
 3628SOL    HW111783   1.321   1.561   1.882
 3628SOL    HW211784   1.202   1.454   1.850
 3629SOL     OW11785   0.017   2.120   5.313
 3629SOL    HW111786   0.111   2.125   5.280
 3629SOL    HW211787   7.003   2.027   5.298
 3630SOL     OW11788   4.949   3.058   3.934
 3630SOL    HW111789   5.008   3.136   3.955
 3630SOL    HW211790   5.005   2.985   3.893
 3631SOL     OW11791   1.972   6.840   4.051
 3631SOL    HW111792   2.032   6.807   4.124
 3631SOL    HW211793   2.021   6.903   3.992
 3632SOL     OW11794   5.129   6.356   1.670
 3632SOL    HW111795   5.087   6.435   1.713
 3632SOL    HW211796   5.109   6.355   1.572
 3633SOL     OW11797   3.671   1.847   5.633
 3633SOL    HW111798   3.653   1.750   5.649
 3633SOL    HW211799   3.666   1.897   5.720
 3634SOL     OW11800   0.714   5.295   4.956
 3634SOL    HW111801   0.744   5.391   4.950
 3634SOL    HW211802   0.621   5.291   4.992
 3635SOL     OW11803   2.882   6.953   5.932
 3635SOL    HW111804   2.787   6.929   5.911
 3635SOL    HW211805   2.943   6.882   5.897
 3636SOL     OW11806   0.160   5.443   0.178
 3636SOL    HW111807   0.231   5.468   0.113
 3636SOL    HW211808   0.129   5.525   0.227
 3637SOL     OW11809   6.767   1.844   1.748
 3637SOL    HW111810   6.845   1.855   1.686
 3637SOL    HW211811   6.728   1.933   1.770
 3638SOL     OW11812   0.865   4.385   4.299
 3638SOL    HW111813   0.809   4.399   4.217
 3638SOL    HW211814   0.914   4.298   4.292
 3639SOL     OW11815   3.245   4.143   0.743
 3639SOL    HW111816   3.315   4.077   0.715
 3639SOL    HW211817   3.154   4.102   0.731
 3640SOL     OW11818   3.922   0.879   0.609
 3640SOL    HW111819   3.937   0.866   0.707
 3640SOL    HW211820   4.010   0.880   0.562
 3641SOL     OW11821   5.392   3.324   3.144
 3641SOL    HW111822   5.343   3.300   3.060
 3641SOL    HW211823   5.445   3.244   3.175
 3642SOL     OW11824   5.270   1.115   0.205
 3642SOL    HW111825   5.336   1.128   0.131
 3642SOL    HW211826   5.212   1.196   0.213
 3643SOL     OW11827   2.375   6.056   5.211
 3643SOL    HW111828   2.454   6.063   5.150
 3643SOL    HW211829   2.309   6.127   5.188
 3644SOL     OW11830   6.929   1.245   1.934
 3644SOL    HW111831   6.951   1.177   1.863
 3644SOL    HW211832   6.873   1.317   1.894
 3645SOL     OW11833   6.985   2.792   3.431
 3645SOL    HW111834   6.934   2.744   3.501
 3645SOL    HW211835   0.002   2.877   3.468
 3646SOL     OW11836   0.139   4.411   6.447
 3646SOL    HW111837   0.151   4.496   6.498
 3646SOL    HW211838   0.206   4.408   6.372
 3647SOL     OW11839   2.488   4.187   6.614
 3647SOL    HW111840   2.542   4.166   6.695
 3647SOL    HW211841   2.391   4.172   6.634
 3648SOL     OW11842   3.679   5.124   2.385
 3648SOL    HW111843   3.633   5.035   2.391
 3648SOL    HW211844   3.704   5.142   2.290
 3649SOL     OW11845   4.729   2.890   1.722
 3649SOL    HW111846   4.676   2.965   1.762
 3649SOL    HW211847   4.751   2.823   1.793
 3650SOL     OW11848   0.423   5.057   0.920
 3650SOL    HW111849   0.418   5.047   1.019
 3650SOL    HW211850   0.516   5.083   0.893
 3651SOL     OW11851   0.352   6.941   4.513
 3651SOL    HW111852   0.436   6.910   4.469
 3651SOL    HW211853   0.291   6.862   4.527
 3652SOL     OW11854   5.557   6.304   3.224
 3652SOL    HW111855   5.514   6.309   3.134
 3652SOL    HW211856   5.654   6.325   3.216
 3653SOL     OW11857   0.106   1.292   4.369
 3653SOL    HW111858   0.047   1.224   4.413
 3653SOL    HW211859   0.146   1.253   4.286
 3654SOL     OW11860   2.554   4.548   1.168
 3654SOL    HW111861   2.497   4.491   1.227
 3654SOL    HW211862   2.607   4.610   1.224
 3655SOL     OW11863   1.541   6.469   4.298
 3655SOL    HW111864   1.483   6.396   4.335
 3655SOL    HW211865   1.604   6.430   4.231
 3656SOL     OW11866   0.985   3.772   1.769
 3656SOL    HW111867   0.914   3.758   1.700
 3656SOL    HW211868   0.950   3.747   1.859
 3657SOL     OW11869   4.990   5.164   5.888
 3657SOL    HW111870   5.032   5.254   5.882
 3657SOL    HW211871   4.893   5.174   5.910
 3658SOL     OW11872   1.818   5.222   5.478
 3658SOL    HW111873   1.902   5.230   5.425
 3658SOL    HW211874   1.828   5.150   5.546
 3659SOL     OW11875   1.255   3.407   4.812
 3659SOL    HW111876   1.162   3.444   4.803
 3659SOL    HW211877   1.321   3.478   4.787
 3660SOL     OW11878   5.794   6.907   3.583
 3660SOL    HW111879   5.809   6.871   3.491
 3660SOL    HW211880   5.880   6.940   3.621
 3661SOL     OW11881   5.423   1.388   5.508
 3661SOL    HW111882   5.413   1.334   5.591
 3661SOL    HW211883   5.469   1.475   5.529
 3662SOL     OW11884   4.284   6.328   3.985
 3662SOL    HW111885   4.370   6.373   4.008
 3662SOL    HW211886   4.208   6.382   4.021
 3663SOL     OW11887   1.701   1.888   0.915
 3663SOL    HW111888   1.646   1.959   0.958
 3663SOL    HW211889   1.744   1.832   0.986
 3664SOL     OW11890   5.382   2.698   1.758
 3664SOL    HW111891   5.411   2.629   1.825
 3664SOL    HW211892   5.460   2.722   1.700
 3665SOL     OW11893   2.052   5.906   5.406
 3665SOL    HW111894   2.092   5.984   5.455
 3665SOL    HW211895   1.952   5.911   5.411
 3666SOL     OW11896   1.016   4.295   3.041
 3666SOL    HW111897   0.953   4.277   3.117
 3666SOL    HW211898   1.036   4.210   2.993
 3667SOL     OW11899   0.479   0.697   2.658
 3667SOL    HW111900   0.467   0.752   2.575
 3667SOL    HW211901   0.390   0.666   2.691
 3668SOL     OW11902   1.723   1.111   1.931
 3668SOL    HW111903   1.756   1.180   1.995
 3668SOL    HW211904   1.740   1.142   1.837
 3669SOL     OW11905   4.850   0.531   3.684
 3669SOL    HW111906   4.772   0.495   3.736
 3669SOL    HW211907   4.932   0.529   3.740
 3670SOL     OW11908   2.856   5.114   0.464
 3670SOL    HW111909   2.757   5.117   0.474
 3670SOL    HW211910   2.881   5.045   0.396
 3671SOL     OW11911   6.140   1.243   3.953
 3671SOL    HW111912   6.161   1.282   3.864
 3671SOL    HW211913   6.225   1.223   4.002
 3672SOL     OW11914   5.917   1.754   1.193
 3672SOL    HW111915   5.881   1.679   1.137
 3672SOL    HW211916   5.866   1.759   1.279
 3673SOL     OW11917   4.049   6.272   6.610
 3673SOL    HW111918   4.071   6.310   6.520
 3673SOL    HW211919   3.957   6.233   6.608
 3674SOL     OW11920   0.812   6.723   5.058
 3674SOL    HW111921   0.883   6.654   5.062
 3674SOL    HW211922   0.723   6.680   5.073
 3675SOL     OW11923   2.210   3.143   4.595
 3675SOL    HW111924   2.162   3.102   4.673
 3675SOL    HW211925   2.306   3.118   4.598
 3676SOL     OW11926   5.224   4.272   3.317
 3676SOL    HW111927   5.284   4.351   3.306
 3676SOL    HW211928   5.132   4.296   3.287
 3677SOL     OW11929   2.334   5.474   3.502
 3677SOL    HW111930   2.425   5.495   3.466
 3677SOL    HW211931   2.315   5.532   3.582
 3678SOL     OW11932   0.804   2.366   5.289
 3678SOL    HW111933   0.742   2.295   5.321
 3678SOL    HW211934   0.833   2.346   5.196
 3679SOL     OW11935   0.837   0.180   3.552
 3679SOL    HW111936   0.849   0.134   3.464
 3679SOL    HW211937   0.871   0.273   3.546
 3680SOL     OW11938   5.694   2.604   3.928
 3680SOL    HW111939   5.632   2.679   3.948
 3680SOL    HW211940   5.723   2.608   3.832
 3681SOL     OW11941   0.467   0.252   6.786
 3681SOL    HW111942   0.387   0.251   6.847
 3681SOL    HW211943   0.548   0.226   6.838
 3682SOL     OW11944   5.957   2.266   0.063
 3682SOL    HW111945   5.965   2.348   0.007
 3682SOL    HW211946   6.047   2.239   0.098
 3683SOL     OW11947   6.645   0.228   2.565
 3683SOL    HW111948   6.703   0.306   2.588
 3683SOL    HW211949   6.618   0.234   2.468
 3684SOL     OW11950   1.962   4.965   0.184
 3684SOL    HW111951   1.958   4.873   0.221
 3684SOL    HW211952   1.869   5.001   0.173
 3685SOL     OW11953   6.715   6.564   6.548
 3685SOL    HW111954   6.812   6.540   6.546
 3685SOL    HW211955   6.684   6.586   6.456
 3686SOL     OW11956   5.842   5.748   3.966
 3686SOL    HW111957   5.764   5.803   3.994
 3686SOL    HW211958   5.842   5.736   3.867
 3687SOL     OW11959   3.447   6.029   5.364
 3687SOL    HW111960   3.423   5.935   5.341
 3687SOL    HW211961   3.368   6.088   5.350
 3688SOL     OW11962   6.549   3.744   6.290
 3688SOL    HW111963   6.638   3.790   6.295
 3688SOL    HW211964   6.478   3.805   6.326
 3689SOL     OW11965   2.412   0.024   6.100
 3689SOL    HW111966   2.507   0.005   6.123
 3689SOL    HW211967   2.379   6.979   6.034
 3690SOL     OW11968   4.928   5.562   0.176
 3690SOL    HW111969   4.860   5.565   0.103
 3690SOL    HW211970   4.934   5.469   0.212
 3691SOL     OW11971   2.776   2.339   0.009
 3691SOL    HW111972   2.736   2.310   0.096
 3691SOL    HW211973   2.830   2.422   0.023
 3692SOL     OW11974   0.064   5.503   5.571
 3692SOL    HW111975   0.073   5.464   5.479
 3692SOL    HW211976   0.121   5.450   5.635
 3693SOL     OW11977   2.107   3.939   2.852
 3693SOL    HW111978   2.168   4.018   2.864
 3693SOL    HW211979   2.107   3.912   2.756
 3694SOL     OW11980   1.475   6.234   2.604
 3694SOL    HW111981   1.528   6.235   2.520
 3694SOL    HW211982   1.537   6.243   2.683
 3695SOL     OW11983   6.846   2.899   1.583
 3695SOL    HW111984   6.903   2.959   1.525
 3695SOL    HW211985   6.756   2.889   1.541
 3696SOL     OW11986   3.864   5.774   5.596
 3696SOL    HW111987   3.887   5.869   5.579
 3696SOL    HW211988   3.778   5.770   5.649
 3697SOL     OW11989   0.296   6.632   2.942
 3697SOL    HW111990   0.234   6.699   2.902
 3697SOL    HW211991   0.268   6.540   2.914
 3698SOL     OW11992   2.313   1.059   4.151
 3698SOL    HW111993   2.296   1.093   4.244
 3698SOL    HW211994   2.230   1.016   4.116
 3699SOL     OW11995   0.911   1.872   3.821
 3699SOL    HW111996   0.827   1.856   3.873
 3699SOL    HW211997   0.956   1.955   3.854
 3700SOL     OW11998   0.920   6.237   4.940
 3700SOL    HW111999   0.896   6.331   4.964
 3700SOL    HW212000   0.991   6.204   5.001
 3701SOL     OW12001   1.812   0.337   3.836
 3701SOL    HW112002   1.866   0.293   3.764
 3701SOL    HW212003   1.812   0.279   3.918
 3702SOL     OW12004   6.123   6.878   3.247
 3702SOL    HW112005   6.207   6.833   3.214
 3702SOL    HW212006   6.107   6.961   3.194
 3703SOL     OW12007   6.266   1.134   5.197
 3703SOL    HW112008   6.236   1.162   5.106
 3703SOL    HW212009   6.206   1.062   5.232
 3704SOL     OW12010   3.735   1.959   1.915
 3704SOL    HW112011   3.675   1.881   1.935
 3704SOL    HW212012   3.716   2.033   1.979
 3705SOL     OW12013   4.173   5.163   3.666
 3705SOL    HW112014   4.224   5.129   3.745
 3705SOL    HW212015   4.092   5.106   3.652
 3706SOL     OW12016   1.878   3.251   6.777
 3706SOL    HW112017   1.793   3.260   6.726
 3706SOL    HW212018   1.859   3.247   6.875
 3707SOL     OW12019   5.447   4.676   4.455
 3707SOL    HW112020   5.389   4.757   4.451
 3707SOL    HW212021   5.389   4.594   4.454
 3708SOL     OW12022   0.345   0.619   6.568
 3708SOL    HW112023   0.248   0.618   6.542
 3708SOL    HW212024   0.399   0.580   6.493
 3709SOL     OW12025   3.115   0.796   1.099
 3709SOL    HW112026   3.062   0.772   1.017
 3709SOL    HW212027   3.212   0.787   1.079
 3710SOL     OW12028   6.390   5.079   6.027
 3710SOL    HW112029   6.374   5.160   6.084
 3710SOL    HW212030   6.303   5.037   6.004
 3711SOL     OW12031   0.783   0.205   4.210
 3711SOL    HW112032   0.696   0.167   4.178
 3711SOL    HW212033   0.768   0.298   4.244
 3712SOL     OW12034   0.329   5.477   7.004
 3712SOL    HW112035   0.277   5.416   6.944
 3712SOL    HW212036   0.425   5.477   6.977
 3713SOL     OW12037   0.949   6.377   5.285
 3713SOL    HW112038   1.008   6.300   5.261
 3713SOL    HW212039   0.966   6.404   5.380
 3714SOL     OW12040   5.154   5.949   5.313
 3714SOL    HW112041   5.164   5.916   5.407
 3714SOL    HW212042   5.198   6.038   5.304
 3715SOL     OW12043   0.361   4.137   2.886
 3715SOL    HW112044   0.344   4.158   2.790
 3715SOL    HW212045   0.342   4.041   2.904
 3716SOL     OW12046   6.390   0.289   5.289
 3716SOL    HW112047   6.292   0.306   5.289
 3716SOL    HW212048   6.410   0.205   5.339
 3717SOL     OW12049   6.255   6.645   6.610
 3717SOL    HW112050   6.234   6.741   6.628
 3717SOL    HW212051   6.185   6.607   6.549
 3718SOL     OW12052   1.510   0.527   6.947
 3718SOL    HW112053   1.610   0.529   6.959
 3718SOL    HW212054   1.476   0.621   6.945
 3719SOL     OW12055   5.548   4.363   1.350
 3719SOL    HW112056   5.531   4.266   1.367
 3719SOL    HW212057   5.642   4.376   1.321
 3720SOL     OW12058   5.712   2.417   6.608
 3720SOL    HW112059   5.637   2.353   6.591
 3720SOL    HW212060   5.768   2.427   6.526
 3721SOL     OW12061   6.245   4.433   1.381
 3721SOL    HW112062   6.341   4.461   1.375
 3721SOL    HW212063   6.206   4.428   1.289
 3722SOL     OW12064   6.727   5.914   0.772
 3722SOL    HW112065   6.692   5.846   0.707
 3722SOL    HW212066   6.803   5.963   0.729
 3723SOL     OW12067   5.903   5.488   1.696
 3723SOL    HW112068   5.955   5.488   1.781
 3723SOL    HW212069   5.834   5.559   1.699
 3724SOL     OW12070   1.747   4.191   4.785
 3724SOL    HW112071   1.797   4.250   4.721
 3724SOL    HW212072   1.750   4.097   4.754
 3725SOL     OW12073   5.687   5.208   0.497
 3725SOL    HW112074   5.695   5.296   0.544
 3725SOL    HW212075   5.773   5.157   0.507
 3726SOL     OW12076   5.648   3.886   0.637
 3726SOL    HW112077   5.555   3.902   0.670
 3726SOL    HW212078   5.652   3.904   0.539
 3727SOL     OW12079   0.010   2.417   5.014
 3727SOL    HW112080   0.030   2.392   4.920
 3727SOL    HW212081   0.004   2.516   5.022
 3728SOL     OW12082   1.963   3.546   6.820
 3728SOL    HW112083   1.938   3.529   6.725
 3728SOL    HW212084   1.881   3.545   6.877
 3729SOL     OW12085   0.861   2.520   4.033
 3729SOL    HW112086   0.960   2.530   4.034
 3729SOL    HW212087   0.829   2.511   3.939
 3730SOL     OW12088   2.353   4.832   6.089
 3730SOL    HW112089   2.258   4.858   6.106
 3730SOL    HW212090   2.395   4.899   6.028
 3731SOL     OW12091   0.042   1.619   0.270
 3731SOL    HW112092   0.024   1.696   0.208
 3731SOL    HW212093   6.992   1.615   0.340
 3732SOL     OW12094   3.018   1.109   0.344
 3732SOL    HW112095   3.000   1.193   0.294
 3732SOL    HW212096   2.994   1.030   0.287
 3733SOL     OW12097   1.847   3.834   2.489
 3733SOL    HW112098   1.824   3.803   2.397
 3733SOL    HW212099   1.778   3.801   2.554
 3734SOL     OW12100   5.129   1.196   1.951
 3734SOL    HW112101   5.047   1.252   1.939
 3734SOL    HW212102   5.156   1.197   2.047
 3735SOL     OW12103   1.884   0.789   3.659
 3735SOL    HW112104   1.958   0.726   3.684
 3735SOL    HW212105   1.815   0.740   3.606
 3736SOL     OW12106   0.384   2.383   0.944
 3736SOL    HW112107   0.402   2.482   0.936
 3736SOL    HW212108   0.469   2.333   0.930
 3737SOL     OW12109   4.876   0.552   3.418
 3737SOL    HW112110   4.857   0.569   3.515
 3737SOL    HW212111   4.819   0.477   3.385
 3738SOL     OW12112   6.907   6.837   1.973
 3738SOL    HW112113   6.821   6.786   1.979
 3738SOL    HW212114   6.976   6.792   2.030
 3739SOL     OW12115   2.760   4.389   1.652
 3739SOL    HW112116   2.674   4.435   1.673
 3739SOL    HW212117   2.827   4.410   1.723
 3740SOL     OW12118   5.380   0.533   0.633
 3740SOL    HW112119   5.464   0.587   0.634
 3740SOL    HW212120   5.366   0.492   0.723
 3741SOL     OW12121   4.993   2.712   0.443
 3741SOL    HW112122   5.033   2.803   0.451
 3741SOL    HW212123   5.063   2.648   0.411
 3742SOL     OW12124   3.036   1.455   0.011
 3742SOL    HW112125   3.090   1.375   7.007
 3742SOL    HW212126   2.998   1.497   6.950
 3743SOL     OW12127   5.862   3.353   0.644
 3743SOL    HW112128   5.810   3.402   0.713
 3743SOL    HW212129   5.828   3.376   0.553
 3744SOL     OW12130   1.319   5.892   2.587
 3744SOL    HW112131   1.370   5.966   2.630
 3744SOL    HW212132   1.383   5.829   2.542
 3745SOL     OW12133   3.991   4.803   1.588
 3745SOL    HW112134   3.979   4.880   1.525
 3745SOL    HW212135   3.944   4.723   1.553
 3746SOL     OW12136   5.343   0.876   3.120
 3746SOL    HW112137   5.294   0.954   3.082
 3746SOL    HW212138   5.371   0.814   3.047
 3747SOL     OW12139   2.873   6.415   5.131
 3747SOL    HW112140   2.804   6.397   5.201
 3747SOL    HW212141   2.960   6.437   5.174
 3748SOL     OW12142   5.851   1.504   1.096
 3748SOL    HW112143   5.777   1.441   1.121
 3748SOL    HW212144   5.868   1.498   0.998
 3749SOL     OW12145   1.492   5.670   3.439
 3749SOL    HW112146   1.461   5.587   3.391
 3749SOL    HW212147   1.417   5.736   3.442
 3750SOL     OW12148   0.855   4.155   0.657
 3750SOL    HW112149   0.903   4.084   0.709
 3750SOL    HW212150   0.827   4.118   0.569
 3751SOL     OW12151   0.447   3.461   1.838
 3751SOL    HW112152   0.372   3.453   1.773
 3751SOL    HW212153   0.478   3.370   1.864
 3752SOL     OW12154   5.110   0.479   6.966
 3752SOL    HW112155   5.077   0.390   6.934
 3752SOL    HW212156   5.203   0.469   7.001
 3753SOL     OW12157   6.284   6.445   4.607
 3753SOL    HW112158   6.356   6.506   4.640
 3753SOL    HW212159   6.243   6.484   4.525
 3754SOL     OW12160   2.453   1.104   1.237
 3754SOL    HW112161   2.479   1.017   1.195
 3754SOL    HW212162   2.367   1.136   1.198
 3755SOL     OW12163   4.839   4.303   4.327
 3755SOL    HW112164   4.784   4.279   4.247
 3755SOL    HW212165   4.788   4.281   4.411
 3756SOL     OW12166   2.920   5.030   6.148
 3756SOL    HW112167   2.872   5.113   6.177
 3756SOL    HW212168   2.857   4.952   6.150
 3757SOL     OW12169   5.857   5.498   0.685
 3757SOL    HW112170   5.936   5.510   0.626
 3757SOL    HW212171   5.849   5.576   0.747
 3758SOL     OW12172   2.913   1.727   4.910
 3758SOL    HW112173   2.900   1.822   4.881
 3758SOL    HW212174   2.828   1.676   4.895
 3759SOL     OW12175   4.250   6.927   6.211
 3759SOL    HW112176   4.258   6.878   6.297
 3759SOL    HW212177   4.154   6.948   6.193
 3760SOL     OW12178   1.021   1.668   4.551
 3760SOL    HW112179   0.944   1.629   4.501
 3760SOL    HW212180   1.091   1.699   4.486
 3761SOL     OW12181   0.378   1.165   5.133
 3761SOL    HW112182   0.392   1.259   5.103
 3761SOL    HW212183   0.417   1.153   5.225
 3762SOL     OW12184   1.229   4.760   1.131
 3762SOL    HW112185   1.270   4.793   1.047
 3762SOL    HW212186   1.204   4.838   1.189
 3763SOL     OW12187   6.913   3.446   0.388
 3763SOL    HW112188   6.989   3.448   0.323
 3763SOL    HW212189   6.827   3.448   0.338
 3764SOL     OW12190   1.623   0.249   2.491
 3764SOL    HW112191   1.704   0.203   2.453
 3764SOL    HW212192   1.548   0.184   2.497
 3765SOL     OW12193   5.367   1.445   0.712
 3765SOL    HW112194   5.318   1.482   0.791
 3765SOL    HW212195   5.353   1.505   0.633
 3766SOL     OW12196   1.899   2.035   4.166
 3766SOL    HW112197   1.822   2.020   4.105
 3766SOL    HW212198   1.879   1.997   4.256
 3767SOL     OW12199   2.217   4.267   0.065
 3767SOL    HW112200   2.235   4.363   0.043
 3767SOL    HW212201   2.279   4.208   0.013
 3768SOL     OW12202   0.481   6.596   4.116
 3768SOL    HW112203   0.449   6.515   4.165
 3768SOL    HW212204   0.518   6.568   4.028
 3769SOL     OW12205   6.008   6.039   4.520
 3769SOL    HW112206   6.045   6.027   4.428
 3769SOL    HW212207   5.910   6.018   4.520
 3770SOL     OW12208   1.168   0.688   6.397
 3770SOL    HW112209   1.200   0.600   6.361
 3770SOL    HW212210   1.219   0.762   6.353
 3771SOL     OW12211   5.132   3.237   0.184
 3771SOL    HW112212   5.226   3.202   0.185
 3771SOL    HW212213   5.130   3.326   0.140
 3772SOL     OW12214   0.460   0.839   0.198
 3772SOL    HW112215   0.484   0.833   0.295
 3772SOL    HW212216   0.367   0.805   0.185
 3773SOL     OW12217   5.750   3.535   5.398
 3773SOL    HW112218   5.849   3.524   5.401
 3773SOL    HW212219   5.709   3.456   5.352
 3774SOL     OW12220   6.233   5.627   1.182
 3774SOL    HW112221   6.249   5.724   1.166
 3774SOL    HW212222   6.315   5.585   1.220
 3775SOL     OW12223   4.423   5.411   2.851
 3775SOL    HW112224   4.335   5.395   2.896
 3775SOL    HW212225   4.487   5.339   2.878
 3776SOL     OW12226   4.211   1.838   6.772
 3776SOL    HW112227   4.167   1.861   6.685
 3776SOL    HW212228   4.141   1.832   6.843
 3777SOL     OW12229   3.608   5.480   3.300
 3777SOL    HW112230   3.551   5.398   3.287
 3777SOL    HW212231   3.676   5.485   3.227
 3778SOL     OW12232   3.246   5.141   2.337
 3778SOL    HW112233   3.246   5.177   2.431
 3778SOL    HW212234   3.333   5.162   2.293
 3779SOL     OW12235   0.660   4.995   0.234
 3779SOL    HW112236   0.739   5.000   0.173
 3779SOL    HW212237   0.603   4.917   0.209
 3780SOL     OW12238   5.744   4.846   4.808
 3780SOL    HW112239   5.829   4.797   4.826
 3780SOL    HW212240   5.667   4.781   4.810
 3781SOL     OW12241   0.553   6.803   4.305
 3781SOL    HW112242   0.559   6.733   4.376
 3781SOL    HW212243   0.536   6.760   4.216
 3782SOL     OW12244   2.377   0.285   3.006
 3782SOL    HW112245   2.315   0.230   2.950
 3782SOL    HW212246   2.424   0.352   2.949
 3783SOL     OW12247   5.804   5.313   4.246
 3783SOL    HW112248   5.796   5.379   4.171
 3783SOL    HW212249   5.715   5.302   4.290
 3784SOL     OW12250   5.071   2.865   2.980
 3784SOL    HW112251   5.131   2.942   3.002
 3784SOL    HW212252   5.120   2.799   2.923
 3785SOL     OW12253   1.601   3.293   5.727
 3785SOL    HW112254   1.625   3.315   5.633
 3785SOL    HW212255   1.506   3.261   5.731
 3786SOL     OW12256   2.453   5.256   3.388
 3786SOL    HW112257   2.412   5.322   3.451
 3786SOL    HW212258   2.539   5.294   3.352
 3787SOL     OW12259   6.478   1.602   2.834
 3787SOL    HW112260   6.407   1.671   2.823
 3787SOL    HW212261   6.568   1.646   2.823
 3788SOL     OW12262   6.954   4.617   4.785
 3788SOL    HW112263   6.996   4.556   4.852
 3788SOL    HW212264   6.876   4.663   4.827
 3789SOL     OW12265   0.445   3.420   4.498
 3789SOL    HW112266   0.351   3.446   4.475
 3789SOL    HW212267   0.466   3.452   4.590
 3790SOL     OW12268   1.273   4.428   5.672
 3790SOL    HW112269   1.334   4.456   5.598
 3790SOL    HW212270   1.236   4.337   5.653
 3791SOL     OW12271   4.924   0.922   6.149
 3791SOL    HW112272   4.986   0.983   6.198
 3791SOL    HW212273   4.848   0.898   6.209
 3792SOL     OW12274   1.244   2.058   3.511
 3792SOL    HW112275   1.309   1.987   3.485
 3792SOL    HW212276   1.284   2.116   3.582
 3793SOL     OW12277   4.749   6.664   2.047
 3793SOL    HW112278   4.799   6.740   2.088
 3793SOL    HW212279   4.722   6.689   1.954
 3794SOL     OW12280   1.977   2.480   1.171
 3794SOL    HW112281   1.892   2.445   1.131
 3794SOL    HW212282   2.006   2.420   1.245
 3795SOL     OW12283   4.993   5.995   1.091
 3795SOL    HW112284   4.935   5.923   1.129
 3795SOL    HW212285   4.936   6.072   1.061
 3796SOL     OW12286   3.285   2.064   2.344
 3796SOL    HW112287   3.193   2.057   2.304
 3796SOL    HW212288   3.278   2.072   2.443
 3797SOL     OW12289   0.734   3.422   2.253
 3797SOL    HW112290   0.717   3.516   2.224
 3797SOL    HW212291   0.699   3.409   2.346
 3798SOL     OW12292   2.639   5.422   3.579
 3798SOL    HW112293   2.697   5.503   3.583
 3798SOL    HW212294   2.687   5.350   3.528
 3799SOL     OW12295   5.978   2.343   3.794
 3799SOL    HW112296   5.941   2.250   3.797
 3799SOL    HW212297   6.037   2.353   3.714
 3800SOL     OW12298   5.547   2.396   4.044
 3800SOL    HW112299   5.606   2.454   3.987
 3800SOL    HW212300   5.475   2.452   4.084
 3801SOL     OW12301   5.576   6.658   1.662
 3801SOL    HW112302   5.639   6.719   1.615
 3801SOL    HW212303   5.493   6.708   1.688
 3802SOL     OW12304   1.471   2.373   1.568
 3802SOL    HW112305   1.498   2.338   1.478
 3802SOL    HW212306   1.503   2.309   1.639
 3803SOL     OW12307   4.168   3.305   2.234
 3803SOL    HW112308   4.140   3.210   2.248
 3803SOL    HW212309   4.129   3.362   2.306
 3804SOL     OW12310   5.023   1.128   4.057
 3804SOL    HW112311   5.003   1.148   3.962
 3804SOL    HW212312   5.114   1.163   4.080
 3805SOL     OW12313   1.843   2.614   1.377
 3805SOL    HW112314   1.861   2.564   1.462
 3805SOL    HW212315   1.913   2.590   1.309
 3806SOL     OW12316   3.981   3.600   5.885
 3806SOL    HW112317   3.958   3.503   5.872
 3806SOL    HW212318   3.918   3.656   5.831
 3807SOL     OW12319   1.689   5.693   2.631
 3807SOL    HW112320   1.744   5.645   2.699
 3807SOL    HW212321   1.707   5.791   2.638
 3808SOL     OW12322   4.484   1.147   0.431
 3808SOL    HW112323   4.438   1.199   0.359
 3808SOL    HW212324   4.527   1.066   0.392
 3809SOL     OW12325   5.646   2.596   1.646
 3809SOL    HW112326   5.710   2.628   1.576
 3809SOL    HW212327   5.696   2.574   1.730
 3810SOL     OW12328   4.710   2.798   3.789
 3810SOL    HW112329   4.761   2.731   3.842
 3810SOL    HW212330   4.698   2.881   3.842
 3811SOL     OW12331   0.808   5.696   4.703
 3811SOL    HW112332   0.810   5.654   4.794
 3811SOL    HW212333   0.722   5.745   4.690
 3812SOL     OW12334   4.427   5.211   5.505
 3812SOL    HW112335   4.503   5.157   5.542
 3812SOL    HW212336   4.454   5.250   5.417
 3813SOL     OW12337   4.289   3.152   0.724
 3813SOL    HW112338   4.244   3.144   0.813
 3813SOL    HW212339   4.252   3.082   0.663
 3814SOL     OW12340   6.228   6.954   5.902
 3814SOL    HW112341   6.239   0.030   5.885
 3814SOL    HW212342   6.306   6.905   5.864
 3815SOL     OW12343   3.447   1.844   0.551
 3815SOL    HW112344   3.491   1.779   0.613
 3815SOL    HW212345   3.508   1.920   0.533
 3816SOL     OW12346   1.107   5.711   6.412
 3816SOL    HW112347   1.047   5.791   6.425
 3816SOL    HW212348   1.075   5.657   6.335
 3817SOL     OW12349   4.929   3.652   2.691
 3817SOL    HW112350   4.889   3.741   2.710
 3817SOL    HW212351   4.884   3.611   2.611
 3818SOL     OW12352   6.428   0.802   6.616
 3818SOL    HW112353   6.507   0.771   6.564
 3818SOL    HW212354   6.445   0.895   6.650
 3819SOL     OW12355   5.200   5.471   2.241
 3819SOL    HW112356   5.136   5.517   2.303
 3819SOL    HW212357   5.180   5.373   2.240
 3820SOL     OW12358   5.420   0.035   3.628
 3820SOL    HW112359   5.490   0.036   3.699
 3820SOL    HW212360   5.459   7.019   3.544
 3821SOL     OW12361   2.479   1.857   1.786
 3821SOL    HW112362   2.439   1.947   1.765
 3821SOL    HW212363   2.578   1.863   1.780
 3822SOL     OW12364   2.063   0.675   1.151
 3822SOL    HW112365   2.118   0.602   1.110
 3822SOL    HW212366   2.123   0.737   1.202
 3823SOL     OW12367   3.141   3.535   6.630
 3823SOL    HW112368   3.174   3.576   6.545
 3823SOL    HW212369   3.049   3.569   6.650
 3824SOL     OW12370   0.604   3.011   0.502
 3824SOL    HW112371   0.618   2.923   0.546
 3824SOL    HW212372   0.571   3.077   0.570
 3825SOL     OW12373   0.292   5.299   0.572
 3825SOL    HW112374   0.239   5.381   0.548
 3825SOL    HW212375   0.360   5.322   0.641
 3826SOL     OW12376   1.236   3.907   6.721
 3826SOL    HW112377   1.166   3.977   6.706
 3826SOL    HW212378   1.205   3.820   6.684
 3827SOL     OW12379   1.814   1.217   1.650
 3827SOL    HW112380   1.810   1.316   1.662
 3827SOL    HW212381   1.735   1.187   1.596
 3828SOL     OW12382   3.695   3.771   2.970
 3828SOL    HW112383   3.646   3.856   2.953
 3828SOL    HW212384   3.632   3.701   3.002
 3829SOL     OW12385   1.459   5.193   2.571
 3829SOL    HW112386   1.520   5.242   2.509
 3829SOL    HW212387   1.513   5.140   2.636
 3830SOL     OW12388   0.600   0.893   5.184
 3830SOL    HW112389   0.630   0.984   5.155
 3830SOL    HW212390   0.599   0.832   5.105
 3831SOL     OW12391   4.854   2.575   2.505
 3831SOL    HW112392   4.883   2.599   2.413
 3831SOL    HW212393   4.778   2.633   2.533
 3832SOL     OW12394   6.198   0.814   2.773
 3832SOL    HW112395   6.156   0.895   2.812
 3832SOL    HW212396   6.239   0.836   2.685
 3833SOL     OW12397   0.349   6.574   6.485
 3833SOL    HW112398   0.295   6.650   6.450
 3833SOL    HW212399   0.359   6.505   6.413
 3834SOL     OW12400   4.105   4.729   1.196
 3834SOL    HW112401   4.092   4.662   1.269
 3834SOL    HW212402   4.152   4.809   1.232
 3835SOL     OW12403   3.965   5.608   4.777
 3835SOL    HW112404   3.880   5.641   4.817
 3835SOL    HW212405   3.985   5.660   4.694
 3836SOL     OW12406   1.176   4.021   5.991
 3836SOL    HW112407   1.225   4.095   6.037
 3836SOL    HW212408   1.169   3.942   6.053
 3837SOL     OW12409   4.465   4.824   6.401
 3837SOL    HW112410   4.413   4.747   6.365
 3837SOL    HW212411   4.426   4.909   6.367
 3838SOL     OW12412   1.044   3.766   4.245
 3838SOL    HW112413   1.021   3.672   4.271
 3838SOL    HW212414   1.052   3.772   4.146
 3839SOL     OW12415   5.284   0.888   3.394
 3839SOL    HW112416   5.310   0.873   3.299
 3839SOL    HW212417   5.250   0.803   3.434
 3840SOL     OW12418   2.714   0.868   6.233
 3840SOL    HW112419   2.649   0.831   6.300
 3840SOL    HW212420   2.788   0.916   6.280
 3841SOL     OW12421   6.973   3.254   4.181
 3841SOL    HW112422   0.005   3.339   4.186
 3841SOL    HW212423   6.881   3.271   4.217
 3842SOL     OW12424   2.213   2.689   1.551
 3842SOL    HW112425   2.282   2.617   1.556
 3842SOL    HW212426   2.178   2.695   1.457
 3843SOL     OW12427   5.968   4.907   2.093
 3843SOL    HW112428   6.014   4.829   2.135
 3843SOL    HW212429   6.001   4.992   2.133
 3844SOL     OW12430   0.856   3.059   5.958
 3844SOL    HW112431   0.827   3.129   5.892
 3844SOL    HW212432   0.955   3.049   5.953
 3845SOL     OW12433   2.978   3.674   5.628
 3845SOL    HW112434   3.006   3.758   5.581
 3845SOL    HW212435   2.906   3.695   5.694
 3846SOL     OW12436   0.279   5.191   4.096
 3846SOL    HW112437   0.319   5.141   4.019
 3846SOL    HW212438   0.265   5.287   4.070
 3847SOL     OW12439   5.066   1.322   4.351
 3847SOL    HW112440   5.106   1.307   4.442
 3847SOL    HW212441   5.028   1.414   4.346
 3848SOL     OW12442   4.746   5.420   3.121
 3848SOL    HW112443   4.803   5.408   3.202
 3848SOL    HW212444   4.746   5.335   3.068
 3849SOL     OW12445   1.550   1.007   6.204
 3849SOL    HW112446   1.490   1.009   6.123
 3849SOL    HW212447   1.625   1.071   6.190
 3850SOL     OW12448   2.216   3.705   1.311
 3850SOL    HW112449   2.311   3.706   1.340
 3850SOL    HW212450   2.170   3.624   1.348
 3851SOL     OW12451   1.207   4.606   2.459
 3851SOL    HW112452   1.126   4.566   2.416
 3851SOL    HW212453   1.288   4.585   2.403
 3852SOL     OW12454   4.386   6.194   3.769
 3852SOL    HW112455   4.347   6.233   3.852
 3852SOL    HW212456   4.485   6.205   3.771
 3853SOL     OW12457   1.165   4.519   3.058
 3853SOL    HW112458   1.189   4.549   3.150
 3853SOL    HW212459   1.112   4.434   3.064
 3854SOL     OW12460   1.604   3.325   2.928
 3854SOL    HW112461   1.673   3.309   2.857
 3854SOL    HW212462   1.641   3.296   3.017
 3855SOL     OW12463   5.321   6.380   6.459
 3855SOL    HW112464   5.379   6.307   6.495
 3855SOL    HW212465   5.285   6.435   6.534
 3856SOL     OW12466   0.162   0.522   5.680
 3856SOL    HW112467   0.245   0.468   5.665
 3856SOL    HW212468   0.134   0.514   5.776
 3857SOL     OW12469   0.157   6.330   0.021
 3857SOL    HW112470   0.135   6.251   0.078
 3857SOL    HW212471   0.250   6.319   7.006
 3858SOL     OW12472   1.972   0.994   5.483
 3858SOL    HW112473   1.932   0.989   5.391
 3858SOL    HW212474   1.900   0.978   5.551
 3859SOL     OW12475   6.075   1.212   2.555
 3859SOL    HW112476   6.031   1.237   2.642
 3859SOL    HW212477   6.034   1.128   2.520
 3860SOL     OW12478   2.869   0.261   5.449
 3860SOL    HW112479   2.951   0.302   5.409
 3860SOL    HW212480   2.801   0.245   5.377
 3861SOL     OW12481   4.708   4.973   3.338
 3861SOL    HW112482   4.658   4.961   3.252
 3861SOL    HW212483   4.740   4.884   3.371
 3862SOL     OW12484   1.197   0.458   5.299
 3862SOL    HW112485   1.149   0.423   5.379
 3862SOL    HW212486   1.174   0.555   5.286
 3863SOL     OW12487   4.731   2.613   6.707
 3863SOL    HW112488   4.790   2.565   6.643
 3863SOL    HW212489   4.724   2.709   6.682
 3864SOL     OW12490   2.353   0.662   5.379
 3864SOL    HW112491   2.282   0.720   5.418
 3864SOL    HW212492   2.436   0.716   5.365
 3865SOL     OW12493   3.438   0.385   0.249
 3865SOL    HW112494   3.506   0.324   0.209
 3865SOL    HW212495   3.362   0.331   0.286
 3866SOL     OW12496   3.742   1.010   0.982
 3866SOL    HW112497   3.792   0.924   0.992
 3866SOL    HW212498   3.788   1.082   1.034
 3867SOL     OW12499   1.248   4.595   3.314
 3867SOL    HW112500   1.308   4.540   3.371
 3867SOL    HW212501   1.291   4.684   3.296
 3868SOL     OW12502   3.161   6.905   0.422
 3868SOL    HW112503   3.256   6.932   0.438
 3868SOL    HW212504   3.101   6.954   0.486
 3869SOL     OW12505   5.915   4.291   4.896
 3869SOL    HW112506   5.873   4.256   4.980
 3869SOL    HW212507   5.868   4.373   4.867
 3870SOL     OW12508   5.184   5.843   6.463
 3870SOL    HW112509   5.091   5.837   6.428
 3870SOL    HW212510   5.190   5.919   6.528
 3871SOL     OW12511   3.538   0.459   2.858
 3871SOL    HW112512   3.536   0.557   2.878
 3871SOL    HW212513   3.609   0.439   2.792
 3872SOL     OW12514   3.639   3.017   3.354
 3872SOL    HW112515   3.572   2.951   3.388
 3872SOL    HW212516   3.728   2.999   3.396
 3873SOL     OW12517   5.877   2.865   1.739
 3873SOL    HW112518   5.895   2.960   1.765
 3873SOL    HW212519   5.958   2.810   1.758
 3874SOL     OW12520   3.880   5.939   0.048
 3874SOL    HW112521   3.966   5.957   7.021
 3874SOL    HW212522   3.845   5.850   0.021
 3875SOL     OW12523   1.654   3.112   2.028
 3875SOL    HW112524   1.556   3.093   2.025
 3875SOL    HW212525   1.673   3.200   1.984
 3876SOL     OW12526   4.719   4.930   0.315
 3876SOL    HW112527   4.723   4.941   0.216
 3876SOL    HW212528   4.629   4.957   0.348
 3877SOL     OW12529   6.687   3.138   0.519
 3877SOL    HW112530   6.751   3.202   0.562
 3877SOL    HW212531   6.638   3.184   0.446
 3878SOL     OW12532   3.453   6.979   4.651
 3878SOL    HW112533   3.485   6.897   4.603
 3878SOL    HW212534   3.513   0.034   4.630
 3879SOL     OW12535   5.309   6.198   1.822
 3879SOL    HW112536   5.243   6.243   1.762
 3879SOL    HW212537   5.272   6.192   1.914
 3880SOL     OW12538   6.166   4.807   3.471
 3880SOL    HW112539   6.124   4.871   3.406
 3880SOL    HW212540   6.213   4.858   3.542
 3881SOL     OW12541   1.050   4.084   1.211
 3881SOL    HW112542   1.006   4.129   1.133
 3881SOL    HW212543   1.138   4.129   1.229
 3882SOL     OW12544   0.947   1.769   5.594
 3882SOL    HW112545   1.028   1.712   5.604
 3882SOL    HW212546   0.869   1.713   5.568
 3883SOL     OW12547   4.504   0.858   3.705
 3883SOL    HW112548   4.460   0.893   3.787
 3883SOL    HW212549   4.603   0.877   3.709
 3884SOL     OW12550   0.319   5.532   3.608
 3884SOL    HW112551   0.404   5.569   3.571
 3884SOL    HW212552   0.257   5.510   3.533
 3885SOL     OW12553   6.003   0.766   2.460
 3885SOL    HW112554   5.913   0.784   2.419
 3885SOL    HW212555   5.999   0.682   2.513
 3886SOL     OW12556   6.144   5.968   4.751
 3886SOL    HW112557   6.242   5.986   4.759
 3886SOL    HW212558   6.112   5.995   4.661
 3887SOL     OW12559   0.258   0.456   6.105
 3887SOL    HW112560   0.326   0.439   6.033
 3887SOL    HW212561   0.304   0.468   6.192
 3888SOL     OW12562   0.044   0.162   5.745
 3888SOL    HW112563   0.128   0.117   5.775
 3888SOL    HW212564   0.052   0.188   5.649
 3889SOL     OW12565   6.532   3.556   5.966
 3889SOL    HW112566   6.495   3.578   6.057
 3889SOL    HW212567   6.459   3.521   5.908
 3890SOL     OW12568   5.631   5.799   2.767
 3890SOL    HW112569   5.539   5.826   2.796
 3890SOL    HW212570   5.698   5.858   2.812
 3891SOL     OW12571   5.609   4.456   4.545
 3891SOL    HW112572   5.689   4.430   4.491
 3891SOL    HW212573   5.567   4.537   4.504
 3892SOL     OW12574   0.228   2.271   1.159
 3892SOL    HW112575   0.297   2.216   1.206
 3892SOL    HW212576   0.268   2.316   1.080
 3893SOL     OW12577   3.555   5.125   0.561
 3893SOL    HW112578   3.474   5.170   0.599
 3893SOL    HW212579   3.636   5.159   0.609
 3894SOL     OW12580   2.292   1.956   1.128
 3894SOL    HW112581   2.195   1.942   1.105
 3894SOL    HW212582   2.323   1.880   1.185
 3895SOL     OW12583   1.785   0.530   5.087
 3895SOL    HW112584   1.844   0.517   5.166
 3895SOL    HW212585   1.764   0.627   5.077
 3896SOL     OW12586   0.257   1.536   6.207
 3896SOL    HW112587   0.241   1.521   6.110
 3896SOL    HW212588   0.216   1.623   6.235
 3897SOL     OW12589   3.679   6.008   2.154
 3897SOL    HW112590   3.585   5.974   2.154
 3897SOL    HW212591   3.742   5.931   2.166
 3898SOL     OW12592   3.608   3.498   4.019
 3898SOL    HW112593   3.623   3.575   4.081
 3898SOL    HW212594   3.518   3.507   3.976
 3899SOL     OW12595   5.326   0.367   4.139
 3899SOL    HW112596   5.253   0.318   4.090
 3899SOL    HW212597   5.297   0.461   4.157
 3900SOL     OW12598   5.372   2.947   3.790
 3900SOL    HW112599   5.331   3.034   3.817
 3900SOL    HW212600   5.344   2.926   3.696
 3901SOL     OW12601   3.124   6.481   5.245
 3901SOL    HW112602   3.104   6.499   5.341
 3901SOL    HW212603   3.190   6.406   5.238
 3902SOL     OW12604   6.321   3.698   1.819
 3902SOL    HW112605   6.328   3.769   1.749
 3902SOL    HW212606   6.377   3.723   1.897
 3903SOL     OW12607   4.776   4.962   0.038
 3903SOL    HW112608   4.850   4.972   6.993
 3903SOL    HW212609   4.688   4.956   7.012
 3904SOL     OW12610   2.060   6.526   5.387
 3904SOL    HW112611   1.996   6.600   5.409
 3904SOL    HW212612   2.033   6.444   5.437
 3905SOL     OW12613   5.938   6.982   5.954
 3905SOL    HW112614   6.036   6.974   5.933
 3905SOL    HW212615   5.886   6.979   5.868
 3906SOL     OW12616   2.871   5.297   5.298
 3906SOL    HW112617   2.816   5.272   5.378
 3906SOL    HW212618   2.960   5.252   5.302
 3907SOL     OW12619   6.376   6.454   5.417
 3907SOL    HW112620   6.406   6.544   5.450
 3907SOL    HW212621   6.281   6.459   5.389
 3908SOL     OW12622   1.750   0.967   6.953
 3908SOL    HW112623   1.679   1.037   6.962
 3908SOL    HW212624   1.761   0.919   0.018
 3909SOL     OW12625   0.343   5.027   5.943
 3909SOL    HW112626   0.435   5.043   5.906
 3909SOL    HW212627   0.342   4.940   5.992
 3910SOL     OW12628   3.428   4.120   1.709
 3910SOL    HW112629   3.463   4.210   1.734
 3910SOL    HW212630   3.388   4.124   1.618
 3911SOL     OW12631   4.257   1.624   0.040
 3911SOL    HW112632   4.323   1.681   0.088
 3911SOL    HW212633   4.295   1.596   6.973
 3912SOL     OW12634   3.750   1.163   6.474
 3912SOL    HW112635   3.701   1.214   6.544
 3912SOL    HW212636   3.847   1.157   6.498
 3913SOL     OW12637   2.808   5.952   6.657
 3913SOL    HW112638   2.800   5.913   6.566
 3913SOL    HW212639   2.863   5.891   6.715
 3914SOL     OW12640   4.421   1.215   0.875
 3914SOL    HW112641   4.478   1.269   0.936
 3914SOL    HW212642   4.334   1.195   0.920
 3915SOL     OW12643   4.216   6.201   1.138
 3915SOL    HW112644   4.247   6.276   1.198
 3915SOL    HW212645   4.282   6.126   1.142
 3916SOL     OW12646   1.922   6.438   2.429
 3916SOL    HW112647   1.938   6.534   2.406
 3916SOL    HW212648   2.005   6.385   2.410
 3917SOL     OW12649   1.305   5.141   0.083
 3917SOL    HW112650   1.279   5.100   7.018
 3917SOL    HW212651   1.360   5.223   0.066
 3918SOL     OW12652   4.409   6.169   1.998
 3918SOL    HW112653   4.493   6.211   2.032
 3918SOL    HW212654   4.389   6.086   2.050
 3919SOL     OW12655   3.509   6.924   6.604
 3919SOL    HW112656   3.474   7.010   6.568
 3919SOL    HW212657   3.474   6.910   6.697
 3920SOL     OW12658   2.707   2.057   6.418
 3920SOL    HW112659   2.664   2.147   6.424
 3920SOL    HW212660   2.741   2.043   6.325
 3921SOL     OW12661   0.817   3.009   0.280
 3921SOL    HW112662   0.903   3.056   0.302
 3921SOL    HW212663   0.743   3.045   0.337
 3922SOL     OW12664   5.067   5.232   0.085
 3922SOL    HW112665   5.024   5.176   0.014
 3922SOL    HW212666   5.004   5.241   0.162
 3923SOL     OW12667   6.104   1.890   6.924
 3923SOL    HW112668   6.090   1.896   0.001
 3923SOL    HW212669   6.037   1.948   6.877
 3924SOL     OW12670   0.525   5.256   3.337
 3924SOL    HW112671   0.579   5.287   3.258
 3924SOL    HW212672   0.560   5.298   3.420
 3925SOL     OW12673   4.521   4.157   0.861
 3925SOL    HW112674   4.472   4.083   0.815
 3925SOL    HW212675   4.461   4.201   0.928
 3926SOL     OW12676   6.812   6.845   3.665
 3926SOL    HW112677   6.740   6.776   3.660
 3926SOL    HW212678   6.844   6.853   3.759
 3927SOL     OW12679   0.168   3.500   4.478
 3927SOL    HW112680   0.113   3.427   4.518
 3927SOL    HW212681   0.131   3.589   4.507
 3928SOL     OW12682   3.729   5.692   4.898
 3928SOL    HW112683   3.657   5.734   4.842
 3928SOL    HW212684   3.733   5.739   4.987
 3929SOL     OW12685   0.286   2.023   6.521
 3929SOL    HW112686   0.281   2.078   6.438
 3929SOL    HW212687   0.201   1.972   6.533
 3930SOL     OW12688   1.519   1.926   3.434
 3930SOL    HW112689   1.514   1.856   3.363
 3930SOL    HW212690   1.516   2.017   3.391
 3931SOL     OW12691   1.955   1.912   2.488
 3931SOL    HW112692   2.035   1.928   2.546
 3931SOL    HW212693   1.887   1.859   2.538
 3932SOL     OW12694   1.847   4.401   3.948
 3932SOL    HW112695   1.768   4.341   3.933
 3932SOL    HW212696   1.858   4.417   4.046
 3933SOL     OW12697   1.758   6.832   6.926
 3933SOL    HW112698   1.763   6.908   6.862
 3933SOL    HW212699   1.668   6.832   6.971
 3934SOL     OW12700   0.254   1.111   1.830
 3934SOL    HW112701   0.208   1.026   1.804
 3934SOL    HW212702   0.248   1.177   1.755
 3935SOL     OW12703   1.744   0.955   5.288
 3935SOL    HW112704   1.723   1.051   5.307
 3935SOL    HW212705   1.688   0.896   5.346
 3936SOL     OW12706   7.001   5.978   5.089
 3936SOL    HW112707   6.921   5.938   5.043
 3936SOL    HW212708   0.059   5.919   5.075
 3937SOL     OW12709   0.619   6.787   2.604
 3937SOL    HW112710   0.690   6.728   2.641
 3937SOL    HW212711   0.562   6.823   2.678
 3938SOL     OW12712   6.002   2.845   3.717
 3938SOL    HW112713   6.016   2.765   3.775
 3938SOL    HW212714   5.996   2.927   3.774
 3939SOL     OW12715   3.118   1.842   3.397
 3939SOL    HW112716   3.019   1.853   3.391
 3939SOL    HW212717   3.163   1.913   3.342
 3940SOL     OW12718   3.775   4.898   2.190
 3940SOL    HW112719   3.724   4.847   2.120
 3940SOL    HW212720   3.733   4.883   2.279
 3941SOL     OW12721   6.374   0.633   4.979
 3941SOL    HW112722   6.343   0.664   4.889
 3941SOL    HW212723   6.414   0.542   4.972
 3942SOL     OW12724   0.896   6.499   5.685
 3942SOL    HW112725   0.937   6.557   5.614
 3942SOL    HW212726   0.962   6.484   5.758
 3943SOL     OW12727   0.940   3.492   2.565
 3943SOL    HW112728   0.957   3.579   2.610
 3943SOL    HW212729   0.986   3.490   2.476
 3944SOL     OW12730   5.417   3.973   5.384
 3944SOL    HW112731   5.353   4.003   5.314
 3944SOL    HW212732   5.481   3.907   5.344
 3945SOL     OW12733   0.887   2.355   2.589
 3945SOL    HW112734   0.840   2.362   2.501
 3945SOL    HW212735   0.820   2.365   2.663
 3946SOL     OW12736   6.309   4.060   6.007
 3946SOL    HW112737   6.318   3.987   5.939
 3946SOL    HW212738   6.214   4.064   6.038
 3947SOL     OW12739   6.017   5.534   1.427
 3947SOL    HW112740   6.066   5.615   1.461
 3947SOL    HW212741   5.968   5.491   1.503
 3948SOL     OW12742   0.413   4.767   0.657
 3948SOL    HW112743   0.376   4.859   0.650
 3948SOL    HW212744   0.512   4.772   0.671
 3949SOL     OW12745   6.309   6.726   3.115
 3949SOL    HW112746   6.320   6.708   3.017
 3949SOL    HW212747   6.254   6.653   3.156
 3950SOL     OW12748   3.219   4.313   1.120
 3950SOL    HW112749   3.229   4.214   1.121
 3950SOL    HW212750   3.297   4.354   1.074
 3951SOL     OW12751   0.356   0.550   6.937
 3951SOL    HW112752   0.437   0.504   6.973
 3951SOL    HW212753   0.385   0.625   6.877
 3952SOL     OW12754   6.023   3.368   4.882
 3952SOL    HW112755   5.949   3.388   4.818
 3952SOL    HW212756   6.094   3.438   4.874
 3953SOL     OW12757   3.378   4.568   0.294
 3953SOL    HW112758   3.376   4.534   0.200
 3953SOL    HW212759   3.391   4.492   0.358
 3954SOL     OW12760   5.865   5.475   5.441
 3954SOL    HW112761   5.918   5.462   5.357
 3954SOL    HW212762   5.801   5.399   5.452
 3955SOL     OW12763   4.787   6.644   0.107
 3955SOL    HW112764   4.797   6.581   0.183
 3955SOL    HW212765   4.753   6.732   0.141
 3956SOL     OW12766   1.493   1.695   4.176
 3956SOL    HW112767   1.519   1.598   4.172
 3956SOL    HW212768   1.395   1.704   4.158
 3957SOL     OW12769   4.201   6.684   3.401
 3957SOL    HW112770   4.171   6.759   3.459
 3957SOL    HW212771   4.207   6.715   3.306
 3958SOL     OW12772   5.849   0.460   6.146
 3958SOL    HW112773   5.847   0.399   6.225
 3958SOL    HW212774   5.770   0.521   6.149
 3959SOL     OW12775   3.515   6.738   0.708
 3959SOL    HW112776   3.542   6.739   0.612
 3959SOL    HW212777   3.595   6.720   0.765
 3960SOL     OW12778   5.827   1.615   6.064
 3960SOL    HW112779   5.890   1.685   6.032
 3960SOL    HW212780   5.816   1.623   6.163
 3961SOL     OW12781   5.379   3.078   2.162
 3961SOL    HW112782   5.289   3.118   2.145
 3961SOL    HW212783   5.368   2.989   2.205
 3962SOL     OW12784   1.597   5.735   6.512
 3962SOL    HW112785   1.516   5.774   6.468
 3962SOL    HW212786   1.629   5.657   6.459
 3963SOL     OW12787   4.751   4.631   3.820
 3963SOL    HW112788   4.816   4.586   3.759
 3963SOL    HW212789   4.687   4.563   3.857
 3964SOL     OW12790   4.195   4.806   5.139
 3964SOL    HW112791   4.163   4.897   5.115
 3964SOL    HW212792   4.255   4.771   5.067
 3965SOL     OW12793   4.108   3.648   6.741
 3965SOL    HW112794   4.083   3.745   6.742
 3965SOL    HW212795   4.166   3.629   6.662
 3966SOL     OW12796   6.943   4.778   6.939
 3966SOL    HW112797   0.009   4.774   6.890
 3966SOL    HW212798   6.949   4.846   7.012
 3967SOL     OW12799   1.442   4.903   2.850
 3967SOL    HW112800   1.400   4.840   2.784
 3967SOL    HW212801   1.483   4.850   2.924
 3968SOL     OW12802   6.439   0.621   0.870
 3968SOL    HW112803   6.501   0.566   0.926
 3968SOL    HW212804   6.470   0.716   0.869
 3969SOL     OW12805   0.439   3.976   3.362
 3969SOL    HW112806   0.405   4.069   3.345
 3969SOL    HW212807   0.458   3.930   3.275
 3970SOL     OW12808   4.758   4.882   3.935
 3970SOL    HW112809   4.684   4.858   3.997
 3970SOL    HW212810   4.789   4.800   3.886
 3971SOL     OW12811   2.364   4.804   2.302
 3971SOL    HW112812   2.385   4.706   2.311
 3971SOL    HW212813   2.439   4.850   2.255
 3972SOL     OW12814   1.681   5.241   1.789
 3972SOL    HW112815   1.747   5.165   1.798
 3972SOL    HW212816   1.618   5.221   1.714
 3973SOL     OW12817   2.354   3.949   5.631
 3973SOL    HW112818   2.317   3.995   5.712
 3973SOL    HW212819   2.348   4.011   5.553
 3974SOL     OW12820   1.952   0.990   5.849
 3974SOL    HW112821   2.051   1.005   5.836
 3974SOL    HW212822   1.937   0.941   5.935
 3975SOL     OW12823   5.776   0.295   6.449
 3975SOL    HW112824   5.706   0.245   6.501
 3975SOL    HW212825   5.862   0.294   6.499
 3976SOL     OW12826   2.133   4.735   1.197
 3976SOL    HW112827   2.168   4.703   1.109
 3976SOL    HW212828   2.196   4.804   1.234
 3977SOL     OW12829   2.868   4.460   5.641
 3977SOL    HW112830   2.840   4.556   5.633
 3977SOL    HW212831   2.968   4.455   5.643
 3978SOL     OW12832   5.762   0.639   4.273
 3978SOL    HW112833   5.688   0.686   4.225
 3978SOL    HW212834   5.730   0.611   4.364
 3979SOL     OW12835   2.450   6.181   1.554
 3979SOL    HW112836   2.543   6.148   1.571
 3979SOL    HW212837   2.431   6.180   1.456
 3980SOL     OW12838   0.080   4.149   6.324
 3980SOL    HW112839   0.114   4.226   6.378
 3980SOL    HW212840   0.120   4.064   6.358
 3981SOL     OW12841   2.031   1.581   6.806
 3981SOL    HW112842   1.961   1.616   6.744
 3981SOL    HW212843   2.054   1.487   6.781
 3982SOL     OW12844   2.348   0.751   4.084
 3982SOL    HW112845   2.363   0.843   4.046
 3982SOL    HW212846   2.375   0.750   4.181
 3983SOL     OW12847   3.978   5.835   4.198
 3983SOL    HW112848   4.020   5.861   4.111
 3983SOL    HW212849   3.906   5.768   4.181
 3984SOL     OW12850   1.892   0.440   2.704
 3984SOL    HW112851   1.897   0.344   2.731
 3984SOL    HW212852   1.911   0.449   2.606
 3985SOL     OW12853   2.575   4.471   0.031
 3985SOL    HW112854   2.608   4.377   0.024
 3985SOL    HW212855   2.547   4.490   0.125
 3986SOL     OW12856   6.882   2.144   3.098
 3986SOL    HW112857   6.922   2.212   3.036
 3986SOL    HW212858   6.952   2.113   3.162
 3987SOL     OW12859   2.243   5.975   4.803
 3987SOL    HW112860   2.182   5.924   4.863
 3987SOL    HW212861   2.214   6.071   4.798
 3988SOL     OW12862   3.810   2.845   5.894
 3988SOL    HW112863   3.715   2.813   5.888
 3988SOL    HW212864   3.869   2.781   5.845
 3989SOL     OW12865   6.405   1.651   6.952
 3989SOL    HW112866   6.309   1.681   6.946
 3989SOL    HW212867   6.443   1.645   6.860
 3990SOL     OW12868   5.704   1.516   3.949
 3990SOL    HW112869   5.724   1.429   3.994
 3990SOL    HW212870   5.633   1.501   3.879
 3991SOL     OW12871   5.961   1.520   1.802
 3991SOL    HW112872   5.909   1.567   1.873
 3991SOL    HW212873   5.947   1.566   1.714
 3992SOL     OW12874   3.848   2.240   6.425
 3992SOL    HW112875   3.785   2.253   6.502
 3992SOL    HW212876   3.909   2.319   6.419
 3993SOL     OW12877   1.043   2.082   3.299
 3993SOL    HW112878   1.091   2.130   3.373
 3993SOL    HW212879   1.108   2.058   3.227
 3994SOL     OW12880   1.218   2.744   6.030
 3994SOL    HW112881   1.135   2.752   6.085
 3994SOL    HW212882   1.271   2.665   6.060
 3995SOL     OW12883   2.172   3.849   4.199
 3995SOL    HW112884   2.267   3.879   4.210
 3995SOL    HW212885   2.135   3.822   4.288
 3996SOL     OW12886   1.169   0.648   4.450
 3996SOL    HW112887   1.171   0.698   4.536
 3996SOL    HW212888   1.144   0.711   4.376
 3997SOL     OW12889   4.866   3.031   2.616
 3997SOL    HW112890   4.855   3.013   2.714
 3997SOL    HW212891   4.895   3.126   2.603
 3998SOL     OW12892   4.583   1.510   2.716
 3998SOL    HW112893   4.656   1.579   2.721
 3998SOL    HW212894   4.509   1.535   2.780
 3999SOL     OW12895   5.425   3.581   3.206
 3999SOL    HW112896   5.439   3.483   3.195
 3999SOL    HW212897   5.425   3.605   3.303
 4000SOL     OW12898   3.624   5.711   2.957
 4000SOL    HW112899   3.539   5.706   3.009
 4000SOL    HW212900   3.683   5.635   2.983
 4001SOL     OW12901   1.595   2.263   3.943
 4001SOL    HW112902   1.598   2.175   3.990
 4001SOL    HW212903   1.578   2.336   4.010
 4002SOL     OW12904   2.658   2.834   0.131
 4002SOL    HW112905   2.626   2.743   0.104
 4002SOL    HW212906   2.725   2.826   0.204
 4003SOL     OW12907   2.649   0.017   5.212
 4003SOL    HW112908   2.685   0.111   5.209
 4003SOL    HW212909   2.560   0.014   5.166
 4004SOL     OW12910   6.373   2.506   4.074
 4004SOL    HW112911   6.293   2.446   4.081
 4004SOL    HW212912   6.372   2.554   3.987
 4005SOL     OW12913   5.081   5.270   0.950
 4005SOL    HW112914   5.110   5.190   0.898
 4005SOL    HW212915   5.151   5.293   1.018
 4006SOL     OW12916   4.106   4.513   1.656
 4006SOL    HW112917   4.054   4.599   1.655
 4006SOL    HW212918   4.178   4.518   1.725
 4007SOL     OW12919   0.723   3.319   1.722
 4007SOL    HW112920   0.681   3.253   1.783
 4007SOL    HW212921   0.801   3.277   1.676
 4008SOL     OW12922   3.686   1.671   4.599
 4008SOL    HW112923   3.661   1.734   4.525
 4008SOL    HW212924   3.674   1.716   4.687
 4009SOL     OW12925   4.726   3.149   0.557
 4009SOL    HW112926   4.737   3.067   0.613
 4009SOL    HW212927   4.799   3.152   0.488
 4010SOL     OW12928   2.335   3.867   0.848
 4010SOL    HW112929   2.409   3.921   0.887
 4010SOL    HW212930   2.362   3.770   0.845
 4011SOL     OW12931   1.053   0.208   1.813
 4011SOL    HW112932   1.043   0.177   1.908
 4011SOL    HW212933   1.011   0.298   1.803
 4012SOL     OW12934   4.468   4.547   1.406
 4012SOL    HW112935   4.459   4.485   1.484
 4012SOL    HW212936   4.517   4.501   1.332
 4013SOL     OW12937   2.712   0.257   0.881
 4013SOL    HW112938   2.772   0.178   0.872
 4013SOL    HW212939   2.734   0.306   0.965
 4014SOL     OW12940   4.113   5.595   3.748
 4014SOL    HW112941   4.043   5.526   3.727
 4014SOL    HW212942   4.069   5.679   3.780
 4015SOL     OW12943   4.005   5.533   5.890
 4015SOL    HW112944   3.985   5.612   5.948
 4015SOL    HW212945   3.938   5.461   5.908
 4016SOL     OW12946   1.095   5.518   6.613
 4016SOL    HW112947   1.094   5.581   6.535
 4016SOL    HW212948   1.174   5.537   6.671
 4017SOL     OW12949   6.842   6.786   0.224
 4017SOL    HW112950   6.845   6.759   0.128
 4017SOL    HW212951   6.829   6.705   0.281
 4018SOL     OW12952   5.803   6.443   1.623
 4018SOL    HW112953   5.782   6.346   1.611
 4018SOL    HW212954   5.720   6.494   1.643
 4019SOL     OW12955   5.893   3.590   2.321
 4019SOL    HW112956   5.914   3.601   2.419
 4019SOL    HW212957   5.948   3.654   2.268
 4020SOL     OW12958   6.219   2.255   5.626
 4020SOL    HW112959   6.268   2.168   5.637
 4020SOL    HW212960   6.160   2.269   5.706
 4021SOL     OW12961   3.027   3.804   5.947
 4021SOL    HW112962   3.104   3.741   5.930
 4021SOL    HW212963   2.953   3.783   5.883
 4022SOL     OW12964   4.185   0.124   7.007
 4022SOL    HW112965   4.129   0.041   7.019
 4022SOL    HW212966   4.244   0.114   6.927
 4023SOL     OW12967   6.685   0.770   3.887
 4023SOL    HW112968   6.727   0.787   3.797
 4023SOL    HW212969   6.586   0.766   3.877
 4024SOL     OW12970   2.683   5.040   4.581
 4024SOL    HW112971   2.776   5.004   4.574
 4024SOL    HW212972   2.626   5.002   4.509
 4025SOL     OW12973   0.572   6.001   5.258
 4025SOL    HW112974   0.606   6.040   5.173
 4025SOL    HW212975   0.528   5.913   5.239
 4026SOL     OW12976   6.461   0.003   3.629
 4026SOL    HW112977   6.448   6.942   3.576
 4026SOL    HW212978   6.492   7.001   3.721
 4027SOL     OW12979   3.120   3.266   1.410
 4027SOL    HW112980   3.080   3.182   1.447
 4027SOL    HW212981   3.182   3.242   1.334
 4028SOL     OW12982   2.437   2.540   3.068
 4028SOL    HW112983   2.385   2.466   3.111
 4028SOL    HW212984   2.452   2.613   3.135
 4029SOL     OW12985   3.028   4.377   6.524
 4029SOL    HW112986   3.068   4.288   6.546
 4029SOL    HW212987   2.995   4.421   6.607
 4030SOL     OW12988   0.926   1.708   0.283
 4030SOL    HW112989   0.922   1.701   0.184
 4030SOL    HW212990   1.020   1.697   0.314
 4031SOL     OW12991   4.891   6.673   3.332
 4031SOL    HW112992   4.954   6.743   3.365
 4031SOL    HW212993   4.835   6.639   3.408
 4032SOL     OW12994   6.648   0.292   2.296
 4032SOL    HW112995   6.655   0.241   2.210
 4032SOL    HW212996   6.574   0.359   2.288
 4033SOL     OW12997   3.024   3.470   2.319
 4033SOL    HW112998   2.976   3.407   2.258
 4033SOL    HW212999   3.092   3.522   2.267
 4034SOL     OW13000   6.990   1.695   5.060
 4034SOL    HW113001   6.945   1.751   4.990
 4034SOL    HW213002   6.984   1.599   5.035
 4035SOL     OW13003   6.942   2.798   0.648
 4035SOL    HW113004   6.848   2.830   0.640
 4035SOL    HW213005   6.991   2.816   0.563
 4036SOL     OW13006   5.088   6.853   2.640
 4036SOL    HW113007   4.999   6.827   2.677
 4036SOL    HW213008   5.096   6.953   2.638
 4037SOL     OW13009   2.311   1.424   0.787
 4037SOL    HW113010   2.272   1.513   0.764
 4037SOL    HW213011   2.356   1.386   0.706
 4038SOL     OW13012   4.405   4.385   1.596
 4038SOL    HW113013   4.337   4.320   1.561
 4038SOL    HW213014   4.443   4.350   1.681
 4039SOL     OW13015   4.760   4.383   1.369
 4039SOL    HW113016   4.779   4.285   1.372
 4039SOL    HW213017   4.752   4.419   1.462
 4040SOL     OW13018   3.175   0.176   5.804
 4040SOL    HW113019   3.180   0.267   5.845
 4040SOL    HW213020   3.170   0.184   5.704
 4041SOL     OW13021   2.208   5.408   1.124
 4041SOL    HW113022   2.275   5.482   1.132
 4041SOL    HW213023   2.133   5.438   1.065
 4042SOL     OW13024   6.404   5.509   2.399
 4042SOL    HW113025   6.418   5.533   2.303
 4042SOL    HW213026   6.455   5.425   2.420
 4043SOL     OW13027   4.886   2.581   4.480
 4043SOL    HW113028   4.975   2.623   4.497
 4043SOL    HW213029   4.850   2.543   4.565
 4044SOL     OW13030   4.579   0.452   3.771
 4044SOL    HW113031   4.532   0.434   3.857
 4044SOL    HW213032   4.546   0.389   3.701
 4045SOL     OW13033   2.586   4.878   6.236
 4045SOL    HW113034   2.497   4.857   6.198
 4045SOL    HW213035   2.588   4.974   6.265
 4046SOL     OW13036   0.523   1.400   3.907
 4046SOL    HW113037   0.423   1.399   3.905
 4046SOL    HW213038   0.556   1.311   3.938
 4047SOL     OW13039   2.070   2.325   0.877
 4047SOL    HW113040   2.071   2.249   0.941
 4047SOL    HW213041   2.059   2.290   0.784
 4048SOL     OW13042   5.460   2.012   2.515
 4048SOL    HW113043   5.480   2.001   2.418
 4048SOL    HW213044   5.363   2.032   2.527
 4049SOL     OW13045   6.571   5.993   6.925
 4049SOL    HW113046   6.541   5.991   6.829
 4049SOL    HW213047   6.500   5.951   6.982
 4050SOL     OW13048   1.615   6.498   0.854
 4050SOL    HW113049   1.676   6.476   0.779
 4050SOL    HW213050   1.523   6.514   0.818
 4051SOL     OW13051   3.943   2.705   0.311
 4051SOL    HW113052   3.853   2.739   0.339
 4051SOL    HW213053   4.008   2.716   0.386
 4052SOL     OW13054   0.145   0.458   2.317
 4052SOL    HW113055   0.179   0.364   2.306
 4052SOL    HW213056   0.183   0.498   2.400
 4053SOL     OW13057   3.012   5.309   4.015
 4053SOL    HW113058   3.040   5.248   4.088
 4053SOL    HW213059   3.066   5.393   4.019
 4054SOL     OW13060   0.699   2.982   1.912
 4054SOL    HW113061   0.788   2.970   1.955
 4054SOL    HW213062   0.682   2.906   1.848
 4055SOL     OW13063   3.910   3.476   6.190
 4055SOL    HW113064   3.870   3.567   6.179
 4055SOL    HW213065   3.894   3.423   6.107
 4056SOL     OW13066   3.713   3.285   0.420
 4056SOL    HW113067   3.645   3.333   0.364
 4056SOL    HW213068   3.750   3.348   0.488
 4057SOL     OW13069   5.575   2.006   1.234
 4057SOL    HW113070   5.495   1.999   1.294
 4057SOL    HW213071   5.546   1.992   1.139
 4058SOL     OW13072   1.757   0.523   4.022
 4058SOL    HW113073   1.801   0.469   3.951
 4058SOL    HW213074   1.782   0.619   4.011
 4059SOL     OW13075   1.102   2.813   3.600
 4059SOL    HW113076   1.066   2.736   3.652
 4059SOL    HW213077   1.170   2.780   3.535
 4060SOL     OW13078   4.711   5.645   4.399
 4060SOL    HW113079   4.650   5.565   4.396
 4060SOL    HW213080   4.750   5.652   4.491
 4061SOL     OW13081   3.294   5.013   1.753
 4061SOL    HW113082   3.338   5.081   1.695
 4061SOL    HW213083   3.335   5.015   1.845
 4062SOL     OW13084   3.169   1.638   2.900
 4062SOL    HW113085   3.212   1.726   2.920
 4062SOL    HW213086   3.129   1.641   2.808
 4063SOL     OW13087   5.980   6.496   5.026
 4063SOL    HW113088   5.885   6.472   5.045
 4063SOL    HW213089   5.987   6.594   5.006
 4064SOL     OW13090   1.821   6.319   3.703
 4064SOL    HW113091   1.823   6.414   3.734
 4064SOL    HW213092   1.874   6.310   3.619
 4065SOL     OW13093   0.631   6.485   0.607
 4065SOL    HW113094   0.597   6.577   0.586
 4065SOL    HW213095   0.730   6.487   0.613
 4066SOL     OW13096   5.015   5.408   2.784
 4066SOL    HW113097   4.939   5.463   2.749
 4066SOL    HW213098   4.990   5.368   2.872
 4067SOL     OW13099   5.840   2.940   2.295
 4067SOL    HW113100   5.807   2.947   2.388
 4067SOL    HW213101   5.772   2.892   2.238
 4068SOL     OW13102   3.109   0.650   4.248
 4068SOL    HW113103   3.141   0.673   4.156
 4068SOL    HW213104   3.187   0.635   4.308
 4069SOL     OW13105   3.957   4.645   6.013
 4069SOL    HW113106   3.917   4.675   6.100
 4069SOL    HW213107   3.950   4.546   6.004
 4070SOL     OW13108   0.681   3.694   2.129
 4070SOL    HW113109   0.592   3.650   2.115
 4070SOL    HW213110   0.675   3.790   2.103
 4071SOL     OW13111   1.415   0.824   5.182
 4071SOL    HW113112   1.510   0.828   5.213
 4071SOL    HW213113   1.355   0.810   5.260
 4072SOL     OW13114   1.090   5.984   4.383
 4072SOL    HW113115   1.005   6.008   4.430
 4072SOL    HW213116   1.078   5.998   4.284
 4073SOL     OW13117   2.002   5.575   6.212
 4073SOL    HW113118   1.939   5.652   6.201
 4073SOL    HW213119   1.952   5.489   6.199
 4074SOL     OW13120   1.218   2.914   2.159
 4074SOL    HW113121   1.154   2.989   2.176
 4074SOL    HW213122   1.223   2.895   2.061
 4075SOL     OW13123   3.605   2.096   2.454
 4075SOL    HW113124   3.515   2.095   2.496
 4075SOL    HW213125   3.601   2.054   2.363
 4076SOL     OW13126   2.504   3.673   5.649
 4076SOL    HW113127   2.421   3.693   5.596
 4076SOL    HW213128   2.567   3.751   5.641
 4077SOL     OW13129   3.464   6.739   0.420
 4077SOL    HW113130   3.429   6.725   0.327
 4077SOL    HW213131   3.448   6.833   0.448
 4078SOL     OW13132   6.671   5.099   1.511
 4078SOL    HW113133   6.651   5.197   1.505
 4078SOL    HW213134   6.590   5.050   1.544
 4079SOL     OW13135   0.396   1.967   3.477
 4079SOL    HW113136   0.328   2.035   3.449
 4079SOL    HW213137   0.382   1.883   3.426
 4080SOL     OW13138   2.779   3.320   0.799
 4080SOL    HW113139   2.815   3.261   0.871
 4080SOL    HW213140   2.690   3.286   0.770
 4081SOL     OW13141   1.529   1.751   3.653
 4081SOL    HW113142   1.539   1.815   3.577
 4081SOL    HW213143   1.614   1.699   3.664
 4082SOL     OW13144   1.342   2.224   1.004
 4082SOL    HW113145   1.290   2.270   0.932
 4082SOL    HW213146   1.314   2.259   1.093
 4083SOL     OW13147   5.989   4.226   2.895
 4083SOL    HW113148   5.965   4.131   2.878
 4083SOL    HW213149   5.977   4.279   2.811
 4084SOL     OW13150   4.602   2.149   3.289
 4084SOL    HW113151   4.620   2.056   3.259
 4084SOL    HW213152   4.630   2.159   3.385
 4085SOL     OW13153   2.669   5.639   0.914
 4085SOL    HW113154   2.614   5.652   0.832
 4085SOL    HW213155   2.718   5.724   0.934
 4086SOL     OW13156   6.954   4.927   1.104
 4086SOL    HW113157   0.024   4.933   1.065
 4086SOL    HW213158   6.959   4.940   1.203
 4087SOL     OW13159   2.042   1.631   2.951
 4087SOL    HW113160   2.040   1.558   3.019
 4087SOL    HW213161   2.014   1.717   2.994
 4088SOL     OW13162   6.537   1.080   6.564
 4088SOL    HW113163   6.470   1.154   6.558
 4088SOL    HW213164   6.628   1.118   6.583
 4089SOL     OW13165   6.394   4.461   4.324
 4089SOL    HW113166   6.327   4.403   4.276
 4089SOL    HW213167   6.438   4.522   4.258
 4090SOL     OW13168   2.033   5.613   5.462
 4090SOL    HW113169   2.033   5.707   5.428
 4090SOL    HW213170   1.939   5.581   5.472
 4091SOL     OW13171   0.490   5.981   0.258
 4091SOL    HW113172   0.415   5.942   0.205
 4091SOL    HW213173   0.456   6.008   0.348
 4092SOL     OW13174   5.703   2.576   3.659
 4092SOL    HW113175   5.693   2.480   3.633
 4092SOL    HW213176   5.614   2.622   3.652
 4093SOL     OW13177   5.237   6.513   1.386
 4093SOL    HW113178   5.231   6.505   1.486
 4093SOL    HW213179   5.300   6.444   1.350
 4094SOL     OW13180   1.205   4.642   6.301
 4094SOL    HW113181   1.185   4.715   6.236
 4094SOL    HW213182   1.278   4.670   6.362
 4095SOL     OW13183   0.282   3.774   0.332
 4095SOL    HW113184   0.193   3.772   0.287
 4095SOL    HW213185   0.309   3.681   0.358
 4096SOL     OW13186   3.821   0.437   6.597
 4096SOL    HW113187   3.854   0.529   6.619
 4096SOL    HW213188   3.898   0.378   6.574
 4097SOL     OW13189   5.034   4.680   4.600
 4097SOL    HW113190   4.941   4.680   4.638
 4097SOL    HW213191   5.056   4.587   4.570
 4098SOL     OW13192   1.133   2.637   1.301
 4098SOL    HW113193   1.117   2.716   1.360
 4098SOL    HW213194   1.046   2.599   1.271
 4099SOL     OW13195   3.793   5.285   1.025
 4099SOL    HW113196   3.744   5.200   1.004
 4099SOL    HW213197   3.728   5.359   1.037
 4100SOL     OW13198   0.793   7.011   4.498
 4100SOL    HW113199   0.718   0.045   4.534
 4100SOL    HW213200   0.798   0.001   4.398
 4101SOL     OW13201   0.711   1.132   0.168
 4101SOL    HW113202   0.673   1.040   0.159
 4101SOL    HW213203   0.791   1.130   0.227
 4102SOL     OW13204   1.802   0.551   1.142
 4102SOL    HW113205   1.891   0.589   1.118
 4102SOL    HW213206   1.793   0.459   1.103
 4103SOL     OW13207   0.956   6.892   1.914
 4103SOL    HW113208   0.896   6.970   1.897
 4103SOL    HW213209   1.032   6.894   1.849
 4104SOL     OW13210   0.156   4.771   3.310
 4104SOL    HW113211   0.212   4.711   3.252
 4104SOL    HW213212   0.134   4.724   3.395
 4105SOL     OW13213   6.145   0.293   2.748
 4105SOL    HW113214   6.178   0.377   2.792
 4105SOL    HW213215   6.163   0.215   2.808
 4106SOL     OW13216   0.066   3.042   3.515
 4106SOL    HW113217   0.012   3.107   3.461
 4106SOL    HW213218   0.098   3.087   3.598
 4107SOL     OW13219   1.230   5.994   0.473
 4107SOL    HW113220   1.176   5.923   0.428
 4107SOL    HW213221   1.170   6.071   0.497
 4108SOL     OW13222   6.425   4.954   4.319
 4108SOL    HW113223   6.457   4.911   4.404
 4108SOL    HW213224   6.490   4.934   4.246
 4109SOL     OW13225   6.590   6.838   4.865
 4109SOL    HW113226   6.504   6.811   4.821
 4109SOL    HW213227   6.574   6.917   4.924
 4110SOL     OW13228   4.044   3.827   6.124
 4110SOL    HW113229   4.092   3.781   6.050
 4110SOL    HW213230   3.973   3.767   6.160
 4111SOL     OW13231   5.471   4.863   6.278
 4111SOL    HW113232   5.542   4.807   6.235
 4111SOL    HW213233   5.399   4.883   6.212
 4112SOL     OW13234   4.895   6.006   4.423
 4112SOL    HW113235   4.923   6.095   4.459
 4112SOL    HW213236   4.831   5.963   4.486
 4113SOL     OW13237   5.430   5.445   4.643
 4113SOL    HW113238   5.432   5.529   4.697
 4113SOL    HW213239   5.413   5.468   4.547
 4114SOL     OW13240   4.560   2.178   3.831
 4114SOL    HW113241   4.565   2.274   3.806
 4114SOL    HW213242   4.464   2.154   3.849
 4115SOL     OW13243   3.135   4.878   2.749
 4115SOL    HW113244   3.104   4.873   2.654
 4115SOL    HW213245   3.063   4.919   2.806
 4116SOL     OW13246   4.188   1.713   3.155
 4116SOL    HW113247   4.165   1.717   3.058
 4116SOL    HW213248   4.233   1.799   3.182
 4117SOL     OW13249   1.204   3.448   2.692
 4117SOL    HW113250   1.120   3.477   2.738
 4117SOL    HW213251   1.233   3.519   2.628
 4118SOL     OW13252   5.390   6.703   0.185
 4118SOL    HW113253   5.294   6.707   0.209
 4118SOL    HW213254   5.407   6.620   0.131
 4119SOL     OW13255   2.969   1.578   3.896
 4119SOL    HW113256   2.952   1.658   3.954
 4119SOL    HW213257   3.068   1.564   3.888
 4120SOL     OW13258   2.878   1.266   6.100
 4120SOL    HW113259   2.833   1.303   6.019
 4120SOL    HW213260   2.809   1.238   6.167
 4121SOL     OW13261   6.516   0.000   3.901
 4121SOL    HW113262   6.578   0.078   3.912
 4121SOL    HW213263   6.424   0.027   3.929
 4122SOL     OW13264   1.670   6.402   4.586
 4122SOL    HW113265   1.701   6.342   4.512
 4122SOL    HW213266   1.734   6.479   4.595
 4123SOL     OW13267   4.086   4.595   5.396
 4123SOL    HW113268   4.021   4.527   5.429
 4123SOL    HW213269   4.078   4.678   5.453
 4124SOL     OW13270   6.523   6.383   0.431
 4124SOL    HW113271   6.535   6.407   0.335
 4124SOL    HW213272   6.426   6.369   0.450
 4125SOL     OW13273   4.260   2.317   2.922
 4125SOL    HW113274   4.351   2.346   2.892
 4125SOL    HW213275   4.241   2.354   3.013
 4126SOL     OW13276   1.559   3.356   3.464
 4126SOL    HW113277   1.532   3.291   3.535
 4126SOL    HW213278   1.646   3.398   3.489
 4127SOL     OW13279   5.717   3.578   4.995
 4127SOL    HW113280   5.786   3.640   4.958
 4127SOL    HW213281   5.660   3.544   4.921
 4128SOL     OW13282   1.040   3.357   1.153
 4128SOL    HW113283   0.949   3.317   1.150
 4128SOL    HW213284   1.068   3.385   1.061
 4129SOL     OW13285   3.069   0.742   0.096
 4129SOL    HW113286   3.108   0.766   0.007
 4129SOL    HW213287   3.127   0.674   0.141
 4130SOL     OW13288   6.668   2.878   0.602
 4130SOL    HW113289   6.687   2.976   0.591
 4130SOL    HW213290   6.575   2.858   0.571
 4131SOL     OW13291   0.242   1.416   3.146
 4131SOL    HW113292   0.333   1.454   3.129
 4131SOL    HW213293   0.248   1.347   3.218
 4132SOL     OW13294   4.895   4.155   3.494
 4132SOL    HW113295   4.944   4.083   3.446
 4132SOL    HW213296   4.804   4.167   3.454
 4133SOL     OW13297   3.415   5.985   1.798
 4133SOL    HW113298   3.503   6.025   1.824
 4133SOL    HW213299   3.343   6.019   1.859
 4134SOL     OW13300   1.865   4.003   1.131
 4134SOL    HW113301   1.897   4.073   1.067
 4134SOL    HW213302   1.910   4.017   1.220
 4135SOL     OW13303   0.360   2.154   2.114
 4135SOL    HW113304   0.353   2.248   2.146
 4135SOL    HW213305   0.280   2.102   2.143
 4136SOL     OW13306   1.603   3.704   3.153
 4136SOL    HW113307   1.664   3.783   3.159
 4136SOL    HW213308   1.656   3.620   3.149
 4137SOL     OW13309   1.524   3.363   1.279
 4137SOL    HW113310   1.554   3.449   1.321
 4137SOL    HW213311   1.531   3.289   1.346
 4138SOL     OW13312   4.033   5.525   2.519
 4138SOL    HW113313   4.131   5.516   2.537
 4138SOL    HW213314   4.019   5.565   2.429
 4139SOL     OW13315   1.177   1.173   5.333
 4139SOL    HW113316   1.244   1.166   5.259
 4139SOL    HW213317   1.111   1.099   5.326
 4140SOL     OW13318   3.312   0.963   5.174
 4140SOL    HW113319   3.338   0.976   5.078
 4140SOL    HW213320   3.226   1.012   5.192
 4141SOL     OW13321   5.387   6.270   1.401
 4141SOL    HW113322   5.482   6.298   1.412
 4141SOL    HW213323   5.376   6.220   1.314
 4142SOL     OW13324   6.747   4.948   0.610
 4142SOL    HW113325   6.838   4.989   0.614
 4142SOL    HW213326   6.729   4.900   0.695
 4143SOL     OW13327   5.616   3.130   1.229
 4143SOL    HW113328   5.601   3.085   1.317
 4143SOL    HW213329   5.606   3.229   1.240
 4144SOL     OW13330   4.852   1.605   0.253
 4144SOL    HW113331   4.856   1.606   0.353
 4144SOL    HW213332   4.763   1.641   0.223
 4145SOL     OW13333   0.394   6.634   1.499
 4145SOL    HW113334   0.354   6.545   1.477
 4145SOL    HW213335   0.361   6.702   1.434
 4146SOL     OW13336   6.293   0.204   3.532
 4146SOL    HW113337   6.370   0.152   3.568
 4146SOL    HW213338   6.312   0.229   3.437
 4147SOL     OW13339   3.760   4.924   5.979
 4147SOL    HW113340   3.793   4.847   5.926
 4147SOL    HW213341   3.665   4.943   5.955
 4148SOL     OW13342   2.485   0.422   4.600
 4148SOL    HW113343   2.411   0.411   4.532
 4148SOL    HW213344   2.573   0.418   4.553
 4149SOL     OW13345   0.233   4.325   1.109
 4149SOL    HW113346   0.270   4.298   1.198
 4149SOL    HW213347   0.285   4.403   1.074
 4150SOL     OW13348   1.042   1.012   5.697
 4150SOL    HW113349   1.137   1.037   5.679
 4150SOL    HW213350   0.996   0.993   5.610
 4151SOL     OW13351   2.736   6.228   5.824
 4151SOL    HW113352   2.739   6.288   5.904
 4151SOL    HW213353   2.744   6.132   5.854
 4152SOL     OW13354   4.046   5.564   1.920
 4152SOL    HW113355   4.003   5.508   1.849
 4152SOL    HW213356   4.067   5.655   1.883
 4153SOL     OW13357   5.780   5.243   0.966
 4153SOL    HW113358   5.708   5.312   0.966
 4153SOL    HW213359   5.749   5.163   0.914
 4154SOL     OW13360   6.666   5.108   4.220
 4154SOL    HW113361   6.701   5.192   4.181
 4154SOL    HW213362   6.589   5.075   4.166
 4155SOL     OW13363   0.154   0.642   1.231
 4155SOL    HW113364   0.118   0.651   1.324
 4155SOL    HW213365   0.231   0.704   1.220
 4156SOL     OW13366   6.127   5.899   5.216
 4156SOL    HW113367   6.162   5.822   5.164
 4156SOL    HW213368   6.119   5.979   5.156
 4157SOL     OW13369   5.414   5.646   4.462
 4157SOL    HW113370   5.479   5.631   4.387
 4157SOL    HW213371   5.338   5.703   4.429
 4158SOL     OW13372   1.016   3.131   2.243
 4158SOL    HW113373   1.022   3.217   2.193
 4158SOL    HW213374   1.016   3.150   2.342
 4159SOL     OW13375   1.767   3.074   3.376
 4159SOL    HW113376   1.818   3.069   3.462
 4159SOL    HW213377   1.790   2.996   3.318
 4160SOL     OW13378   5.382   0.517   0.041
 4160SOL    HW113379   5.438   0.499   0.122
 4160SOL    HW213380   5.439   0.559   6.992
 4161SOL     OW13381   1.178   2.018   0.896
 4161SOL    HW113382   1.215   1.933   0.857
 4161SOL    HW213383   1.253   2.072   0.935
 4162SOL     OW13384   6.349   5.950   0.306
 4162SOL    HW113385   6.407   6.023   0.268
 4162SOL    HW213386   6.253   5.974   0.294
 4163SOL     OW13387   5.471   0.447   3.938
 4163SOL    HW113388   5.437   0.385   4.008
 4163SOL    HW213389   5.398   0.511   3.911
 4164SOL     OW13390   1.918   6.800   5.364
 4164SOL    HW113391   1.988   6.862   5.399
 4164SOL    HW213392   1.828   6.834   5.390
 4165SOL     OW13393   4.495   0.471   5.791
 4165SOL    HW113394   4.490   0.503   5.886
 4165SOL    HW213395   4.561   0.396   5.785
 4166SOL     OW13396   5.618   1.418   0.490
 4166SOL    HW113397   5.521   1.394   0.495
 4166SOL    HW213398   5.648   1.413   0.395
 4167SOL     OW13399   3.087   4.319   6.986
 4167SOL    HW113400   3.009   4.313   0.028
 4167SOL    HW213401   3.153   4.247   7.007
 4168SOL     OW13402   0.312   4.008   1.220
 4168SOL    HW113403   0.305   3.982   1.317
 4168SOL    HW213404   0.384   4.077   1.209
 4169SOL     OW13405   5.820   5.044   4.244
 4169SOL    HW113406   5.814   5.013   4.339
 4169SOL    HW213407   5.826   5.144   4.242
 4170SOL     OW13408   4.582   3.197   6.265
 4170SOL    HW113409   4.483   3.185   6.259
 4170SOL    HW213410   4.625   3.110   6.292
 4171SOL     OW13411   6.501   5.625   0.974
 4171SOL    HW113412   6.560   5.617   1.055
 4171SOL    HW213413   6.435   5.549   0.974
 4172SOL     OW13414   2.003   1.709   6.549
 4172SOL    HW113415   2.092   1.745   6.578
 4172SOL    HW213416   1.952   1.781   6.501
 4173SOL     OW13417   5.339   3.829   4.899
 4173SOL    HW113418   5.280   3.794   4.971
 4173SOL    HW213419   5.435   3.818   4.926
 4174SOL     OW13420   4.604   1.220   2.638
 4174SOL    HW113421   4.597   1.320   2.643
 4174SOL    HW213422   4.512   1.180   2.640
 4175SOL     OW13423   1.924   5.192   4.098
 4175SOL    HW113424   1.832   5.229   4.110
 4175SOL    HW213425   1.991   5.266   4.107
 4176SOL     OW13426   4.221   6.451   1.648
 4176SOL    HW113427   4.162   6.443   1.729
 4176SOL    HW213428   4.182   6.399   1.573
 4177SOL     OW13429   6.049   4.991   5.683
 4177SOL    HW113430   5.969   4.983   5.625
 4177SOL    HW213431   6.028   4.955   5.774
 4178SOL     OW13432   4.186   6.641   4.108
 4178SOL    HW113433   4.137   6.554   4.095
 4178SOL    HW213434   4.125   6.707   4.151
 4179SOL     OW13435   5.395   3.475   2.734
 4179SOL    HW113436   5.427   3.386   2.768
 4179SOL    HW213437   5.316   3.462   2.675
 4180SOL     OW13438   3.912   3.626   0.534
 4180SOL    HW113439   3.956   3.713   0.554
 4180SOL    HW213440   3.861   3.633   0.448
 4181SOL     OW13441   4.003   0.716   0.038
 4181SOL    HW113442   4.016   0.649   6.986
 4181SOL    HW213443   3.925   0.775   0.016
 4182SOL     OW13444   0.641   6.274   3.438
 4182SOL    HW113445   0.551   6.245   3.407
 4182SOL    HW213446   0.692   6.313   3.362
 4183SOL     OW13447   2.964   1.366   0.255
 4183SOL    HW113448   2.984   1.405   0.166
 4183SOL    HW213449   2.921   1.435   0.313
 4184SOL     OW13450   3.559   6.569   2.626
 4184SOL    HW113451   3.545   6.493   2.562
 4184SOL    HW213452   3.651   6.607   2.612
 4185SOL     OW13453   1.031   4.994   3.150
 4185SOL    HW113454   1.033   4.903   3.108
 4185SOL    HW213455   1.116   5.041   3.128
 4186SOL     OW13456   2.786   4.902   0.058
 4186SOL    HW113457   2.754   4.813   0.088
 4186SOL    HW213458   2.829   4.950   0.135
 4187SOL     OW13459   3.597   3.533   5.421
 4187SOL    HW113460   3.673   3.582   5.380
 4187SOL    HW213461   3.625   3.498   5.511
 4188SOL     OW13462   5.830   1.130   5.105
 4188SOL    HW113463   5.913   1.137   5.159
 4188SOL    HW213464   5.802   1.034   5.098
 4189SOL     OW13465   3.544   5.086   5.238
 4189SOL    HW113466   3.598   5.004   5.218
 4189SOL    HW213467   3.600   5.167   5.221
 4190SOL     OW13468   0.889   0.570   0.639
 4190SOL    HW113469   0.948   0.630   0.693
 4190SOL    HW213470   0.867   0.488   0.692
 4191SOL     OW13471   4.870   4.344   3.722
 4191SOL    HW113472   4.889   4.419   3.659
 4191SOL    HW213473   4.781   4.303   3.699
 4192SOL     OW13474   0.566   0.964   4.033
 4192SOL    HW113475   0.632   1.039   4.037
 4192SOL    HW213476   0.496   0.984   3.964
 4193SOL     OW13477   6.885   1.080   1.479
 4193SOL    HW113478   6.817   1.153   1.478
 4193SOL    HW213479   6.871   1.019   1.400
 4194SOL     OW13480   5.922   0.102   4.838
 4194SOL    HW113481   5.946   0.150   4.753
 4194SOL    HW213482   5.881   0.167   4.902
 4195SOL     OW13483   3.956   6.462   1.324
 4195SOL    HW113484   3.874   6.417   1.356
 4195SOL    HW213485   3.933   6.553   1.289
 4196SOL     OW13486   6.389   2.224   2.080
 4196SOL    HW113487   6.324   2.240   2.155
 4196SOL    HW213488   6.410   2.127   2.074
 4197SOL     OW13489   4.650   5.409   5.554
 4197SOL    HW113490   4.587   5.414   5.631
 4197SOL    HW213491   4.658   5.314   5.524
 4198SOL     OW13492   6.203   2.234   0.141
 4198SOL    HW113493   6.224   2.261   0.235
 4198SOL    HW213494   6.287   2.234   0.087
 4199SOL     OW13495   1.730   2.201   5.985
 4199SOL    HW113496   1.633   2.180   6.002
 4199SOL    HW213497   1.765   2.257   6.060
 4200SOL     OW13498   3.722   0.756   6.084
 4200SOL    HW113499   3.699   0.737   6.179
 4200SOL    HW213500   3.640   0.789   6.036
 4201SOL     OW13501   6.291   6.634   3.751
 4201SOL    HW113502   6.236   6.667   3.675
 4201SOL    HW213503   6.267   6.684   3.834
 4202SOL     OW13504   3.343   5.786   5.622
 4202SOL    HW113505   3.328   5.688   5.619
 4202SOL    HW213506   3.358   5.821   5.530
 4203SOL     OW13507   3.704   5.001   6.847
 4203SOL    HW113508   3.694   4.922   6.788
 4203SOL    HW213509   3.729   5.081   6.792
 4204SOL     OW13510   4.088   3.713   3.335
 4204SOL    HW113511   4.144   3.751   3.261
 4204SOL    HW213512   4.007   3.668   3.297
 4205SOL     OW13513   4.393   5.705   3.324
 4205SOL    HW113514   4.350   5.639   3.385
 4205SOL    HW213515   4.451   5.658   3.258
 4206SOL     OW13516   6.542   0.475   5.750
 4206SOL    HW113517   6.502   0.566   5.746
 4206SOL    HW213518   6.641   0.481   5.732
 4207SOL     OW13519   1.879   1.873   1.404
 4207SOL    HW113520   1.956   1.937   1.414
 4207SOL    HW213521   1.913   1.779   1.407
 4208SOL     OW13522   6.804   2.990   5.689
 4208SOL    HW113523   6.774   3.056   5.758
 4208SOL    HW213524   6.784   3.025   5.598
 4209SOL     OW13525   6.884   0.374   3.757
 4209SOL    HW113526   6.866   0.376   3.658
 4209SOL    HW213527   6.804   0.411   3.805
 4210SOL     OW13528   3.777   3.120   2.074
 4210SOL    HW113529   3.747   3.210   2.043
 4210SOL    HW213530   3.797   3.123   2.172
 4211SOL     OW13531   4.763   6.419   6.294
 4211SOL    HW113532   4.776   6.426   6.195
 4211SOL    HW213533   4.666   6.404   6.314
 4212SOL     OW13534   6.377   1.845   2.586
 4212SOL    HW113535   6.327   1.923   2.547
 4212SOL    HW213536   6.340   1.824   2.676
 4213SOL     OW13537   1.985   0.533   1.407
 4213SOL    HW113538   1.897   0.581   1.399
 4213SOL    HW213539   2.033   0.538   1.319
 4214SOL     OW13540   0.594   5.278   5.471
 4214SOL    HW113541   0.553   5.203   5.418
 4214SOL    HW213542   0.569   5.267   5.567
 4215SOL     OW13543   5.368   6.826   5.919
 4215SOL    HW113544   5.371   6.852   6.016
 4215SOL    HW213545   5.462   6.812   5.886
 4216SOL     OW13546   1.593   1.600   2.235
 4216SOL    HW113547   1.516   1.664   2.238
 4216SOL    HW213548   1.677   1.651   2.216
 4217SOL     OW13549   1.084   0.389   2.283
 4217SOL    HW113550   1.077   0.462   2.351
 4217SOL    HW213551   0.993   0.366   2.249
 4218SOL     OW13552   3.890   1.289   1.618
 4218SOL    HW113553   3.894   1.334   1.708
 4218SOL    HW213554   3.968   1.227   1.609
 4219SOL     OW13555   3.926   5.488   4.182
 4219SOL    HW113556   4.007   5.488   4.122
 4219SOL    HW213557   3.872   5.570   4.165
 4220SOL     OW13558   6.069   2.610   3.873
 4220SOL    HW113559   6.059   2.520   3.828
 4220SOL    HW213560   6.165   2.638   3.869
 4221SOL     OW13561   5.435   5.487   5.989
 4221SOL    HW113562   5.508   5.459   6.052
 4221SOL    HW213563   5.432   5.424   5.911
 4222SOL     OW13564   6.979   2.318   2.900
 4222SOL    HW113565   6.900   2.372   2.870
 4222SOL    HW213566   0.041   2.372   2.888
 4223SOL     OW13567   3.621   3.036   6.694
 4223SOL    HW113568   3.664   2.949   6.719
 4223SOL    HW213569   3.684   3.090   6.639
 4224SOL     OW13570   5.175   4.036   4.134
 4224SOL    HW113571   5.192   4.070   4.226
 4224SOL    HW213572   5.262   4.008   4.093
 4225SOL     OW13573   3.827   1.303   5.640
 4225SOL    HW113574   3.902   1.367   5.621
 4225SOL    HW213575   3.857   1.236   5.708
 4226SOL     OW13576   0.911   0.594   2.143
 4226SOL    HW113577   0.941   0.501   2.122
 4226SOL    HW213578   0.990   0.655   2.143
 4227SOL     OW13579   4.019   4.599   0.885
 4227SOL    HW113580   4.032   4.679   0.944
 4227SOL    HW213581   4.046   4.623   0.791
 4228SOL     OW13582   0.942   4.350   4.719
 4228SOL    HW113583   0.856   4.308   4.747
 4228SOL    HW213584   0.995   4.286   4.664
 4229SOL     OW13585   5.120   5.498   5.489
 4229SOL    HW113586   5.150   5.405   5.509
 4229SOL    HW213587   5.040   5.520   5.546
 4230SOL     OW13588   1.687   5.977   2.663
 4230SOL    HW113589   1.645   6.058   2.622
 4230SOL    HW213590   1.675   5.979   2.762
 4231SOL     OW13591   5.794   0.267   5.842
 4231SOL    HW113592   5.853   0.274   5.922
 4231SOL    HW213593   5.702   0.239   5.870
 4232SOL     OW13594   0.359   5.084   3.222
 4232SOL    HW113595   0.392   5.147   3.292
 4232SOL    HW213596   0.415   5.094   3.140
 4233SOL     OW13597   0.066   0.589   6.468
 4233SOL    HW113598   0.086   0.501   6.424
 4233SOL    HW213599   0.077   0.663   6.401
 4234SOL     OW13600   2.207   6.584   5.148
 4234SOL    HW113601   2.215   6.531   5.064
 4234SOL    HW213602   2.148   6.536   5.213
 4235SOL     OW13603   5.568   3.339   6.071
 4235SOL    HW113604   5.506   3.392   6.012
 4235SOL    HW213605   5.629   3.402   6.120
 4236SOL     OW13606   6.296   3.970   2.654
 4236SOL    HW113607   6.313   3.876   2.685
 4236SOL    HW213608   6.229   3.968   2.580
 4237SOL     OW13609   5.855   6.212   2.382
 4237SOL    HW113610   5.931   6.210   2.448
 4237SOL    HW213611   5.840   6.120   2.346
 4238SOL     OW13612   2.952   5.857   3.198
 4238SOL    HW113613   2.956   5.955   3.178
 4238SOL    HW213614   2.912   5.809   3.120
 4239SOL     OW13615   6.309   1.816   2.851
 4239SOL    HW113616   6.331   1.912   2.867
 4239SOL    HW213617   6.220   1.795   2.891
 4240SOL     OW13618   2.167   6.422   0.117
 4240SOL    HW113619   2.170   6.511   0.071
 4240SOL    HW213620   2.255   6.376   0.106
 4241SOL     OW13621   6.315   0.869   0.376
 4241SOL    HW113622   6.244   0.798   0.376
 4241SOL    HW213623   6.363   0.867   0.288
 4242SOL     OW13624   3.234   1.485   3.921
 4242SOL    HW113625   3.291   1.467   4.002
 4242SOL    HW213626   3.262   1.424   3.847
 4243SOL     OW13627   6.658   3.025   3.332
 4243SOL    HW113628   6.661   2.970   3.249
 4243SOL    HW213629   6.564   3.026   3.368
 4244SOL     OW13630   4.494   4.040   1.363
 4244SOL    HW113631   4.465   3.946   1.350
 4244SOL    HW213632   4.414   4.098   1.380
 4245SOL     OW13633   0.521   1.500   6.339
 4245SOL    HW113634   0.462   1.552   6.277
 4245SOL    HW213635   0.474   1.415   6.365
 4246SOL     OW13636   6.777   3.871   3.525
 4246SOL    HW113637   6.780   3.971   3.517
 4246SOL    HW213638   6.849   3.840   3.587
 4247SOL     OW13639   2.815   5.651   3.645
 4247SOL    HW113640   2.774   5.702   3.721
 4247SOL    HW213641   2.792   5.696   3.559
 4248SOL     OW13642   2.614   1.673   3.709
 4248SOL    HW113643   2.563   1.723   3.638
 4248SOL    HW213644   2.597   1.575   3.700
 4249SOL     OW13645   5.247   2.637   3.826
 4249SOL    HW113646   5.280   2.576   3.898
 4249SOL    HW213647   5.209   2.583   3.751
 4250SOL     OW13648   6.081   5.168   2.803
 4250SOL    HW113649   6.181   5.163   2.809
 4250SOL    HW213650   6.044   5.205   2.888
 4251SOL     OW13651   5.389   4.475   1.909
 4251SOL    HW113652   5.421   4.564   1.876
 4251SOL    HW213653   5.421   4.403   1.847
 4252SOL     OW13654   5.559   0.041   6.422
 4252SOL    HW113655   5.489   6.991   6.425
 4252SOL    HW213656   5.517   0.130   6.440
 4253SOL     OW13657   3.126   0.181   0.801
 4253SOL    HW113658   3.118   0.258   0.865
 4253SOL    HW213659   3.160   0.215   0.713
 4254SOL     OW13660   1.268   3.766   1.790
 4254SOL    HW113661   1.179   3.770   1.745
 4254SOL    HW213662   1.324   3.845   1.761
 4255SOL     OW13663   6.858   4.048   3.987
 4255SOL    HW113664   6.877   3.971   4.048
 4255SOL    HW213665   6.809   4.119   4.039
 4256SOL     OW13666   1.752   6.373   0.644
 4256SOL    HW113667   1.688   6.352   0.570
 4256SOL    HW213668   1.814   6.296   0.659
 4257SOL     OW13669   2.726   0.903   3.895
 4257SOL    HW113670   2.793   0.857   3.954
 4257SOL    HW213671   2.670   0.965   3.949
 4258SOL     OW13672   4.384   5.832   0.640
 4258SOL    HW113673   4.372   5.733   0.643
 4258SOL    HW213674   4.297   5.876   0.620
 4259SOL     OW13675   2.371   0.911   0.899
 4259SOL    HW113676   2.409   0.999   0.872
 4259SOL    HW213677   2.384   0.844   0.825
 4260SOL     OW13678   5.614   0.109   1.382
 4260SOL    HW113679   5.579   0.160   1.303
 4260SOL    HW213680   5.706   0.141   1.404
 4261SOL     OW13681   2.272   0.013   2.837
 4261SOL    HW113682   2.339   6.961   2.849
 4261SOL    HW213683   2.269   0.040   2.741
 4262SOL     OW13684   0.727   4.588   6.591
 4262SOL    HW113685   0.780   4.670   6.615
 4262SOL    HW213686   0.741   4.567   6.494
 4263SOL     OW13687   3.100   0.256   3.453
 4263SOL    HW113688   3.148   0.187   3.507
 4263SOL    HW213689   3.030   0.300   3.511
 4264SOL     OW13690   6.548   2.362   2.496
 4264SOL    HW113691   6.635   2.344   2.542
 4264SOL    HW213692   6.473   2.346   2.559
 4265SOL     OW13693   4.467   1.619   1.422
 4265SOL    HW113694   4.432   1.702   1.376
 4265SOL    HW213695   4.531   1.573   1.361
 4266SOL     OW13696   1.848   5.273   7.002
 4266SOL    HW113697   1.916   5.261   6.929
 4266SOL    HW213698   1.837   5.371   7.020
 4267SOL     OW13699   1.947   3.041   3.568
 4267SOL    HW113700   1.975   2.967   3.507
 4267SOL    HW213701   2.022   3.064   3.629
 4268SOL     OW13702   1.098   6.245   6.734
 4268SOL    HW113703   1.072   6.149   6.730
 4268SOL    HW213704   1.175   6.255   6.798
 4269SOL     OW13705   2.963   0.470   2.457
 4269SOL    HW113706   2.934   0.552   2.407
 4269SOL    HW213707   3.013   0.409   2.395
 4270SOL     OW13708   4.091   3.318   3.012
 4270SOL    HW113709   4.110   3.394   2.951
 4270SOL    HW213710   4.092   3.350   3.107
 4271SOL     OW13711   6.696   0.943   6.730
 4271SOL    HW113712   6.643   1.001   6.792
 4271SOL    HW213713   6.659   0.951   6.637
 4272SOL     OW13714   6.658   2.415   4.422
 4272SOL    HW113715   6.649   2.324   4.462
 4272SOL    HW213716   6.664   2.483   4.494
 4273SOL     OW13717   4.731   6.808   4.630
 4273SOL    HW113718   4.780   6.875   4.575
 4273SOL    HW213719   4.633   6.828   4.630
 4274SOL     OW13720   1.098   6.352   2.019
 4274SOL    HW113721   1.080   6.295   1.938
 4274SOL    HW213722   1.178   6.409   2.002
 4275SOL     OW13723   6.616   2.156   4.503
 4275SOL    HW113724   6.670   2.087   4.453
 4275SOL    HW213725   6.609   2.129   4.599
 4276SOL     OW13726   1.605   5.166   3.660
 4276SOL    HW113727   1.620   5.088   3.721
 4276SOL    HW213728   1.682   5.229   3.666
 4277SOL     OW13729   6.100   4.834   3.055
 4277SOL    HW113730   6.198   4.820   3.040
 4277SOL    HW213731   6.051   4.749   3.032
 4278SOL     OW13732   6.663   0.180   5.284
 4278SOL    HW113733   6.619   0.266   5.261
 4278SOL    HW213734   6.670   0.123   5.202
 4279SOL     OW13735   3.281   0.633   4.005
 4279SOL    HW113736   3.326   0.718   4.032
 4279SOL    HW213737   3.344   0.578   3.951
 4280SOL     OW13738   4.495   0.583   5.559
 4280SOL    HW113739   4.509   0.544   5.650
 4280SOL    HW213740   4.471   0.510   5.495
 4281SOL     OW13741   6.882   4.838   3.431
 4281SOL    HW113742   6.878   4.914   3.496
 4281SOL    HW213743   6.934   4.763   3.471
 4282SOL     OW13744   3.478   3.811   6.223
 4282SOL    HW113745   3.516   3.880   6.284
 4282SOL    HW213746   3.447   3.732   6.277
 4283SOL     OW13747   1.168   0.560   3.391
 4283SOL    HW113748   1.141   0.558   3.487
 4283SOL    HW213749   1.264   0.535   3.382
 4284SOL     OW13750   3.919   4.930   1.363
 4284SOL    HW113751   3.917   5.018   1.315
 4284SOL    HW213752   3.939   4.857   1.298
 4285SOL     OW13753   1.439   0.551   5.523
 4285SOL    HW113754   1.416   0.645   5.500
 4285SOL    HW213755   1.539   0.541   5.529
 4286SOL     OW13756   4.739   6.453   6.042
 4286SOL    HW113757   4.708   6.544   6.016
 4286SOL    HW213758   4.699   6.385   5.980
 4287SOL     OW13759   5.834   1.526   6.341
 4287SOL    HW113760   5.808   1.477   6.424
 4287SOL    HW213761   5.929   1.557   6.348
 4288SOL     OW13762   0.129   5.670   3.872
 4288SOL    HW113763   0.147   5.768   3.876
 4288SOL    HW213764   0.035   5.654   3.841
 4289SOL     OW13765   6.583   3.148   6.468
 4289SOL    HW113766   6.616   3.061   6.505
 4289SOL    HW213767   6.493   3.169   6.507
 4290SOL     OW13768   1.378   6.605   3.467
 4290SOL    HW113769   1.401   6.609   3.564
 4290SOL    HW213770   1.302   6.542   3.453
 4291SOL     OW13771   4.274   3.790   0.544
 4291SOL    HW113772   4.312   3.724   0.609
 4291SOL    HW213773   4.312   3.773   0.453
 4292SOL     OW13774   5.601   3.013   0.474
 4292SOL    HW113775   5.666   3.043   0.405
 4292SOL    HW213776   5.519   3.070   0.470
 4293SOL     OW13777   2.793   2.793   0.400
 4293SOL    HW113778   2.880   2.773   0.355
 4293SOL    HW213779   2.809   2.823   0.494
 4294SOL     OW13780   1.823   2.065   6.926
 4294SOL    HW113781   1.903   2.122   6.907
 4294SOL    HW213782   1.748   2.123   6.960
 4295SOL     OW13783   3.586   6.001   4.800
 4295SOL    HW113784   3.550   5.910   4.777
 4295SOL    HW213785   3.672   6.015   4.751
 4296SOL     OW13786   2.608   6.867   0.852
 4296SOL    HW113787   2.653   6.780   0.829
 4296SOL    HW213788   2.644   6.939   0.793
 4297SOL     OW13789   4.614   0.163   6.487
 4297SOL    HW113790   4.694   0.112   6.520
 4297SOL    HW213791   4.538   0.101   6.473
 4298SOL     OW13792   4.149   4.939   0.136
 4298SOL    HW113793   4.055   4.921   0.110
 4298SOL    HW213794   4.211   4.914   0.062
 4299SOL     OW13795   1.238   3.355   6.575
 4299SOL    HW113796   1.156   3.330   6.524
 4299SOL    HW213797   1.307   3.284   6.564
 4300SOL     OW13798   3.206   6.720   0.700
 4300SOL    HW113799   3.302   6.746   0.686
 4300SOL    HW213800   3.182   6.649   0.634
 4301SOL     OW13801   3.786   1.497   1.381
 4301SOL    HW113802   3.836   1.583   1.393
 4301SOL    HW213803   3.816   1.431   1.450
 4302SOL     OW13804   1.178   0.024   6.248
 4302SOL    HW113805   1.130   0.032   6.160
 4302SOL    HW213806   1.123   6.990   6.310
 4303SOL     OW13807   0.194   4.058   3.619
 4303SOL    HW113808   0.223   3.973   3.665
 4303SOL    HW213809   0.260   4.130   3.641
 4304SOL     OW13810   3.264   3.984   2.901
 4304SOL    HW113811   3.184   3.934   2.936
 4304SOL    HW213812   3.288   4.057   2.966
 4305SOL     OW13813   6.873   0.344   5.474
 4305SOL    HW113814   6.798   0.322   5.412
 4305SOL    HW213815   6.936   0.266   5.480
 4306SOL     OW13816   5.289   4.438   5.875
 4306SOL    HW113817   5.358   4.407   5.809
 4306SOL    HW213818   5.294   4.537   5.883
 4307SOL     OW13819   5.280   3.957   5.606
 4307SOL    HW113820   5.303   3.886   5.673
 4307SOL    HW213821   5.347   3.956   5.532
 4308SOL     OW13822   6.379   4.949   0.878
 4308SOL    HW113823   6.329   5.012   0.938
 4308SOL    HW213824   6.418   4.875   0.933
 4309SOL     OW13825   1.278   1.042   0.221
 4309SOL    HW113826   1.375   1.067   0.229
 4309SOL    HW213827   1.221   1.120   0.249
 4310SOL     OW13828   1.549   2.486   1.993
 4310SOL    HW113829   1.481   2.559   1.992
 4310SOL    HW213830   1.637   2.523   2.023
 4311SOL     OW13831   2.139   5.971   2.707
 4311SOL    HW113832   2.132   5.896   2.773
 4311SOL    HW213833   2.122   6.058   2.753
 4312SOL     OW13834   2.016   5.339   1.343
 4312SOL    HW113835   2.033   5.371   1.250
 4312SOL    HW213836   2.039   5.412   1.408
 4313SOL     OW13837   4.444   1.407   1.772
 4313SOL    HW113838   4.486   1.361   1.694
 4313SOL    HW213839   4.432   1.504   1.752
 4314SOL     OW13840   6.092   1.287   4.236
 4314SOL    HW113841   6.035   1.360   4.275
 4314SOL    HW213842   6.067   1.272   4.141
 4315SOL     OW13843   2.871   6.255   1.967
 4315SOL    HW113844   2.805   6.322   2.001
 4315SOL    HW213845   2.940   6.300   1.912
 4316SOL     OW13846   5.529   0.839   2.050
 4316SOL    HW113847   5.535   0.764   2.116
 4316SOL    HW213848   5.546   0.804   1.958
 4317SOL     OW13849   5.103   2.435   4.723
 4317SOL    HW113850   5.035   2.378   4.768
 4317SOL    HW213851   5.086   2.531   4.746
 4318SOL     OW13852   0.385   3.316   4.885
 4318SOL    HW113853   0.293   3.312   4.923
 4318SOL    HW213854   0.429   3.226   4.892
 4319SOL     OW13855   2.191   1.781   1.561
 4319SOL    HW113856   2.148   1.868   1.538
 4319SOL    HW213857   2.290   1.791   1.561
 4320SOL     OW13858   5.555   5.258   0.244
 4320SOL    HW113859   5.457   5.236   0.246
 4320SOL    HW213860   5.600   5.216   0.322
 4321SOL     OW13861   6.996   6.553   4.836
 4321SOL    HW113862   0.072   6.531   4.840
 4321SOL    HW213863   6.951   6.493   4.770
 4322SOL     OW13864   6.040   2.467   6.947
 4322SOL    HW113865   6.109   2.537   6.963
 4322SOL    HW213866   6.076   2.400   6.882
 4323SOL     OW13867   4.719   3.753   1.310
 4323SOL    HW113868   4.723   3.673   1.250
 4323SOL    HW213869   4.624   3.768   1.339
 4324SOL     OW13870   5.616   4.093   6.424
 4324SOL    HW113871   5.554   4.092   6.502
 4324SOL    HW213872   5.563   4.104   6.340
 4325SOL     OW13873   2.365   1.257   1.504
 4325SOL    HW113874   2.346   1.292   1.412
 4325SOL    HW213875   2.402   1.331   1.560
 4326SOL     OW13876   4.467   4.908   3.798
 4326SOL    HW113877   4.495   4.950   3.712
 4326SOL    HW213878   4.542   4.909   3.863
 4327SOL     OW13879   5.916   5.888   1.411
 4327SOL    HW113880   6.001   5.864   1.459
 4327SOL    HW213881   5.871   5.804   1.381
 4328SOL     OW13882   4.577   3.654   5.655
 4328SOL    HW113883   4.596   3.674   5.559
 4328SOL    HW213884   4.510   3.720   5.690
 4329SOL     OW13885   4.351   1.536   5.577
 4329SOL    HW113886   4.310   1.566   5.664
 4329SOL    HW213887   4.444   1.504   5.594
 4330SOL     OW13888   2.046   6.381   4.668
 4330SOL    HW113889   2.140   6.402   4.644
 4330SOL    HW213890   1.992   6.465   4.668
 4331SOL     OW13891   5.578   1.590   1.641
 4331SOL    HW113892   5.661   1.554   1.598
 4331SOL    HW213893   5.603   1.658   1.710
 4332SOL     OW13894   5.454   3.794   1.991
 4332SOL    HW113895   5.389   3.838   1.930
 4332SOL    HW213896   5.507   3.726   1.939
 4333SOL     OW13897   3.342   1.010   5.875
 4333SOL    HW113898   3.289   1.067   5.939
 4333SOL    HW213899   3.415   0.964   5.925
 4334SOL     OW13900   1.379   2.472   2.638
 4334SOL    HW113901   1.429   2.408   2.580
 4334SOL    HW213902   1.291   2.493   2.596
 4335SOL     OW13903   3.415   3.796   2.824
 4335SOL    HW113904   3.388   3.721   2.885
 4335SOL    HW213905   3.371   3.880   2.853
 4336SOL     OW13906   3.252   6.804   6.661
 4336SOL    HW113907   3.173   6.863   6.678
 4336SOL    HW213908   3.288   6.822   6.570
 4337SOL     OW13909   0.627   4.392   0.910
 4337SOL    HW113910   0.688   4.379   0.988
 4337SOL    HW213911   0.553   4.454   0.936
 4338SOL     OW13912   6.127   0.322   5.633
 4338SOL    HW113913   6.054   0.386   5.657
 4338SOL    HW213914   6.101   0.270   5.552
 4339SOL     OW13915   5.712   3.160   5.499
 4339SOL    HW113916   5.745   3.103   5.423
 4339SOL    HW213917   5.735   3.116   5.586
 4340SOL     OW13918   6.502   2.728   2.170
 4340SOL    HW113919   6.407   2.697   2.170
 4340SOL    HW213920   6.546   2.699   2.255
 4341SOL     OW13921   0.696   5.819   2.236
 4341SOL    HW113922   0.663   5.903   2.280
 4341SOL    HW213923   0.619   5.757   2.221
 4342SOL     OW13924   5.515   3.685   3.826
 4342SOL    HW113925   5.418   3.692   3.800
 4342SOL    HW213926   5.572   3.717   3.751
 4343SOL     OW13927   2.738   6.486   5.407
 4343SOL    HW113928   2.737   6.575   5.362
 4343SOL    HW213929   2.645   6.463   5.437
 4344SOL     OW13930   0.706   4.248   1.946
 4344SOL    HW113931   0.661   4.178   1.891
 4344SOL    HW213932   0.659   4.258   2.033
 4345SOL     OW13933   3.339   3.860   4.812
 4345SOL    HW113934   3.367   3.866   4.907
 4345SOL    HW213935   3.413   3.818   4.758
 4346SOL     OW13936   2.065   3.246   2.325
 4346SOL    HW113937   2.085   3.331   2.373
 4346SOL    HW213938   1.982   3.257   2.270
 4347SOL     OW13939   6.747   6.538   2.379
 4347SOL    HW113940   6.771   6.635   2.386
 4347SOL    HW213941   6.744   6.497   2.470
 4348SOL     OW13942   6.507   5.067   4.003
 4348SOL    HW113943   6.410   5.077   3.983
 4348SOL    HW213944   6.560   5.085   3.921
 4349SOL     OW13945   6.097   2.006   2.353
 4349SOL    HW113946   6.085   2.020   2.254
 4349SOL    HW213947   6.115   1.910   2.371
 4350SOL     OW13948   3.420   1.437   4.144
 4350SOL    HW113949   3.509   1.419   4.101
 4350SOL    HW213950   3.424   1.413   4.241
 4351SOL     OW13951   1.791   5.197   0.999
 4351SOL    HW113952   1.841   5.119   0.960
 4351SOL    HW213953   1.711   5.164   1.048
 4352SOL     OW13954   6.282   3.674   2.446
 4352SOL    HW113955   6.334   3.755   2.473
 4352SOL    HW213956   6.299   3.601   2.511
 4353SOL     OW13957   4.368   2.746   6.581
 4353SOL    HW113958   4.340   2.690   6.503
 4353SOL    HW213959   4.294   2.810   6.605
 4354SOL     OW13960   2.270   0.067   5.784
 4354SOL    HW113961   2.225   0.125   5.851
 4354SOL    HW213962   2.209   0.052   5.706
 4355SOL     OW13963   2.197   6.763   2.432
 4355SOL    HW113964   2.273   6.699   2.426
 4355SOL    HW213965   2.163   6.782   2.340
 4356SOL     OW13966   5.066   3.971   0.644
 4356SOL    HW113967   5.104   4.034   0.711
 4356SOL    HW213968   5.003   4.020   0.583
 4357SOL     OW13969   6.714   1.662   0.794
 4357SOL    HW113970   6.690   1.638   0.888
 4357SOL    HW213971   6.631   1.687   0.744
 4358SOL     OW13972   0.450   6.979   0.698
 4358SOL    HW113973   0.524   6.975   0.765
 4358SOL    HW213974   0.419   0.052   0.688
 4359SOL     OW13975   2.036   1.501   6.058
 4359SOL    HW113976   2.024   1.592   6.098
 4359SOL    HW213977   2.102   1.450   6.113
 4360SOL     OW13978   1.427   3.078   3.447
 4360SOL    HW113979   1.527   3.072   3.441
 4360SOL    HW213980   1.387   3.045   3.362
 4361SOL     OW13981   2.460   3.474   1.474
 4361SOL    HW113982   2.553   3.455   1.506
 4361SOL    HW213983   2.395   3.422   1.529
 4362SOL     OW13984   6.007   5.565   3.213
 4362SOL    HW113985   5.960   5.650   3.188
 4362SOL    HW213986   5.994   5.548   3.311
 4363SOL     OW13987   5.815   2.168   1.348
 4363SOL    HW113988   5.750   2.096   1.323
 4363SOL    HW213989   5.774   2.258   1.328
 4364SOL     OW13990   2.914   3.513   4.396
 4364SOL    HW113991   2.873   3.422   4.402
 4364SOL    HW213992   3.007   3.506   4.359
 4365SOL     OW13993   2.425   0.791   2.130
 4365SOL    HW113994   2.472   0.876   2.107
 4365SOL    HW213995   2.330   0.810   2.154
 4366SOL     OW13996   5.774   0.322   0.616
 4366SOL    HW113997   5.850   0.258   0.628
 4366SOL    HW213998   5.802   0.413   0.647
 4367SOL     OW13999   2.204   4.241   4.584
 4367SOL    HW114000   2.211   4.201   4.493
 4367SOL    HW214001   2.175   4.171   4.649
 4368SOL     OW14002   3.858   4.907   0.502
 4368SOL    HW114003   3.767   4.923   0.542
 4368SOL    HW214004   3.848   4.853   0.419
 4369SOL     OW14005   4.305   5.542   2.578
 4369SOL    HW114006   4.338   5.502   2.493
 4369SOL    HW214007   4.382   5.580   2.629
 4370SOL     OW14008   3.968   5.378   1.589
 4370SOL    HW114009   3.946   5.406   1.496
 4370SOL    HW214010   4.023   5.449   1.633
 4371SOL     OW14011   0.833   2.297   2.066
 4371SOL    HW114012   0.793   2.209   2.094
 4371SOL    HW214013   0.914   2.280   2.010
 4372SOL     OW14014   2.678   1.739   2.749
 4372SOL    HW114015   2.692   1.645   2.719
 4372SOL    HW214016   2.764   1.790   2.740
 4373SOL     OW14017   5.774   2.140   0.409
 4373SOL    HW114018   5.713   2.121   0.486
 4373SOL    HW214019   5.752   2.079   0.333
 4374SOL     OW14020   0.617   1.530   0.398
 4374SOL    HW114021   0.583   1.436   0.388
 4374SOL    HW214022   0.569   1.589   0.333
 4375SOL     OW14023   4.285   6.778   3.156
 4375SOL    HW114024   4.325   6.865   3.129
 4375SOL    HW214025   4.357   6.717   3.189
 4376SOL     OW14026   0.263   6.969   2.163
 4376SOL    HW114027   0.359   6.956   2.190
 4376SOL    HW214028   0.256   0.027   2.102
 4377SOL     OW14029   5.715   4.704   0.065
 4377SOL    HW114030   5.762   4.706   0.154
 4377SOL    HW214031   5.628   4.752   0.073
 4378SOL     OW14032   2.321   2.732   2.828
 4378SOL    HW114033   2.322   2.764   2.923
 4378SOL    HW214034   2.334   2.809   2.766
 4379SOL     OW14035   1.723   2.722   2.605
 4379SOL    HW114036   1.630   2.746   2.634
 4379SOL    HW214037   1.723   2.701   2.507
 4380SOL     OW14038   1.239   6.781   3.172
 4380SOL    HW114039   1.317   6.807   3.229
 4380SOL    HW214040   1.265   6.786   3.075
 4381SOL     OW14041   1.743   4.236   5.339
 4381SOL    HW114042   1.705   4.310   5.283
 4381SOL    HW214043   1.668   4.184   5.379
 4382SOL     OW14044   6.628   3.141   4.964
 4382SOL    HW114045   6.541   3.095   4.945
 4382SOL    HW214046   6.648   3.206   4.891
 4383SOL     OW14047   0.636   2.839   5.710
 4383SOL    HW114048   0.721   2.882   5.679
 4383SOL    HW214049   0.596   2.892   5.784
 4384SOL     OW14050   6.411   1.883   5.414
 4384SOL    HW114051   6.462   1.809   5.371
 4384SOL    HW214052   6.322   1.892   5.369
 4385SOL     OW14053   6.182   2.387   5.184
 4385SOL    HW114054   6.219   2.308   5.135
 4385SOL    HW214055   6.208   2.471   5.137
 4386SOL     OW14056   2.402   3.056   6.556
 4386SOL    HW114057   2.436   3.130   6.498
 4386SOL    HW214058   2.316   3.084   6.598
 4387SOL     OW14059   6.991   1.431   1.074
 4387SOL    HW114060   6.940   1.358   1.119
 4387SOL    HW214061   7.013   1.405   0.980
 4388SOL     OW14062   5.309   2.235   6.492
 4388SOL    HW114063   5.376   2.254   6.563
 4388SOL    HW214064   5.346   2.260   6.402
 4389SOL     OW14065   6.795   3.329   0.967
 4389SOL    HW114066   6.764   3.236   0.984
 4389SOL    HW214067   6.724   3.394   0.993
 4390SOL     OW14068   3.578   1.068   1.301
 4390SOL    HW114069   3.607   1.082   1.396
 4390SOL    HW214070   3.567   1.156   1.256
 4391SOL     OW14071   2.011   5.650   6.826
 4391SOL    HW114072   2.103   5.624   6.854
 4391SOL    HW214073   2.013   5.738   6.779
 4392SOL     OW14074   6.890   2.788   4.596
 4392SOL    HW114075   6.934   2.825   4.514
 4392SOL    HW214076   6.878   2.862   4.663
 4393SOL     OW14077   5.983   0.497   2.571
 4393SOL    HW114078   6.020   0.458   2.655
 4393SOL    HW214079   5.985   0.428   2.498
 4394SOL     OW14080   6.463   5.823   2.459
 4394SOL    HW114081   6.550   5.780   2.482
 4394SOL    HW214082   6.420   5.858   2.543
 4395SOL     OW14083   3.091   6.382   1.840
 4395SOL    HW114084   3.178   6.335   1.846
 4395SOL    HW214085   3.099   6.462   1.780
 4396SOL     OW14086   1.926   2.010   3.813
 4396SOL    HW114087   1.857   2.039   3.746
 4396SOL    HW214088   1.994   1.953   3.767
 4397SOL     OW14089   0.078   1.228   4.862
 4397SOL    HW114090   0.093   1.144   4.810
 4397SOL    HW214091   0.160   1.286   4.856
 4398SOL     OW14092   0.416   3.826   5.706
 4398SOL    HW114093   0.456   3.903   5.756
 4398SOL    HW214094   0.486   3.785   5.648
 4399SOL     OW14095   2.570   0.124   1.818
 4399SOL    HW114096   2.598   0.111   1.723
 4399SOL    HW214097   2.594   0.043   1.871
 4400SOL     OW14098   3.033   6.467   5.723
 4400SOL    HW114099   2.995   6.376   5.706
 4400SOL    HW214100   3.068   6.471   5.816
 4401SOL     OW14101   4.209   6.644   6.219
 4401SOL    HW114102   4.148   6.706   6.169
 4401SOL    HW214103   4.304   6.671   6.204
 4402SOL     OW14104   2.719   0.260   2.037
 4402SOL    HW114105   2.656   0.263   2.115
 4402SOL    HW214106   2.730   0.166   2.006
 4403SOL     OW14107   1.268   7.000   2.016
 4403SOL    HW114108   1.353   7.008   1.963
 4403SOL    HW214109   1.290   6.977   2.111
 4404SOL     OW14110   1.074   4.929   5.563
 4404SOL    HW114111   1.156   4.909   5.616
 4404SOL    HW214112   1.100   4.955   5.470
 4405SOL     OW14113   1.805   4.006   0.537
 4405SOL    HW114114   1.879   4.021   0.603
 4405SOL    HW214115   1.831   4.045   0.448
 4406SOL     OW14116   0.265   3.480   0.845
 4406SOL    HW114117   0.231   3.460   0.753
 4406SOL    HW214118   0.349   3.534   0.838
 4407SOL     OW14119   6.207   5.247   0.448
 4407SOL    HW114120   6.236   5.220   0.356
 4407SOL    HW214121   6.266   5.203   0.516
 4408SOL     OW14122   3.441   0.591   1.153
 4408SOL    HW114123   3.427   0.498   1.119
 4408SOL    HW214124   3.503   0.588   1.231
 4409SOL     OW14125   5.040   1.105   2.904
 4409SOL    HW114126   5.084   1.018   2.881
 4409SOL    HW214127   5.066   1.133   2.996
 4410SOL     OW14128   1.373   5.267   6.854
 4410SOL    HW114129   1.454   5.210   6.841
 4410SOL    HW214130   1.395   5.362   6.832
 4411SOL     OW14131   3.868   3.981   4.231
 4411SOL    HW114132   3.929   3.981   4.311
 4411SOL    HW214133   3.901   3.914   4.165
 4412SOL     OW14134   4.273   6.266   4.754
 4412SOL    HW114135   4.330   6.230   4.681
 4412SOL    HW214136   4.318   6.251   4.842
 4413SOL     OW14137   6.125   4.908   4.276
 4413SOL    HW114138   6.213   4.942   4.311
 4413SOL    HW214139   6.058   4.907   4.350
 4414SOL     OW14140   3.382   4.988   0.830
 4414SOL    HW114141   3.381   5.057   0.902
 4414SOL    HW214142   3.293   4.984   0.786
 4415SOL     OW14143   4.087   2.515   0.780
 4415SOL    HW114144   4.102   2.509   0.878
 4415SOL    HW214145   3.989   2.516   0.761
 4416SOL     OW14146   3.196   1.084   4.106
 4416SOL    HW114147   3.176   1.125   4.017
 4416SOL    HW214148   3.256   1.004   4.093
 4417SOL     OW14149   5.597   3.998   3.530
 4417SOL    HW114150   5.669   4.032   3.591
 4417SOL    HW214151   5.638   3.968   3.444
 4418SOL     OW14152   6.134   2.012   2.084
 4418SOL    HW114153   6.138   2.106   2.052
 4418SOL    HW214154   6.226   1.974   2.089
 4419SOL     OW14155   5.721   6.121   6.704
 4419SOL    HW114156   5.707   6.125   6.606
 4419SOL    HW214157   5.677   6.039   6.741
 4420SOL     OW14158   5.169   0.732   1.774
 4420SOL    HW114159   5.220   0.661   1.823
 4420SOL    HW214160   5.129   0.796   1.840
 4421SOL     OW14161   2.439   1.331   5.171
 4421SOL    HW114162   2.377   1.409   5.169
 4421SOL    HW214163   2.388   1.247   5.155
 4422SOL     OW14164   2.358   3.915   6.870
 4422SOL    HW114165   2.318   3.851   6.804
 4422SOL    HW214166   2.323   3.893   6.961
 4423SOL     OW14167   0.027   3.041   5.923
 4423SOL    HW114168   0.060   3.020   6.015
 4423SOL    HW214169   0.075   3.122   5.889
 4424SOL     OW14170   5.744   1.015   4.385
 4424SOL    HW114171   5.830   1.036   4.430
 4424SOL    HW214172   5.746   1.049   4.291
 4425SOL     OW14173   3.023   3.963   0.745
 4425SOL    HW114174   3.058   3.889   0.802
 4425SOL    HW214175   2.926   3.978   0.765
 4426SOL     OW14176   6.790   1.727   3.631
 4426SOL    HW114177   6.760   1.659   3.565
 4426SOL    HW214178   6.886   1.710   3.655
 4427SOL     OW14179   0.814   6.604   2.679
 4427SOL    HW114180   0.912   6.581   2.681
 4427SOL    HW214181   0.763   6.540   2.736
 4428SOL     OW14182   3.178   0.449   3.237
 4428SOL    HW114183   3.144   0.422   3.147
 4428SOL    HW214184   3.157   0.378   3.304
 4429SOL     OW14185   2.460   6.133   2.571
 4429SOL    HW114186   2.531   6.087   2.623
 4429SOL    HW214187   2.375   6.079   2.576
 4430SOL     OW14188   4.853   4.044   4.933
 4430SOL    HW114189   4.878   3.951   4.959
 4430SOL    HW214190   4.910   4.073   4.856
 4431SOL     OW14191   2.346   1.233   2.005
 4431SOL    HW114192   2.303   1.222   2.094
 4431SOL    HW214193   2.441   1.263   2.017
 4432SOL     OW14194   2.668   3.234   6.054
 4432SOL    HW114195   2.672   3.328   6.020
 4432SOL    HW214196   2.582   3.192   6.026
 4433SOL     OW14197   4.827   2.284   4.362
 4433SOL    HW114198   4.747   2.298   4.420
 4433SOL    HW214199   4.797   2.266   4.268
 4434SOL     OW14200   5.541   1.287   3.464
 4434SOL    HW114201   5.463   1.346   3.487
 4434SOL    HW214202   5.588   1.323   3.383
 4435SOL     OW14203   4.850   3.336   1.530
 4435SOL    HW114204   4.921   3.364   1.594
 4435SOL    HW214205   4.764   3.324   1.579
 4436SOL     OW14206   4.254   1.366   1.419
 4436SOL    HW114207   4.220   1.301   1.488
 4436SOL    HW214208   4.316   1.431   1.463
 4437SOL     OW14209   6.343   2.091   2.861
 4437SOL    HW114210   6.437   2.100   2.893
 4437SOL    HW214211   6.327   2.152   2.784
 4438SOL     OW14212   5.087   0.196   6.928
 4438SOL    HW114213   5.045   0.110   6.959
 4438SOL    HW214214   5.184   0.197   6.956
 4439SOL     OW14215   0.220   4.140   1.757
 4439SOL    HW114216   0.164   4.119   1.677
 4439SOL    HW214217   0.301   4.082   1.757
 4440SOL     OW14218   2.747   4.799   0.815
 4440SOL    HW114219   2.741   4.755   0.725
 4440SOL    HW214220   2.727   4.896   0.806
 4441SOL     OW14221   6.941   2.088   2.543
 4441SOL    HW114222   6.943   2.153   2.467
 4441SOL    HW214223   6.917   1.997   2.509
 4442SOL     OW14224   2.360   5.146   4.271
 4442SOL    HW114225   2.328   5.067   4.220
 4442SOL    HW214226   2.299   5.162   4.349
 4443SOL     OW14227   0.639   3.172   6.877
 4443SOL    HW114228   0.739   3.169   6.881
 4443SOL    HW214229   0.609   3.146   6.785
 4444SOL     OW14230   3.108   4.331   5.309
 4444SOL    HW114231   3.029   4.363   5.257
 4444SOL    HW214232   3.144   4.406   5.365
 4445SOL     OW14233   1.148   6.491   0.526
 4445SOL    HW114234   1.057   6.493   0.482
 4445SOL    HW214235   1.200   6.571   0.495
 4446SOL     OW14236   5.045   0.775   1.503
 4446SOL    HW114237   5.088   0.797   1.590
 4446SOL    HW214238   5.057   0.677   1.484
 4447SOL     OW14239   5.669   4.005   5.941
 4447SOL    HW114240   5.719   3.921   5.962
 4447SOL    HW214241   5.722   4.084   5.971
 4448SOL     OW14242   2.685   3.938   1.700
 4448SOL    HW114243   2.592   3.902   1.713
 4448SOL    HW214244   2.741   3.869   1.654
 4449SOL     OW14245   5.361   0.683   6.146
 4449SOL    HW114246   5.348   0.780   6.171
 4449SOL    HW214247   5.458   0.664   6.135
 4450SOL     OW14248   3.215   3.286   5.215
 4450SOL    HW114249   3.238   3.273   5.118
 4450SOL    HW214250   3.299   3.289   5.269
 4451SOL     OW14251   6.389   4.781   2.986
 4451SOL    HW114252   6.365   4.687   2.961
 4451SOL    HW214253   6.485   4.784   3.015
 4452SOL     OW14254   4.983   6.270   4.513
 4452SOL    HW114255   5.026   6.242   4.598
 4452SOL    HW214256   5.049   6.266   4.438
 4453SOL     OW14257   1.159   2.965   1.410
 4453SOL    HW114258   1.190   3.059   1.427
 4453SOL    HW214259   1.082   2.967   1.346
 4454SOL     OW14260   1.552   2.105   0.172
 4454SOL    HW114261   1.475   2.156   0.212
 4454SOL    HW214262   1.620   2.169   0.137
 4455SOL     OW14263   4.325   6.523   5.868
 4455SOL    HW114264   4.357   6.511   5.962
 4455SOL    HW214265   4.283   6.438   5.836
 4456SOL     OW14266   3.226   6.028   1.995
 4456SOL    HW114267   3.140   5.983   2.015
 4456SOL    HW214268   3.221   6.124   2.023
 4457SOL     OW14269   4.348   1.155   2.687
 4457SOL    HW114270   4.262   1.142   2.637
 4457SOL    HW214271   4.331   1.210   2.768
 4458SOL     OW14272   1.605   2.613   0.592
 4458SOL    HW114273   1.655   2.609   0.679
 4458SOL    HW214274   1.645   2.684   0.534
 4459SOL     OW14275   3.713   1.011   4.431
 4459SOL    HW114276   3.726   1.109   4.447
 4459SOL    HW214277   3.749   0.988   4.340
 4460SOL     OW14278   2.642   2.861   6.035
 4460SOL    HW114279   2.679   2.836   6.124
 4460SOL    HW214280   2.717   2.872   5.970
 4461SOL     OW14281   1.362   0.182   1.141
 4461SOL    HW114282   1.462   0.179   1.145
 4461SOL    HW214283   1.325   0.196   1.233
 4462SOL     OW14284   6.089   5.125   1.529
 4462SOL    HW114285   6.003   5.141   1.578
 4462SOL    HW214286   6.104   5.026   1.520
 4463SOL     OW14287   5.306   1.596   0.480
 4463SOL    HW114288   5.222   1.643   0.453
 4463SOL    HW214289   5.363   1.581   0.400
 4464SOL     OW14290   6.908   5.435   0.734
 4464SOL    HW114291   6.939   5.356   0.680
 4464SOL    HW214292   6.938   5.519   0.690
 4465SOL     OW14293   3.011   5.675   1.894
 4465SOL    HW114294   2.999   5.603   1.826
 4465SOL    HW214295   2.966   5.647   1.979
 4466SOL     OW14296   1.695   1.673   3.050
 4466SOL    HW114297   1.694   1.668   2.950
 4466SOL    HW214298   1.726   1.586   3.088
 4467SOL     OW14299   1.918   6.047   2.497
 4467SOL    HW114300   1.960   6.072   2.584
 4467SOL    HW214301   1.918   5.947   2.487
 4468SOL     OW14302   1.841   3.816   0.192
 4468SOL    HW114303   1.930   3.843   0.228
 4468SOL    HW214304   1.802   3.746   0.252
 4469SOL     OW14305   3.241   0.518   1.739
 4469SOL    HW114306   3.241   0.590   1.670
 4469SOL    HW214307   3.180   0.543   1.814
 4470SOL     OW14308   6.724   2.282   1.963
 4470SOL    HW114309   6.655   2.349   1.990
 4470SOL    HW214310   6.761   2.238   2.045
 4471SOL     OW14311   0.734   2.286   6.292
 4471SOL    HW114312   0.692   2.251   6.376
 4471SOL    HW214313   0.830   2.259   6.289
 4472SOL     OW14314   1.337   3.503   1.845
 4472SOL    HW114315   1.307   3.599   1.837
 4472SOL    HW214316   1.384   3.490   1.932
 4473SOL     OW14317   5.932   2.714   4.391
 4473SOL    HW114318   6.031   2.724   4.385
 4473SOL    HW214319   5.910   2.622   4.425
 4474SOL     OW14320   2.520   0.494   2.081
 4474SOL    HW114321   2.517   0.590   2.107
 4474SOL    HW214322   2.614   0.468   2.061
 4475SOL     OW14323   1.629   3.932   2.763
 4475SOL    HW114324   1.591   3.923   2.855
 4475SOL    HW214325   1.583   3.869   2.701
 4476SOL     OW14326   4.861   0.034   3.369
 4476SOL    HW114327   4.954   7.019   3.379
 4476SOL    HW214328   4.795   6.982   3.383
 4477SOL     OW14329   2.134   7.017   4.973
 4477SOL    HW114330   2.090   6.936   5.013
 4477SOL    HW214331   2.231   7.015   4.993
 4478SOL     OW14332   3.642   6.831   3.151
 4478SOL    HW114333   3.727   6.779   3.142
 4478SOL    HW214334   3.592   6.799   3.232
 4479SOL     OW14335   0.857   1.758   1.416
 4479SOL    HW114336   0.922   1.690   1.449
 4479SOL    HW214337   0.768   1.742   1.459
 4480SOL     OW14338   1.111   4.189   5.098
 4480SOL    HW114339   1.087   4.286   5.094
 4480SOL    HW214340   1.174   4.168   5.023
 4481SOL     OW14341   3.308   6.026   4.868
 4481SOL    HW114342   3.305   6.087   4.946
 4481SOL    HW214343   3.403   6.015   4.837
 4482SOL     OW14344   1.285   2.854   4.954
 4482SOL    HW114345   1.204   2.813   4.912
 4482SOL    HW214346   1.286   2.952   4.934
 4483SOL     OW14347   5.972   2.439   2.399
 4483SOL    HW114348   5.990   2.372   2.327
 4483SOL    HW214349   5.910   2.509   2.363
 4484SOL     OW14350   2.624   2.296   6.462
 4484SOL    HW114351   2.544   2.266   6.514
 4484SOL    HW214352   2.602   2.382   6.415
 4485SOL     OW14353   5.439   1.631   4.806
 4485SOL    HW114354   5.398   1.603   4.719
 4485SOL    HW214355   5.491   1.715   4.792
 4486SOL     OW14356   5.456   4.842   5.232
 4486SOL    HW114357   5.481   4.899   5.311
 4486SOL    HW214358   5.384   4.888   5.180
 4487SOL     OW14359   2.736   2.576   6.832
 4487SOL    HW114360   2.745   2.632   6.750
 4487SOL    HW214361   2.712   2.482   6.806
 4488SOL     OW14362   0.674   3.460   6.204
 4488SOL    HW114363   0.620   3.480   6.285
 4488SOL    HW214364   0.641   3.515   6.127
 4489SOL     OW14365   5.273   5.168   4.871
 4489SOL    HW114366   5.265   5.178   4.772
 4489SOL    HW214367   5.190   5.124   4.907
 4490SOL     OW14368   6.436   2.375   1.732
 4490SOL    HW114369   6.358   2.319   1.705
 4490SOL    HW214370   6.418   2.418   1.820
 4491SOL     OW14371   6.587   2.916   4.210
 4491SOL    HW114372   6.583   2.937   4.308
 4491SOL    HW214373   6.677   2.939   4.174
 4492SOL     OW14374   5.950   4.654   1.675
 4492SOL    HW114375   5.969   4.667   1.773
 4492SOL    HW214376   5.912   4.738   1.637
 4493SOL     OW14377   4.599   5.411   4.606
 4493SOL    HW114378   4.594   5.316   4.576
 4493SOL    HW214379   4.658   5.417   4.687
 4494SOL     OW14380   0.618   0.987   6.745
 4494SOL    HW114381   0.563   1.046   6.687
 4494SOL    HW214382   0.711   1.024   6.751
 4495SOL     OW14383   3.675   6.560   4.474
 4495SOL    HW114384   3.625   6.516   4.400
 4495SOL    HW214385   3.769   6.525   4.476
 4496SOL     OW14386   5.489   6.380   1.081
 4496SOL    HW114387   5.481   6.420   0.990
 4496SOL    HW214388   5.410   6.322   1.100
 4497SOL     OW14389   5.778   2.030   0.139
 4497SOL    HW114390   5.750   1.946   0.094
 4497SOL    HW214391   5.743   2.109   0.089
 4498SOL     OW14392   0.240   3.399   0.582
 4498SOL    HW114393   0.224   3.332   0.510
 4498SOL    HW214394   0.313   3.461   0.556
 4499SOL     OW14395   5.763   3.859   4.272
 4499SOL    HW114396   5.791   3.822   4.184
 4499SOL    HW214397   5.663   3.854   4.280
 4500SOL     OW14398   3.290   3.172   4.715
 4500SOL    HW114399   3.372   3.115   4.720
 4500SOL    HW214400   3.214   3.119   4.676
 4501SOL     OW14401   6.905   3.512   2.900
 4501SOL    HW114402   6.975   3.511   2.971
 4501SOL    HW214403   6.859   3.601   2.899
 4502SOL     OW14404   0.421   2.836   6.412
 4502SOL    HW114405   0.495   2.778   6.376
 4502SOL    HW214406   0.398   2.906   6.344
 4503SOL     OW14407   3.484   0.006   1.588
 4503SOL    HW114408   3.546   0.010   1.509
 4503SOL    HW214409   3.509   6.949   1.645
 4504SOL     OW14410   6.652   0.698   4.679
 4504SOL    HW114411   6.584   0.709   4.751
 4504SOL    HW214412   6.636   0.765   4.607
 4505SOL     OW14413   5.838   5.215   1.593
 4505SOL    HW114414   5.886   5.302   1.608
 4505SOL    HW214415   5.787   5.191   1.676
 4506SOL     OW14416   4.765   2.895   3.545
 4506SOL    HW114417   4.782   2.990   3.571
 4506SOL    HW214418   4.707   2.852   3.614
 4507SOL     OW14419   5.768   4.717   2.664
 4507SOL    HW114420   5.811   4.641   2.711
 4507SOL    HW214421   5.815   4.802   2.689
 4508SOL     OW14422   1.809   5.597   7.017
 4508SOL    HW114423   1.878   5.601   6.944
 4508SOL    HW214424   1.727   5.646   6.987
 4509SOL     OW14425   4.346   2.410   2.208
 4509SOL    HW114426   4.350   2.509   2.199
 4509SOL    HW214427   4.423   2.369   2.159
 4510SOL     OW14428   3.764   1.506   4.268
 4510SOL    HW114429   3.674   1.507   4.310
 4510SOL    HW214430   3.796   1.600   4.254
 4511SOL     OW14431   5.971   3.378   6.966
 4511SOL    HW114432   5.929   3.306   6.911
 4511SOL    HW214433   5.921   3.463   6.952
 4512SOL     OW14434   2.961   1.904   5.340
 4512SOL    HW114435   3.028   1.978   5.330
 4512SOL    HW214436   2.918   1.885   5.252
 4513SOL     OW14437   0.391   4.957   6.809
 4513SOL    HW114438   0.439   4.876   6.774
 4513SOL    HW214439   0.458   5.028   6.831
 4514SOL     OW14440   4.052   2.061   6.349
 4514SOL    HW114441   4.082   2.102   6.263
 4514SOL    HW214442   3.970   2.109   6.382
 4515SOL     OW14443   0.155   1.814   5.922
 4515SOL    HW114444   0.155   1.716   5.901
 4515SOL    HW214445   0.170   1.827   6.020
 4516SOL     OW14446   1.968   0.181   0.260
 4516SOL    HW114447   1.970   0.093   0.211
 4516SOL    HW214448   1.875   0.219   0.255
 4517SOL     OW14449   4.079   0.914   6.692
 4517SOL    HW114450   4.170   0.892   6.727
 4517SOL    HW214451   4.032   0.975   6.756
 4518SOL     OW14452   0.050   0.210   2.555
 4518SOL    HW114453   0.101   0.127   2.578
 4518SOL    HW214454   0.078   0.242   2.464
 4519SOL     OW14455   6.973   6.813   1.330
 4519SOL    HW114456   6.943   6.908   1.337
 4519SOL    HW214457   6.922   6.757   1.396
 4520SOL     OW14458   4.532   6.591   4.754
 4520SOL    HW114459   4.588   6.532   4.696
 4520SOL    HW214460   4.510   6.675   4.705
 4521SOL     OW14461   6.802   2.062   4.761
 4521SOL    HW114462   6.873   2.047   4.830
 4521SOL    HW214463   6.725   2.110   4.802
 4522SOL     OW14464   5.395   5.675   3.546
 4522SOL    HW114465   5.298   5.650   3.538
 4522SOL    HW214466   5.446   5.636   3.470
 4523SOL     OW14467   1.012   4.605   0.171
 4523SOL    HW114468   1.039   4.563   0.257
 4523SOL    HW214469   1.070   4.685   0.153
 4524SOL     OW14470   6.218   2.547   2.410
 4524SOL    HW114471   6.138   2.488   2.403
 4524SOL    HW214472   6.283   2.507   2.476
 4525SOL     OW14473   4.508   1.841   5.720
 4525SOL    HW114474   4.563   1.760   5.738
 4525SOL    HW214475   4.427   1.841   5.780
 4526SOL     OW14476   6.696   0.002   0.265
 4526SOL    HW114477   6.747   6.937   0.255
 4526SOL    HW214478   6.610   7.006   0.313
 4527SOL     OW14479   5.774   1.325   3.694
 4527SOL    HW114480   5.823   1.254   3.744
 4527SOL    HW214481   5.781   1.308   3.596
 4528SOL     OW14482   4.726   0.536   0.507
 4528SOL    HW114483   4.743   0.634   0.507
 4528SOL    HW214484   4.766   0.496   0.590
 4529SOL     OW14485   2.031   0.723   5.091
 4529SOL    HW114486   1.980   0.749   5.008
 4529SOL    HW214487   2.089   0.644   5.070
 4530SOL     OW14488   1.919   5.228   4.527
 4530SOL    HW114489   1.951   5.261   4.616
 4530SOL    HW214490   1.827   5.191   4.537
 4531SOL     OW14491   0.519   2.954   5.206
 4531SOL    HW114492   0.559   2.902   5.282
 4531SOL    HW214493   0.420   2.946   5.209
 4532SOL     OW14494   6.411   1.453   2.496
 4532SOL    HW114495   6.391   1.396   2.576
 4532SOL    HW214496   6.375   1.408   2.414
 4533SOL     OW14497   1.100   2.008   1.596
 4533SOL    HW114498   1.179   1.993   1.654
 4533SOL    HW214499   1.124   2.069   1.521
 4534SOL     OW14500   4.665   4.266   4.579
 4534SOL    HW114501   4.583   4.322   4.594
 4534SOL    HW214502   4.740   4.301   4.635
 4535SOL     OW14503   3.587   1.152   2.431
 4535SOL    HW114504   3.515   1.137   2.364
 4535SOL    HW214505   3.580   1.245   2.467
 4536SOL     OW14506   4.077   1.895   4.421
 4536SOL    HW114507   4.007   1.880   4.490
 4536SOL    HW214508   4.154   1.944   4.461
 4537SOL     OW14509   4.087   3.393   0.581
 4537SOL    HW114510   4.034   3.308   0.573
 4537SOL    HW214511   4.026   3.471   0.573
 4538SOL     OW14512   1.649   0.190   2.833
 4538SOL    HW114513   1.582   0.160   2.766
 4538SOL    HW214514   1.734   0.139   2.821
 4539SOL     OW14515   3.173   6.640   4.980
 4539SOL    HW114516   3.089   6.618   5.029
 4539SOL    HW214517   3.150   6.684   4.893
 4540SOL     OW14518   2.651   2.463   6.154
 4540SOL    HW114519   2.616   2.397   6.087
 4540SOL    HW214520   2.576   2.520   6.187
 4541SOL     OW14521   6.057   1.999   0.186
 4541SOL    HW114522   6.096   2.084   0.152
 4541SOL    HW214523   5.958   2.009   0.195
 4542SOL     OW14524   6.875   1.496   1.768
 4542SOL    HW114525   6.816   1.503   1.687
 4542SOL    HW214526   6.898   1.587   1.801
 4543SOL     OW14527   4.769   1.996   2.039
 4543SOL    HW114528   4.816   1.918   2.080
 4543SOL    HW214529   4.677   1.969   2.012
 4544SOL     OW14530   3.491   5.919   6.425
 4544SOL    HW114531   3.514   6.016   6.431
 4544SOL    HW214532   3.551   5.866   6.484
 4545SOL     OW14533   5.612   3.197   4.448
 4545SOL    HW114534   5.589   3.128   4.516
 4545SOL    HW214535   5.698   3.242   4.473
 4546SOL     OW14536   1.468   1.117   4.631
 4546SOL    HW114537   1.530   1.195   4.634
 4546SOL    HW214538   1.373   1.149   4.626
 4547SOL     OW14539   6.404   1.988   1.494
 4547SOL    HW114540   6.495   2.023   1.474
 4547SOL    HW214541   6.406   1.934   1.578
 4548SOL     OW14542   1.241   3.369   3.888
 4548SOL    HW114543   1.302   3.395   3.963
 4548SOL    HW214544   1.283   3.394   3.801
 4549SOL     OW14545   6.956   4.328   1.953
 4549SOL    HW114546   7.022   4.377   2.011
 4549SOL    HW214547   6.967   4.358   1.858
 4550SOL     OW14548   0.877   5.184   3.268
 4550SOL    HW114549   0.845   5.142   3.353
 4550SOL    HW214550   0.937   5.120   3.220
 4551SOL     OW14551   6.879   3.041   4.688
 4551SOL    HW114552   6.822   3.121   4.710
 4551SOL    HW214553   6.974   3.070   4.680
 4552SOL     OW14554   6.496   2.759   1.823
 4552SOL    HW114555   6.520   2.754   1.920
 4552SOL    HW214556   6.493   2.855   1.795
 4553SOL     OW14557   3.577   4.519   6.638
 4553SOL    HW114558   3.555   4.567   6.723
 4553SOL    HW214559   3.493   4.494   6.591
 4554SOL     OW14560   6.248   6.349   1.094
 4554SOL    HW114561   6.215   6.442   1.083
 4554SOL    HW214562   6.347   6.349   1.103
 4555SOL     OW14563   2.384   2.410   5.462
 4555SOL    HW114564   2.311   2.371   5.518
 4555SOL    HW214565   2.454   2.340   5.447
 4556SOL     OW14566   5.539   2.987   4.269
 4556SOL    HW114567   5.555   3.084   4.286
 4556SOL    HW214568   5.627   2.941   4.256
 4557SOL     OW14569   4.972   6.392   5.287
 4557SOL    HW114570   5.027   6.428   5.212
 4557SOL    HW214571   5.028   6.332   5.344
 4558SOL     OW14572   0.212   4.397   5.354
 4558SOL    HW114573   0.129   4.452   5.367
 4558SOL    HW214574   0.290   4.458   5.342
 4559SOL     OW14575   0.533   3.753   1.784
 4559SOL    HW114576   0.505   3.673   1.837
 4559SOL    HW214577   0.562   3.725   1.692
 4560SOL     OW14578   5.397   4.278   1.719
 4560SOL    HW114579   5.472   4.223   1.682
 4560SOL    HW214580   5.335   4.219   1.771
 4561SOL     OW14581   2.297   1.713   3.155
 4561SOL    HW114582   2.362   1.711   3.079
 4561SOL    HW214583   2.244   1.798   3.151
 4562SOL     OW14584   2.409   6.137   6.109
 4562SOL    HW114585   2.492   6.175   6.148
 4562SOL    HW214586   2.419   6.038   6.098
 4563SOL     OW14587   0.029   2.414   1.055
 4563SOL    HW114588   0.101   2.365   1.103
 4563SOL    HW214589   0.035   2.395   0.957
 4564SOL     OW14590   7.004   5.691   1.705
 4564SOL    HW114591   0.059   5.648   1.753
 4564SOL    HW214592   6.969   5.628   1.635
 4565SOL     OW14593   0.829   1.012   4.776
 4565SOL    HW114594   0.912   1.012   4.721
 4565SOL    HW214595   0.847   1.054   4.865
 4566SOL     OW14596   6.620   2.598   0.156
 4566SOL    HW114597   6.574   2.679   0.190
 4566SOL    HW214598   6.584   2.517   0.202
 4567SOL     OW14599   6.410   1.178   5.962
 4567SOL    HW114600   6.333   1.231   5.928
 4567SOL    HW214601   6.489   1.191   5.902
 4568SOL     OW14602   2.321   3.296   6.153
 4568SOL    HW114603   2.348   3.206   6.188
 4568SOL    HW214604   2.271   3.285   6.067
 4569SOL     OW14605   1.890   1.900   2.807
 4569SOL    HW114606   1.805   1.879   2.759
 4569SOL    HW214607   1.943   1.965   2.753
 4570SOL     OW14608   0.174   6.554   2.703
 4570SOL    HW114609   0.109   6.553   2.778
 4570SOL    HW214610   0.151   6.629   2.640
 4571SOL     OW14611   4.102   4.479   6.305
 4571SOL    HW114612   4.043   4.535   6.363
 4571SOL    HW214613   4.058   4.392   6.286
 4572SOL     OW14614   2.007   0.421   6.595
 4572SOL    HW114615   1.942   0.489   6.561
 4572SOL    HW214616   2.020   0.434   6.693
 4573SOL     OW14617   6.315   0.269   0.840
 4573SOL    HW114618   6.265   0.354   0.823
 4573SOL    HW214619   6.274   0.194   0.788
 4574SOL     OW14620   5.839   4.079   0.759
 4574SOL    HW114621   5.778   4.025   0.702
 4574SOL    HW214622   5.852   4.034   0.847
 4575SOL     OW14623   5.865   1.118   6.315
 4575SOL    HW114624   5.855   1.023   6.286
 4575SOL    HW214625   5.800   1.175   6.266
 4576SOL     OW14626   2.756   5.861   5.804
 4576SOL    HW114627   2.771   5.777   5.855
 4576SOL    HW214628   2.795   5.938   5.854
 4577SOL     OW14629   1.093   1.704   4.817
 4577SOL    HW114630   1.159   1.778   4.826
 4577SOL    HW214631   1.097   1.667   4.724
 4578SOL     OW14632   0.242   2.947   5.274
 4578SOL    HW114633   0.189   2.880   5.326
 4578SOL    HW214634   0.184   2.989   5.204
 4579SOL     OW14635   4.007   0.691   3.536
 4579SOL    HW114636   3.937   0.760   3.552
 4579SOL    HW214637   3.993   0.648   3.447
 4580SOL     OW14638   5.657   4.422   0.860
 4580SOL    HW114639   5.618   4.331   0.841
 4580SOL    HW214640   5.617   4.489   0.797
 4581SOL     OW14641   2.543   5.510   2.715
 4581SOL    HW114642   2.520   5.579   2.784
 4581SOL    HW214643   2.599   5.439   2.757
 4582SOL     OW14644   5.185   0.243   4.939
 4582SOL    HW114645   5.136   0.171   4.890
 4582SOL    HW214646   5.283   0.222   4.940
 4583SOL     OW14647   2.687   2.329   6.742
 4583SOL    HW114648   2.613   2.299   6.682
 4583SOL    HW214649   2.671   2.293   6.835
 4584SOL     OW14650   0.343   4.205   5.643
 4584SOL    HW114651   0.423   4.258   5.670
 4584SOL    HW214652   0.344   4.191   5.544
 4585SOL     OW14653   3.121   6.259   3.833
 4585SOL    HW114654   3.175   6.176   3.822
 4585SOL    HW214655   3.031   6.235   3.871
 4586SOL     OW14656   4.084   4.753   0.668
 4586SOL    HW114657   4.106   4.696   0.589
 4586SOL    HW214658   4.043   4.839   0.637
 4587SOL     OW14659   3.645   3.854   3.264
 4587SOL    HW114660   3.680   3.903   3.185
 4587SOL    HW214661   3.697   3.880   3.345
 4588SOL     OW14662   2.564   3.500   5.349
 4588SOL    HW114663   2.562   3.401   5.337
 4588SOL    HW214664   2.644   3.526   5.404
 4589SOL     OW14665   6.469   0.974   2.291
 4589SOL    HW114666   6.543   0.939   2.234
 4589SOL    HW214667   6.499   1.056   2.339
 4590SOL     OW14668   5.022   5.693   1.063
 4590SOL    HW114669   5.036   5.680   1.161
 4590SOL    HW214670   5.110   5.698   1.017
 4591SOL     OW14671   1.315   0.030   4.375
 4591SOL    HW114672   1.292   6.955   4.366
 4591SOL    HW214673   1.243   0.077   4.425
 4592SOL     OW14674   2.464   1.723   2.551
 4592SOL    HW114675   2.372   1.704   2.587
 4592SOL    HW214676   2.529   1.725   2.627
 4593SOL     OW14677   5.179   5.737   2.899
 4593SOL    HW114678   5.096   5.716   2.951
 4593SOL    HW214679   5.160   5.726   2.802
 4594SOL     OW14680   2.914   1.233   3.037
 4594SOL    HW114681   2.838   1.225   3.102
 4594SOL    HW214682   2.971   1.311   3.061
 4595SOL     OW14683   4.284   3.379   5.525
 4595SOL    HW114684   4.292   3.444   5.601
 4595SOL    HW214685   4.355   3.310   5.533
 4596SOL     OW14686   5.724   0.438   2.018
 4596SOL    HW114687   5.797   0.483   1.966
 4596SOL    HW214688   5.741   0.340   2.022
 4597SOL     OW14689   3.685   5.682   6.261
 4597SOL    HW114690   3.587   5.697   6.266
 4597SOL    HW214691   3.710   5.607   6.322
 4598SOL     OW14692   1.512   6.135   6.907
 4598SOL    HW114693   1.601   6.172   6.935
 4598SOL    HW214694   1.524   6.075   6.829
 4599SOL     OW14695   1.594   4.816   0.424
 4599SOL    HW114696   1.591   4.893   0.361
 4599SOL    HW214697   1.522   4.826   0.493
 4600SOL     OW14698   1.178   5.409   5.602
 4600SOL    HW114699   1.141   5.319   5.624
 4600SOL    HW214700   1.276   5.401   5.582
 4601SOL     OW14701   1.987   1.426   5.090
 4601SOL    HW114702   1.935   1.379   5.161
 4601SOL    HW214703   2.028   1.509   5.127
 4602SOL     OW14704   2.862   6.450   1.026
 4602SOL    HW114705   2.935   6.396   1.068
 4602SOL    HW214706   2.888   6.475   0.933
 4603SOL     OW14707   3.247   6.280   0.655
 4603SOL    HW114708   3.231   6.181   0.652
 4603SOL    HW214709   3.341   6.299   0.625
 4604SOL     OW14710   4.717   0.204   0.100
 4604SOL    HW114711   4.628   0.160   0.084
 4604SOL    HW214712   4.706   0.279   0.165
 4605SOL     OW14713   2.396   6.573   2.314
 4605SOL    HW114714   2.406   6.488   2.366
 4605SOL    HW214715   2.348   6.554   2.229
 4606SOL     OW14716   0.806   6.198   2.159
 4606SOL    HW114717   0.886   6.178   2.103
 4606SOL    HW214718   0.812   6.291   2.195
 4607SOL     OW14719   1.647   3.588   1.419
 4607SOL    HW114720   1.603   3.612   1.505
 4607SOL    HW214721   1.699   3.666   1.385
 4608SOL     OW14722   0.697   5.957   3.712
 4608SOL    HW114723   0.694   5.867   3.669
 4608SOL    HW214724   0.754   6.019   3.658
 4609SOL     OW14725   4.391   5.188   6.595
 4609SOL    HW114726   4.309   5.227   6.638
 4609SOL    HW214727   4.363   5.121   6.527
 4610SOL     OW14728   4.673   1.983   0.870
 4610SOL    HW114729   4.687   2.074   0.911
 4610SOL    HW214730   4.575   1.970   0.852
 4611SOL     OW14731   0.677   6.384   6.267
 4611SOL    HW114732   0.718   6.368   6.357
 4611SOL    HW214733   0.729   6.456   6.220
 4612SOL     OW14734   1.019   6.111   0.012
 4612SOL    HW114735   0.985   6.101   0.105
 4612SOL    HW214736   1.099   6.172   0.011
 4613SOL     OW14737   1.996   5.598   1.737
 4613SOL    HW114738   2.007   5.524   1.803
 4613SOL    HW214739   1.962   5.679   1.784
 4614SOL     OW14740   6.063   3.604   3.319
 4614SOL    HW114741   6.140   3.548   3.349
 4614SOL    HW214742   6.034   3.663   3.394
 4615SOL     OW14743   1.859   0.647   6.701
 4615SOL    HW114744   1.791   0.716   6.727
 4615SOL    HW214745   1.859   0.636   6.602
 4616SOL     OW14746   6.320   1.247   4.508
 4616SOL    HW114747   6.315   1.217   4.413
 4616SOL    HW214748   6.415   1.257   4.535
 4617SOL     OW14749   0.588   2.216   2.381
 4617SOL    HW114750   0.638   2.297   2.351
 4617SOL    HW214751   0.566   2.224   2.478
 4618SOL     OW14752   2.327   2.796   4.786
 4618SOL    HW114753   2.354   2.844   4.869
 4618SOL    HW214754   2.230   2.809   4.768
 4619SOL     OW14755   3.239   6.183   3.383
 4619SOL    HW114756   3.264   6.273   3.347
 4619SOL    HW214757   3.321   6.133   3.409
 4620SOL     OW14758   2.642   5.323   0.790
 4620SOL    HW114759   2.645   5.354   0.695
 4620SOL    HW214760   2.549   5.329   0.824
 4621SOL     OW14761   4.911   0.553   2.691
 4621SOL    HW114762   5.000   0.509   2.704
 4621SOL    HW214763   4.839   0.493   2.724
 4622SOL     OW14764   2.837   4.656   0.575
 4622SOL    HW114765   2.834   4.574   0.631
 4622SOL    HW214766   2.925   4.701   0.587
 4623SOL     OW14767   5.663   6.084   1.155
 4623SOL    HW114768   5.630   6.022   1.226
 4623SOL    HW214769   5.702   6.165   1.197
 4624SOL     OW14770   3.889   6.714   3.217
 4624SOL    HW114771   3.880   6.696   3.315
 4624SOL    HW214772   3.955   6.788   3.203
 4625SOL     OW14773   2.023   4.392   1.395
 4625SOL    HW114774   1.949   4.423   1.336
 4625SOL    HW214775   2.019   4.293   1.405
 4626SOL     OW14776   5.760   4.476   1.856
 4626SOL    HW114777   5.814   4.522   1.785
 4626SOL    HW214778   5.726   4.544   1.921
 4627SOL     OW14779   1.901   4.456   4.867
 4627SOL    HW114780   1.994   4.459   4.905
 4627SOL    HW214781   1.904   4.414   4.777
 4628SOL     OW14782   5.644   4.092   3.906
 4628SOL    HW114783   5.690   4.157   3.966
 4628SOL    HW214784   5.672   4.108   3.811
 4629SOL     OW14785   2.476   4.988   5.885
 4629SOL    HW114786   2.483   5.087   5.880
 4629SOL    HW214787   2.541   4.946   5.822
 4630SOL     OW14788   2.748   6.375   2.322
 4630SOL    HW114789   2.670   6.418   2.367
 4630SOL    HW214790   2.822   6.442   2.314
 4631SOL     OW14791   1.724   5.822   3.467
 4631SOL    HW114792   1.713   5.856   3.560
 4631SOL    HW214793   1.637   5.785   3.435
 4632SOL     OW14794   2.989   4.860   2.494
 4632SOL    HW114795   3.018   4.808   2.413
 4632SOL    HW214796   2.894   4.837   2.515
 4633SOL     OW14797   5.963   0.813   4.832
 4633SOL    HW114798   5.928   0.874   4.903
 4633SOL    HW214799   5.930   0.720   4.848
 4634SOL     OW14800   3.051   4.082   5.740
 4634SOL    HW114801   3.143   4.122   5.745
 4634SOL    HW214802   3.029   4.039   5.827
 4635SOL     OW14803   5.148   3.655   1.773
 4635SOL    HW114804   5.148   3.751   1.744
 4635SOL    HW214805   5.087   3.645   1.852
 4636SOL     OW14806   1.640   4.472   6.894
 4636SOL    HW114807   1.578   4.549   6.913
 4636SOL    HW214808   1.638   4.452   6.796
 4637SOL     OW14809   0.929   6.072   1.308
 4637SOL    HW114810   0.859   6.041   1.372
 4637SOL    HW214811   0.973   5.993   1.266
 4638SOL     OW14812   3.917   4.631   6.873
 4638SOL    HW114813   3.935   4.573   6.952
 4638SOL    HW214814   3.944   4.583   6.790
 4639SOL     OW14815   3.618   3.469   5.695
 4639SOL    HW114816   3.595   3.529   5.772
 4639SOL    HW214817   3.571   3.381   5.706
 4640SOL     OW14818   4.843   3.980   3.740
 4640SOL    HW114819   4.778   3.995   3.666
 4640SOL    HW214820   4.895   3.896   3.722
 4641SOL     OW14821   2.461   0.362   4.851
 4641SOL    HW114822   2.373   0.314   4.862
 4641SOL    HW214823   2.475   0.383   4.754
 4642SOL     OW14824   1.253   5.899   3.861
 4642SOL    HW114825   1.221   5.986   3.823
 4642SOL    HW214826   1.203   5.879   3.945
 4643SOL     OW14827   6.643   2.148   0.597
 4643SOL    HW114828   6.693   2.164   0.682
 4643SOL    HW214829   6.691   2.080   0.542
 4644SOL     OW14830   0.171   5.314   5.746
 4644SOL    HW114831   0.139   5.220   5.757
 4644SOL    HW214832   0.271   5.315   5.740
 4645SOL     OW14833   0.346   0.052   4.032
 4645SOL    HW114834   0.246   0.057   4.032
 4645SOL    HW214835   0.375   6.999   3.971
 4646SOL     OW14836   2.264   5.641   3.755
 4646SOL    HW114837   2.333   5.581   3.796
 4646SOL    HW214838   2.203   5.675   3.826
 4647SOL     OW14839   1.789   6.832   2.995
 4647SOL    HW114840   1.822   6.739   3.012
 4647SOL    HW214841   1.864   6.888   2.961
 4648SOL     OW14842   3.435   0.967   2.771
 4648SOL    HW114843   3.469   0.965   2.676
 4648SOL    HW214844   3.463   1.052   2.814
 4649SOL     OW14845   5.026   0.981   6.969
 4649SOL    HW114846   5.078   0.896   6.963
 4649SOL    HW214847   5.003   1.000   0.043
 4650SOL     OW14848   4.738   5.484   2.679
 4650SOL    HW114849   4.697   5.393   2.671
 4650SOL    HW214850   4.724   5.535   2.594
 4651SOL     OW14851   6.258   3.343   0.382
 4651SOL    HW114852   6.210   3.420   0.424
 4651SOL    HW214853   6.248   3.263   0.441
 4652SOL     OW14854   6.324   6.478   4.260
 4652SOL    HW114855   6.318   6.379   4.247
 4652SOL    HW214856   6.408   6.512   4.220
 4653SOL     OW14857   5.254   5.362   1.168
 4653SOL    HW114858   5.329   5.380   1.105
 4653SOL    HW214859   5.254   5.430   1.241
 4654SOL     OW14860   0.362   6.766   0.320
 4654SOL    HW114861   0.345   6.670   0.298
 4654SOL    HW214862   0.439   6.800   0.266
 4655SOL     OW14863   5.910   3.972   1.307
 4655SOL    HW114864   5.854   4.022   1.241
 4655SOL    HW214865   5.982   4.032   1.342
 4656SOL     OW14866   1.198   0.300   2.608
 4656SOL    HW114867   1.155   0.349   2.684
 4656SOL    HW214868   1.245   0.366   2.549
 4657SOL     OW14869   4.271   6.047   1.788
 4657SOL    HW114870   4.298   5.951   1.801
 4657SOL    HW214871   4.334   6.106   1.838
 4658SOL     OW14872   3.994   0.851   3.194
 4658SOL    HW114873   4.034   0.793   3.123
 4658SOL    HW214874   4.037   0.831   3.282
 4659SOL     OW14875   3.217   4.542   5.455
 4659SOL    HW114876   3.315   4.524   5.458
 4659SOL    HW214877   3.176   4.523   5.544
 4660SOL     OW14878   0.920   4.507   5.475
 4660SOL    HW114879   0.829   4.550   5.476
 4660SOL    HW214880   0.940   4.471   5.566
 4661SOL     OW14881   2.795   4.300   6.041
 4661SOL    HW114882   2.717   4.332   6.095
 4661SOL    HW214883   2.764   4.238   5.969
 4662SOL     OW14884   3.335   0.359   5.591
 4662SOL    HW114885   3.280   0.431   5.549
 4662SOL    HW214886   3.431   0.388   5.594
 4663SOL     OW14887   0.234   1.711   1.036
 4663SOL    HW114888   0.220   1.646   1.112
 4663SOL    HW214889   0.294   1.785   1.066
 4664SOL     OW14890   1.632   1.037   1.186
 4664SOL    HW114891   1.613   0.942   1.164
 4664SOL    HW214892   1.665   1.084   1.104
 4665SOL     OW14893   3.365   6.691   6.917
 4665SOL    HW114894   3.437   6.627   6.889
 4665SOL    HW214895   3.334   6.743   6.838
 4666SOL     OW14896   1.824   2.847   0.166
 4666SOL    HW114897   1.845   2.757   0.201
 4666SOL    HW214898   1.877   2.916   0.215
 4667SOL     OW14899   6.884   3.484   2.251
 4667SOL    HW114900   6.795   3.443   2.268
 4667SOL    HW214901   6.874   3.583   2.241
 4668SOL     OW14902   4.164   2.140   3.220
 4668SOL    HW114903   4.218   2.056   3.224
 4668SOL    HW214904   4.225   2.219   3.218
 4669SOL     OW14905   4.530   6.535   0.005
 4669SOL    HW114906   4.628   6.538   0.025
 4669SOL    HW214907   4.485   6.614   0.049
 4670SOL     OW14908   2.115   2.322   5.620
 4670SOL    HW114909   2.105   2.239   5.566
 4670SOL    HW214910   2.033   2.378   5.610
 4671SOL     OW14911   0.016   2.825   0.126
 4671SOL    HW114912   0.007   2.727   0.141
 4671SOL    HW214913   6.965   2.873   0.174
 4672SOL     OW14914   2.618   4.861   5.671
 4672SOL    HW114915   2.691   4.793   5.678
 4672SOL    HW214916   2.536   4.818   5.632
 4673SOL     OW14917   4.994   6.859   2.376
 4673SOL    HW114918   5.006   6.845   2.474
 4673SOL    HW214919   5.034   6.781   2.326
 4674SOL     OW14920   5.351   0.929   6.262
 4674SOL    HW114921   5.276   0.967   6.316
 4674SOL    HW214922   5.420   0.889   6.323
 4675SOL     OW14923   2.603   1.093   6.504
 4675SOL    HW114924   2.508   1.124   6.493
 4675SOL    HW214925   2.605   0.994   6.517
 4676SOL     OW14926   6.764   6.305   4.269
 4676SOL    HW114927   6.709   6.304   4.353
 4676SOL    HW214928   6.855   6.269   4.288
 4677SOL     OW14929   2.277   1.623   6.318
 4677SOL    HW114930   2.186   1.583   6.327
 4677SOL    HW214931   2.319   1.631   6.408
 4678SOL     OW14932   1.664   4.446   3.226
 4678SOL    HW114933   1.708   4.482   3.143
 4678SOL    HW214934   1.585   4.390   3.200
 4679SOL     OW14935   3.516   1.104   0.122
 4679SOL    HW114936   3.483   1.014   0.151
 4679SOL    HW214937   3.451   1.174   0.150
 4680SOL     OW14938   2.731   1.382   0.623
 4680SOL    HW114939   2.823   1.383   0.663
 4680SOL    HW214940   2.665   1.417   0.689
 4681SOL     OW14941   5.219   6.020   6.064
 4681SOL    HW114942   5.242   5.940   6.120
 4681SOL    HW214943   5.221   6.102   6.121
 4682SOL     OW14944   4.447   4.322   5.802
 4682SOL    HW114945   4.520   4.291   5.742
 4682SOL    HW214946   4.386   4.384   5.753
 4683SOL     OW14947   4.140   4.952   2.983
 4683SOL    HW114948   4.188   5.005   2.913
 4683SOL    HW214949   4.041   4.969   2.975
 4684SOL     OW14950   6.745   1.702   5.282
 4684SOL    HW114951   6.783   1.616   5.249
 4684SOL    HW214952   6.816   1.754   5.329
 4685SOL     OW14953   0.656   6.347   5.244
 4685SOL    HW114954   0.754   6.368   5.251
 4685SOL    HW214955   0.638   6.305   5.155
 4686SOL     OW14956   4.596   5.192   7.018
 4686SOL    HW114957   4.594   5.167   6.922
 4686SOL    HW214958   4.686   5.170   0.035
 4687SOL     OW14959   6.281   3.866   4.585
 4687SOL    HW114960   6.297   3.898   4.679
 4687SOL    HW214961   6.238   3.939   4.532
 4688SOL     OW14962   6.298   3.946   4.852
 4688SOL    HW114963   6.331   3.918   4.942
 4688SOL    HW214964   6.258   4.038   4.859
 4689SOL     OW14965   6.097   0.434   0.774
 4689SOL    HW114966   6.153   0.488   0.710
 4689SOL    HW214967   6.108   0.471   0.866
 4690SOL     OW14968   1.146   0.413   0.091
 4690SOL    HW114969   1.220   0.376   0.036
 4690SOL    HW214970   1.182   0.482   0.154
 4691SOL     OW14971   2.891   5.044   1.913
 4691SOL    HW114972   2.945   5.020   1.832
 4691SOL    HW214973   2.951   5.049   1.992
 4692SOL     OW14974   5.619   5.616   2.071
 4692SOL    HW114975   5.644   5.541   2.132
 4692SOL    HW214976   5.605   5.700   2.124
 4693SOL     OW14977   1.188   1.096   3.039
 4693SOL    HW114978   1.096   1.065   3.063
 4693SOL    HW214979   1.251   1.019   3.045
 4694SOL     OW14980   2.363   0.274   0.244
 4694SOL    HW114981   2.335   0.344   0.311
 4694SOL    HW214982   2.434   0.217   0.285
 4695SOL     OW14983   1.971   3.730   1.676
 4695SOL    HW114984   1.946   3.640   1.710
 4695SOL    HW214985   2.065   3.751   1.701
 4696SOL     OW14986   0.388   4.141   6.442
 4696SOL    HW114987   0.381   4.043   6.425
 4696SOL    HW214988   0.352   4.163   6.532
 4697SOL     OW14989   2.151   3.423   0.889
 4697SOL    HW114990   2.229   3.365   0.915
 4697SOL    HW214991   2.168   3.517   0.919
 4698SOL     OW14992   4.506   5.525   3.167
 4698SOL    HW114993   4.587   5.495   3.116
 4698SOL    HW214994   4.424   5.486   3.126
 4699SOL     OW14995   1.773   0.064   1.923
 4699SOL    HW114996   1.700   0.132   1.922
 4699SOL    HW214997   1.733   6.994   1.910
 4700SOL     OW14998   6.664   1.992   2.715
 4700SOL    HW114999   6.601   1.953   2.648
 4700SOL    HW215000   6.734   1.924   2.739
 4701SOL     OW15001   2.231   2.061   6.943
 4701SOL    HW115002   2.312   2.086   6.996
 4701SOL    HW215003   2.258   2.034   6.851
 4702SOL     OW15004   4.744   4.848   6.404
 4702SOL    HW115005   4.649   4.824   6.420
 4702SOL    HW215006   4.769   4.824   6.310
 4703SOL     OW15007   0.897   1.414   1.364
 4703SOL    HW115008   0.939   1.452   1.447
 4703SOL    HW215009   0.800   1.438   1.363
 4704SOL     OW15010   1.090   0.071   0.399
 4704SOL    HW115011   1.119   0.165   0.384
 4704SOL    HW215012   0.994   0.060   0.373
 4705SOL     OW15013   3.200   3.235   1.915
 4705SOL    HW115014   3.224   3.138   1.913
 4705SOL    HW215015   3.175   3.266   1.823
 4706SOL     OW15016   3.548   0.253   6.972
 4706SOL    HW115017   3.605   0.225   6.895
 4706SOL    HW215018   3.452   0.243   6.947
 4707SOL     OW15019   1.929   6.221   1.330
 4707SOL    HW115020   1.858   6.264   1.386
 4707SOL    HW215021   1.995   6.175   1.389
 4708SOL     OW15022   1.044   1.680   6.457
 4708SOL    HW115023   1.091   1.605   6.410
 4708SOL    HW215024   1.042   1.663   6.555
 4709SOL     OW15025   4.590   5.868   5.701
 4709SOL    HW115026   4.617   5.950   5.649
 4709SOL    HW215027   4.576   5.792   5.638
 4710SOL     OW15028   3.718   1.176   5.127
 4710SOL    HW115029   3.659   1.127   5.190
 4710SOL    HW215030   3.699   1.274   5.133
 4711SOL     OW15031   5.289   1.001   1.268
 4711SOL    HW115032   5.387   1.017   1.262
 4711SOL    HW215033   5.266   0.964   1.358
 4712SOL     OW15034   2.853   4.393   0.104
 4712SOL    HW115035   2.828   4.459   0.034
 4712SOL    HW215036   2.902   4.439   0.178
 4713SOL     OW15037   3.152   3.233   0.733
 4713SOL    HW115038   3.079   3.199   0.673
 4713SOL    HW215039   3.142   3.331   0.746
 4714SOL     OW15040   1.073   2.642   6.635
 4714SOL    HW115041   1.106   2.600   6.720
 4714SOL    HW215042   1.086   2.741   6.640
 4715SOL     OW15043   6.712   2.919   2.341
 4715SOL    HW115044   6.759   2.861   2.407
 4715SOL    HW215045   6.613   2.912   2.354
 4716SOL     OW15046   5.192   6.002   6.695
 4716SOL    HW115047   5.290   6.006   6.677
 4716SOL    HW215048   5.165   6.079   6.751
 4717SOL     OW15049   0.340   6.754   3.211
 4717SOL    HW115050   0.297   6.707   3.134
 4717SOL    HW215051   0.278   6.822   3.249
 4718SOL     OW15052   5.755   2.446   1.322
 4718SOL    HW115053   5.785   2.500   1.400
 4718SOL    HW215054   5.671   2.485   1.284
 4719SOL     OW15055   5.255   3.398   2.231
 4719SOL    HW115056   5.254   3.497   2.217
 4719SOL    HW215057   5.347   3.369   2.258
 4720SOL     OW15058   2.438   5.499   6.078
 4720SOL    HW115059   2.385   5.555   6.014
 4720SOL    HW215060   2.464   5.413   6.033
 4721SOL     OW15061   0.003   2.165   1.552
 4721SOL    HW115062   0.096   2.197   1.534
 4721SOL    HW215063   6.982   2.225   1.620
 4722SOL     OW15064   0.846   6.086   6.456
 4722SOL    HW115065   0.926   6.050   6.408
 4722SOL    HW215066   0.853   6.186   6.463
 4723SOL     OW15067   1.784   3.727   5.791
 4723SOL    HW115068   1.842   3.737   5.872
 4723SOL    HW215069   1.838   3.749   5.709
 4724SOL     OW15070   5.722   6.378   2.972
 4724SOL    HW115071   5.755   6.296   3.018
 4724SOL    HW215072   5.755   6.379   2.877
 4725SOL     OW15073   6.249   5.766   2.857
 4725SOL    HW115074   6.252   5.672   2.891
 4725SOL    HW215075   6.194   5.822   2.919
 4726SOL     OW15076   1.596   2.550   5.955
 4726SOL    HW115077   1.624   2.587   5.867
 4726SOL    HW215078   1.502   2.517   5.950
 4727SOL     OW15079   0.827   5.801   0.752
 4727SOL    HW115080   0.754   5.737   0.776
 4727SOL    HW215081   0.897   5.753   0.700
 4728SOL     OW15082   5.284   0.556   1.942
 4728SOL    HW115083   5.375   0.574   1.903
 4728SOL    HW215084   5.290   0.558   2.042
 4729SOL     OW15085   2.687   1.696   1.031
 4729SOL    HW115086   2.632   1.615   1.010
 4729SOL    HW215087   2.764   1.701   0.967
 4730SOL     OW15088   3.226   5.756   4.974
 4730SOL    HW115089   3.135   5.752   4.932
 4730SOL    HW215090   3.270   5.843   4.950
 4731SOL     OW15091   4.405   0.059   6.801
 4731SOL    HW115092   4.340   0.108   6.742
 4731SOL    HW215093   4.495   0.102   6.794
 4732SOL     OW15094   1.030   3.182   6.460
 4732SOL    HW115095   0.942   3.140   6.441
 4732SOL    HW215096   1.101   3.111   6.462
 4733SOL     OW15097   1.194   4.233   3.563
 4733SOL    HW115098   1.264   4.299   3.590
 4733SOL    HW215099   1.233   4.141   3.564
 4734SOL     OW15100   4.659   2.438   0.722
 4734SOL    HW115101   4.625   2.502   0.791
 4734SOL    HW215102   4.601   2.357   0.720
 4735SOL     OW15103   0.177   5.798   5.048
 4735SOL    HW115104   0.226   5.716   5.017
 4735SOL    HW215105   0.148   5.784   5.143
 4736SOL     OW15106   0.083   2.257   6.572
 4736SOL    HW115107   0.083   2.299   6.662
 4736SOL    HW215108   0.177   2.247   6.539
 4737SOL     OW15109   2.319   4.221   2.321
 4737SOL    HW115110   2.255   4.148   2.342
 4737SOL    HW215111   2.412   4.184   2.321
 4738SOL     OW15112   0.479   6.543   3.274
 4738SOL    HW115113   0.422   6.619   3.243
 4738SOL    HW215114   0.424   6.459   3.277
 4739SOL     OW15115   4.652   6.099   3.410
 4739SOL    HW115116   4.738   6.132   3.449
 4739SOL    HW215117   4.632   6.148   3.326
 4740SOL     OW15118   1.637   1.181   1.448
 4740SOL    HW115119   1.635   1.147   1.354
 4740SOL    HW215120   1.573   1.258   1.457
 4741SOL     OW15121   3.609   3.330   1.301
 4741SOL    HW115122   3.654   3.337   1.212
 4741SOL    HW215123   3.669   3.281   1.364
 4742SOL     OW15124   3.405   0.090   5.409
 4742SOL    HW115125   3.429   0.033   5.331
 4742SOL    HW215126   3.439   0.183   5.394
 4743SOL     OW15127   1.799   3.513   3.176
 4743SOL    HW115128   1.789   3.421   3.214
 4743SOL    HW215129   1.893   3.545   3.192
 4744SOL     OW15130   1.467   4.652   0.650
 4744SOL    HW115131   1.533   4.588   0.610
 4744SOL    HW215132   1.508   4.699   0.727
 4745SOL     OW15133   3.179   3.505   5.647
 4745SOL    HW115134   3.248   3.554   5.593
 4745SOL    HW215135   3.094   3.557   5.648
 4746SOL     OW15136   5.189   6.524   2.885
 4746SOL    HW115137   5.210   6.622   2.887
 4746SOL    HW215138   5.211   6.487   2.794
 4747SOL     OW15139   1.483   3.886   0.140
 4747SOL    HW115140   1.482   3.911   0.043
 4747SOL    HW215141   1.511   3.791   0.150
 4748SOL     OW15142   2.430   5.599   1.234
 4748SOL    HW115143   2.515   5.566   1.194
 4748SOL    HW215144   2.420   5.697   1.215
 4749SOL     OW15145   2.132   5.959   6.073
 4749SOL    HW115146   2.060   5.896   6.043
 4749SOL    HW215147   2.220   5.913   6.068
 4750SOL     OW15148   0.421   3.926   4.645
 4750SOL    HW115149   0.470   3.873   4.715
 4750SOL    HW215150   0.411   4.020   4.676
 4751SOL     OW15151   3.861   2.138   2.599
 4751SOL    HW115152   3.796   2.153   2.525
 4751SOL    HW215153   3.825   2.177   2.684
 4752SOL     OW15154   4.200   1.277   6.623
 4752SOL    HW115155   4.246   1.197   6.662
 4752SOL    HW215156   4.255   1.313   6.547
 4753SOL     OW15157   6.239   0.138   3.967
 4753SOL    HW115158   6.154   0.119   4.016
 4753SOL    HW215159   6.279   0.223   4.002
 4754SOL     OW15160   5.767   4.481   4.805
 4754SOL    HW115161   5.693   4.493   4.872
 4754SOL    HW215162   5.728   4.479   4.713
 4755SOL     OW15163   3.156   0.629   0.450
 4755SOL    HW115164   3.057   0.633   0.434
 4755SOL    HW215165   3.204   0.620   0.363
 4756SOL     OW15166   5.728   2.782   6.632
 4756SOL    HW115167   5.697   2.740   6.546
 4756SOL    HW215168   5.774   2.713   6.688
 4757SOL     OW15169   2.649   1.722   1.477
 4757SOL    HW115170   2.621   1.633   1.512
 4757SOL    HW215171   2.738   1.747   1.517
 4758SOL     OW15172   1.650   6.466   3.447
 4758SOL    HW115173   1.715   6.542   3.439
 4758SOL    HW215174   1.557   6.502   3.441
 4759SOL     OW15175   6.838   4.713   5.285
 4759SOL    HW115176   6.749   4.701   5.243
 4759SOL    HW215177   6.829   4.770   5.367
 4760SOL     OW15178   2.324   1.854   0.094
 4760SOL    HW115179   2.318   1.767   0.143
 4760SOL    HW215180   2.252   1.859   0.025
 4761SOL     OW15181   1.002   6.067   0.892
 4761SOL    HW115182   0.986   5.976   0.930
 4761SOL    HW215183   1.071   6.061   0.820
 4762SOL     OW15184   1.698   5.491   1.937
 4762SOL    HW115185   1.683   5.417   1.871
 4762SOL    HW215186   1.704   5.578   1.889
 4763SOL     OW15187   6.035   0.207   2.283
 4763SOL    HW115188   6.019   0.298   2.244
 4763SOL    HW215189   6.114   0.211   2.345
 4764SOL     OW15190   4.927   3.788   5.004
 4764SOL    HW115191   5.021   3.785   5.040
 4764SOL    HW215192   4.884   3.699   5.020
 4765SOL     OW15193   4.657   0.485   5.215
 4765SOL    HW115194   4.616   0.547   5.147
 4765SOL    HW215195   4.716   0.538   5.276
 4766SOL     OW15196   5.796   5.701   3.658
 4766SOL    HW115197   5.762   5.612   3.630
 4766SOL    HW215198   5.752   5.773   3.603
 4767SOL     OW15199   2.829   5.528   5.153
 4767SOL    HW115200   2.842   5.472   5.071
 4767SOL    HW215201   2.818   5.468   5.232
 4768SOL     OW15202   4.473   2.085   6.285
 4768SOL    HW115203   4.561   2.039   6.287
 4768SOL    HW215204   4.405   2.030   6.334
 4769SOL     OW15205   4.991   5.788   6.840
 4769SOL    HW115206   5.071   5.818   6.788
 4769SOL    HW215207   4.975   5.691   6.823
 4770SOL     OW15208   6.559   1.607   4.194
 4770SOL    HW115209   6.615   1.638   4.117
 4770SOL    HW215210   6.616   1.596   4.275
 4771SOL     OW15211   2.644   5.830   5.536
 4771SOL    HW115212   2.699   5.840   5.619
 4771SOL    HW215213   2.584   5.751   5.545
 4772SOL     OW15214   4.030   5.156   0.236
 4772SOL    HW115215   4.053   5.124   0.328
 4772SOL    HW215216   4.081   5.103   0.168
 4773SOL     OW15217   6.779   5.006   4.741
 4773SOL    HW115218   6.769   4.909   4.763
 4773SOL    HW215219   6.756   5.021   4.645
 4774SOL     OW15220   2.004   3.463   1.154
 4774SOL    HW115221   2.041   3.416   1.234
 4774SOL    HW215222   2.078   3.487   1.091
 4775SOL     OW15223   6.006   6.648   2.823
 4775SOL    HW115224   6.006   6.666   2.725
 4775SOL    HW215225   6.063   6.716   2.870
 4776SOL     OW15226   1.628   6.910   5.658
 4776SOL    HW115227   1.665   6.991   5.614
 4776SOL    HW215228   1.688   6.832   5.640
 4777SOL     OW15229   1.573   4.873   1.385
 4777SOL    HW115230   1.602   4.968   1.390
 4777SOL    HW215231   1.604   4.824   1.467
 4778SOL     OW15232   6.632   3.133   3.983
 4778SOL    HW115233   6.594   3.142   3.890
 4778SOL    HW215234   6.629   3.221   4.029
 4779SOL     OW15235   5.951   6.469   2.309
 4779SOL    HW115236   5.882   6.513   2.252
 4779SOL    HW215237   5.946   6.370   2.295
 4780SOL     OW15238   5.937   2.105   6.830
 4780SOL    HW115239   6.004   2.168   6.790
 4780SOL    HW215240   5.902   2.143   6.915
 4781SOL     OW15241   2.817   5.736   2.996
 4781SOL    HW115242   2.870   5.652   2.983
 4781SOL    HW215243   2.834   5.799   2.921
 4782SOL     OW15244   6.334   5.428   6.918
 4782SOL    HW115245   6.271   5.453   6.845
 4782SOL    HW215246   6.428   5.437   6.885
 4783SOL     OW15247   5.056   4.136   0.027
 4783SOL    HW115248   4.997   4.212   7.019
 4783SOL    HW215249   5.141   4.137   6.995
 4784SOL     OW15250   6.425   2.792   6.287
 4784SOL    HW115251   6.400   2.888   6.278
 4784SOL    HW215252   6.488   2.767   6.214
 4785SOL     OW15253   1.077   6.019   3.195
 4785SOL    HW115254   1.038   6.055   3.110
 4785SOL    HW215255   1.171   5.990   3.179
 4786SOL     OW15256   2.259   0.340   0.848
 4786SOL    HW115257   2.169   0.301   0.866
 4786SOL    HW215258   2.308   0.281   0.783
 4787SOL     OW15259   3.993   1.257   2.869
 4787SOL    HW115260   4.006   1.192   2.944
 4787SOL    HW215261   4.083   1.289   2.837
 4788SOL     OW15262   6.546   6.118   0.168
 4788SOL    HW115263   6.500   6.205   0.151
 4788SOL    HW215264   6.566   6.073   0.081
 4789SOL     OW15265   5.159   1.603   1.655
 4789SOL    HW115266   5.126   1.691   1.688
 4789SOL    HW215267   5.229   1.618   1.585
 4790SOL     OW15268   5.606   1.557   5.574
 4790SOL    HW115269   5.648   1.592   5.658
 4790SOL    HW215270   5.588   1.633   5.512
 4791SOL     OW15271   0.543   3.159   1.153
 4791SOL    HW115272   0.479   3.210   1.095
 4791SOL    HW215273   0.551   3.066   1.119
 4792SOL     OW15274   2.705   4.642   3.642
 4792SOL    HW115275   2.634   4.706   3.614
 4792SOL    HW215276   2.788   4.691   3.665
 4793SOL     OW15277   2.199   2.856   5.190
 4793SOL    HW115278   2.247   2.867   5.277
 4793SOL    HW215279   2.249   2.904   5.118
 4794SOL     OW15280   5.444   6.940   4.893
 4794SOL    HW115281   5.392   6.907   4.814
 4794SOL    HW215282   5.418   6.888   4.974
 4795SOL     OW15283   6.312   2.012   4.028
 4795SOL    HW115284   6.264   1.934   4.068
 4795SOL    HW215285   6.339   1.990   3.934
 4796SOL     OW15286   4.580   1.220   5.247
 4796SOL    HW115287   4.489   1.246   5.214
 4796SOL    HW215288   4.571   1.172   5.334
 4797SOL     OW15289   0.566   6.629   5.216
 4797SOL    HW115290   0.613   6.542   5.230
 4797SOL    HW215291   0.488   6.636   5.279
 4798SOL     OW15292   0.137   4.078   5.778
 4798SOL    HW115293   0.066   4.147   5.766
 4798SOL    HW215294   0.226   4.118   5.754
 4799SOL     OW15295   3.593   1.653   0.694
 4799SOL    HW115296   3.538   1.598   0.756
 4799SOL    HW215297   3.690   1.643   0.717
 4800SOL     OW15298   2.234   3.058   6.935
 4800SOL    HW115299   2.226   3.052   6.835
 4800SOL    HW215300   2.326   3.088   6.959
 4801SOL     OW15301   3.149   2.743   7.012
 4801SOL    HW115302   3.128   2.664   6.955
 4801SOL    HW215303   3.163   2.824   6.954
 4802SOL     OW15304   0.535   6.620   2.184
 4802SOL    HW115305   0.587   6.578   2.110
 4802SOL    HW215306   0.443   6.643   2.151
 4803SOL     OW15307   0.168   4.677   6.547
 4803SOL    HW115308   0.253   4.702   6.500
 4803SOL    HW215309   0.106   4.756   6.546
 4804SOL     OW15310   6.970   6.274   1.891
 4804SOL    HW115311   6.877   6.281   1.856
 4804SOL    HW215312   7.007   6.183   1.869
 4805SOL     OW15313   5.532   1.283   1.965
 4805SOL    HW115314   5.465   1.328   1.906
 4805SOL    HW215315   5.624   1.303   1.930
 4806SOL     OW15316   0.967   4.236   2.588
 4806SOL    HW115317   1.038   4.288   2.636
 4806SOL    HW215318   0.881   4.243   2.638
 4807SOL     OW15319   0.415   4.658   0.422
 4807SOL    HW115320   0.407   4.693   0.515
 4807SOL    HW215321   0.345   4.587   0.408
 4808SOL     OW15322   4.829   5.281   0.230
 4808SOL    HW115323   4.842   5.226   0.312
 4808SOL    HW215324   4.737   5.319   0.230
 4809SOL     OW15325   3.783   5.162   0.114
 4809SOL    HW115326   3.772   5.238   0.049
 4809SOL    HW215327   3.872   5.169   0.157
 4810SOL     OW15328   1.410   4.200   2.710
 4810SOL    HW115329   1.328   4.246   2.676
 4810SOL    HW215330   1.434   4.124   2.649
 4811SOL     OW15331   2.895   4.108   1.745
 4811SOL    HW115332   2.808   4.059   1.758
 4811SOL    HW215333   2.951   4.097   1.827
 4812SOL     OW15334   0.670   6.056   2.340
 4812SOL    HW115335   0.572   6.073   2.350
 4812SOL    HW215336   0.708   6.116   2.270
 4813SOL     OW15337   5.532   1.539   7.008
 4813SOL    HW115338   5.564   1.445   0.000
 4813SOL    HW215339   5.492   1.548   6.917
 4814SOL     OW15340   0.127   3.103   1.086
 4814SOL    HW115341   0.127   3.200   1.062
 4814SOL    HW215342   0.096   3.049   1.007
 4815SOL     OW15343   5.067   4.021   2.741
 4815SOL    HW115344   5.109   3.964   2.813
 4815SOL    HW215345   5.138   4.049   2.676
 4816SOL     OW15346   2.223   4.974   1.256
 4816SOL    HW115347   2.265   5.056   1.217
 4816SOL    HW215348   2.124   4.980   1.245
 4817SOL     OW15349   2.547   1.560   0.211
 4817SOL    HW115350   2.528   1.480   0.155
 4817SOL    HW215351   2.593   1.533   0.295
 4818SOL     OW15352   0.145   0.261   4.754
 4818SOL    HW115353   0.177   0.283   4.662
 4818SOL    HW215354   0.050   0.293   4.764
 4819SOL     OW15355   2.296   2.210   1.410
 4819SOL    HW115356   2.351   2.200   1.327
 4819SOL    HW215357   2.310   2.300   1.449
 4820SOL     OW15358   6.683   2.513   1.678
 4820SOL    HW115359   6.593   2.479   1.707
 4820SOL    HW215360   6.673   2.572   1.598
 4821SOL     OW15361   0.888   6.708   2.424
 4821SOL    HW115362   0.820   6.775   2.395
 4821SOL    HW215363   0.875   6.688   2.521
 4822SOL     OW15364   2.163   3.437   4.502
 4822SOL    HW115365   2.217   3.362   4.541
 4822SOL    HW215366   2.067   3.426   4.528
 4823SOL     OW15367   1.061   0.589   4.144
 4823SOL    HW115368   1.097   0.669   4.096
 4823SOL    HW215369   0.966   0.607   4.172
 4824SOL     OW15370   5.011   2.004   4.044
 4824SOL    HW115371   4.968   2.091   4.070
 4824SOL    HW215372   4.949   1.952   3.985
 4825SOL     OW15373   1.970   1.784   4.847
 4825SOL    HW115374   1.924   1.847   4.784
 4825SOL    HW215375   2.051   1.828   4.885
 4826SOL     OW15376   0.280   1.328   6.404
 4826SOL    HW115377   0.297   1.389   6.481
 4826SOL    HW215378   0.263   1.382   6.322
 4827SOL     OW15379   6.531   1.676   1.284
 4827SOL    HW115380   6.600   1.742   1.313
 4827SOL    HW215381   6.455   1.724   1.239
 4828SOL     OW15382   5.315   3.143   1.054
 4828SOL    HW115383   5.263   3.227   1.040
 4828SOL    HW215384   5.378   3.156   1.130
 4829SOL     OW15385   4.104   6.704   6.820
 4829SOL    HW115386   4.039   6.629   6.806
 4829SOL    HW215387   4.181   6.671   6.876
 4830SOL     OW15388   4.522   6.737   3.785
 4830SOL    HW115389   4.606   6.685   3.801
 4830SOL    HW215390   4.454   6.713   3.854
 4831SOL     OW15391   0.197   4.572   6.179
 4831SOL    HW115392   0.102   4.598   6.196
 4831SOL    HW215393   0.204   4.474   6.165
 4832SOL     OW15394   3.333   3.262   4.965
 4832SOL    HW115395   3.301   3.231   4.876
 4832SOL    HW215396   3.402   3.334   4.952
 4833SOL     OW15397   4.933   2.474   3.003
 4833SOL    HW115398   4.858   2.421   3.044
 4833SOL    HW215399   4.895   2.544   2.943
 4834SOL     OW15400   4.353   6.608   1.424
 4834SOL    HW115401   4.319   6.589   1.517
 4834SOL    HW215402   4.452   6.604   1.424
 4835SOL     OW15403   7.004   0.872   6.243
 4835SOL    HW115404   7.012   0.839   6.149
 4835SOL    HW215405   0.063   0.927   6.267
 4836SOL     OW15406   5.062   2.878   4.519
 4836SOL    HW115407   4.966   2.902   4.504
 4836SOL    HW215408   5.120   2.941   4.467
 4837SOL     OW15409   6.341   4.355   1.869
 4837SOL    HW115410   6.347   4.454   1.878
 4837SOL    HW215411   6.412   4.312   1.925
 4838SOL     OW15412   0.931   4.787   1.079
 4838SOL    HW115413   0.843   4.777   1.032
 4838SOL    HW215414   0.929   4.735   1.164
 4839SOL     OW15415   1.822   2.604   6.406
 4839SOL    HW115416   1.741   2.573   6.357
 4839SOL    HW215417   1.834   2.549   6.489
 4840SOL     OW15418   6.840   5.782   6.020
 4840SOL    HW115419   6.901   5.781   6.099
 4840SOL    HW215420   6.765   5.718   6.035
 4841SOL     OW15421   2.976   6.152   2.314
 4841SOL    HW115422   2.953   6.065   2.271
 4841SOL    HW215423   2.903   6.219   2.296
 4842SOL     OW15424   3.813   4.818   2.572
 4842SOL    HW115425   3.767   4.864   2.648
 4842SOL    HW215426   3.911   4.833   2.579
 4843SOL     OW15427   6.416   3.113   0.631
 4843SOL    HW115428   6.513   3.115   0.606
 4843SOL    HW215429   6.406   3.086   0.726
 4844SOL     OW15430   6.661   3.228   5.536
 4844SOL    HW115431   6.705   3.278   5.611
 4844SOL    HW215432   6.675   3.277   5.451
 4845SOL     OW15433   5.448   5.414   5.690
 4845SOL    HW115434   5.455   5.497   5.634
 4845SOL    HW215435   5.539   5.372   5.698
 4846SOL     OW15436   0.274   3.022   3.812
 4846SOL    HW115437   0.213   2.945   3.791
 4846SOL    HW215438   0.319   3.006   3.900
 4847SOL     OW15439   2.722   1.010   5.959
 4847SOL    HW115440   2.696   1.105   5.979
 4847SOL    HW215441   2.723   0.958   6.044
 4848SOL     OW15442   1.827   0.777   3.948
 4848SOL    HW115443   1.850   0.828   3.865
 4848SOL    HW215444   1.746   0.818   3.990
 4849SOL     OW15445   1.124   6.688   6.860
 4849SOL    HW115446   1.166   6.778   6.876
 4849SOL    HW215447   1.041   6.699   6.805
 4850SOL     OW15448   4.107   1.700   2.407
 4850SOL    HW115449   4.083   1.790   2.369
 4850SOL    HW215450   4.049   1.630   2.365
 4851SOL     OW15451   4.232   6.271   5.806
 4851SOL    HW115452   4.133   6.273   5.788
 4851SOL    HW215453   4.253   6.193   5.865
 4852SOL     OW15454   1.369   6.134   5.134
 4852SOL    HW115455   1.422   6.149   5.050
 4852SOL    HW215456   1.376   6.038   5.161
 4853SOL     OW15457   3.241   1.001   3.373
 4853SOL    HW115458   3.178   1.002   3.296
 4853SOL    HW215459   3.322   1.057   3.351
 4854SOL     OW15460   4.777   0.384   1.399
 4854SOL    HW115461   4.763   0.363   1.302
 4854SOL    HW215462   4.749   0.306   1.454
 4855SOL     OW15463   6.249   2.559   2.742
 4855SOL    HW115464   6.316   2.579   2.814
 4855SOL    HW215465   6.166   2.612   2.758
 4856SOL     OW15466   1.808   3.620   2.701
 4856SOL    HW115467   1.712   3.640   2.682
 4856SOL    HW215468   1.836   3.670   2.782
 4857SOL     OW15469   2.096   2.161   5.101
 4857SOL    HW115470   2.155   2.240   5.083
 4857SOL    HW215471   2.107   2.094   5.028
 4858SOL     OW15472   0.589   0.690   4.457
 4858SOL    HW115473   0.645   0.702   4.539
 4858SOL    HW215474   0.499   0.655   4.483
 4859SOL     OW15475   0.414   0.703   4.837
 4859SOL    HW115476   0.488   0.760   4.874
 4859SOL    HW215477   0.453   0.625   4.788
 4860SOL     OW15478   4.172   4.530   1.383
 4860SOL    HW115479   4.269   4.554   1.393
 4860SOL    HW215480   4.125   4.546   1.470
 4861SOL     OW15481   5.478   4.438   0.059
 4861SOL    HW115482   5.523   4.474   6.998
 4861SOL    HW215483   5.403   4.499   0.084
 4862SOL     OW15484   2.674   4.630   4.393
 4862SOL    HW115485   2.678   4.676   4.482
 4862SOL    HW215486   2.633   4.539   4.404
 4863SOL     OW15487   6.022   3.934   1.764
 4863SOL    HW115488   5.993   3.916   1.669
 4863SOL    HW215489   5.997   3.856   1.821
 4864SOL     OW15490   3.887   1.288   2.549
 4864SOL    HW115491   3.850   1.251   2.635
 4864SOL    HW215492   3.887   1.388   2.553
 4865SOL     OW15493   2.131   0.204   4.599
 4865SOL    HW115494   2.183   0.185   4.516
 4865SOL    HW215495   2.040   0.163   4.593
 4866SOL     OW15496   6.397   2.626   1.618
 4866SOL    HW115497   6.440   2.674   1.694
 4866SOL    HW215498   6.408   2.527   1.631
 4867SOL     OW15499   3.593   5.195   1.824
 4867SOL    HW115500   3.556   5.102   1.817
 4867SOL    HW215501   3.561   5.249   1.745
 4868SOL     OW15502   6.756   5.081   2.757
 4868SOL    HW115503   6.821   5.006   2.746
 4868SOL    HW215504   6.744   5.127   2.669
 4869SOL     OW15505   1.293   0.922   1.400
 4869SOL    HW115506   1.366   0.913   1.467
 4869SOL    HW215507   1.332   0.934   1.309
 4870SOL     OW15508   0.121   5.762   1.968
 4870SOL    HW115509   0.211   5.802   1.984
 4870SOL    HW215510   0.113   5.675   2.017
 4871SOL     OW15511   1.589   1.461   3.501
 4871SOL    HW115512   1.533   1.451   3.419
 4871SOL    HW215513   1.652   1.537   3.489
 4872SOL     OW15514   6.029   6.228   3.686
 4872SOL    HW115515   6.098   6.223   3.614
 4872SOL    HW215516   6.001   6.135   3.712
 4873SOL     OW15517   6.674   5.392   3.077
 4873SOL    HW115518   6.671   5.293   3.063
 4873SOL    HW215519   6.709   5.412   3.169
 4874SOL     OW15520   6.338   3.707   2.758
 4874SOL    HW115521   6.347   3.612   2.727
 4874SOL    HW215522   6.343   3.710   2.858
 4875SOL     OW15523   6.158   2.612   1.453
 4875SOL    HW115524   6.205   2.624   1.540
 4875SOL    HW215525   6.224   2.581   1.384
 4876SOL     OW15526   5.497   1.630   4.091
 4876SOL    HW115527   5.453   1.552   4.046
 4876SOL    HW215528   5.595   1.629   4.073
 4877SOL     OW15529   1.561   1.862   6.644
 4877SOL    HW115530   1.482   1.866   6.582
 4877SOL    HW215531   1.555   1.938   6.709
 4878SOL     OW15532   6.336   1.167   2.648
 4878SOL    HW115533   6.354   1.204   2.739
 4878SOL    HW215534   6.240   1.182   2.624
 4879SOL     OW15535   4.590   6.713   2.999
 4879SOL    HW115536   4.519   6.672   3.057
 4879SOL    HW215537   4.649   6.642   2.962
 4880SOL     OW15538   5.394   3.368   0.283
 4880SOL    HW115539   5.334   3.410   0.216
 4880SOL    HW215540   5.490   3.385   0.257
 4881SOL     OW15541   1.719   0.912   6.695
 4881SOL    HW115542   1.723   0.921   6.795
 4881SOL    HW215543   1.623   0.905   6.666
 4882SOL     OW15544   4.963   1.229   4.901
 4882SOL    HW115545   4.970   1.271   4.991
 4882SOL    HW215546   4.934   1.134   4.910
 4883SOL     OW15547   4.998   4.735   1.791
 4883SOL    HW115548   5.069   4.746   1.861
 4883SOL    HW215549   5.015   4.651   1.739
 4884SOL     OW15550   2.988   6.397   1.563
 4884SOL    HW115551   2.911   6.401   1.626
 4884SOL    HW215552   2.959   6.428   1.472
 4885SOL     OW15553   2.503   5.108   2.078
 4885SOL    HW115554   2.441   5.055   2.020
 4885SOL    HW215555   2.462   5.197   2.098
 4886SOL     OW15556   1.020   5.167   1.183
 4886SOL    HW115557   0.997   5.145   1.088
 4886SOL    HW215558   0.935   5.173   1.236
 4887SOL     OW15559   0.728   0.110   2.936
 4887SOL    HW115560   0.809   0.123   2.993
 4887SOL    HW215561   0.751   0.051   2.858
 4888SOL     OW15562   2.483   6.951   3.812
 4888SOL    HW115563   2.490   6.866   3.865
 4888SOL    HW215564   2.575   6.989   3.800
 4889SOL     OW15565   7.011   1.144   5.611
 4889SOL    HW115566   6.913   1.145   5.590
 4889SOL    HW215567   0.003   1.157   5.709
 4890SOL     OW15568   0.885   1.101   6.713
 4890SOL    HW115569   0.956   1.094   6.783
 4890SOL    HW215570   0.917   1.057   6.629
 4891SOL     OW15571   1.773   4.334   6.524
 4891SOL    HW115572   1.764   4.303   6.429
 4891SOL    HW215573   1.759   4.433   6.528
 4892SOL     OW15574   3.479   5.659   1.811
 4892SOL    HW115575   3.534   5.651   1.893
 4892SOL    HW215576   3.453   5.755   1.798
 4893SOL     OW15577   6.846   3.323   1.738
 4893SOL    HW115578   6.888   3.247   1.787
 4893SOL    HW215579   6.747   3.306   1.730
 4894SOL     OW15580   2.374   1.188   3.241
 4894SOL    HW115581   2.314   1.264   3.216
 4894SOL    HW215582   2.403   1.198   3.336
 4895SOL     OW15583   0.463   4.627   3.758
 4895SOL    HW115584   0.367   4.628   3.788
 4895SOL    HW215585   0.467   4.634   3.658
 4896SOL     OW15586   1.837   5.078   2.153
 4896SOL    HW115587   1.862   5.164   2.198
 4896SOL    HW215588   1.793   5.017   2.219
 4897SOL     OW15589   2.126   3.747   5.910
 4897SOL    HW115590   2.052   3.801   5.950
 4897SOL    HW215591   2.213   3.770   5.955
 4898SOL     OW15592   3.968   0.842   4.437
 4898SOL    HW115593   3.958   0.815   4.533
 4898SOL    HW215594   3.922   0.930   4.423
 4899SOL     OW15595   5.555   5.418   3.130
 4899SOL    HW115596   5.481   5.459   3.078
 4899SOL    HW215597   5.631   5.396   3.068
 4900SOL     OW15598   2.402   6.195   4.663
 4900SOL    HW115599   2.346   6.133   4.717
 4900SOL    HW215600   2.495   6.159   4.657
 4901SOL     OW15601   3.673   0.732   5.657
 4901SOL    HW115602   3.589   0.770   5.697
 4901SOL    HW215603   3.742   0.721   5.729
 4902SOL     OW15604   2.131   1.793   4.394
 4902SOL    HW115605   2.211   1.800   4.334
 4902SOL    HW215606   2.146   1.848   4.476
 4903SOL     OW15607   3.784   6.208   6.711
 4903SOL    HW115608   3.754   6.302   6.694
 4903SOL    HW215609   3.829   6.203   6.801
 4904SOL     OW15610   2.074   0.156   3.952
 4904SOL    HW115611   2.066   0.188   3.858
 4904SOL    HW215612   2.147   0.088   3.958
 4905SOL     OW15613   4.444   6.727   2.713
 4905SOL    HW115614   4.479   6.741   2.806
 4905SOL    HW215615   4.352   6.687   2.719
 4906SOL     OW15616   4.996   2.148   6.091
 4906SOL    HW115617   5.008   2.112   6.184
 4906SOL    HW215618   5.046   2.235   6.083
 4907SOL     OW15619   4.653   5.902   1.964
 4907SOL    HW115620   4.692   5.811   1.977
 4907SOL    HW215621   4.618   5.936   2.052
 4908SOL     OW15622   5.407   5.223   6.889
 4908SOL    HW115623   5.347   5.289   6.935
 4908SOL    HW215624   5.353   5.145   6.859
 4909SOL     OW15625   6.842   0.018   4.133
 4909SOL    HW115626   6.808   0.072   4.056
 4909SOL    HW215627   6.793   0.043   4.216
 4910SOL     OW15628   5.880   0.563   4.858
 4910SOL    HW115629   5.787   0.528   4.853
 4910SOL    HW215630   5.937   0.513   4.792
 4911SOL     OW15631   1.388   3.419   4.127
 4911SOL    HW115632   1.349   3.363   4.200
 4911SOL    HW215633   1.487   3.425   4.138
 4912SOL     OW15634   4.917   1.447   6.704
 4912SOL    HW115635   4.980   1.440   6.627
 4912SOL    HW215636   4.868   1.535   6.699
 4913SOL     OW15637   3.657   2.656   5.507
 4913SOL    HW115638   3.720   2.731   5.487
 4913SOL    HW215639   3.709   2.578   5.541
 4914SOL     OW15640   3.689   0.582   5.163
 4914SOL    HW115641   3.728   0.615   5.077
 4914SOL    HW215642   3.742   0.617   5.240
 4915SOL     OW15643   4.142   6.871   5.565
 4915SOL    HW115644   4.199   6.846   5.643
 4915SOL    HW215645   4.146   6.970   5.550
 4916SOL     OW15646   1.041   6.975   4.146
 4916SOL    HW115647   1.050   0.036   4.202
 4916SOL    HW215648   0.944   6.955   4.132
 4917SOL     OW15649   2.853   5.139   1.442
 4917SOL    HW115650   2.934   5.132   1.383
 4917SOL    HW215651   2.777   5.089   1.399
 4918SOL     OW15652   5.011   5.596   2.390
 4918SOL    HW115653   4.960   5.510   2.394
 4918SOL    HW215654   4.948   5.670   2.365
 4919SOL     OW15655   2.521   2.563   0.394
 4919SOL    HW115656   2.507   2.577   0.296
 4919SOL    HW215657   2.617   2.541   0.411
 4920SOL     OW15658   5.945   0.644   3.826
 4920SOL    HW115659   5.848   0.621   3.822
 4920SOL    HW215660   5.962   0.704   3.904
 4921SOL     OW15661   1.130   5.047   0.251
 4921SOL    HW115662   1.204   5.091   0.200
 4921SOL    HW215663   1.119   5.092   0.340
 4922SOL     OW15664   2.184   2.430   5.006
 4922SOL    HW115665   2.179   2.477   5.094
 4922SOL    HW215666   2.247   2.480   4.946
 4923SOL     OW15667   4.255   1.529   2.648
 4923SOL    HW115668   4.211   1.545   2.559
 4923SOL    HW215669   4.258   1.614   2.700
 4924SOL     OW15670   3.160   1.721   5.023
 4924SOL    HW115671   3.195   1.645   4.968
 4924SOL    HW215672   3.066   1.740   4.996
 4925SOL     OW15673   0.072   6.801   2.576
 4925SOL    HW115674   7.016   6.865   2.575
 4925SOL    HW215675   0.096   6.777   2.482
 4926SOL     OW15676   5.074   1.279   0.558
 4926SOL    HW115677   5.105   1.184   0.555
 4926SOL    HW215678   5.152   1.340   0.546
 4927SOL     OW15679   3.445   3.947   4.086
 4927SOL    HW115680   3.507   3.875   4.117
 4927SOL    HW215681   3.454   4.027   4.146
 4928SOL     OW15682   1.550   0.123   7.007
 4928SOL    HW115683   1.535   0.043   0.044
 4928SOL    HW215684   1.477   0.189   0.000
 4929SOL     OW15685   0.530   5.812   4.641
 4929SOL    HW115686   0.512   5.862   4.725
 4929SOL    HW215687   0.502   5.716   4.652
 4930SOL     OW15688   4.927   0.882   3.375
 4930SOL    HW115689   5.002   0.901   3.312
 4930SOL    HW215690   4.844   0.860   3.324
 4931SOL     OW15691   0.058   6.440   0.429
 4931SOL    HW115692   6.987   6.425   0.393
 4931SOL    HW215693   0.117   6.476   0.356
 4932SOL     OW15694   2.516   3.249   1.716
 4932SOL    HW115695   2.481   3.332   1.758
 4932SOL    HW215696   2.442   3.182   1.707
 4933SOL     OW15697   2.505   0.202   3.243
 4933SOL    HW115698   2.446   0.239   3.171
 4933SOL    HW215699   2.601   0.217   3.219
 4934SOL     OW15700   2.703   5.986   2.391
 4934SOL    HW115701   2.642   5.917   2.431
 4934SOL    HW215702   2.662   6.023   2.308
 4935SOL     OW15703   1.718   1.497   6.495
 4935SOL    HW115704   1.661   1.440   6.436
 4935SOL    HW215705   1.770   1.562   6.439
 4936SOL     OW15706   2.492   4.391   1.936
 4936SOL    HW115707   2.505   4.462   2.004
 4936SOL    HW215708   2.409   4.339   1.958
 4937SOL     OW15709   6.379   2.891   5.721
 4937SOL    HW115710   6.464   2.839   5.731
 4937SOL    HW215711   6.309   2.853   5.781
 4938SOL     OW15712   2.060   5.083   5.540
 4938SOL    HW115713   2.101   5.035   5.463
 4938SOL    HW215714   2.071   5.182   5.528
 4939SOL     OW15715   6.565   2.082   4.148
 4939SOL    HW115716   6.567   2.030   4.234
 4939SOL    HW215717   6.492   2.048   4.090
 4940SOL     OW15718   0.019   0.849   5.181
 4940SOL    HW115719   6.984   0.779   5.226
 4940SOL    HW215720   7.004   0.867   5.090
 4941SOL     OW15721   5.473   2.557   5.421
 4941SOL    HW115722   5.441   2.631   5.481
 4941SOL    HW215723   5.427   2.472   5.448
 4942SOL     OW15724   5.215   2.700   6.220
 4942SOL    HW115725   5.243   2.770   6.154
 4942SOL    HW215726   5.123   2.669   6.200
 4943SOL     OW15727   4.478   3.731   6.528
 4943SOL    HW115728   4.545   3.734   6.454
 4943SOL    HW215729   4.479   3.817   6.578
 4944SOL     OW15730   1.911   4.724   1.835
 4944SOL    HW115731   1.967   4.804   1.853
 4944SOL    HW215732   1.899   4.672   1.919
 4945SOL     OW15733   1.050   0.215   4.261
 4945SOL    HW115734   1.126   0.234   4.199
 4945SOL    HW215735   0.963   0.222   4.212
 4946SOL     OW15736   1.476   4.695   7.013
 4946SOL    HW115737   1.495   4.770   0.054
 4946SOL    HW215738   1.420   4.626   0.038
 4947SOL     OW15739   2.162   1.162   0.837
 4947SOL    HW115740   2.183   1.249   0.792
 4947SOL    HW215741   2.189   1.087   0.777
 4948SOL     OW15742   1.310   2.746   2.393
 4948SOL    HW115743   1.351   2.655   2.390
 4948SOL    HW215744   1.319   2.789   2.303
 4949SOL     OW15745   5.183   6.239   6.230
 4949SOL    HW115746   5.231   6.274   6.311
 4949SOL    HW215747   5.148   6.316   6.177
 4950SOL     OW15748   2.355   5.493   4.585
 4950SOL    HW115749   2.415   5.474   4.507
 4950SOL    HW215750   2.383   5.436   4.663
 4951SOL     OW15751   5.980   1.806   5.266
 4951SOL    HW115752   5.933   1.735   5.215
 4951SOL    HW215753   6.052   1.846   5.209
 4952SOL     OW15754   0.296   1.095   5.909
 4952SOL    HW115755   0.202   1.111   5.939
 4952SOL    HW215756   0.355   1.083   5.989
 4953SOL     OW15757   2.538   5.766   2.604
 4953SOL    HW115758   2.568   5.825   2.679
 4953SOL    HW215759   2.556   5.671   2.628
 4954SOL     OW15760   4.374   3.101   6.968
 4954SOL    HW115761   4.454   3.115   0.004
 4954SOL    HW215762   4.307   3.046   7.017
 4955SOL     OW15763   3.069   6.549   6.290
 4955SOL    HW115764   3.048   6.598   6.206
 4955SOL    HW215765   3.042   6.453   6.281
 4956SOL     OW15766   2.326   0.082   5.437
 4956SOL    HW115767   2.393   0.132   5.492
 4956SOL    HW215768   2.340   0.104   5.340
 4957SOL     OW15769   6.602   2.073   1.763
 4957SOL    HW115770   6.619   2.156   1.815
 4957SOL    HW215771   6.506   2.046   1.772
 4958SOL     OW15772   6.935   4.928   5.426
 4958SOL    HW115773   6.971   5.017   5.453
 4958SOL    HW215774   7.006   4.858   5.438
 4959SOL     OW15775   6.565   1.420   6.970
 4959SOL    HW115776   6.658   1.442   6.938
 4959SOL    HW215777   6.511   1.503   6.975
 4960SOL     OW15778   3.356   5.108   3.602
 4960SOL    HW115779   3.328   5.037   3.667
 4960SOL    HW215780   3.307   5.193   3.622
 4961SOL     OW15781   4.477   1.069   6.280
 4961SOL    HW115782   4.399   1.014   6.312
 4961SOL    HW215783   4.503   1.038   6.189
 4962SOL     OW15784   6.553   2.386   0.345
 4962SOL    HW115785   6.561   2.385   0.444
 4962SOL    HW215786   6.509   2.302   0.314
 4963SOL     OW15787   5.916   5.248   0.164
 4963SOL    HW115788   5.946   5.227   0.072
 4963SOL    HW215789   5.994   5.248   0.226
 4964SOL     OW15790   2.940   0.246   3.801
 4964SOL    HW115791   3.006   0.303   3.849
 4964SOL    HW215792   2.931   0.278   3.706
 4965SOL     OW15793   6.874   0.813   2.687
 4965SOL    HW115794   6.841   0.872   2.614
 4965SOL    HW215795   6.880   0.719   2.654
 4966SOL     OW15796   2.427   6.985   5.029
 4966SOL    HW115797   2.432   6.890   5.061
 4966SOL    HW215798   2.482   6.994   4.946
 4967SOL     OW15799   3.607   5.709   5.949
 4967SOL    HW115800   3.659   5.766   6.012
 4967SOL    HW215801   3.588   5.762   5.866
 4968SOL     OW15802   6.449   2.127   3.740
 4968SOL    HW115803   6.473   2.184   3.819
 4968SOL    HW215804   6.494   2.038   3.750
 4969SOL     OW15805   2.568   6.791   2.768
 4969SOL    HW115806   2.614   6.705   2.745
 4969SOL    HW215807   2.517   6.824   2.688
 4970SOL     OW15808   1.503   2.474   2.884
 4970SOL    HW115809   1.529   2.385   2.919
 4970SOL    HW215810   1.472   2.465   2.790
 4971SOL     OW15811   6.330   5.975   3.976
 4971SOL    HW115812   6.335   5.894   4.034
 4971SOL    HW215813   6.239   5.981   3.935
 4972SOL     OW15814   1.803   3.221   0.451
 4972SOL    HW115815   1.830   3.292   0.517
 4972SOL    HW215816   1.749   3.151   0.498
 4973SOL     OW15817   1.822   0.098   2.380
 4973SOL    HW115818   1.771   0.059   2.303
 4973SOL    HW215819   1.920   0.099   2.358
 4974SOL     OW15820   6.031   4.666   1.033
 4974SOL    HW115821   5.955   4.729   1.016
 4974SOL    HW215822   6.062   4.628   0.946
 4975SOL     OW15823   5.615   4.272   5.458
 4975SOL    HW115824   5.577   4.224   5.536
 4975SOL    HW215825   5.690   4.331   5.487
 4976SOL     OW15826   2.403   0.678   3.526
 4976SOL    HW115827   2.396   0.752   3.593
 4976SOL    HW215828   2.396   0.590   3.573
 4977SOL     OW15829   3.929   4.506   0.274
 4977SOL    HW115830   3.904   4.601   0.258
 4977SOL    HW215831   3.901   4.450   0.196
 4978SOL     OW15832   0.139   4.218   4.961
 4978SOL    HW115833   0.209   4.194   4.894
 4978SOL    HW215834   0.135   4.147   5.032
 4979SOL     OW15835   0.496   0.149   5.947
 4979SOL    HW115836   0.467   0.241   5.973
 4979SOL    HW215837   0.422   0.103   5.899
 4980SOL     OW15838   5.377   6.575   3.269
 4980SOL    HW115839   5.311   6.500   3.275
 4980SOL    HW215840   5.442   6.556   3.195
 4981SOL     OW15841   5.202   6.284   6.794
 4981SOL    HW115842   5.105   6.302   6.780
 4981SOL    HW215843   5.214   6.235   6.881
 4982SOL     OW15844   2.680   1.629   6.104
 4982SOL    HW115845   2.609   1.663   6.164
 4982SOL    HW215846   2.639   1.581   6.027
 4983SOL     OW15847   5.872   2.665   4.887
 4983SOL    HW115848   5.795   2.699   4.833
 4983SOL    HW215849   5.906   2.580   4.847
 4984SOL     OW15850   5.834   4.103   3.636
 4984SOL    HW115851   5.921   4.067   3.602
 4984SOL    HW215852   5.843   4.200   3.658
 4985SOL     OW15853   6.212   6.240   3.459
 4985SOL    HW115854   6.271   6.316   3.486
 4985SOL    HW215855   6.260   6.181   3.395
 4986SOL     OW15856   6.087   4.264   1.872
 4986SOL    HW115857   6.093   4.166   1.849
 4986SOL    HW215858   6.179   4.303   1.875
 4987SOL     OW15859   1.079   0.795   1.094
 4987SOL    HW115860   1.074   0.805   1.194
 4987SOL    HW215861   0.992   0.759   1.060
 4988SOL     OW15862   5.147   0.682   3.506
 4988SOL    HW115863   5.078   0.663   3.437
 4988SOL    HW215864   5.218   0.612   3.503
 4989SOL     OW15865   4.951   0.170   1.717
 4989SOL    HW115866   5.032   0.127   1.677
 4989SOL    HW215867   4.888   0.099   1.749
 4990SOL     OW15868   1.645   1.922   5.255
 4990SOL    HW115869   1.632   2.018   5.232
 4990SOL    HW215870   1.668   1.871   5.172
 4991SOL     OW15871   6.324   4.570   4.809
 4991SOL    HW115872   6.285   4.657   4.839
 4991SOL    HW215873   6.286   4.546   4.720
 4992SOL     OW15874   4.920   0.965   4.639
 4992SOL    HW115875   4.876   0.893   4.586
 4992SOL    HW215876   4.868   0.982   4.723
 4993SOL     OW15877   3.141   5.540   4.074
 4993SOL    HW115878   3.088   5.624   4.073
 4993SOL    HW215879   3.221   5.551   4.133
 4994SOL     OW15880   2.080   7.002   3.173
 4994SOL    HW115881   2.179   7.000   3.159
 4994SOL    HW215882   2.033   6.988   3.086
 4995SOL     OW15883   6.909   2.763   5.919
 4995SOL    HW115884   6.973   2.836   5.944
 4995SOL    HW215885   6.820   2.802   5.899
 4996SOL     OW15886   1.323   1.011   2.585
 4996SOL    HW115887   1.237   0.977   2.623
 4996SOL    HW215888   1.311   1.026   2.487
 4997SOL     OW15889   5.267   2.187   3.337
 4997SOL    HW115890   5.272   2.112   3.271
 4997SOL    HW215891   5.173   2.220   3.343
 4998SOL     OW15892   2.102   3.861   5.088
 4998SOL    HW115893   2.174   3.918   5.050
 4998SOL    HW215894   2.025   3.857   5.025
 4999SOL     OW15895   6.126   4.570   0.800
 4999SOL    HW115896   6.079   4.497   0.751
 4999SOL    HW215897   6.146   4.646   0.737
 5000SOL     OW15898   2.747   7.004   3.793
 5000SOL    HW115899   2.821   6.948   3.831
 5000SOL    HW215900   2.755   7.005   3.693
 5001SOL     OW15901   0.470   4.092   0.556
 5001SOL    HW115902   0.397   4.028   0.579
 5001SOL    HW215903   0.552   4.070   0.609
 5002SOL     OW15904   1.081   3.348   3.341
 5002SOL    HW115905   1.175   3.382   3.336
 5002SOL    HW215906   1.064   3.287   3.264
 5003SOL     OW15907   2.354   6.322   2.920
 5003SOL    HW115908   2.339   6.309   3.018
 5003SOL    HW215909   2.450   6.306   2.898
 5004SOL     OW15910   3.345   5.088   5.810
 5004SOL    HW115911   3.421   5.044   5.857
 5004SOL    HW215912   3.259   5.045   5.838
 5005SOL     OW15913   3.334   2.326   0.483
 5005SOL    HW115914   3.242   2.291   0.464
 5005SOL    HW215915   3.341   2.352   0.579
 5006SOL     OW15916   5.049   6.956   0.604
 5006SOL    HW115917   5.146   6.970   0.623
 5006SOL    HW215918   5.021   6.866   0.638
 5007SOL     OW15919   1.395   0.133   6.676
 5007SOL    HW115920   1.422   0.049   6.722
 5007SOL    HW215921   1.469   0.167   6.619
 5008SOL     OW15922   6.573   6.797   3.164
 5008SOL    HW115923   6.476   6.780   3.148
 5008SOL    HW215924   6.587   6.893   3.190
 5009SOL     OW15925   1.691   6.207   0.963
 5009SOL    HW115926   1.779   6.165   0.986
 5009SOL    HW215927   1.681   6.294   1.011
 5010SOL     OW15928   3.406   3.436   2.828
 5010SOL    HW115929   3.368   3.504   2.766
 5010SOL    HW215930   3.407   3.347   2.783
 5011SOL     OW15931   1.890   3.746   2.907
 5011SOL    HW115932   1.858   3.762   3.000
 5011SOL    HW215933   1.965   3.809   2.886
 5012SOL     OW15934   5.095   4.475   6.250
 5012SOL    HW115935   5.042   4.392   6.268
 5012SOL    HW215936   5.074   4.508   6.158
 5013SOL     OW15937   4.705   1.753   0.012
 5013SOL    HW115938   4.798   1.729   7.007
 5013SOL    HW215939   4.672   1.827   6.974
 5014SOL     OW15940   5.398   4.241   1.042
 5014SOL    HW115941   5.486   4.194   1.029
 5014SOL    HW215942   5.404   4.299   1.123
 5015SOL     OW15943   4.775   2.251   4.095
 5015SOL    HW115944   4.795   2.304   4.013
 5015SOL    HW215945   4.692   2.198   4.081
 5016SOL     OW15946   2.261   2.258   0.671
 5016SOL    HW115947   2.341   2.312   0.694
 5016SOL    HW215948   2.283   2.161   0.676
 5017SOL     OW15949   1.810   1.985   0.155
 5017SOL    HW115950   1.813   1.968   0.056
 5017SOL    HW215951   1.717   2.012   0.181
 5018SOL     OW15952   0.541   4.280   2.206
 5018SOL    HW115953   0.490   4.361   2.237
 5018SOL    HW215954   0.499   4.198   2.246
 5019SOL     OW15955   1.267   4.877   6.573
 5019SOL    HW115956   1.170   4.873   6.599
 5019SOL    HW215957   1.275   4.911   6.479
 5020SOL     OW15958   4.993   6.794   6.110
 5020SOL    HW115959   4.953   6.810   6.020
 5020SOL    HW215960   5.074   6.736   6.101
 5021SOL     OW15961   1.479   1.899   6.110
 5021SOL    HW115962   1.511   1.860   6.197
 5021SOL    HW215963   1.509   1.841   6.034
 5022SOL     OW15964   1.183   1.004   0.717
 5022SOL    HW115965   1.174   1.103   0.729
 5022SOL    HW215966   1.241   0.985   0.637
 5023SOL     OW15967   6.407   3.472   0.971
 5023SOL    HW115968   6.309   3.492   0.976
 5023SOL    HW215969   6.428   3.432   0.881
 5024SOL     OW15970   6.049   5.937   2.699
 5024SOL    HW115971   6.115   5.888   2.642
 5024SOL    HW215972   6.033   5.885   2.783
 5025SOL     OW15973   3.825   2.004   2.203
 5025SOL    HW115974   3.828   2.103   2.206
 5025SOL    HW215975   3.730   1.973   2.203
 5026SOL     OW15976   6.341   6.054   6.293
 5026SOL    HW115977   6.364   6.093   6.204
 5026SOL    HW215978   6.397   6.097   6.364
 5027SOL     OW15979   0.905   6.573   2.024
 5027SOL    HW115980   0.812   6.538   2.010
 5027SOL    HW215981   0.968   6.495   2.032
 5028SOL     OW15982   0.474   0.021   2.986
 5028SOL    HW115983   0.446   7.021   3.080
 5028SOL    HW215984   0.570   0.049   2.985
 5029SOL     OW15985   0.407   2.936   3.103
 5029SOL    HW115986   0.440   2.990   3.025
 5029SOL    HW215987   0.447   2.971   3.187
 5030SOL     OW15988   6.309   0.523   6.449
 5030SOL    HW115989   6.323   0.606   6.395
 5030SOL    HW215990   6.398   0.483   6.472
 5031SOL     OW15991   6.078   0.843   4.581
 5031SOL    HW115992   6.054   0.927   4.533
 5031SOL    HW215993   6.057   0.852   4.678
 5032SOL     OW15994   1.395   3.364   0.866
 5032SOL    HW115995   1.459   3.441   0.871
 5032SOL    HW215996   1.427   3.298   0.798
 5033SOL     OW15997   3.026   6.560   6.560
 5033SOL    HW115998   3.042   6.574   6.462
 5033SOL    HW215999   3.089   6.490   6.594
 5034SOL     OW16000   5.910   1.248   2.762
 5034SOL    HW116001   5.839   1.273   2.696
 5034SOL    HW216002   5.873   1.181   2.826
 5035SOL     OW16003   0.157   4.210   0.322
 5035SOL    HW116004   0.083   4.152   0.356
 5035SOL    HW216005   0.243   4.159   0.326
 5036SOL     OW16006   0.372   5.008   0.177
 5036SOL    HW116007   0.393   5.055   0.091
 5036SOL    HW216008   0.379   5.072   0.253
 5037SOL     OW16009   5.330   2.370   2.951
 5037SOL    HW116010   5.379   2.364   3.038
 5037SOL    HW216011   5.234   2.346   2.965
 5038SOL     OW16012   2.169   4.006   6.395
 5038SOL    HW116013   2.233   3.932   6.376
 5038SOL    HW216014   2.203   4.091   6.354
 5039SOL     OW16015   3.164   3.747   5.371
 5039SOL    HW116016   3.142   3.825   5.430
 5039SOL    HW216017   3.236   3.692   5.414
 5040SOL     OW16018   2.068   4.894   5.995
 5040SOL    HW116019   2.120   4.911   5.912
 5040SOL    HW216020   2.021   4.978   6.022
 5041SOL     OW16021   1.446   2.001   1.457
 5041SOL    HW116022   1.387   1.976   1.380
 5041SOL    HW216023   1.505   1.924   1.480
 5042SOL     OW16024   6.160   3.170   0.901
 5042SOL    HW116025   6.079   3.122   0.934
 5042SOL    HW216026   6.233   3.163   0.968
 5043SOL     OW16027   2.779   1.266   5.705
 5043SOL    HW116028   2.681   1.245   5.699
 5043SOL    HW216029   2.791   1.365   5.715
 5044SOL     OW16030   6.920   6.208   2.363
 5044SOL    HW116031   6.906   6.302   2.332
 5044SOL    HW216032   6.941   6.208   2.461
 5045SOL     OW16033   6.201   3.034   0.242
 5045SOL    HW116034   6.216   2.941   0.277
 5045SOL    HW216035   6.287   3.069   0.204
 5046SOL     OW16036   3.482   4.184   3.918
 5046SOL    HW116037   3.482   4.278   3.953
 5046SOL    HW216038   3.529   4.124   3.983
 5047SOL     OW16039   0.434   3.328   2.364
 5047SOL    HW116040   0.340   3.354   2.344
 5047SOL    HW216041   0.484   3.408   2.396
 5048SOL     OW16042   0.529   1.052   2.044
 5048SOL    HW116043   0.440   1.065   1.998
 5048SOL    HW216044   0.601   1.048   1.975
 5049SOL     OW16045   6.370   2.272   4.727
 5049SOL    HW116046   6.319   2.356   4.750
 5049SOL    HW216047   6.468   2.290   4.733
 5050SOL     OW16048   1.127   0.796   2.198
 5050SOL    HW116049   1.182   0.761   2.274
 5050SOL    HW216050   1.185   0.850   2.136
 5051SOL     OW16051   4.223   3.465   0.834
 5051SOL    HW116052   4.146   3.505   0.884
 5051SOL    HW216053   4.191   3.432   0.745
 5052SOL     OW16054   2.424   5.834   6.114
 5052SOL    HW116055   2.521   5.854   6.129
 5052SOL    HW216056   2.379   5.816   6.201
 5053SOL     OW16057   2.105   3.793   3.760
 5053SOL    HW116058   2.107   3.814   3.663
 5053SOL    HW216059   2.109   3.878   3.813
 5054SOL     OW16060   3.699   5.994   5.209
 5054SOL    HW116061   3.640   6.035   5.278
 5054SOL    HW216062   3.741   6.067   5.153
 5055SOL     OW16063   2.146   6.895   5.540
 5055SOL    HW116064   2.206   6.956   5.488
 5055SOL    HW216065   2.175   6.800   5.527
 5056SOL     OW16066   6.312   4.054   0.226
 5056SOL    HW116067   6.385   4.100   0.276
 5056SOL    HW216068   6.338   3.959   0.208
 5057SOL     OW16069   6.827   5.668   5.256
 5057SOL    HW116070   6.845   5.743   5.193
 5057SOL    HW216071   6.741   5.623   5.233
 5058SOL     OW16072   2.653   3.211   5.304
 5058SOL    HW116073   2.609   3.128   5.272
 5058SOL    HW216074   2.753   3.199   5.303
 5059SOL     OW16075   5.541   3.092   3.176
 5059SOL    HW116076   5.547   3.043   3.263
 5059SOL    HW216077   5.536   3.026   3.101
 5060SOL     OW16078   0.306   2.466   5.630
 5060SOL    HW116079   0.228   2.459   5.692
 5060SOL    HW216080   0.309   2.558   5.591
 5061SOL     OW16081   3.653   3.275   3.250
 5061SOL    HW116082   3.645   3.185   3.293
 5061SOL    HW216083   3.722   3.271   3.177
 5062SOL     OW16084   5.749   0.591   3.128
 5062SOL    HW116085   5.679   0.616   3.194
 5062SOL    HW216086   5.827   0.654   3.137
 5063SOL     OW16087   1.341   0.279   2.344
 5063SOL    HW116088   1.246   0.306   2.334
 5063SOL    HW216089   1.347   0.179   2.345
 5064SOL     OW16090   4.313   4.030   1.709
 5064SOL    HW116091   4.372   4.099   1.752
 5064SOL    HW216092   4.295   4.055   1.614
 5065SOL     OW16093   1.102   1.741   3.252
 5065SOL    HW116094   1.136   1.835   3.253
 5065SOL    HW216095   1.179   1.678   3.267
 5066SOL     OW16096   3.771   4.456   0.741
 5066SOL    HW116097   3.851   4.514   0.748
 5066SOL    HW216098   3.712   4.470   0.820
 5067SOL     OW16099   3.238   1.107   2.447
 5067SOL    HW116100   3.279   1.016   2.458
 5067SOL    HW216101   3.275   1.169   2.516
 5068SOL     OW16102   2.976   4.921   0.281
 5068SOL    HW116103   3.039   4.844   0.294
 5068SOL    HW216104   3.029   5.003   0.258
 5069SOL     OW16105   1.947   2.522   5.627
 5069SOL    HW116106   1.870   2.463   5.606
 5069SOL    HW216107   1.978   2.505   5.721
 5070SOL     OW16108   4.993   4.719   4.324
 5070SOL    HW116109   5.021   4.718   4.420
 5070SOL    HW216110   5.068   4.753   4.268
 5071SOL     OW16111   4.043   1.841   3.698
 5071SOL    HW116112   4.014   1.838   3.793
 5071SOL    HW216113   3.992   1.911   3.648
 5072SOL     OW16114   1.114   0.702   1.459
 5072SOL    HW116115   1.179   0.778   1.468
 5072SOL    HW216116   1.123   0.641   1.537
 5073SOL     OW16117   1.657   4.283   0.828
 5073SOL    HW116118   1.660   4.187   0.801
 5073SOL    HW216119   1.729   4.301   0.895
 5074SOL     OW16120   3.035   2.203   1.811
 5074SOL    HW116121   2.970   2.266   1.854
 5074SOL    HW216122   3.097   2.167   1.880
 5075SOL     OW16123   1.452   2.145   6.013
 5075SOL    HW116124   1.451   2.052   6.051
 5075SOL    HW216125   1.369   2.160   5.959
 5076SOL     OW16126   5.547   0.240   1.107
 5076SOL    HW116127   5.481   0.165   1.101
 5076SOL    HW216128   5.623   0.222   1.044
 5077SOL     OW16129   1.707   4.276   5.835
 5077SOL    HW116130   1.773   4.338   5.793
 5077SOL    HW216131   1.718   4.276   5.934
 5078SOL     OW16132   0.466   0.946   4.283
 5078SOL    HW116133   0.494   0.853   4.308
 5078SOL    HW216134   0.507   0.971   4.195
 5079SOL     OW16135   2.080   2.801   4.732
 5079SOL    HW116136   2.049   2.722   4.785
 5079SOL    HW216137   2.005   2.866   4.722
 5080SOL     OW16138   6.164   6.396   5.665
 5080SOL    HW116139   6.085   6.341   5.694
 5080SOL    HW216140   6.212   6.348   5.591
 5081SOL     OW16141   2.395   3.766   6.020
 5081SOL    HW116142   2.465   3.833   5.994
 5081SOL    HW216143   2.391   3.693   5.952
 5082SOL     OW16144   4.875   6.309   1.422
 5082SOL    HW116145   4.838   6.337   1.333
 5082SOL    HW216146   4.811   6.335   1.494
 5083SOL     OW16147   2.561   0.546   2.492
 5083SOL    HW116148   2.585   0.579   2.400
 5083SOL    HW216149   2.513   0.618   2.542
 5084SOL     OW16150   1.057   4.727   3.670
 5084SOL    HW116151   1.066   4.777   3.584
 5084SOL    HW216152   1.033   4.631   3.650
 5085SOL     OW16153   6.453   2.449   5.927
 5085SOL    HW116154   6.544   2.427   5.963
 5085SOL    HW216155   6.462   2.489   5.836
 5086SOL     OW16156   1.758   5.292   2.852
 5086SOL    HW116157   1.835   5.268   2.911
 5086SOL    HW216158   1.718   5.209   2.814
 5087SOL     OW16159   1.073   5.212   1.999
 5087SOL    HW116160   1.109   5.119   1.998
 5087SOL    HW216161   0.983   5.212   2.043
 5088SOL     OW16162   6.002   6.896   3.960
 5088SOL    HW116163   6.007   6.934   3.868
 5088SOL    HW216164   6.090   6.854   3.984
 5089SOL     OW16165   6.348   4.080   3.741
 5089SOL    HW116166   6.315   4.068   3.835
 5089SOL    HW216167   6.402   4.164   3.736
 5090SOL     OW16168   1.886   3.397   2.561
 5090SOL    HW116169   1.975   3.412   2.517
 5090SOL    HW216170   1.863   3.475   2.618
 5091SOL     OW16171   6.788   1.351   1.383
 5091SOL    HW116172   6.750   1.401   1.460
 5091SOL    HW216173   6.714   1.328   1.319
 5092SOL     OW16174   3.464   3.494   3.195
 5092SOL    HW116175   3.441   3.554   3.272
 5092SOL    HW216176   3.545   3.440   3.218
 5093SOL     OW16177   3.270   0.803   0.617
 5093SOL    HW116178   3.227   0.743   0.550
 5093SOL    HW216179   3.369   0.787   0.618
 5094SOL     OW16180   2.404   5.417   6.326
 5094SOL    HW116181   2.305   5.403   6.333
 5094SOL    HW216182   2.428   5.441   6.232
 5095SOL     OW16183   6.684   2.365   2.906
 5095SOL    HW116184   6.709   2.324   2.819
 5095SOL    HW216185   6.644   2.296   2.966
 5096SOL     OW16186   4.283   5.041   6.367
 5096SOL    HW116187   4.204   5.058   6.426
 5096SOL    HW216188   4.252   5.028   6.273
 5097SOL     OW16189   0.763   0.225   6.467
 5097SOL    HW116190   0.765   0.203   6.565
 5097SOL    HW216191   0.763   0.140   6.414
 5098SOL     OW16192   2.678   0.730   1.942
 5098SOL    HW116193   2.759   0.750   1.996
 5098SOL    HW216194   2.679   0.634   1.914
 5099SOL     OW16195   0.537   0.276   1.114
 5099SOL    HW116196   0.520   0.178   1.114
 5099SOL    HW216197   0.628   0.294   1.078
 5100SOL     OW16198   3.091   5.820   4.393
 5100SOL    HW116199   2.994   5.800   4.406
 5100SOL    HW216200   3.107   5.845   4.297
 5101SOL     OW16201   4.231   0.231   6.669
 5101SOL    HW116202   4.290   0.311   6.678
 5101SOL    HW216203   4.158   0.250   6.604
 5102SOL     OW16204   5.389   6.628   3.768
 5102SOL    HW116205   5.405   6.547   3.825
 5102SOL    HW216206   5.375   6.707   3.827
 5103SOL     OW16207   0.199   0.739   4.212
 5103SOL    HW116208   0.131   0.678   4.253
 5103SOL    HW216209   0.154   0.797   4.143
 5104SOL     OW16210   1.788   5.998   2.037
 5104SOL    HW116211   1.724   6.074   2.047
 5104SOL    HW216212   1.877   6.024   2.074
 5105SOL     OW16213   2.613   2.201   0.238
 5105SOL    HW116214   2.596   2.150   0.154
 5105SOL    HW216215   2.526   2.222   0.283
 5106SOL     OW16216   4.143   1.797   0.322
 5106SOL    HW116217   4.237   1.793   0.289
 5106SOL    HW216218   4.106   1.889   0.307
 5107SOL     OW16219   4.157   1.869   1.637
 5107SOL    HW116220   4.169   1.892   1.734
 5107SOL    HW216221   4.229   1.913   1.583
 5108SOL     OW16222   3.973   3.823   4.702
 5108SOL    HW116223   4.010   3.734   4.730
 5108SOL    HW216224   3.946   3.874   4.784
 5109SOL     OW16225   0.768   2.293   6.690
 5109SOL    HW116226   0.765   2.196   6.668
 5109SOL    HW216227   0.803   2.306   6.782
 5110SOL     OW16228   0.714   0.569   6.118
 5110SOL    HW116229   0.790   0.592   6.179
 5110SOL    HW216230   0.722   0.473   6.091
 5111SOL     OW16231   1.341   0.287   4.506
 5111SOL    HW116232   1.247   0.284   4.471
 5111SOL    HW216233   1.339   0.280   4.606
 5112SOL     OW16234   1.445   6.845   3.317
 5112SOL    HW116235   1.528   6.840   3.261
 5112SOL    HW216236   1.443   6.768   3.381
 5113SOL     OW16237   1.647   6.436   1.137
 5113SOL    HW116238   1.726   6.460   1.193
 5113SOL    HW216239   1.659   6.473   1.045
 5114SOL     OW16240   4.057   0.550   6.848
 5114SOL    HW116241   4.152   0.558   6.818
 5114SOL    HW216242   4.037   0.454   6.868
 5115SOL     OW16243   1.600   4.982   3.873
 5115SOL    HW116244   1.547   4.959   3.955
 5115SOL    HW216245   1.681   4.922   3.869
 5116SOL     OW16246   0.911   6.726   6.661
 5116SOL    HW116247   0.869   6.745   6.750
 5116SOL    HW216248   0.895   6.630   6.636
 5117SOL     OW16249   1.643   4.137   4.332
 5117SOL    HW116250   1.658   4.229   4.367
 5117SOL    HW216251   1.663   4.070   4.404
 5118SOL     OW16252   5.157   1.124   6.738
 5118SOL    HW116253   5.199   1.070   6.811
 5118SOL    HW216254   5.108   1.063   6.676
 5119SOL     OW16255   5.382   0.729   2.457
 5119SOL    HW116256   5.352   0.814   2.500
 5119SOL    HW216257   5.427   0.670   2.525
 5120SOL     OW16258   3.969   0.397   4.153
 5120SOL    HW116259   3.981   0.479   4.209
 5120SOL    HW216260   4.012   0.411   4.064
 5121SOL     OW16261   3.126   2.501   6.853
 5121SOL    HW116262   3.044   2.504   6.909
 5121SOL    HW216263   3.142   2.406   6.823
 5122SOL     OW16264   3.410   6.174   3.819
 5122SOL    HW116265   3.396   6.257   3.873
 5122SOL    HW216266   3.504   6.173   3.784
 5123SOL     OW16267   4.152   2.200   4.284
 5123SOL    HW116268   4.077   2.258   4.253
 5123SOL    HW216269   4.143   2.109   4.242
 5124SOL     OW16270   2.171   5.329   4.734
 5124SOL    HW116271   2.138   5.397   4.667
 5124SOL    HW216272   2.193   5.375   4.820
 5125SOL     OW16273   6.525   3.149   3.735
 5125SOL    HW116274   6.542   3.245   3.712
 5125SOL    HW216275   6.437   3.120   3.698
 5126SOL     OW16276   5.723   5.310   5.706
 5126SOL    HW116277   5.767   5.242   5.647
 5126SOL    HW216278   5.792   5.373   5.742
 5127SOL     OW16279   0.840   4.052   0.013
 5127SOL    HW116280   0.836   4.088   6.941
 5127SOL    HW216281   0.750   4.020   0.040
 5128SOL     OW16282   6.823   0.557   6.060
 5128SOL    HW116283   6.823   0.534   6.157
 5128SOL    HW216284   6.791   0.651   6.048
 5129SOL     OW16285   6.495   0.058   2.362
 5129SOL    HW116286   6.545   0.141   2.336
 5129SOL    HW216287   6.434   0.030   2.288
 5130SOL     OW16288   0.146   5.424   4.016
 5130SOL    HW116289   0.138   5.490   3.941
 5130SOL    HW216290   0.146   5.472   4.103
 5131SOL     OW16291   2.268   4.887   4.209
 5131SOL    HW116292   2.300   4.812   4.267
 5131SOL    HW216293   2.287   4.866   4.113
 5132SOL     OW16294   3.498   2.440   6.827
 5132SOL    HW116295   3.562   2.508   6.863
 5132SOL    HW216296   3.457   2.389   6.902
 5133SOL     OW16297   2.397   5.654   0.243
 5133SOL    HW116298   2.326   5.663   0.313
 5133SOL    HW216299   2.428   5.559   0.238
 5134SOL     OW16300   0.597   3.082   2.881
 5134SOL    HW116301   0.507   3.115   2.852
 5134SOL    HW216302   0.651   3.055   2.801
 5135SOL     OW16303   5.649   3.234   4.802
 5135SOL    HW116304   5.635   3.216   4.900
 5135SOL    HW216305   5.577   3.190   4.750
 5136SOL     OW16306   4.566   0.738   5.885
 5136SOL    HW116307   4.517   0.667   5.935
 5136SOL    HW216308   4.662   0.712   5.875
 5137SOL     OW16309   4.901   2.934   5.305
 5137SOL    HW116310   4.945   2.893   5.386
 5137SOL    HW216311   4.809   2.963   5.329
 5138SOL     OW16312   3.398   3.043   5.392
 5138SOL    HW116313   3.432   3.134   5.369
 5138SOL    HW216314   3.301   3.036   5.367
 5139SOL     OW16315   1.350   0.839   3.042
 5139SOL    HW116316   1.263   0.792   3.025
 5139SOL    HW216317   1.425   0.773   3.034
 5140SOL     OW16318   4.141   2.618   6.891
 5140SOL    HW116319   4.172   2.713   6.891
 5140SOL    HW216320   4.075   2.604   6.817
 5141SOL     OW16321   6.791   3.534   0.803
 5141SOL    HW116322   6.855   3.559   0.730
 5141SOL    HW216323   6.796   3.436   0.819
 5142SOL     OW16324   6.199   6.822   3.498
 5142SOL    HW116325   6.161   6.857   3.412
 5142SOL    HW216326   6.299   6.817   3.490
 5143SOL     OW16327   6.409   4.364   3.756
 5143SOL    HW116328   6.378   4.455   3.783
 5143SOL    HW216329   6.486   4.372   3.694
 5144SOL     OW16330   0.608   4.702   6.034
 5144SOL    HW116331   0.592   4.646   5.953
 5144SOL    HW216332   0.701   4.685   6.068
 5145SOL     OW16333   3.094   5.004   5.938
 5145SOL    HW116334   3.037   4.984   6.018
 5145SOL    HW216335   3.035   5.024   5.860
 5146SOL     OW16336   3.735   3.985   5.575
 5146SOL    HW116337   3.758   3.995   5.479
 5146SOL    HW216338   3.714   4.074   5.615
 5147SOL     OW16339   0.148   5.292   2.822
 5147SOL    HW116340   0.142   5.390   2.803
 5147SOL    HW216341   0.115   5.274   2.915
 5148SOL     OW16342   6.714   6.197   1.429
 5148SOL    HW116343   6.671   6.193   1.339
 5148SOL    HW216344   6.799   6.250   1.423
 5149SOL     OW16345   6.224   5.507   2.985
 5149SOL    HW116346   6.309   5.458   2.965
 5149SOL    HW216347   6.158   5.443   3.026
 5150SOL     OW16348   2.519   5.663   2.942
 5150SOL    HW116349   2.572   5.739   2.979
 5150SOL    HW216350   2.500   5.597   3.015
 5151SOL     OW16351   6.241   2.403   1.035
 5151SOL    HW116352   6.288   2.328   1.081
 5151SOL    HW216353   6.143   2.386   1.035
 5152SOL     OW16354   2.037   4.542   6.852
 5152SOL    HW116355   1.986   4.521   6.935
 5152SOL    HW216356   2.013   4.478   6.780
 5153SOL     OW16357   1.786   0.837   0.160
 5153SOL    HW116358   1.733   0.809   0.240
 5153SOL    HW216359   1.881   0.807   0.171
 5154SOL     OW16360   1.040   2.788   6.266
 5154SOL    HW116361   0.942   2.806   6.259
 5154SOL    HW216362   1.073   2.819   6.355
 5155SOL     OW16363   4.839   0.237   2.011
 5155SOL    HW116364   4.852   0.268   1.917
 5155SOL    HW216365   4.861   0.311   2.074
 5156SOL     OW16366   5.371   3.715   6.101
 5156SOL    HW116367   5.323   3.650   6.160
 5156SOL    HW216368   5.418   3.783   6.158
 5157SOL     OW16369   3.715   2.101   3.321
 5157SOL    HW116370   3.788   2.166   3.297
 5157SOL    HW216371   3.668   2.133   3.404
 5158SOL     OW16372   3.420   1.336   1.910
 5158SOL    HW116373   3.476   1.351   1.990
 5158SOL    HW216374   3.471   1.362   1.828
 5159SOL     OW16375   6.821   3.642   4.489
 5159SOL    HW116376   6.893   3.708   4.512
 5159SOL    HW216377   6.786   3.661   4.398
 5160SOL     OW16378   0.060   5.241   3.064
 5160SOL    HW116379   0.105   5.156   3.087
 5160SOL    HW216380   0.093   5.314   3.123
 5161SOL     OW16381   1.517   3.838   5.493
 5161SOL    HW116382   1.594   3.891   5.530
 5161SOL    HW216383   1.488   3.771   5.561
 5162SOL     OW16384   1.285   5.105   3.102
 5162SOL    HW116385   1.284   5.196   3.142
 5162SOL    HW216386   1.306   5.112   3.004
 5163SOL     OW16387   3.634   6.557   0.138
 5163SOL    HW116388   3.538   6.531   0.136
 5163SOL    HW216389   3.655   6.602   0.225
 5164SOL     OW16390   3.976   2.552   0.064
 5164SOL    HW116391   4.053   2.567   0.002
 5164SOL    HW216392   3.973   2.625   0.132
 5165SOL     OW16393   6.080   4.507   5.929
 5165SOL    HW116394   6.083   4.408   5.939
 5165SOL    HW216395   6.135   4.549   6.002
 5166SOL     OW16396   0.656   5.273   2.483
 5166SOL    HW116397   0.621   5.181   2.495
 5166SOL    HW216398   0.751   5.270   2.453
 5167SOL     OW16399   6.552   6.367   6.626
 5167SOL    HW116400   6.609   6.313   6.688
 5167SOL    HW216401   6.598   6.453   6.605
 5168SOL     OW16402   5.611   4.192   2.172
 5168SOL    HW116403   5.660   4.208   2.086
 5168SOL    HW216404   5.585   4.096   2.178
 5169SOL     OW16405   3.855   2.074   4.322
 5169SOL    HW116406   3.942   2.038   4.355
 5169SOL    HW216407   3.870   2.134   4.244
 5170SOL     OW16408   0.642   4.347   5.641
 5170SOL    HW116409   0.660   4.301   5.554
 5170SOL    HW216410   0.727   4.386   5.677
 5171SOL     OW16411   1.277   5.781   4.336
 5171SOL    HW116412   1.309   5.797   4.243
 5171SOL    HW216413   1.216   5.855   4.364
 5172SOL     OW16414   1.125   2.195   2.273
 5172SOL    HW116415   1.174   2.263   2.219
 5172SOL    HW216416   1.087   2.125   2.213
 5173SOL     OW16417   4.901   4.743   5.895
 5173SOL    HW116418   4.830   4.688   5.849
 5173SOL    HW216419   4.975   4.683   5.924
 5174SOL     OW16420   2.366   5.032   3.525
 5174SOL    HW116421   2.270   5.045   3.550
 5174SOL    HW216422   2.399   5.113   3.478
 5175SOL     OW16423   2.428   3.356   0.199
 5175SOL    HW116424   2.443   3.449   0.167
 5175SOL    HW216425   2.334   3.348   0.234
 5176SOL     OW16426   4.552   3.120   6.658
 5176SOL    HW116427   4.581   3.194   6.719
 5176SOL    HW216428   4.614   3.117   6.579
 5177SOL     OW16429   4.780   0.828   0.172
 5177SOL    HW116430   4.827   0.743   0.196
 5177SOL    HW216431   4.843   0.905   0.183
 5178SOL     OW16432   1.428   4.257   2.324
 5178SOL    HW116433   1.337   4.270   2.284
 5178SOL    HW216434   1.422   4.189   2.398
 5179SOL     OW16435   3.798   5.959   3.709
 5179SOL    HW116436   3.897   5.972   3.713
 5179SOL    HW216437   3.767   5.920   3.796
 5180SOL     OW16438   2.716   2.706   1.310
 5180SOL    HW116439   2.762   2.730   1.225
 5180SOL    HW216440   2.642   2.642   1.291
 5181SOL     OW16441   6.060   1.470   2.302
 5181SOL    HW116442   5.992   1.454   2.230
 5181SOL    HW216443   6.080   1.383   2.348
 5182SOL     OW16444   4.033   4.322   1.239
 5182SOL    HW116445   4.074   4.398   1.289
 5182SOL    HW216446   3.955   4.355   1.187
 5183SOL     OW16447   4.615   1.779   3.227
 5183SOL    HW116448   4.651   1.698   3.182
 5183SOL    HW216449   4.577   1.755   3.316
 5184SOL     OW16450   0.397   1.915   4.366
 5184SOL    HW116451   0.338   1.912   4.285
 5184SOL    HW216452   0.471   1.849   4.355
 5185SOL     OW16453   5.455   1.024   2.403
 5185SOL    HW116454   5.509   1.043   2.321
 5185SOL    HW216455   5.359   1.015   2.378
 5186SOL     OW16456   6.744   3.226   1.293
 5186SOL    HW116457   6.738   3.170   1.210
 5186SOL    HW216458   6.686   3.186   1.365
 5187SOL     OW16459   0.796   6.869   4.101
 5187SOL    HW116460   0.781   6.830   4.010
 5187SOL    HW216461   0.708   6.893   4.142
 5188SOL     OW16462   0.725   5.517   1.002
 5188SOL    HW116463   0.679   5.572   0.932
 5188SOL    HW216464   0.672   5.519   1.086
 5189SOL     OW16465   4.299   4.272   0.651
 5189SOL    HW116466   4.238   4.293   0.727
 5189SOL    HW216467   4.326   4.176   0.655
 5190SOL     OW16468   0.314   2.465   4.008
 5190SOL    HW116469   0.338   2.369   4.019
 5190SOL    HW216470   0.258   2.495   4.085
 5191SOL     OW16471   4.282   0.461   1.882
 5191SOL    HW116472   4.202   0.443   1.824
 5191SOL    HW216473   4.349   0.388   1.869
 5192SOL     OW16474   2.972   5.524   2.998
 5192SOL    HW116475   3.012   5.455   2.938
 5192SOL    HW216476   2.996   5.503   3.093
 5193SOL     OW16477   5.026   4.352   4.697
 5193SOL    HW116478   4.944   4.377   4.749
 5193SOL    HW216479   5.036   4.253   4.698
 5194SOL     OW16480   4.614   2.184   0.447
 5194SOL    HW116481   4.551   2.235   0.389
 5194SOL    HW216482   4.590   2.199   0.543
 5195SOL     OW16483   5.755   6.538   4.549
 5195SOL    HW116484   5.823   6.572   4.613
 5195SOL    HW216485   5.718   6.451   4.581
 5196SOL     OW16486   3.492   4.745   0.701
 5196SOL    HW116487   3.467   4.795   0.618
 5196SOL    HW216488   3.458   4.794   0.781
 5197SOL     OW16489   1.820   5.430   5.080
 5197SOL    HW116490   1.754   5.380   5.137
 5197SOL    HW216491   1.908   5.433   5.127
 5198SOL     OW16492   4.224   6.554   2.988
 5198SOL    HW116493   4.159   6.506   3.048
 5198SOL    HW216494   4.270   6.626   3.041
 5199SOL     OW16495   1.482   5.719   0.373
 5199SOL    HW116496   1.454   5.670   0.456
 5199SOL    HW216497   1.509   5.812   0.396
 5200SOL     OW16498   1.321   2.423   5.076
 5200SOL    HW116499   1.381   2.353   5.116
 5200SOL    HW216500   1.361   2.514   5.092
 5201SOL     OW16501   6.796   6.603   3.882
 5201SOL    HW116502   6.713   6.592   3.935
 5201SOL    HW216503   6.824   6.699   3.882
 5202SOL     OW16504   5.931   4.041   5.515
 5202SOL    HW116505   5.962   3.946   5.517
 5202SOL    HW216506   5.864   4.053   5.442
 5203SOL     OW16507   2.465   1.585   6.547
 5203SOL    HW116508   2.494   1.506   6.600
 5203SOL    HW216509   2.544   1.643   6.527
 5204SOL     OW16510   4.348   6.521   6.809
 5204SOL    HW116511   4.329   6.562   6.720
 5204SOL    HW216512   4.422   6.571   6.854
 5205SOL     OW16513   0.571   5.698   0.854
 5205SOL    HW116514   0.536   5.787   0.884
 5205SOL    HW216515   0.507   5.657   0.790
 5206SOL     OW16516   0.770   5.116   0.459
 5206SOL    HW116517   0.709   5.070   0.394
 5206SOL    HW216518   0.716   5.158   0.532
 5207SOL     OW16519   1.172   6.712   3.800
 5207SOL    HW116520   1.106   6.760   3.743
 5207SOL    HW216521   1.130   6.694   3.890
 5208SOL     OW16522   5.123   2.275   6.847
 5208SOL    HW116523   5.199   2.339   6.837
 5208SOL    HW216524   5.065   2.304   6.923
 5209SOL     OW16525   5.618   0.450   2.260
 5209SOL    HW116526   5.651   0.371   2.311
 5209SOL    HW216527   5.663   0.453   2.171
 5210SOL     OW16528   4.642   2.991   0.291
 5210SOL    HW116529   4.639   3.034   0.381
 5210SOL    HW216530   4.716   2.924   0.288
 5211SOL     OW16531   4.127   2.177   6.112
 5211SOL    HW116532   4.128   2.175   6.012
 5211SOL    HW216533   4.168   2.263   6.144
 5212SOL     OW16534   0.465   2.656   0.639
 5212SOL    HW116535   0.546   2.714   0.634
 5212SOL    HW216536   0.431   2.655   0.733
 5213SOL     OW16537   4.221   4.002   0.210
 5213SOL    HW116538   4.201   3.968   0.118
 5213SOL    HW216539   4.301   4.062   0.207
 5214SOL     OW16540   4.976   2.101   6.403
 5214SOL    HW116541   5.073   2.080   6.390
 5214SOL    HW216542   4.965   2.152   6.488
 5215SOL     OW16543   1.025   4.855   3.920
 5215SOL    HW116544   1.020   4.818   3.827
 5215SOL    HW216545   1.101   4.813   3.969
 5216SOL     OW16546   4.392   4.801   1.506
 5216SOL    HW116547   4.414   4.721   1.450
 5216SOL    HW216548   4.463   4.815   1.574
 5217SOL     OW16549   3.553   5.320   4.068
 5217SOL    HW116550   3.514   5.398   4.118
 5217SOL    HW216551   3.479   5.266   4.029
 5218SOL     OW16552   0.988   0.953   1.685
 5218SOL    HW116553   1.047   0.886   1.731
 5218SOL    HW216554   0.901   0.910   1.661
 5219SOL     OW16555   3.939   1.316   5.086
 5219SOL    HW116556   3.888   1.230   5.083
 5219SOL    HW216557   3.884   1.385   5.134
 5220SOL     OW16558   1.492   6.308   2.281
 5220SOL    HW116559   1.583   6.329   2.315
 5220SOL    HW216560   1.426   6.375   2.316
 5221SOL     OW16561   6.194   1.595   3.233
 5221SOL    HW116562   6.117   1.574   3.293
 5221SOL    HW216563   6.255   1.516   3.227
 5222SOL     OW16564   4.165   6.617   2.743
 5222SOL    HW116565   4.177   6.597   2.840
 5222SOL    HW216566   4.075   6.584   2.714
 5223SOL     OW16567   6.402   2.818   0.560
 5223SOL    HW116568   6.381   2.747   0.626
 5223SOL    HW216569   6.328   2.884   0.557
 5224SOL     OW16570   6.372   3.007   4.540
 5224SOL    HW116571   6.291   3.025   4.595
 5224SOL    HW216572   6.348   2.947   4.463
 5225SOL     OW16573   0.222   0.693   3.921
 5225SOL    HW116574   0.227   0.618   3.987
 5225SOL    HW216575   0.163   0.765   3.957
 5226SOL     OW16576   6.903   6.895   5.070
 5226SOL    HW116577   6.874   6.918   4.977
 5226SOL    HW216578   6.894   6.796   5.084
 5227SOL     OW16579   0.245   3.264   5.615
 5227SOL    HW116580   0.304   3.203   5.561
 5227SOL    HW216581   0.294   3.348   5.636
 5228SOL     OW16582   6.640   2.586   0.552
 5228SOL    HW116583   6.650   2.679   0.589
 5228SOL    HW216584   6.628   2.591   0.453
 5229SOL     OW16585   2.447   6.241   0.374
 5229SOL    HW116586   2.389   6.314   0.410
 5229SOL    HW216587   2.389   6.163   0.347
 5230SOL     OW16588   0.370   5.869   2.033
 5230SOL    HW116589   0.399   5.964   2.023
 5230SOL    HW216590   0.426   5.824   2.103
 5231SOL     OW16591   4.772   2.411   4.670
 5231SOL    HW116592   4.679   2.380   4.650
 5231SOL    HW216593   4.829   2.331   4.692
 5232SOL     OW16594   1.846   3.600   6.112
 5232SOL    HW116595   1.886   3.682   6.154
 5232SOL    HW216596   1.917   3.548   6.066
 5233SOL     OW16597   4.273   1.283   2.336
 5233SOL    HW116598   4.353   1.223   2.342
 5233SOL    HW216599   4.293   1.371   2.378
 5234SOL     OW16600   2.758   1.990   6.154
 5234SOL    HW116601   2.814   1.931   6.096
 5234SOL    HW216602   2.672   1.944   6.175
 5235SOL     OW16603   1.708   2.597   0.865
 5235SOL    HW116604   1.642   2.668   0.887
 5235SOL    HW216605   1.797   2.620   0.905
 5236SOL     OW16606   4.748   5.119   1.716
 5236SOL    HW116607   4.796   5.205   1.734
 5236SOL    HW216608   4.762   5.056   1.793
 5237SOL     OW16609   1.411   0.977   4.950
 5237SOL    HW116610   1.415   0.905   5.019
 5237SOL    HW216611   1.439   0.940   4.862
 5238SOL     OW16612   0.695   4.631   0.344
 5238SOL    HW116613   0.776   4.633   0.402
 5238SOL    HW216614   0.613   4.644   0.401
 5239SOL     OW16615   3.387   2.909   4.987
 5239SOL    HW116616   3.437   2.859   5.057
 5239SOL    HW216617   3.316   2.849   4.948
 5240SOL     OW16618   3.232   2.487   5.557
 5240SOL    HW116619   3.169   2.564   5.555
 5240SOL    HW216620   3.187   2.408   5.597
 5241SOL     OW16621   0.559   5.320   4.538
 5241SOL    HW116622   0.492   5.273   4.596
 5241SOL    HW216623   0.515   5.399   4.494
 5242SOL     OW16624   6.295   6.703   0.266
 5242SOL    HW116625   6.265   6.698   0.361
 5242SOL    HW216626   6.289   6.613   0.224
 5243SOL     OW16627   1.767   5.669   1.563
 5243SOL    HW116628   1.845   5.680   1.625
 5243SOL    HW216629   1.708   5.750   1.570
 5244SOL     OW16630   2.957   5.222   0.000
 5244SOL    HW116631   2.990   5.229   6.927
 5244SOL    HW216632   2.858   5.235   0.002
 5245SOL     OW16633   4.436   4.327   0.232
 5245SOL    HW116634   4.350   4.314   0.181
 5245SOL    HW216635   4.486   4.405   0.193
 5246SOL     OW16636   6.149   3.420   1.810
 5246SOL    HW116637   6.075   3.387   1.752
 5246SOL    HW216638   6.221   3.459   1.753
 5247SOL     OW16639   1.855   0.603   6.436
 5247SOL    HW116640   1.850   0.698   6.406
 5247SOL    HW216641   1.864   0.543   6.356
 5248SOL     OW16642   5.652   1.771   3.088
 5248SOL    HW116643   5.636   1.744   3.183
 5248SOL    HW216644   5.629   1.867   3.076
 5249SOL     OW16645   0.841   5.298   6.271
 5249SOL    HW116646   0.792   5.294   6.358
 5249SOL    HW216647   0.780   5.268   6.198
 5250SOL     OW16648   2.242   5.815   6.728
 5250SOL    HW116649   2.175   5.845   6.660
 5250SOL    HW216650   2.334   5.845   6.700
 5251SOL     OW16651   0.341   3.519   0.155
 5251SOL    HW116652   0.320   3.600   0.100
 5251SOL    HW216653   0.400   3.457   0.103
 5252SOL     OW16654   1.905   6.614   0.651
 5252SOL    HW116655   1.846   6.534   0.638
 5252SOL    HW216656   1.911   6.636   0.748
 5253SOL     OW16657   6.059   4.749   4.704
 5253SOL    HW116658   6.145   4.784   4.740
 5253SOL    HW216659   5.998   4.725   4.780
 5254SOL     OW16660   4.643   0.666   2.914
 5254SOL    HW116661   4.672   0.575   2.882
 5254SOL    HW216662   4.683   0.736   2.855
 5255SOL     OW16663   5.375   1.760   5.144
 5255SOL    HW116664   5.379   1.663   5.167
 5255SOL    HW216665   5.406   1.773   5.050
 5256SOL     OW16666   4.255   1.695   3.519
 5256SOL    HW116667   4.233   1.775   3.574
 5256SOL    HW216668   4.171   1.645   3.496
 5257SOL     OW16669   5.225   0.144   1.893
 5257SOL    HW116670   5.160   0.177   1.962
 5257SOL    HW216671   5.201   0.181   1.804
 5258SOL     OW16672   5.929   3.148   1.752
 5258SOL    HW116673   5.903   3.199   1.834
 5258SOL    HW216674   5.869   3.174   1.677
 5259SOL     OW16675   5.074   6.275   2.363
 5259SOL    HW116676   5.152   6.242   2.417
 5259SOL    HW216677   5.088   6.372   2.341
 5260SOL     OW16678   4.616   3.412   0.477
 5260SOL    HW116679   4.522   3.402   0.509
 5260SOL    HW216680   4.668   3.329   0.497
 5261SOL     OW16681   0.441   3.743   6.675
 5261SOL    HW116682   0.442   3.650   6.713
 5261SOL    HW216683   0.514   3.796   6.717
 5262SOL     OW16684   2.794   0.997   3.375
 5262SOL    HW116685   2.878   0.948   3.355
 5262SOL    HW216686   2.784   1.008   3.474
 5263SOL     OW16687   2.359   1.482   3.922
 5263SOL    HW116688   2.376   1.471   3.824
 5263SOL    HW216689   2.306   1.404   3.956
 5264SOL     OW16690   6.891   2.606   2.350
 5264SOL    HW116691   6.793   2.601   2.373
 5264SOL    HW216692   6.902   2.589   2.252
 5265SOL     OW16693   6.351   4.003   4.071
 5265SOL    HW116694   6.374   4.077   4.134
 5265SOL    HW216695   6.434   3.971   4.025
 5266SOL     OW16696   3.211   5.474   0.907
 5266SOL    HW116697   3.116   5.450   0.888
 5266SOL    HW216698   3.272   5.422   0.847
 5267SOL     OW16699   5.479   3.296   5.433
 5267SOL    HW116700   5.557   3.249   5.474
 5267SOL    HW216701   5.452   3.249   5.349
 5268SOL     OW16702   5.577   0.997   6.748
 5268SOL    HW116703   5.641   0.961   6.680
 5268SOL    HW216704   5.626   1.021   6.831
 5269SOL     OW16705   1.580   6.142   3.075
 5269SOL    HW116706   1.632   6.070   3.029
 5269SOL    HW216707   1.626   6.166   3.161
 5270SOL     OW16708   6.226   1.010   1.353
 5270SOL    HW116709   6.136   1.050   1.335
 5270SOL    HW216710   6.215   0.914   1.379
 5271SOL     OW16711   6.271   5.799   5.463
 5271SOL    HW116712   6.346   5.743   5.429
 5271SOL    HW216713   6.245   5.867   5.394
 5272SOL     OW16714   2.995   5.527   2.139
 5272SOL    HW116715   3.065   5.456   2.133
 5272SOL    HW216716   2.909   5.492   2.102
 5273SOL     OW16717   6.903   2.956   3.773
 5273SOL    HW116718   6.862   2.994   3.856
 5273SOL    HW216719   6.850   2.983   3.693
 5274SOL     OW16720   6.700   6.650   2.771
 5274SOL    HW116721   6.726   6.730   2.716
 5274SOL    HW216722   6.712   6.671   2.868
 5275SOL     OW16723   3.670   2.203   1.406
 5275SOL    HW116724   3.655   2.120   1.351
 5275SOL    HW216725   3.667   2.180   1.503
 5276SOL     OW16726   2.157   0.355   1.125
 5276SOL    HW116727   2.176   0.276   1.183
 5276SOL    HW216728   2.113   0.324   1.041
 5277SOL     OW16729   1.447   1.377   2.359
 5277SOL    HW116730   1.495   1.438   2.295
 5277SOL    HW216731   1.348   1.387   2.346
 5278SOL     OW16732   6.055   6.963   3.704
 5278SOL    HW116733   6.095   0.031   3.685
 5278SOL    HW216734   6.106   6.893   3.654
 5279SOL     OW16735   2.027   4.967   6.437
 5279SOL    HW116736   2.067   4.886   6.479
 5279SOL    HW216737   2.095   5.009   6.375
 5280SOL     OW16738   2.227   6.271   4.907
 5280SOL    HW116739   2.186   6.263   4.998
 5280SOL    HW216740   2.322   6.300   4.917
 5281SOL     OW16741   6.902   2.704   2.861
 5281SOL    HW116742   6.905   2.641   2.783
 5281SOL    HW216743   6.991   2.748   2.872
 5282SOL     OW16744   2.861   1.855   3.589
 5282SOL    HW116745   2.799   1.795   3.640
 5282SOL    HW216746   2.945   1.868   3.642
 5283SOL     OW16747   4.338   6.898   1.192
 5283SOL    HW116748   4.309   6.868   1.283
 5283SOL    HW216749   4.427   6.943   1.198
 5284SOL     OW16750   5.013   3.947   3.329
 5284SOL    HW116751   4.992   3.849   3.333
 5284SOL    HW216752   5.075   3.965   3.253
 5285SOL     OW16753   2.649   4.978   3.868
 5285SOL    HW116754   2.733   4.934   3.899
 5285SOL    HW216755   2.612   5.035   3.942
 5286SOL     OW16756   1.666   4.635   0.242
 5286SOL    HW116757   1.621   4.676   0.321
 5286SOL    HW216758   1.762   4.617   0.265
 5287SOL     OW16759   2.336   6.517   0.837
 5287SOL    HW116760   2.365   6.425   0.810
 5287SOL    HW216761   2.399   6.552   0.907
 5288SOL     OW16762   3.446   0.305   2.007
 5288SOL    HW116763   3.470   0.369   1.934
 5288SOL    HW216764   3.346   0.293   2.010
 5289SOL     OW16765   1.764   4.880   6.025
 5289SOL    HW116766   1.800   4.885   6.119
 5289SOL    HW216767   1.799   4.798   5.980
 5290SOL     OW16768   1.525   5.389   5.321
 5290SOL    HW116769   1.537   5.401   5.420
 5290SOL    HW216770   1.576   5.310   5.290
 5291SOL     OW16771   2.276   5.059   6.309
 5291SOL    HW116772   2.318   5.032   6.395
 5291SOL    HW216773   2.345   5.059   6.236
 5292SOL     OW16774   5.922   3.152   6.798
 5292SOL    HW116775   5.963   3.093   6.867
 5292SOL    HW216776   5.886   3.095   6.724
 5293SOL     OW16777   0.481   0.399   5.011
 5293SOL    HW116778   0.476   0.491   4.972
 5293SOL    HW216779   0.570   0.360   4.992
 5294SOL     OW16780   4.594   3.391   5.697
 5294SOL    HW116781   4.684   3.362   5.664
 5294SOL    HW216782   4.592   3.490   5.705
 5295SOL     OW16783   5.931   0.755   2.851
 5295SOL    HW116784   6.026   0.746   2.821
 5295SOL    HW216785   5.929   0.766   2.950
 5296SOL     OW16786   2.323   5.360   0.220
 5296SOL    HW116787   2.267   5.374   0.139
 5296SOL    HW216788   2.365   5.270   0.217
 5297SOL     OW16789   2.108   2.196   1.959
 5297SOL    HW116790   2.148   2.175   2.048
 5297SOL    HW216791   2.169   2.258   1.909
 5298SOL     OW16792   0.995   5.572   1.029
 5298SOL    HW116793   1.051   5.496   1.064
 5298SOL    HW216794   0.900   5.541   1.020
 5299SOL     OW16795   2.781   2.494   0.484
 5299SOL    HW116796   2.799   2.589   0.457
 5299SOL    HW216797   2.820   2.478   0.574
 5300SOL     OW16798   0.633   5.782   2.722
 5300SOL    HW116799   0.632   5.764   2.820
 5300SOL    HW216800   0.644   5.696   2.672
 5301SOL     OW16801   4.320   1.859   0.539
 5301SOL    HW116802   4.259   1.837   0.463
 5301SOL    HW216803   4.415   1.856   0.508
 5302SOL     OW16804   5.697   4.483   2.939
 5302SOL    HW116805   5.761   4.560   2.943
 5302SOL    HW216806   5.747   4.399   2.917
 5303SOL     OW16807   6.587   6.156   3.483
 5303SOL    HW116808   6.568   6.166   3.581
 5303SOL    HW216809   6.673   6.202   3.461
 5304SOL     OW16810   6.692   1.614   5.771
 5304SOL    HW116811   6.757   1.634   5.845
 5304SOL    HW216812   6.644   1.698   5.745
 5305SOL     OW16813   1.704   6.922   4.801
 5305SOL    HW116814   1.663   6.877   4.721
 5305SOL    HW216815   1.665   6.882   4.885
 5306SOL     OW16816   0.561   5.716   5.187
 5306SOL    HW116817   0.497   5.647   5.221
 5306SOL    HW216818   0.641   5.719   5.247
 5307SOL     OW16819   4.420   6.799   6.875
 5307SOL    HW116820   4.401   6.766   6.967
 5307SOL    HW216821   4.382   6.891   6.864
 5308SOL     OW16822   0.739   6.880   4.812
 5308SOL    HW116823   0.707   6.837   4.728
 5308SOL    HW216824   0.787   6.812   4.868
 5309SOL     OW16825   3.375   3.781   2.222
 5309SOL    HW116826   3.429   3.729   2.288
 5309SOL    HW216827   3.333   3.859   2.267
 5310SOL     OW16828   5.637   2.914   1.862
 5310SOL    HW116829   5.709   2.875   1.805
 5310SOL    HW216830   5.583   2.978   1.808
 5311SOL     OW16831   0.206   5.792   0.992
 5311SOL    HW116832   0.239   5.741   1.072
 5311SOL    HW216833   0.220   5.890   1.007
 5312SOL     OW16834   0.277   4.150   2.628
 5312SOL    HW116835   0.190   4.136   2.580
 5312SOL    HW216836   0.350   4.101   2.580
 5313SOL     OW16837   1.089   5.787   7.018
 5313SOL    HW116838   1.062   5.696   6.988
 5313SOL    HW216839   1.168   5.780   0.057
 5314SOL     OW16840   3.608   4.759   0.328
 5314SOL    HW116841   3.556   4.686   0.283
 5314SOL    HW216842   3.544   4.822   0.372
 5315SOL     OW16843   3.980   4.016   1.029
 5315SOL    HW116844   3.965   4.104   0.984
 5315SOL    HW216845   3.958   3.942   0.965
 5316SOL     OW16846   6.637   4.895   5.084
 5316SOL    HW116847   6.539   4.908   5.076
 5316SOL    HW216848   6.674   4.958   5.152
 5317SOL     OW16849   6.838   1.164   4.719
 5317SOL    HW116850   6.915   1.181   4.781
 5317SOL    HW216851   6.770   1.108   4.765
 5318SOL     OW16852   0.400   1.918   5.788
 5318SOL    HW116853   0.370   1.823   5.802
 5318SOL    HW216854   0.409   1.963   5.877
 5319SOL     OW16855   5.118   6.728   0.192
 5319SOL    HW116856   5.068   6.699   0.111
 5319SOL    HW216857   5.070   6.698   0.274
 5320SOL     OW16858   5.664   4.997   6.413
 5320SOL    HW116859   5.587   4.954   6.366
 5320SOL    HW216860   5.679   4.952   6.501
 5321SOL     OW16861   0.809   4.826   2.825
 5321SOL    HW116862   0.801   4.884   2.906
 5321SOL    HW216863   0.893   4.849   2.775
 5322SOL     OW16864   3.704   6.682   6.086
 5322SOL    HW116865   3.732   6.716   6.176
 5322SOL    HW216866   3.710   6.756   6.019
 5323SOL     OW16867   3.452   2.807   1.052
 5323SOL    HW116868   3.409   2.743   1.115
 5323SOL    HW216869   3.392   2.887   1.040
 5324SOL     OW16870   3.653   2.516   1.676
 5324SOL    HW116871   3.677   2.604   1.716
 5324SOL    HW216872   3.657   2.445   1.746
 5325SOL     OW16873   6.173   6.516   3.240
 5325SOL    HW116874   6.106   6.474   3.179
 5325SOL    HW216875   6.133   6.528   3.330
 5326SOL     OW16876   6.597   5.293   2.484
 5326SOL    HW116877   6.672   5.237   2.447
 5326SOL    HW216878   6.633   5.357   2.552
 5327SOL     OW16879   0.462   5.382   5.804
 5327SOL    HW116880   0.481   5.408   5.899
 5327SOL    HW216881   0.480   5.459   5.744
 5328SOL     OW16882   4.227   2.615   5.823
 5328SOL    HW116883   4.323   2.641   5.809
 5328SOL    HW216884   4.218   2.570   5.912
 5329SOL     OW16885   0.051   3.530   6.476
 5329SOL    HW116886   0.134   3.478   6.459
 5329SOL    HW216887   0.068   3.597   6.549
 5330SOL     OW16888   3.214   5.105   6.852
 5330SOL    HW116889   3.144   5.034   6.862
 5330SOL    HW216890   3.291   5.085   6.912
 5331SOL     OW16891   5.547   1.577   1.027
 5331SOL    HW116892   5.494   1.652   0.987
 5331SOL    HW216893   5.640   1.578   0.990
 5332SOL     OW16894   6.442   4.196   6.988
 5332SOL    HW116895   6.446   4.104   0.006
 5332SOL    HW216896   6.487   4.261   0.028
 5333SOL     OW16897   1.046   0.440   3.735
 5333SOL    HW116898   0.980   0.432   3.661
 5333SOL    HW216899   0.999   0.464   3.820
 5334SOL     OW16900   3.719   5.278   5.152
 5334SOL    HW116901   3.770   5.229   5.081
 5334SOL    HW216902   3.782   5.312   5.221
 5335SOL     OW16903   0.471   5.367   2.286
 5335SOL    HW116904   0.382   5.392   2.324
 5335SOL    HW216905   0.529   5.332   2.360
 5336SOL     OW16906   1.897   2.223   3.545
 5336SOL    HW116907   1.867   2.188   3.456
 5336SOL    HW216908   1.817   2.239   3.603
 5337SOL     OW16909   5.696   4.640   1.344
 5337SOL    HW116910   5.697   4.583   1.427
 5337SOL    HW216911   5.635   4.718   1.358
 5338SOL     OW16912   5.291   1.296   6.585
 5338SOL    HW116913   5.236   1.225   6.628
 5338SOL    HW216914   5.285   1.287   6.485
 5339SOL     OW16915   5.893   1.441   3.086
 5339SOL    HW116916   5.986   1.474   3.104
 5339SOL    HW216917   5.895   1.342   3.073
 5340SOL     OW16918   5.544   3.911   1.182
 5340SOL    HW116919   5.627   3.889   1.234
 5340SOL    HW216920   5.499   3.826   1.155
 5341SOL     OW16921   3.279   4.887   5.371
 5341SOL    HW116922   3.282   4.937   5.285
 5341SOL    HW216923   3.221   4.806   5.361
 5342SOL     OW16924   5.161   6.587   4.602
 5342SOL    HW116925   5.149   6.568   4.699
 5342SOL    HW216926   5.190   6.682   4.591
 5343SOL     OW16927   3.868   3.553   4.593
 5343SOL    HW116928   3.962   3.585   4.580
 5343SOL    HW216929   3.808   3.632   4.607
 5344SOL     OW16930   0.517   1.274   0.305
 5344SOL    HW116931   0.436   1.218   0.288
 5344SOL    HW216932   0.596   1.235   0.257
 5345SOL     OW16933   5.004   0.496   6.518
 5345SOL    HW116934   5.073   0.515   6.448
 5345SOL    HW216935   5.019   0.557   6.596
 5346SOL     OW16936   2.784   5.295   4.490
 5346SOL    HW116937   2.767   5.219   4.553
 5346SOL    HW216938   2.834   5.368   4.538
 5347SOL     OW16939   6.517   3.447   3.522
 5347SOL    HW116940   6.493   3.448   3.620
 5347SOL    HW216941   6.613   3.421   3.512
 5348SOL     OW16942   7.018   0.822   5.969
 5348SOL    HW116943   6.948   0.871   5.917
 5348SOL    HW216944   0.024   0.740   5.919
 5349SOL     OW16945   2.428   3.559   1.195
 5349SOL    HW116946   2.419   3.562   1.294
 5349SOL    HW216947   2.523   3.574   1.169
 5350SOL     OW16948   2.461   6.733   5.133
 5350SOL    HW116949   2.385   6.687   5.180
 5350SOL    HW216950   2.544   6.723   5.188
 5351SOL     OW16951   0.093   5.366   2.385
 5351SOL    HW116952   0.171   5.418   2.419
 5351SOL    HW216953   0.079   5.286   2.443
 5352SOL     OW16954   2.471   4.818   3.091
 5352SOL    HW116955   2.450   4.811   3.189
 5352SOL    HW216956   2.417   4.892   3.050
 5353SOL     OW16957   3.710   5.623   3.788
 5353SOL    HW116958   3.718   5.638   3.689
 5353SOL    HW216959   3.786   5.566   3.819
 5354SOL     OW16960   2.172   4.783   0.521
 5354SOL    HW116961   2.266   4.814   0.535
 5354SOL    HW216962   2.126   4.775   0.610
 5355SOL     OW16963   5.960   4.831   4.458
 5355SOL    HW116964   6.011   4.811   4.541
 5355SOL    HW216965   5.862   4.832   4.479
 5356SOL     OW16966   6.783   3.593   2.581
 5356SOL    HW116967   6.864   3.546   2.545
 5356SOL    HW216968   6.711   3.591   2.512
 5357SOL     OW16969   4.307   4.551   1.095
 5357SOL    HW116970   4.393   4.589   1.060
 5357SOL    HW216971   4.243   4.626   1.114
 5358SOL     OW16972   4.963   2.107   1.150
 5358SOL    HW116973   4.942   2.033   1.086
 5358SOL    HW216974   4.953   2.075   1.244
 5359SOL     OW16975   2.440   1.847   6.223
 5359SOL    HW116976   2.428   1.859   6.124
 5359SOL    HW216977   2.405   1.757   6.250
 5360SOL     OW16978   5.434   5.948   3.615
 5360SOL    HW116979   5.372   6.015   3.573
 5360SOL    HW216980   5.399   5.856   3.599
 5361SOL     OW16981   2.359   6.859   4.367
 5361SOL    HW116982   2.390   6.953   4.351
 5361SOL    HW216983   2.285   6.860   4.435
 5362SOL     OW16984   6.432   6.181   2.505
 5362SOL    HW116985   6.496   6.138   2.568
 5362SOL    HW216986   6.367   6.113   2.471
 5363SOL     OW16987   5.362   6.349   5.684
 5363SOL    HW116988   5.277   6.402   5.676
 5363SOL    HW216989   5.440   6.411   5.677
 5364SOL     OW16990   6.011   6.672   1.852
 5364SOL    HW116991   5.995   6.574   1.862
 5364SOL    HW216992   6.008   6.716   1.942
 5365SOL     OW16993   3.474   2.881   2.273
 5365SOL    HW116994   3.385   2.872   2.229
 5365SOL    HW216995   3.545   2.850   2.210
 5366SOL     OW16996   7.020   6.963   2.274
 5366SOL    HW116997   6.990   0.036   2.265
 5366SOL    HW216998   0.096   6.957   2.255
 5367SOL     OW16999   6.660   6.427   1.154
 5367SOL    HW117000   6.610   6.343   1.131
 5367SOL    HW217001   6.635   6.499   1.089
 5368SOL     OW17002   6.604   6.940   2.557
 5368SOL    HW117003   6.555   6.853   2.561
 5368SOL    HW217004   6.571   6.993   2.479
 5369SOL     OW17005   2.854   6.120   0.962
 5369SOL    HW117006   2.922   6.166   1.020
 5369SOL    HW217007   2.764   6.159   0.979
 5370SOL     OW17008   4.089   3.639   1.142
 5370SOL    HW117009   4.148   3.567   1.179
 5370SOL    HW217010   3.997   3.604   1.129
 5371SOL     OW17011   6.669   5.011   5.342
 5371SOL    HW117012   6.619   5.062   5.411
 5371SOL    HW217013   6.751   4.970   5.382
 5372SOL     OW17014   1.311   6.458   2.814
 5372SOL    HW117015   1.313   6.359   2.805
 5372SOL    HW217016   1.312   6.483   2.911
 5373SOL     OW17017   4.213   6.799   5.827
 5373SOL    HW117018   4.242   6.703   5.835
 5373SOL    HW217019   4.138   6.815   5.891
 5374SOL     OW17020   2.433   4.394   0.463
 5374SOL    HW117021   2.439   4.411   0.561
 5374SOL    HW217022   2.522   4.362   0.429
 5375SOL     OW17023   0.494   5.486   6.099
 5375SOL    HW117024   0.501   5.474   6.198
 5375SOL    HW217025   0.453   5.576   6.080
 5376SOL     OW17026   1.297   2.590   1.596
 5376SOL    HW117027   1.310   2.665   1.531
 5376SOL    HW217028   1.349   2.510   1.565
 5377SOL     OW17029   1.290   0.154   3.139
 5377SOL    HW117030   1.388   0.168   3.124
 5377SOL    HW217031   1.275   0.121   3.232
 5378SOL     OW17032   6.956   0.255   1.648
 5378SOL    HW117033   6.909   0.166   1.651
 5378SOL    HW217034   0.032   0.240   1.637
 5379SOL     OW17035   1.643   3.626   4.684
 5379SOL    HW117036   1.719   3.656   4.626
 5379SOL    HW217037   1.680   3.581   4.766
 5380SOL     OW17038   2.449   6.914   1.076
 5380SOL    HW117039   2.496   6.978   1.136
 5380SOL    HW217040   2.506   6.896   0.996
 5381SOL     OW17041   6.630   6.040   2.264
 5381SOL    HW117042   6.541   6.025   2.307
 5381SOL    HW217043   6.666   6.129   2.294
 5382SOL     OW17044   2.921   2.176   2.794
 5382SOL    HW117045   2.885   2.269   2.790
 5382SOL    HW217046   2.912   2.132   2.705
 5383SOL     OW17047   1.018   2.487   4.562
 5383SOL    HW117048   1.013   2.587   4.563
 5383SOL    HW217049   1.030   2.455   4.468
 5384SOL     OW17050   4.456   5.621   4.588
 5384SOL    HW117051   4.445   5.664   4.678
 5384SOL    HW217052   4.523   5.547   4.594
 5385SOL     OW17053   5.694   2.819   5.549
 5385SOL    HW117054   5.765   2.870   5.500
 5385SOL    HW217055   5.692   2.725   5.516
 5386SOL     OW17056   5.861   1.428   4.328
 5386SOL    HW117057   5.787   1.384   4.277
 5386SOL    HW217058   5.830   1.517   4.361
 5387SOL     OW17059   2.557   6.930   3.446
 5387SOL    HW117060   2.581   6.905   3.352
 5387SOL    HW217061   2.599   7.018   3.469
 5388SOL     OW17062   1.519   6.817   2.684
 5388SOL    HW117063   1.495   6.860   2.771
 5388SOL    HW217064   1.591   6.749   2.698
 5389SOL     OW17065   3.909   1.895   4.648
 5389SOL    HW117066   3.823   1.859   4.684
 5389SOL    HW217067   3.905   1.995   4.645
 5390SOL     OW17068   5.140   4.375   3.647
 5390SOL    HW117069   5.094   4.419   3.570
 5390SOL    HW217070   5.162   4.444   3.716
 5391SOL     OW17071   2.929   1.758   6.897
 5391SOL    HW117072   2.832   1.752   6.873
 5391SOL    HW217073   2.981   1.784   6.816
 5392SOL     OW17074   5.301   3.890   1.670
 5392SOL    HW117075   5.395   3.862   1.647
 5392SOL    HW217076   5.252   3.915   1.586
 5393SOL     OW17077   4.860   0.744   5.153
 5393SOL    HW117078   4.779   0.708   5.198
 5393SOL    HW217079   4.836   0.825   5.100
 5394SOL     OW17080   0.819   5.732   1.274
 5394SOL    HW117081   0.725   5.725   1.243
 5394SOL    HW217082   0.879   5.753   1.197
 5395SOL     OW17083   4.869   0.835   1.042
 5395SOL    HW117084   4.874   0.934   1.033
 5395SOL    HW217085   4.936   0.804   1.110
 5396SOL     OW17086   5.550   5.073   1.752
 5396SOL    HW117087   5.562   5.143   1.822
 5396SOL    HW217088   5.633   5.018   1.744
 5397SOL     OW17089   7.004   2.082   1.967
 5397SOL    HW117090   7.018   2.022   2.046
 5397SOL    HW217091   7.008   2.178   1.997
 5398SOL     OW17092   3.066   2.093   3.749
 5398SOL    HW117093   3.115   2.010   3.721
 5398SOL    HW217094   3.013   2.128   3.672
 5399SOL     OW17095   2.887   0.184   6.376
 5399SOL    HW117096   2.811   0.148   6.430
 5399SOL    HW217097   2.861   0.183   6.279
 5400SOL     OW17098   2.924   3.433   0.584
 5400SOL    HW117099   2.906   3.397   0.493
 5400SOL    HW217100   2.857   3.397   0.649
 5401SOL     OW17101   5.874   4.282   2.274
 5401SOL    HW117102   5.774   4.274   2.274
 5401SOL    HW217103   5.904   4.312   2.183
 5402SOL     OW17104   2.407   6.260   0.738
 5402SOL    HW117105   2.498   6.264   0.696
 5402SOL    HW217106   2.359   6.179   0.706
 5403SOL     OW17107   5.023   3.653   6.318
 5403SOL    HW117108   5.018   3.587   6.244
 5403SOL    HW217109   5.112   3.700   6.315
 5404SOL     OW17110   0.955   0.169   1.552
 5404SOL    HW117111   0.875   0.109   1.544
 5404SOL    HW217112   0.993   0.162   1.644
 5405SOL     OW17113   5.473   5.298   6.646
 5405SOL    HW117114   5.524   5.220   6.610
 5405SOL    HW217115   5.429   5.272   6.732
 5406SOL     OW17116   2.030   0.951   4.859
 5406SOL    HW117117   1.971   1.009   4.915
 5406SOL    HW217118   2.126   0.972   4.878
 5407SOL     OW17119   3.333   1.158   0.731
 5407SOL    HW117120   3.386   1.081   0.766
 5407SOL    HW217121   3.336   1.157   0.631
 5408SOL     OW17122   3.565   1.295   4.866
 5408SOL    HW117123   3.625   1.225   4.826
 5408SOL    HW217124   3.610   1.334   4.946
 5409SOL     OW17125   6.638   1.562   2.430
 5409SOL    HW117126   6.539   1.549   2.435
 5409SOL    HW217127   6.685   1.479   2.461
 5410SOL     OW17128   0.833   2.548   6.544
 5410SOL    HW117129   0.926   2.578   6.565
 5410SOL    HW217130   0.811   2.466   6.596
 5411SOL     OW17131   5.048   5.010   6.089
 5411SOL    HW117132   5.055   5.039   5.994
 5411SOL    HW217133   5.011   4.917   6.092
 5412SOL     OW17134   2.714   1.138   6.261
 5412SOL    HW117135   2.643   1.096   6.204
 5412SOL    HW217136   2.680   1.148   6.355
 5413SOL     OW17137   0.730   6.783   6.879
 5413SOL    HW117138   0.639   6.818   6.857
 5413SOL    HW217139   0.769   6.837   6.954
 5414SOL     OW17140   6.267   4.445   5.375
 5414SOL    HW117141   6.291   4.355   5.340
 5414SOL    HW217142   6.350   4.494   5.403
 5415SOL     OW17143   2.646   6.258   0.588
 5415SOL    HW117144   2.737   6.215   0.589
 5415SOL    HW217145   2.598   6.233   0.504
 5416SOL     OW17146   2.544   4.626   5.043
 5416SOL    HW117147   2.509   4.578   5.124
 5416SOL    HW217148   2.643   4.638   5.051
 5417SOL     OW17149   3.831   0.298   5.036
 5417SOL    HW117150   3.899   0.353   4.988
 5417SOL    HW217151   3.749   0.290   4.979
 5418SOL     OW17152   5.547   5.645   5.032
 5418SOL    HW117153   5.546   5.564   5.091
 5418SOL    HW217154   5.625   5.703   5.056
 5419SOL     OW17155   3.930   6.066   0.551
 5419SOL    HW117156   3.871   6.124   0.495
 5419SOL    HW217157   4.025   6.097   0.543
 5420SOL     OW17158   1.905   2.030   0.771
 5420SOL    HW117159   1.908   1.990   0.679
 5420SOL    HW217160   1.833   1.986   0.824
 5421SOL     OW17161   3.240   5.464   1.263
 5421SOL    HW117162   3.161   5.426   1.216
 5421SOL    HW217163   3.310   5.393   1.275
 5422SOL     OW17164   1.662   5.155   5.274
 5422SOL    HW117165   1.719   5.109   5.206
 5422SOL    HW217166   1.721   5.194   5.345
 5423SOL     OW17167   5.565   4.765   0.468
 5423SOL    HW117168   5.582   4.799   0.561
 5423SOL    HW217169   5.490   4.699   0.470
 5424SOL     OW17170   5.126   3.950   4.410
 5424SOL    HW117171   5.154   3.995   4.495
 5424SOL    HW217172   5.027   3.941   4.408
 5425SOL     OW17173   6.458   2.713   4.638
 5425SOL    HW117174   6.430   2.623   4.606
 5425SOL    HW217175   6.416   2.784   4.582
 5426SOL     OW17176   4.400   5.484   2.334
 5426SOL    HW117177   4.410   5.432   2.249
 5426SOL    HW217178   4.414   5.581   2.315
 5427SOL     OW17179   5.185   2.928   0.415
 5427SOL    HW117180   5.260   2.993   0.412
 5427SOL    HW217181   5.215   2.840   0.380
 5428SOL     OW17182   5.123   6.543   2.312
 5428SOL    HW117183   5.196   6.610   2.302
 5428SOL    HW217184   5.087   6.518   2.222
 5429SOL     OW17185   1.945   0.184   4.977
 5429SOL    HW117186   2.018   0.116   4.982
 5429SOL    HW217187   1.896   0.186   5.065
 5430SOL     OW17188   1.949   3.042   4.742
 5430SOL    HW117189   2.020   3.044   4.812
 5430SOL    HW217190   1.867   3.089   4.775
 5431SOL     OW17191   3.372   3.626   6.769
 5431SOL    HW117192   3.332   3.670   6.849
 5431SOL    HW217193   3.307   3.628   6.693
 5432SOL     OW17194   4.609   5.287   6.449
 5432SOL    HW117195   4.614   5.387   6.457
 5432SOL    HW217196   4.549   5.251   6.521
 5433SOL     OW17197   0.833   0.119   1.142
 5433SOL    HW117198   0.832   0.200   1.201
 5433SOL    HW217199   0.919   0.116   1.090
 5434SOL     OW17200   4.186   0.844   4.801
 5434SOL    HW117201   4.257   0.774   4.793
 5434SOL    HW217202   4.222   0.922   4.853
 5435SOL     OW17203   6.338   3.925   0.679
 5435SOL    HW117204   6.410   3.861   0.704
 5435SOL    HW217205   6.363   4.017   0.707
 5436SOL     OW17206   6.431   4.286   4.056
 5436SOL    HW117207   6.363   4.268   4.127
 5436SOL    HW217208   6.385   4.313   3.972
 5437SOL     OW17209   3.080   5.105   5.524
 5437SOL    HW117210   3.107   5.200   5.539
 5437SOL    HW217211   3.099   5.079   5.429
 5438SOL     OW17212   5.073   5.075   1.889
 5438SOL    HW117213   5.070   5.098   1.792
 5438SOL    HW217214   4.985   5.038   1.918
 5439SOL     OW17215   0.733   3.653   0.025
 5439SOL    HW117216   0.801   3.694   6.985
 5439SOL    HW217217   0.672   3.593   6.994
 5440SOL     OW17218   6.442   6.654   4.058
 5440SOL    HW117219   6.466   6.624   3.966
 5440SOL    HW217220   6.525   6.676   4.109
 5441SOL     OW17221   5.272   3.659   2.965
 5441SOL    HW117222   5.346   3.644   2.899
 5441SOL    HW217223   5.300   3.627   3.055
 5442SOL     OW17224   4.291   6.893   3.731
 5442SOL    HW117225   4.264   6.915   3.638
 5442SOL    HW217226   4.391   6.893   3.738
 5443SOL     OW17227   4.525   6.122   4.046
 5443SOL    HW117228   4.595   6.138   3.976
 5443SOL    HW217229   4.555   6.163   4.132
 5444SOL     OW17230   6.991   1.250   3.670
 5444SOL    HW117231   6.998   1.349   3.674
 5444SOL    HW217232   6.980   1.221   3.575
 5445SOL     OW17233   5.689   4.652   3.545
 5445SOL    HW117234   5.707   4.660   3.447
 5445SOL    HW217235   5.652   4.561   3.565
 5446SOL     OW17236   5.849   5.053   4.630
 5446SOL    HW117237   5.839   5.149   4.656
 5446SOL    HW217238   5.799   4.996   4.694
 5447SOL     OW17239   2.017   1.599   1.027
 5447SOL    HW117240   2.110   1.566   1.043
 5447SOL    HW217241   2.019   1.697   1.007
 5448SOL     OW17242   4.247   4.758   3.858
 5448SOL    HW117243   4.327   4.816   3.846
 5448SOL    HW217244   4.271   4.678   3.912
 5449SOL     OW17245   1.951   1.052   1.348
 5449SOL    HW117246   2.009   1.044   1.266
 5449SOL    HW217247   1.890   1.131   1.337
 5450SOL     OW17248   3.169   6.720   1.250
 5450SOL    HW117249   3.230   6.797   1.231
 5450SOL    HW217250   3.196   6.642   1.193
 5451SOL     OW17251   1.902   5.975   3.900
 5451SOL    HW117252   1.822   6.034   3.892
 5451SOL    HW217253   1.929   5.942   3.810
 5452SOL     OW17254   2.806   4.384   1.349
 5452SOL    HW117255   2.751   4.466   1.367
 5452SOL    HW217256   2.770   4.308   1.403
 5453SOL     OW17257   5.476   3.966   2.199
 5453SOL    HW117258   5.382   3.994   2.220
 5453SOL    HW217259   5.476   3.901   2.124
 5454SOL     OW17260   5.513   5.496   1.557
 5454SOL    HW117261   5.511   5.493   1.657
 5454SOL    HW217262   5.447   5.564   1.524
 5455SOL     OW17263   0.349   1.730   3.381
 5455SOL    HW117264   0.323   1.663   3.451
 5455SOL    HW217265   0.443   1.713   3.352
 5456SOL     OW17266   3.552   1.716   6.599
 5456SOL    HW117267   3.540   1.698   6.501
 5456SOL    HW217268   3.637   1.765   6.614
 5457SOL     OW17269   6.759   2.184   0.849
 5457SOL    HW117270   6.761   2.085   0.863
 5457SOL    HW217271   6.849   2.223   0.867
 5458SOL     OW17272   0.017   4.701   0.694
 5458SOL    HW117273   6.948   4.693   0.737
 5458SOL    HW217274   0.006   4.719   0.597
 5459SOL     OW17275   2.079   5.126   5.019
 5459SOL    HW117276   2.056   5.123   4.922
 5459SOL    HW217277   2.167   5.082   5.034
 5460SOL     OW17278   2.957   6.945   2.187
 5460SOL    HW117279   2.991   6.856   2.219
 5460SOL    HW217280   3.015   6.979   2.114
 5461SOL     OW17281   1.130   0.935   4.593
 5461SOL    HW117282   1.169   0.878   4.665
 5461SOL    HW217283   1.119   0.881   4.510
 5462SOL     OW17284   5.458   6.040   6.553
 5462SOL    HW117285   5.524   6.064   6.481
 5462SOL    HW217286   5.477   5.946   6.584
 5463SOL     OW17287   0.310   1.422   0.144
 5463SOL    HW117288   0.260   1.421   0.231
 5463SOL    HW217289   0.379   1.351   0.144
 5464SOL     OW17290   6.079   6.079   4.985
 5464SOL    HW117291   6.159   6.129   5.018
 5464SOL    HW217292   6.098   6.042   4.894
 5465SOL     OW17293   6.530   0.293   3.157
 5465SOL    HW117294   6.493   0.320   3.246
 5465SOL    HW217295   6.618   0.339   3.141
 5466SOL     OW17296   6.176   2.764   5.854
 5466SOL    HW117297   6.143   2.761   5.760
 5466SOL    HW217298   6.124   2.832   5.906
 5467SOL     OW17299   5.901   3.966   2.837
 5467SOL    HW117300   5.942   3.875   2.845
 5467SOL    HW217301   5.802   3.959   2.846
 5468SOL     OW17302   0.169   2.340   4.281
 5468SOL    HW117303   0.086   2.312   4.330
 5468SOL    HW217304   0.165   2.438   4.263
 5469SOL     OW17305   2.988   5.511   6.006
 5469SOL    HW117306   3.013   5.415   6.020
 5469SOL    HW217307   3.023   5.542   5.918
 5470SOL     OW17308   3.768   5.236   4.240
 5470SOL    HW117309   3.685   5.245   4.185
 5470SOL    HW217310   3.830   5.312   4.220
 5471SOL     OW17311   5.591   0.725   2.293
 5471SOL    HW117312   5.521   0.745   2.362
 5471SOL    HW217313   5.591   0.627   2.274
 5472SOL     OW17314   2.950   3.798   6.551
 5472SOL    HW117315   3.014   3.812   6.476
 5472SOL    HW217316   2.972   3.859   6.626
 5473SOL     OW17317   1.342   3.578   0.245
 5473SOL    HW117318   1.414   3.571   0.176
 5473SOL    HW217319   1.304   3.671   0.245
 5474SOL     OW17320   0.721   5.838   4.460
 5474SOL    HW117321   0.808   5.804   4.495
 5474SOL    HW217322   0.648   5.817   4.525
 5475SOL     OW17323   1.441   1.835   0.506
 5475SOL    HW117324   1.511   1.804   0.570
 5475SOL    HW217325   1.436   1.935   0.509
 5476SOL     OW17326   1.723   4.615   5.012
 5476SOL    HW117327   1.791   4.546   4.987
 5476SOL    HW217328   1.632   4.576   5.007
 5477SOL     OW17329   2.213   3.962   3.262
 5477SOL    HW117330   2.236   4.057   3.239
 5477SOL    HW217331   2.203   3.909   3.177
 5478SOL     OW17332   4.527   6.572   5.434
 5478SOL    HW117333   4.566   6.630   5.362
 5478SOL    HW217334   4.513   6.480   5.398
 5479SOL     OW17335   4.673   1.993   4.808
 5479SOL    HW117336   4.671   1.947   4.719
 5479SOL    HW217337   4.766   1.992   4.843
 5480SOL     OW17338   5.269   4.965   5.095
 5480SOL    HW117339   5.170   4.951   5.100
 5480SOL    HW217340   5.289   5.041   5.034
 5481SOL     OW17341   4.775   1.378   4.766
 5481SOL    HW117342   4.849   1.347   4.826
 5481SOL    HW217343   4.733   1.460   4.806
 5482SOL     OW17344   3.780   3.896   2.109
 5482SOL    HW117345   3.753   3.800   2.098
 5482SOL    HW217346   3.700   3.955   2.100
 5483SOL     OW17347   0.551   2.034   5.428
 5483SOL    HW117348   0.580   2.056   5.521
 5483SOL    HW217349   0.560   2.116   5.370
 5484SOL     OW17350   5.706   0.544   3.968
 5484SOL    HW117351   5.768   0.466   3.968
 5484SOL    HW217352   5.615   0.514   3.939
 5485SOL     OW17353   2.828   6.847   5.133
 5485SOL    HW117354   2.745   6.902   5.147
 5485SOL    HW217355   2.908   6.907   5.136
 5486SOL     OW17356   1.753   5.821   4.471
 5486SOL    HW117357   1.667   5.770   4.482
 5486SOL    HW217358   1.786   5.850   4.561
 5487SOL     OW17359   5.163   3.036   6.476
 5487SOL    HW117360   5.192   2.941   6.480
 5487SOL    HW217361   5.242   3.095   6.457
 5488SOL     OW17362   5.261   1.177   0.814
 5488SOL    HW117363   5.327   1.252   0.810
 5488SOL    HW217364   5.218   1.176   0.904
 5489SOL     OW17365   1.039   4.974   0.917
 5489SOL    HW117366   1.130   4.935   0.903
 5489SOL    HW217367   0.984   4.911   0.973
 5490SOL     OW17368   3.421   0.354   1.019
 5490SOL    HW117369   3.490   0.359   0.947
 5490SOL    HW217370   3.330   0.361   0.978
 5491SOL     OW17371   1.946   3.913   6.741
 5491SOL    HW117372   2.036   3.871   6.729
 5491SOL    HW217373   1.921   3.909   6.838
 5492SOL     OW17374   0.787   2.037   6.644
 5492SOL    HW117375   0.829   1.995   6.563
 5492SOL    HW217376   0.738   1.967   6.696
 5493SOL     OW17377   4.030   3.653   3.878
 5493SOL    HW117378   4.080   3.612   3.802
 5493SOL    HW217379   3.965   3.587   3.915
 5494SOL     OW17380   6.658   2.594   6.443
 5494SOL    HW117381   6.696   2.513   6.400
 5494SOL    HW217382   6.639   2.575   6.539
 5495SOL     OW17383   3.757   2.452   1.447
 5495SOL    HW117384   3.737   2.357   1.423
 5495SOL    HW217385   3.725   2.470   1.540
 5496SOL     OW17386   2.572   0.402   3.562
 5496SOL    HW117387   2.588   0.448   3.650
 5496SOL    HW217388   2.475   0.379   3.555
 5497SOL     OW17389   0.238   2.209   3.822
 5497SOL    HW117390   0.321   2.187   3.770
 5497SOL    HW217391   0.226   2.309   3.825
 5498SOL     OW17392   5.202   6.758   1.283
 5498SOL    HW117393   5.202   6.673   1.335
 5498SOL    HW217394   5.269   6.821   1.322
 5499SOL     OW17395   0.130   1.191   3.983
 5499SOL    HW117396   0.197   1.210   4.054
 5499SOL    HW217397   0.048   1.246   3.998
 5500SOL     OW17398   1.578   6.976   0.291
 5500SOL    HW117399   1.601   0.052   0.291
 5500SOL    HW217400   1.661   6.922   0.278
 5501SOL     OW17401   3.818   6.982   0.847
 5501SOL    HW117402   3.894   0.021   0.821
 5501SOL    HW217403   3.816   6.972   0.946
 5502SOL     OW17404   5.569   4.146   6.913
 5502SOL    HW117405   5.511   4.084   6.967
 5502SOL    HW217406   5.646   4.177   6.968
 5503SOL     OW17407   6.711   5.727   3.662
 5503SOL    HW117408   6.615   5.748   3.679
 5503SOL    HW217409   6.752   5.800   3.608
 5504SOL     OW17410   4.339   1.314   4.946
 5504SOL    HW117411   4.297   1.253   5.013
 5504SOL    HW217412   4.268   1.351   4.886
 5505SOL     OW17413   1.812   5.456   4.383
 5505SOL    HW117414   1.787   5.494   4.294
 5505SOL    HW217415   1.832   5.359   4.373
 5506SOL     OW17416   1.204   1.417   6.367
 5506SOL    HW117417   1.206   1.321   6.394
 5506SOL    HW217418   1.296   1.446   6.342
 5507SOL     OW17419   2.354   0.221   3.787
 5507SOL    HW117420   2.358   0.163   3.705
 5507SOL    HW217421   2.442   0.218   3.834
 5508SOL     OW17422   2.330   0.641   6.534
 5508SOL    HW117423   2.348   0.608   6.627
 5508SOL    HW217424   2.276   0.573   6.484
 5509SOL     OW17425   0.882   6.527   0.688
 5509SOL    HW117426   0.870   6.590   0.765
 5509SOL    HW217427   0.932   6.446   0.719
 5510SOL     OW17428   4.887   6.171   0.904
 5510SOL    HW117429   4.838   6.249   0.944
 5510SOL    HW217430   4.879   6.174   0.804
 5511SOL     OW17431   2.639   0.520   4.193
 5511SOL    HW117432   2.608   0.569   4.274
 5511SOL    HW217433   2.566   0.519   4.124
 5512SOL     OW17434   5.916   2.242   1.659
 5512SOL    HW117435   5.967   2.244   1.746
 5512SOL    HW217436   5.981   2.239   1.583
 5513SOL     OW17437   3.912   4.723   6.281
 5513SOL    HW117438   3.816   4.701   6.299
 5513SOL    HW217439   3.950   4.771   6.361
 5514SOL     OW17440   4.693   6.057   2.674
 5514SOL    HW117441   4.753   6.137   2.671
 5514SOL    HW217442   4.748   5.974   2.666
 5515SOL     OW17443   0.162   4.678   1.239
 5515SOL    HW117444   0.131   4.769   1.265
 5515SOL    HW217445   0.234   4.648   1.301
 5516SOL     OW17446   1.260   3.847   6.199
 5516SOL    HW117447   1.316   3.843   6.116
 5516SOL    HW217448   1.284   3.771   6.259
 5517SOL     OW17449   1.996   3.373   2.063
 5517SOL    HW117450   2.083   3.410   2.029
 5517SOL    HW217451   1.980   3.283   2.024
 5518SOL     OW17452   5.771   6.875   6.455
 5518SOL    HW117453   5.848   6.902   6.397
 5518SOL    HW217454   5.689   6.925   6.428
 5519SOL     OW17455   5.282   3.029   2.785
 5519SOL    HW117456   5.372   3.037   2.826
 5519SOL    HW217457   5.291   3.010   2.687
 5520SOL     OW17458   6.830   5.582   2.268
 5520SOL    HW117459   6.754   5.592   2.333
 5520SOL    HW217460   6.808   5.633   2.185
 5521SOL     OW17461   4.666   0.141   1.523
 5521SOL    HW117462   4.616   0.060   1.492
 5521SOL    HW217463   4.656   0.151   1.622
 5522SOL     OW17464   0.135   5.199   1.082
 5522SOL    HW117465   0.044   5.234   1.104
 5522SOL    HW217466   0.128   5.135   1.005
 5523SOL     OW17467   3.871   0.161   2.104
 5523SOL    HW117468   3.806   0.236   2.088
 5523SOL    HW217469   3.935   0.188   2.176
 5524SOL     OW17470   5.177   5.254   5.198
 5524SOL    HW117471   5.166   5.188   5.272
 5524SOL    HW217472   5.088   5.297   5.179
 5525SOL     OW17473   6.745   3.003   0.025
 5525SOL    HW117474   6.790   2.995   0.114
 5525SOL    HW217475   6.741   3.100   7.020
 5526SOL     OW17476   5.216   4.752   4.794
 5526SOL    HW117477   5.171   4.836   4.765
 5526SOL    HW217478   5.169   4.674   4.754
 5527SOL     OW17479   6.451   3.649   4.675
 5527SOL    HW117480   6.403   3.737   4.675
 5527SOL    HW217481   6.387   3.576   4.652
 5528SOL     OW17482   1.070   2.040   6.723
 5528SOL    HW117483   0.971   2.051   6.727
 5528SOL    HW217484   1.097   2.014   6.630
 5529SOL     OW17485   2.096   0.617   4.048
 5529SOL    HW117486   2.191   0.650   4.049
 5529SOL    HW217487   2.034   0.695   4.051
 5530SOL     OW17488   6.993   2.361   2.044
 5530SOL    HW117489   6.906   2.326   2.009
 5530SOL    HW217490   7.015   2.447   1.997
 5531SOL     OW17491   3.850   3.144   2.329
 5531SOL    HW117492   3.779   3.170   2.395
 5531SOL    HW217493   3.938   3.135   2.376
 5532SOL     OW17494   1.336   2.292   0.224
 5532SOL    HW117495   1.301   2.303   0.318
 5532SOL    HW217496   1.265   2.251   0.167
 5533SOL     OW17497   3.690   0.797   3.156
 5533SOL    HW117498   3.681   0.725   3.226
 5533SOL    HW217499   3.786   0.825   3.150
 5534SOL     OW17500   0.437   1.695   5.968
 5534SOL    HW117501   0.386   1.719   6.051
 5534SOL    HW217502   0.530   1.731   5.974
 5535SOL     OW17503   0.303   3.178   4.490
 5535SOL    HW117504   0.231   3.163   4.422
 5535SOL    HW217505   0.375   3.236   4.450
 5536SOL     OW17506   2.680   0.958   4.320
 5536SOL    HW117507   2.745   0.925   4.252
 5536SOL    HW217508   2.654   1.053   4.298
 5537SOL     OW17509   2.694   0.413   3.112
 5537SOL    HW117510   2.748   0.459   3.042
 5537SOL    HW217511   2.710   0.456   3.201
 5538SOL     OW17512   2.899   0.189   5.146
 5538SOL    HW117513   2.931   0.282   5.162
 5538SOL    HW217514   2.949   0.126   5.205
 5539SOL     OW17515   1.427   3.251   0.267
 5539SOL    HW117516   1.463   3.262   0.174
 5539SOL    HW217517   1.414   3.341   0.309
 5540SOL     OW17518   5.802   3.609   3.624
 5540SOL    HW117519   5.728   3.567   3.571
 5540SOL    HW217520   5.879   3.545   3.631
 5541SOL     OW17521   5.876   0.927   6.067
 5541SOL    HW117522   5.869   1.011   6.012
 5541SOL    HW217523   5.924   0.857   6.015
 5542SOL     OW17524   6.286   5.204   6.439
 5542SOL    HW117525   6.267   5.108   6.414
 5542SOL    HW217526   6.359   5.207   6.508
 5543SOL     OW17527   3.304   5.352   5.852
 5543SOL    HW117528   3.261   5.335   5.941
 5543SOL    HW217529   3.321   5.265   5.806
 5544SOL     OW17530   5.635   6.732   5.921
 5544SOL    HW117531   5.695   6.745   5.999
 5544SOL    HW217532   5.634   6.635   5.895
 5545SOL     OW17533   4.393   1.859   2.923
 5545SOL    HW117534   4.329   1.935   2.911
 5545SOL    HW217535   4.483   1.887   2.890
 5546SOL     OW17536   1.027   6.648   4.809
 5546SOL    HW117537   1.111   6.700   4.827
 5546SOL    HW217538   0.994   6.606   4.893
 5547SOL     OW17539   3.534   0.260   4.421
 5547SOL    HW117540   3.535   0.209   4.335
 5547SOL    HW217541   3.444   0.300   4.435
 5548SOL     OW17542   5.689   3.472   5.675
 5548SOL    HW117543   5.686   3.497   5.578
 5548SOL    HW217544   5.698   3.372   5.683
 5549SOL     OW17545   5.273   3.963   0.984
 5549SOL    HW117546   5.195   3.920   1.029
 5549SOL    HW217547   5.302   4.043   1.035
 5550SOL     OW17548   2.306   4.493   2.405
 5550SOL    HW117549   2.324   4.396   2.394
 5550SOL    HW217550   2.374   4.533   2.467
 5551SOL     OW17551   2.261   5.470   3.058
 5551SOL    HW117552   2.196   5.466   2.982
 5551SOL    HW217553   2.230   5.539   3.124
 5552SOL     OW17554   6.362   0.346   0.088
 5552SOL    HW117555   6.454   0.383   0.098
 5552SOL    HW217556   6.364   0.266   0.027
 5553SOL     OW17557   5.139   6.172   0.439
 5553SOL    HW117558   5.097   6.126   0.360
 5553SOL    HW217559   5.230   6.133   0.455
 5554SOL     OW17560   4.686   1.767   6.130
 5554SOL    HW117561   4.602   1.813   6.101
 5554SOL    HW217562   4.710   1.696   6.063
 5555SOL     OW17563   1.642   4.122   3.700
 5555SOL    HW117564   1.617   4.168   3.785
 5555SOL    HW217565   1.730   4.157   3.667
 5556SOL     OW17566   6.849   1.340   3.293
 5556SOL    HW117567   6.899   1.399   3.230
 5556SOL    HW217568   6.800   1.396   3.360
 5557SOL     OW17569   3.491   6.723   3.368
 5557SOL    HW117570   3.393   6.731   3.387
 5557SOL    HW217571   3.510   6.637   3.321
 5558SOL     OW17572   4.372   3.661   6.204
 5558SOL    HW117573   4.464   3.645   6.242
 5558SOL    HW217574   4.380   3.719   6.123
 5559SOL     OW17575   1.450   0.381   2.130
 5559SOL    HW117576   1.413   0.356   2.219
 5559SOL    HW217577   1.439   0.479   2.115
 5560SOL     OW17578   1.281   6.821   2.506
 5560SOL    HW117579   1.227   6.891   2.553
 5560SOL    HW217580   1.346   6.780   2.571
 5561SOL     OW17581   1.161   1.617   4.114
 5561SOL    HW117582   1.073   1.664   4.112
 5561SOL    HW217583   1.159   1.545   4.183
 5562SOL     OW17584   3.671   2.298   6.638
 5562SOL    HW117585   3.606   2.243   6.690
 5562SOL    HW217586   3.690   2.383   6.687
 5563SOL     OW17587   4.159   5.231   2.260
 5563SOL    HW117588   4.108   5.227   2.346
 5563SOL    HW217589   4.173   5.326   2.234
 5564SOL     OW17590   4.329   0.692   1.523
 5564SOL    HW117591   4.360   0.647   1.439
 5564SOL    HW217592   4.371   0.648   1.602
 5565SOL     OW17593   4.591   1.463   6.500
 5565SOL    HW117594   4.604   1.496   6.593
 5565SOL    HW217595   4.531   1.525   6.450
 5566SOL     OW17596   1.635   5.135   6.886
 5566SOL    HW117597   1.660   5.038   6.886
 5566SOL    HW217598   1.705   5.187   6.933
 5567SOL     OW17599   0.351   3.088   1.648
 5567SOL    HW117600   0.437   3.107   1.600
 5567SOL    HW217601   0.275   3.090   1.582
 5568SOL     OW17602   4.268   1.495   3.994
 5568SOL    HW117603   4.176   1.498   3.954
 5568SOL    HW217604   4.263   1.463   4.088
 5569SOL     OW17605   1.793   1.660   2.470
 5569SOL    HW117606   1.886   1.625   2.460
 5569SOL    HW217607   1.729   1.598   2.425
 5570SOL     OW17608   6.291   4.562   4.544
 5570SOL    HW117609   6.325   4.518   4.461
 5570SOL    HW217610   6.248   4.649   4.521
 5571SOL     OW17611   6.951   5.703   0.661
 5571SOL    HW117612   7.001   5.780   0.700
 5571SOL    HW217613   6.860   5.732   0.633
 5572SOL     OW17614   1.384   2.241   5.351
 5572SOL    HW117615   1.380   2.170   5.421
 5572SOL    HW217616   1.430   2.322   5.388
 5573SOL     OW17617   1.927   4.410   5.783
 5573SOL    HW117618   2.006   4.448   5.734
 5573SOL    HW217619   1.957   4.332   5.838
 5574SOL     OW17620   6.608   1.824   2.480
 5574SOL    HW117621   6.630   1.727   2.467
 5574SOL    HW217622   6.519   1.832   2.526
 5575SOL     OW17623   6.981   1.219   0.892
 5575SOL    HW117624   6.931   1.179   0.969
 5575SOL    HW217625   6.936   1.303   0.863
 5576SOL     OW17626   1.272   5.367   2.165
 5576SOL    HW117627   1.260   5.272   2.135
 5576SOL    HW217628   1.191   5.420   2.139
 5577SOL     OW17629   2.873   2.997   5.362
 5577SOL    HW117630   2.778   2.965   5.359
 5577SOL    HW217631   2.933   2.929   5.320
 5578SOL     OW17632   3.586   3.733   0.099
 5578SOL    HW117633   3.556   3.644   0.065
 5578SOL    HW217634   3.557   3.805   0.036
 5579SOL     OW17635   1.069   3.365   6.018
 5579SOL    HW117636   1.018   3.305   5.955
 5579SOL    HW217637   1.022   3.368   6.106
 5580SOL     OW17638   5.161   2.425   6.011
 5580SOL    HW117639   5.209   2.437   5.924
 5580SOL    HW217640   5.126   2.513   6.043
 5581SOL     OW17641   1.933   0.374   2.067
 5581SOL    HW117642   1.957   0.463   2.105
 5581SOL    HW217643   1.990   0.356   1.987
 5582SOL     OW17644   3.335   3.439   4.580
 5582SOL    HW117645   3.318   3.501   4.657
 5582SOL    HW217646   3.340   3.345   4.614
 5583SOL     OW17647   4.326   0.575   2.637
 5583SOL    HW117648   4.291   0.627   2.560
 5583SOL    HW217649   4.377   0.636   2.698
 5584SOL     OW17650   5.783   4.360   3.999
 5584SOL    HW117651   5.817   4.442   3.953
 5584SOL    HW217652   5.700   4.383   4.050
 5585SOL     OW17653   4.761   6.131   3.879
 5585SOL    HW117654   4.792   6.041   3.850
 5585SOL    HW217655   4.834   6.178   3.929
 5586SOL     OW17656   0.033   2.400   6.826
 5586SOL    HW117657   7.016   2.492   6.827
 5586SOL    HW217658   0.100   2.391   6.899
 5587SOL     OW17659   3.949   5.916   2.703
 5587SOL    HW117660   3.908   5.981   2.638
 5587SOL    HW217661   3.893   5.834   2.707
 5588SOL     OW17662   2.124   6.250   2.810
 5588SOL    HW117663   2.038   6.283   2.849
 5588SOL    HW217664   2.201   6.288   2.861
 5589SOL     OW17665   5.730   4.044   5.324
 5589SOL    HW117666   5.677   4.109   5.379
 5589SOL    HW217667   5.674   3.963   5.306
 5590SOL     OW17668   6.333   5.372   4.090
 5590SOL    HW117669   6.241   5.399   4.061
 5590SOL    HW217670   6.357   5.419   4.174
 5591SOL     OW17671   5.644   1.308   7.001
 5591SOL    HW117672   5.630   1.231   0.042
 5591SOL    HW217673   5.606   1.286   6.911
 5592SOL     OW17674   6.687   5.120   3.012
 5592SOL    HW117675   6.744   5.049   3.054
 5592SOL    HW217676   6.701   5.119   2.913
 5593SOL     OW17677   0.331   2.984   6.184
 5593SOL    HW117678   0.369   2.997   6.092
 5593SOL    HW217679   0.233   3.000   6.182
 5594SOL     OW17680   3.535   1.000   6.602
 5594SOL    HW117681   3.535   0.902   6.619
 5594SOL    HW217682   3.600   1.045   6.664
 5595SOL     OW17683   6.322   0.688   5.513
 5595SOL    HW117684   6.331   0.596   5.552
 5595SOL    HW217685   6.327   0.683   5.414
 5596SOL     OW17686   4.952   0.476   2.983
 5596SOL    HW117687   4.938   0.427   2.897
 5596SOL    HW217688   4.923   0.419   3.059
 5597SOL     OW17689   5.788   1.941   5.654
 5597SOL    HW117690   5.775   2.040   5.647
 5597SOL    HW217691   5.803   1.903   5.563
 5598SOL     OW17692   6.167   3.322   3.874
 5598SOL    HW117693   6.211   3.241   3.913
 5598SOL    HW217694   6.090   3.350   3.931
 5599SOL     OW17695   0.936   2.976   2.033
 5599SOL    HW117696   0.937   3.012   2.126
 5599SOL    HW217697   0.975   3.044   1.971
 5600SOL     OW17698   2.264   0.088   2.560
 5600SOL    HW117699   2.293   0.178   2.528
 5600SOL    HW217700   2.192   0.053   2.500
 5601SOL     OW17701   2.968   1.063   6.501
 5601SOL    HW117702   2.956   1.119   6.583
 5601SOL    HW217703   2.983   0.968   6.527
 5602SOL     OW17704   0.523   0.241   1.727
 5602SOL    HW117705   0.425   0.257   1.740
 5602SOL    HW217706   0.547   0.264   1.632
 5603SOL     OW17707   5.608   2.543   0.112
 5603SOL    HW117708   5.627   2.612   0.042
 5603SOL    HW217709   5.572   2.588   0.194
 5604SOL     OW17710   6.593   2.511   5.119
 5604SOL    HW117711   6.527   2.448   5.160
 5604SOL    HW217712   6.644   2.558   5.191
 5605SOL     OW17713   0.747   0.946   4.442
 5605SOL    HW117714   0.717   0.851   4.433
 5605SOL    HW217715   0.670   1.002   4.474
 5606SOL     OW17716   5.359   0.456   0.886
 5606SOL    HW117717   5.412   0.479   0.967
 5606SOL    HW217718   5.289   0.389   0.910
 5607SOL     OW17719   5.924   1.108   3.883
 5607SOL    HW117720   6.016   1.140   3.905
 5607SOL    HW217721   5.929   1.029   3.822
 5608SOL     OW17722   6.496   0.872   2.618
 5608SOL    HW117723   6.425   0.937   2.591
 5608SOL    HW217724   6.585   0.906   2.589
 5609SOL     OW17725   4.690   5.679   2.154
 5609SOL    HW117726   4.715   5.584   2.135
 5609SOL    HW217727   4.597   5.697   2.121
 5610SOL     OW17728   5.103   4.511   1.684
 5610SOL    HW117729   5.196   4.506   1.723
 5610SOL    HW217730   5.057   4.423   1.696
 5611SOL     OW17731   0.815   5.115   3.541
 5611SOL    HW117732   0.903   5.124   3.587
 5611SOL    HW217733   0.744   5.155   3.599
 5612SOL     OW17734   4.291   3.208   6.582
 5612SOL    HW117735   4.373   3.164   6.618
 5612SOL    HW217736   4.290   3.200   6.482
 5613SOL     OW17737   5.225   5.619   5.246
 5613SOL    HW117738   5.195   5.575   5.331
 5613SOL    HW217739   5.286   5.557   5.196
 5614SOL     OW17740   5.488   2.902   5.166
 5614SOL    HW117741   5.448   2.993   5.180
 5614SOL    HW217742   5.563   2.908   5.101
 5615SOL     OW17743   6.711   1.359   3.936
 5615SOL    HW117744   6.803   1.372   3.971
 5615SOL    HW217745   6.645   1.367   4.010
 5616SOL     OW17746   1.854   2.454   4.899
 5616SOL    HW117747   1.799   2.520   4.848
 5616SOL    HW217748   1.931   2.501   4.943
 5617SOL     OW17749   2.047   4.885   5.297
 5617SOL    HW117750   2.147   4.890   5.301
 5617SOL    HW217751   2.010   4.976   5.278
 5618SOL     OW17752   6.881   4.962   4.121
 5618SOL    HW117753   6.811   5.024   4.157
 5618SOL    HW217754   6.924   4.912   4.197
 5619SOL     OW17755   3.821   3.581   4.217
 5619SOL    HW117756   3.880   3.501   4.216
 5619SOL    HW217757   3.874   3.662   4.191
 5620SOL     OW17758   4.171   4.166   6.946
 5620SOL    HW117759   4.184   4.071   6.971
 5620SOL    HW217760   4.241   4.193   6.880
 5621SOL     OW17761   1.686   3.046   0.025
 5621SOL    HW117762   1.723   2.988   0.098
 5621SOL    HW217763   1.724   3.016   6.958
 5622SOL     OW17764   4.240   0.154   5.840
 5622SOL    HW117765   4.208   0.231   5.895
 5622SOL    HW217766   4.333   0.129   5.868
 5623SOL     OW17767   4.607   6.335   4.619
 5623SOL    HW117768   4.702   6.324   4.649
 5623SOL    HW217769   4.553   6.257   4.650
 5624SOL     OW17770   0.203   4.606   3.833
 5624SOL    HW117771   0.215   4.656   3.919
 5624SOL    HW217772   0.111   4.568   3.830
 5625SOL     OW17773   0.236   6.786   5.685
 5625SOL    HW117774   0.295   6.710   5.714
 5625SOL    HW217775   0.169   6.753   5.619
 5626SOL     OW17776   2.363   6.387   3.956
 5626SOL    HW117777   2.329   6.365   4.047
 5626SOL    HW217778   2.300   6.354   3.887
 5627SOL     OW17779   0.349   4.984   6.463
 5627SOL    HW117780   0.277   4.995   6.531
 5627SOL    HW217781   0.341   5.055   6.393
 5628SOL     OW17782   1.778   2.954   1.465
 5628SOL    HW117783   1.866   2.945   1.419
 5628SOL    HW217784   1.709   2.902   1.414
 5629SOL     OW17785   4.592   3.192   1.591
 5629SOL    HW117786   4.629   3.152   1.675
 5629SOL    HW217787   4.547   3.121   1.537
 5630SOL     OW17788   2.015   4.357   6.665
 5630SOL    HW117789   1.939   4.328   6.607
 5630SOL    HW217790   2.087   4.397   6.608
 5631SOL     OW17791   4.984   1.486   2.207
 5631SOL    HW117792   4.953   1.431   2.129
 5631SOL    HW217793   4.980   1.431   2.290
 5632SOL     OW17794   2.940   2.318   5.647
 5632SOL    HW117795   2.914   2.407   5.686
 5632SOL    HW217796   2.970   2.257   5.721
 5633SOL     OW17797   5.651   4.887   4.409
 5633SOL    HW117798   5.579   4.830   4.447
 5633SOL    HW217799   5.701   4.836   4.339
 5634SOL     OW17800   1.748   4.953   4.171
 5634SOL    HW117801   1.773   4.941   4.267
 5634SOL    HW217802   1.804   5.026   4.131
 5635SOL     OW17803   1.556   6.576   6.750
 5635SOL    HW117804   1.537   6.667   6.713
 5635SOL    HW217805   1.642   6.577   6.800
 5636SOL     OW17806   5.825   6.798   5.100
 5636SOL    HW117807   5.729   6.825   5.111
 5636SOL    HW217808   5.854   6.816   5.006
 5637SOL     OW17809   4.512   6.379   3.422
 5637SOL    HW117810   4.493   6.416   3.513
 5637SOL    HW217811   4.564   6.294   3.430
 5638SOL     OW17812   6.938   3.698   1.443
 5638SOL    HW117813   6.896   3.686   1.353
 5638SOL    HW217814   0.010   3.732   1.432
 5639SOL     OW17815   2.715   0.055   2.608
 5639SOL    HW117816   2.630   0.002   2.606
 5639SOL    HW217817   2.697   0.148   2.574
 5640SOL     OW17818   3.626   0.917   2.563
 5640SOL    HW117819   3.623   1.008   2.521
 5640SOL    HW217820   3.691   0.918   2.639
 5641SOL     OW17821   0.201   4.701   5.248
 5641SOL    HW117822   0.290   4.656   5.252
 5641SOL    HW217823   0.184   4.733   5.155
 5642SOL     OW17824   0.140   5.824   5.315
 5642SOL    HW117825   0.080   5.791   5.388
 5642SOL    HW217826   0.172   5.916   5.338
 5643SOL     OW17827   3.811   0.951   4.189
 5643SOL    HW117828   3.780   0.857   4.174
 5643SOL    HW217829   3.893   0.968   4.134
 5644SOL     OW17830   3.585   0.006   4.917
 5644SOL    HW117831   3.661   0.071   4.916
 5644SOL    HW217832   3.550   7.016   4.824
 5645SOL     OW17833   5.350   5.100   2.674
 5645SOL    HW117834   5.339   5.010   2.716
 5645SOL    HW217835   5.445   5.131   2.686
 5646SOL     OW17836   0.648   5.748   3.526
 5646SOL    HW117837   0.614   5.663   3.485
 5646SOL    HW217838   0.591   5.825   3.495
 5647SOL     OW17839   4.587   6.923   0.513
 5647SOL    HW117840   4.617   6.878   0.596
 5647SOL    HW217841   4.596   0.001   0.523
 5648SOL     OW17842   1.667   0.049   3.822
 5648SOL    HW117843   1.574   0.066   3.789
 5648SOL    HW217844   1.677   0.089   3.913
 5649SOL     OW17845   0.504   0.474   4.695
 5649SOL    HW117846   0.426   0.432   4.647
 5649SOL    HW217847   0.574   0.405   4.712
 5650SOL     OW17848   1.071   5.032   0.517
 5650SOL    HW117849   0.980   4.991   0.506
 5650SOL    HW217850   1.063   5.117   0.570
 5651SOL     OW17851   1.364   1.292   1.422
 5651SOL    HW117852   1.290   1.233   1.452
 5651SOL    HW217853   1.329   1.384   1.403
 5652SOL     OW17854   6.774   6.815   2.371
 5652SOL    HW117855   6.860   6.852   2.336
 5652SOL    HW217856   6.728   6.883   2.428
 5653SOL     OW17857   0.028   6.338   6.653
 5653SOL    HW117858   0.021   6.424   6.603
 5653SOL    HW217859   0.124   6.315   6.666
 5654SOL     OW17860   6.358   0.426   5.567
 5654SOL    HW117861   6.432   0.434   5.634
 5654SOL    HW217862   6.280   0.380   5.607
 5655SOL     OW17863   1.381   3.633   4.738
 5655SOL    HW117864   1.328   3.685   4.671
 5655SOL    HW217865   1.478   3.633   4.712
 5656SOL     OW17866   0.130   3.738   6.686
 5656SOL    HW117867   0.157   3.738   6.782
 5656SOL    HW217868   0.158   3.825   6.643
 5657SOL     OW17869   5.708   1.699   0.500
 5657SOL    HW117870   5.657   1.745   0.428
 5657SOL    HW217871   5.667   1.610   0.519
 5658SOL     OW17872   3.787   4.188   6.257
 5658SOL    HW117873   3.755   4.280   6.233
 5658SOL    HW217874   3.881   4.176   6.224
 5659SOL     OW17875   3.928   3.202   4.431
 5659SOL    HW117876   3.939   3.257   4.515
 5659SOL    HW217877   3.934   3.105   4.454
 5660SOL     OW17878   5.322   6.982   0.654
 5660SOL    HW117879   5.396   6.955   0.715
 5660SOL    HW217880   5.343   6.951   0.561
 5661SOL     OW17881   1.482   5.064   5.458
 5661SOL    HW117882   1.496   4.965   5.452
 5661SOL    HW217883   1.547   5.111   5.398
 5662SOL     OW17884   3.054   6.339   3.574
 5662SOL    HW117885   3.128   6.300   3.519
 5662SOL    HW217886   3.074   6.326   3.671
 5663SOL     OW17887   2.055   3.184   0.105
 5663SOL    HW117888   2.051   3.284   0.099
 5663SOL    HW217889   2.128   3.150   0.045
 5664SOL     OW17890   6.674   4.209   5.037
 5664SOL    HW117891   6.602   4.243   4.977
 5664SOL    HW217892   6.688   4.112   5.021
 5665SOL     OW17893   2.068   1.067   0.226
 5665SOL    HW117894   2.132   1.137   0.259
 5665SOL    HW217895   1.974   1.096   0.245
 5666SOL     OW17896   6.229   6.388   2.226
 5666SOL    HW117897   6.146   6.444   2.227
 5666SOL    HW217898   6.268   6.389   2.134
 5667SOL     OW17899   0.928   5.594   4.179
 5667SOL    HW117900   0.895   5.500   4.186
 5667SOL    HW217901   0.957   5.626   4.269
 5668SOL     OW17902   5.334   2.253   4.312
 5668SOL    HW117903   5.395   2.307   4.370
 5668SOL    HW217904   5.241   2.258   4.348
 5669SOL     OW17905   6.984   3.417   6.943
 5669SOL    HW117906   6.971   3.444   6.847
 5669SOL    HW217907   6.914   3.351   6.968
 5670SOL     OW17908   6.935   2.593   3.643
 5670SOL    HW117909   6.994   2.546   3.578
 5670SOL    HW217910   6.873   2.527   3.685
 5671SOL     OW17911   6.807   6.276   6.730
 5671SOL    HW117912   6.807   6.183   6.767
 5671SOL    HW217913   6.890   6.290   6.676
 5672SOL     OW17914   3.715   4.477   6.405
 5672SOL    HW117915   3.681   4.542   6.338
 5672SOL    HW217916   3.673   4.495   6.494
 5673SOL     OW17917   0.956   0.115   2.347
 5673SOL    HW117918   0.958   0.022   2.310
 5673SOL    HW217919   0.883   0.167   2.302
 5674SOL     OW17920   0.331   5.226   4.754
 5674SOL    HW117921   0.289   5.226   4.663
 5674SOL    HW217922   0.263   5.197   4.821
 5675SOL     OW17923   3.807   2.539   6.845
 5675SOL    HW117924   3.901   2.530   6.813
 5675SOL    HW217925   3.806   2.557   6.943
 5676SOL     OW17926   1.764   2.964   2.260
 5676SOL    HW117927   1.858   2.943   2.231
 5676SOL    HW217928   1.717   3.014   2.187
 5677SOL     OW17929   0.716   1.207   0.597
 5677SOL    HW117930   0.676   1.123   0.634
 5677SOL    HW217931   0.749   1.264   0.671
 5678SOL     OW17932   4.024   6.336   2.577
 5678SOL    HW117933   3.999   6.411   2.515
 5678SOL    HW217934   4.000   6.362   2.671
 5679SOL     OW17935   0.248   1.409   3.795
 5679SOL    HW117936   0.177   1.339   3.802
 5679SOL    HW217937   0.237   1.459   3.709
 5680SOL     OW17938   1.574   5.199   5.812
 5680SOL    HW117939   1.560   5.104   5.782
 5680SOL    HW217940   1.510   5.219   5.887
 5681SOL     OW17941   6.983   4.199   0.626
 5681SOL    HW117942   0.027   4.271   0.605
 5681SOL    HW217943   7.006   4.158   0.715
 5682SOL     OW17944   2.429   4.686   5.585
 5682SOL    HW117945   2.435   4.696   5.486
 5682SOL    HW217946   2.359   4.619   5.608
 5683SOL     OW17947   3.971   0.844   6.045
 5683SOL    HW117948   4.000   0.899   6.123
 5683SOL    HW217949   3.877   0.813   6.059
 5684SOL     OW17950   2.547   3.241   5.604
 5684SOL    HW117951   2.555   3.260   5.506
 5684SOL    HW217952   2.631   3.271   5.650
 5685SOL     OW17953   1.822   3.129   2.452
 5685SOL    HW117954   1.920   3.127   2.472
 5685SOL    HW217955   1.800   3.054   2.390
 5686SOL     OW17956   3.252   1.546   5.966
 5686SOL    HW117957   3.323   1.475   5.958
 5686SOL    HW217958   3.176   1.512   6.020
 5687SOL     OW17959   1.001   4.777   6.673
 5687SOL    HW117960   1.058   4.717   6.729
 5687SOL    HW217961   0.933   4.822   6.731
 5688SOL     OW17962   0.480   2.390   1.305
 5688SOL    HW117963   0.554   2.376   1.370
 5688SOL    HW217964   0.449   2.301   1.270
 5689SOL     OW17965   3.943   1.148   0.557
 5689SOL    HW117966   3.931   1.194   0.469
 5689SOL    HW217967   3.993   1.063   0.544
 5690SOL     OW17968   2.456   6.151   0.011
 5690SOL    HW117969   2.393   6.115   0.080
 5690SOL    HW217970   2.513   6.223   0.052
 5691SOL     OW17971   3.320   0.707   1.991
 5691SOL    HW117972   3.237   0.653   1.978
 5691SOL    HW217973   3.382   0.692   1.914
 5692SOL     OW17974   6.023   3.575   0.736
 5692SOL    HW117975   6.007   3.479   0.709
 5692SOL    HW217976   5.939   3.627   0.723
 5693SOL     OW17977   5.589   2.378   2.273
 5693SOL    HW117978   5.629   2.310   2.212
 5693SOL    HW217979   5.607   2.352   2.368
 5694SOL     OW17980   1.053   1.392   3.364
 5694SOL    HW117981   0.982   1.462   3.356
 5694SOL    HW217982   1.088   1.369   3.274
 5695SOL     OW17983   1.177   2.750   2.969
 5695SOL    HW117984   1.267   2.765   2.929
 5695SOL    HW217985   1.107   2.754   2.898
 5696SOL     OW17986   0.998   1.550   3.090
 5696SOL    HW117987   1.065   1.477   3.098
 5696SOL    HW217988   1.022   1.625   3.152
 5697SOL     OW17989   6.060   2.259   1.409
 5697SOL    HW117990   6.130   2.242   1.339
 5697SOL    HW217991   5.974   2.217   1.382
 5698SOL     OW17992   0.938   3.830   3.795
 5698SOL    HW117993   0.851   3.861   3.834
 5698SOL    HW217994   0.998   3.908   3.781
 5699SOL     OW17995   0.786   2.474   3.257
 5699SOL    HW117996   0.863   2.522   3.299
 5699SOL    HW217997   0.726   2.540   3.212
 5700SOL     OW17998   6.748   0.003   3.285
 5700SOL    HW117999   6.718   0.070   3.353
 5700SOL    HW218000   6.699   0.019   3.199
 5701SOL     OW18001   0.928   0.958   2.071
 5701SOL    HW118002   0.985   0.900   2.129
 5701SOL    HW218003   0.855   0.903   2.030
 5702SOL     OW18004   2.527   5.759   4.935
 5702SOL    HW118005   2.450   5.709   4.896
 5702SOL    HW218006   2.525   5.853   4.902
 5703SOL     OW18007   6.665   4.517   1.802
 5703SOL    HW118008   6.627   4.598   1.846
 5703SOL    HW218009   6.758   4.501   1.835
 5704SOL     OW18010   4.563   4.794   2.432
 5704SOL    HW118011   4.641   4.743   2.468
 5704SOL    HW218012   4.485   4.732   2.420
 5705SOL     OW18013   4.965   0.602   0.169
 5705SOL    HW118014   5.010   0.574   0.084
 5705SOL    HW218015   5.032   0.607   0.242
 5706SOL     OW18016   6.794   3.901   0.858
 5706SOL    HW118017   6.749   3.906   0.769
 5706SOL    HW218018   6.885   3.862   0.847
 5707SOL     OW18019   0.303   6.487   0.271
 5707SOL    HW118020   0.252   6.475   0.186
 5707SOL    HW218021   0.389   6.435   0.265
 5708SOL     OW18022   5.292   5.947   1.703
 5708SOL    HW118023   5.296   6.018   1.774
 5708SOL    HW218024   5.209   5.892   1.717
 5709SOL     OW18025   1.322   0.707   2.387
 5709SOL    HW118026   1.302   0.734   2.481
 5709SOL    HW218027   1.378   0.624   2.387
 5710SOL     OW18028   2.668   3.118   0.558
 5710SOL    HW118029   2.578   3.101   0.598
 5710SOL    HW218030   2.659   3.128   0.459
 5711SOL     OW18031   5.570   1.073   2.147
 5711SOL    HW118032   5.555   1.145   2.079
 5711SOL    HW218033   5.560   0.984   2.103
 5712SOL     OW18034   6.510   0.140   6.479
 5712SOL    HW118035   6.543   0.229   6.509
 5712SOL    HW218036   6.539   0.070   6.544
 5713SOL     OW18037   3.137   2.834   1.473
 5713SOL    HW118038   3.102   2.846   1.380
 5713SOL    HW218039   3.228   2.794   1.469
 5714SOL     OW18040   0.234   5.703   0.325
 5714SOL    HW118041   0.332   5.686   0.314
 5714SOL    HW218042   0.201   5.655   0.406
 5715SOL     OW18043   0.978   6.900   3.161
 5715SOL    HW118044   0.927   6.839   3.100
 5715SOL    HW218045   1.072   6.865   3.171
 5716SOL     OW18046   1.723   4.216   6.962
 5716SOL    HW118047   1.714   4.316   6.965
 5716SOL    HW218048   1.713   4.185   6.867
 5717SOL     OW18049   1.589   5.068   1.151
 5717SOL    HW118050   1.559   4.977   1.177
 5717SOL    HW218051   1.511   5.130   1.146
 5718SOL     OW18052   0.258   2.656   5.146
 5718SOL    HW118053   0.316   2.609   5.212
 5718SOL    HW218054   0.162   2.651   5.176
 5719SOL     OW18055   2.813   1.997   6.653
 5719SOL    HW118056   2.894   1.939   6.646
 5719SOL    HW218057   2.779   2.019   6.562
 5720SOL     OW18058   1.530   5.433   4.833
 5720SOL    HW118059   1.564   5.470   4.747
 5720SOL    HW218060   1.546   5.334   4.836
 5721SOL     OW18061   0.284   3.618   1.233
 5721SOL    HW118062   0.216   3.545   1.241
 5721SOL    HW218063   0.263   3.691   1.298
 5722SOL     OW18064   6.607   1.437   4.860
 5722SOL    HW118065   6.552   1.519   4.874
 5722SOL    HW218066   6.667   1.449   4.781
 5723SOL     OW18067   3.978   3.304   0.858
 5723SOL    HW118068   3.994   3.250   0.775
 5723SOL    HW218069   3.924   3.385   0.834
 5724SOL     OW18070   5.676   2.903   4.956
 5724SOL    HW118071   5.704   2.901   4.860
 5724SOL    HW218072   5.748   2.864   5.013
 5725SOL     OW18073   5.111   5.450   4.214
 5725SOL    HW118074   5.016   5.439   4.187
 5725SOL    HW218075   5.142   5.367   4.261
 5726SOL     OW18076   0.352   4.540   4.616
 5726SOL    HW118077   0.349   4.560   4.714
 5726SOL    HW218078   0.263   4.559   4.575
 5727SOL     OW18079   6.519   1.431   3.692
 5727SOL    HW118080   6.461   1.511   3.697
 5727SOL    HW218081   6.572   1.422   3.777
 5728SOL     OW18082   3.684   0.554   6.876
 5728SOL    HW118083   3.702   0.456   6.867
 5728SOL    HW218084   3.765   0.605   6.850
 5729SOL     OW18085   1.173   1.307   0.721
 5729SOL    HW118086   1.224   1.331   0.803
 5729SOL    HW218087   1.099   1.373   0.707
 5730SOL     OW18088   4.483   5.017   5.985
 5730SOL    HW118089   4.526   5.054   6.067
 5730SOL    HW218090   4.430   5.089   5.941
 5731SOL     OW18091   6.929   6.876   3.910
 5731SOL    HW118092   6.902   6.919   3.996
 5731SOL    HW218093   7.018   6.912   3.881
 5732SOL     OW18094   6.662   5.233   4.893
 5732SOL    HW118095   6.563   5.224   4.894
 5732SOL    HW218096   6.702   5.160   4.837
 5733SOL     OW18097   4.272   6.515   5.193
 5733SOL    HW118098   4.247   6.606   5.226
 5733SOL    HW218099   4.363   6.519   5.150
 5734SOL     OW18100   1.092   6.910   5.422
 5734SOL    HW118101   1.071   6.907   5.324
 5734SOL    HW218102   1.159   6.983   5.439
 5735SOL     OW18103   4.107   2.241   2.262
 5735SOL    HW118104   4.178   2.310   2.250
 5735SOL    HW218105   4.065   2.221   2.174
 5736SOL     OW18106   6.241   4.422   0.337
 5736SOL    HW118107   6.198   4.376   0.415
 5736SOL    HW218108   6.201   4.513   0.326
 5737SOL     OW18109   5.366   0.033   1.096
 5737SOL    HW118110   5.380   7.005   1.182
 5737SOL    HW218111   5.279   0.004   1.055
 5738SOL     OW18112   2.476   3.058   6.010
 5738SOL    HW118113   2.391   3.005   6.006
 5738SOL    HW218114   2.554   2.996   6.019
 5739SOL     OW18115   1.620   0.790   5.455
 5739SOL    HW118116   1.542   0.822   5.509
 5739SOL    HW218117   1.641   0.695   5.481
 5740SOL     OW18118   4.167   3.737   1.736
 5740SOL    HW118119   4.116   3.667   1.787
 5740SOL    HW218120   4.138   3.828   1.767
 5741SOL     OW18121   0.288   3.863   4.419
 5741SOL    HW118122   0.300   3.947   4.366
 5741SOL    HW218123   0.324   3.876   4.511
 5742SOL     OW18124   5.308   6.716   2.241
 5742SOL    HW118125   5.303   6.798   2.184
 5742SOL    HW218126   5.398   6.711   2.284
 5743SOL     OW18127   2.695   4.847   5.187
 5743SOL    HW118128   2.683   4.827   5.285
 5743SOL    HW218129   2.750   4.775   5.145
 5744SOL     OW18130   4.852   0.975   2.232
 5744SOL    HW118131   4.775   1.017   2.279
 5744SOL    HW218132   4.825   0.952   2.138
 5745SOL     OW18133   1.415   0.681   4.011
 5745SOL    HW118134   1.423   0.590   3.972
 5745SOL    HW218135   1.488   0.739   3.975
 5746SOL     OW18136   5.973   6.769   1.500
 5746SOL    HW118137   5.960   6.831   1.577
 5746SOL    HW218138   5.986   6.676   1.534
 5747SOL     OW18139   6.992   4.375   3.093
 5747SOL    HW118140   6.978   4.411   3.185
 5747SOL    HW218141   6.972   4.446   3.025
 5748SOL     OW18142   1.665   5.548   0.271
 5748SOL    HW118143   1.692   5.584   0.181
 5748SOL    HW218144   1.621   5.620   0.324
 5749SOL     OW18145   1.557   6.923   5.053
 5749SOL    HW118146   1.506   6.925   5.138
 5749SOL    HW218147   1.592   7.015   5.033
 5750SOL     OW18148   5.713   6.238   4.662
 5750SOL    HW118149   5.649   6.170   4.697
 5750SOL    HW218150   5.778   6.263   4.733
 5751SOL     OW18151   2.948   2.314   4.380
 5751SOL    HW118152   2.849   2.313   4.371
 5751SOL    HW218153   2.989   2.345   4.294
 5752SOL     OW18154   6.160   0.627   0.344
 5752SOL    HW118155   6.157   0.582   0.255
 5752SOL    HW218156   6.216   0.573   0.407
 5753SOL     OW18157   3.768   3.379   5.134
 5753SOL    HW118158   3.770   3.322   5.215
 5753SOL    HW218159   3.719   3.331   5.060
 5754SOL     OW18160   6.436   4.180   0.961
 5754SOL    HW118161   6.484   4.110   1.015
 5754SOL    HW218162   6.485   4.195   0.875
 5755SOL     OW18163   2.099   3.236   6.377
 5755SOL    HW118164   2.026   3.249   6.310
 5755SOL    HW218165   2.162   3.165   6.346
 5756SOL     OW18166   6.050   6.447   3.836
 5756SOL    HW118167   6.037   6.370   3.775
 5756SOL    HW218168   6.008   6.529   3.796
 5757SOL     OW18169   6.752   6.267   2.870
 5757SOL    HW118170   6.658   6.255   2.902
 5757SOL    HW218171   6.751   6.297   2.774
 5758SOL     OW18172   2.301   1.079   4.888
 5758SOL    HW118173   2.317   1.082   4.986
 5758SOL    HW218174   2.259   1.165   4.858
 5759SOL     OW18175   4.792   1.217   6.809
 5759SOL    HW118176   4.828   1.298   6.763
 5759SOL    HW218177   4.869   1.158   6.836
 5760SOL     OW18178   0.510   4.567   1.359
 5760SOL    HW118179   0.515   4.628   1.438
 5760SOL    HW218180   0.523   4.620   1.275
 5761SOL     OW18181   5.918   6.711   6.632
 5761SOL    HW118182   5.852   6.684   6.702
 5761SOL    HW218183   5.875   6.773   6.567
 5762SOL     OW18184   4.765   5.996   0.332
 5762SOL    HW118185   4.714   5.993   0.417
 5762SOL    HW218186   4.759   5.907   0.286
 5763SOL     OW18187   0.107   0.700   6.794
 5763SOL    HW118188   0.134   0.616   6.748
 5763SOL    HW218189   0.092   0.681   6.892
 5764SOL     OW18190   4.633   5.124   5.785
 5764SOL    HW118191   4.573   5.088   5.856
 5764SOL    HW218192   4.648   5.222   5.800
 5765SOL     OW18193   6.814   3.710   7.001
 5765SOL    HW118194   6.758   3.738   0.057
 5765SOL    HW218195   6.874   3.785   6.974
 5766SOL     OW18196   2.183   2.334   0.141
 5766SOL    HW118197   2.164   2.236   0.144
 5766SOL    HW218198   2.193   2.369   0.234
 5767SOL     OW18199   1.965   0.238   0.552
 5767SOL    HW118200   1.993   0.221   0.457
 5767SOL    HW218201   1.968   0.152   0.603
 5768SOL     OW18202   0.157   6.869   3.392
 5768SOL    HW118203   0.068   6.908   3.412
 5768SOL    HW218204   0.186   6.810   3.468
 5769SOL     OW18205   2.407   5.835   4.652
 5769SOL    HW118206   2.351   5.772   4.598
 5769SOL    HW218207   2.348   5.885   4.715
 5770SOL     OW18208   5.602   0.301   0.374
 5770SOL    HW118209   5.516   0.274   0.417
 5770SOL    HW218210   5.673   0.308   0.443
 5771SOL     OW18211   1.640   6.223   3.349
 5771SOL    HW118212   1.650   6.318   3.378
 5771SOL    HW218213   1.560   6.184   3.394
 5772SOL     OW18214   6.331   2.502   0.806
 5772SOL    HW118215   6.306   2.466   0.895
 5772SOL    HW218216   6.306   2.599   0.800
 5773SOL     OW18217   4.747   1.021   4.063
 5773SOL    HW118218   4.841   1.050   4.086
 5773SOL    HW218219   4.742   0.998   3.966
 5774SOL     OW18220   2.989   5.826   4.049
 5774SOL    HW118221   2.986   5.805   3.952
 5774SOL    HW218222   3.040   5.910   4.064
 5775SOL     OW18223   1.776   0.846   2.061
 5775SOL    HW118224   1.763   0.772   1.994
 5775SOL    HW218225   1.763   0.934   2.016
 5776SOL     OW18226   6.517   0.780   5.691
 5776SOL    HW118227   6.525   0.878   5.669
 5776SOL    HW218228   6.440   0.741   5.642
 5777SOL     OW18229   6.515   0.397   5.026
 5777SOL    HW118230   6.574   0.418   5.104
 5777SOL    HW218231   6.453   0.322   5.050
 5778SOL     OW18232   1.972   0.296   1.511
 5778SOL    HW118233   1.975   0.390   1.475
 5778SOL    HW218234   1.932   0.235   1.443
 5779SOL     OW18235   4.055   1.573   0.677
 5779SOL    HW118236   4.095   1.481   0.683
 5779SOL    HW218237   3.971   1.576   0.732
 5780SOL     OW18238   6.054   5.329   3.088
 5780SOL    HW118239   6.106   5.263   3.142
 5780SOL    HW218240   6.031   5.408   3.146
 5781SOL     OW18241   0.795   4.009   4.746
 5781SOL    HW118242   0.886   4.012   4.787
 5781SOL    HW218243   0.727   3.998   4.819
 5782SOL     OW18244   1.608   0.757   1.186
 5782SOL    HW118245   1.534   0.697   1.217
 5782SOL    HW218246   1.678   0.703   1.140
 5783SOL     OW18247   1.703   0.728   1.617
 5783SOL    HW118248   1.672   0.640   1.581
 5783SOL    HW218249   1.757   0.775   1.547
 5784SOL     OW18250   6.836   6.157   0.126
 5784SOL    HW118251   6.765   6.138   0.194
 5784SOL    HW218252   6.813   6.240   0.077
 5785SOL     OW18253   1.560   1.646   1.127
 5785SOL    HW118254   1.589   1.736   1.159
 5785SOL    HW218255   1.588   1.576   1.193
 5786SOL     OW18256   0.892   4.246   0.297
 5786SOL    HW118257   0.966   4.301   0.337
 5786SOL    HW218258   0.932   4.172   0.242
 5787SOL     OW18259   4.599   2.578   4.931
 5787SOL    HW118260   4.559   2.605   5.018
 5787SOL    HW218261   4.526   2.555   4.866
 5788SOL     OW18262   3.099   1.075   1.526
 5788SOL    HW118263   3.187   1.122   1.532
 5788SOL    HW218264   3.098   1.015   1.446
 5789SOL     OW18265   3.378   3.525   6.041
 5789SOL    HW118266   3.308   3.578   5.994
 5789SOL    HW218267   3.347   3.430   6.049
 5790SOL     OW18268   0.256   4.828   4.931
 5790SOL    HW118269   0.244   4.731   4.911
 5790SOL    HW218270   0.347   4.857   4.901
 5791SOL     OW18271   2.907   2.039   2.535
 5791SOL    HW118272   2.818   2.057   2.492
 5791SOL    HW218273   2.979   2.048   2.466
 5792SOL     OW18274   5.622   3.172   2.144
 5792SOL    HW118275   5.524   3.158   2.137
 5792SOL    HW218276   5.657   3.120   2.223
 5793SOL     OW18277   6.031   0.536   4.253
 5793SOL    HW118278   6.090   0.605   4.294
 5793SOL    HW218279   5.937   0.570   4.250
 5794SOL     OW18280   2.968   0.422   6.520
 5794SOL    HW118281   2.940   0.328   6.505
 5794SOL    HW218282   3.040   0.447   6.456
 5795SOL     OW18283   6.628   6.998   1.337
 5795SOL    HW118284   6.715   0.025   1.326
 5795SOL    HW218285   6.598   7.005   1.432
 5796SOL     OW18286   4.327   0.856   6.446
 5796SOL    HW118287   4.346   0.915   6.524
 5796SOL    HW218288   4.232   0.824   6.451
 5797SOL     OW18289   5.064   1.736   0.452
 5797SOL    HW118290   4.999   1.695   0.516
 5797SOL    HW218291   5.016   1.801   0.393
 5798SOL     OW18292   0.078   5.053   4.653
 5798SOL    HW118293   0.021   5.117   4.602
 5798SOL    HW218294   0.128   5.102   4.725
 5799SOL     OW18295   0.166   0.360   4.321
 5799SOL    HW118296   0.122   0.281   4.278
 5799SOL    HW218297   0.118   0.443   4.295
 5800SOL     OW18298   1.010   6.611   1.760
 5800SOL    HW118299   0.965   6.535   1.713
 5800SOL    HW218300   0.967   6.626   1.849
 5801SOL     OW18301   2.231   2.452   3.601
 5801SOL    HW118302   2.181   2.501   3.673
 5801SOL    HW218303   2.206   2.356   3.603
 5802SOL     OW18304   6.260   2.904   2.683
 5802SOL    HW118305   6.194   2.864   2.619
 5802SOL    HW218306   6.232   2.883   2.777
 5803SOL     OW18307   2.191   5.662   3.230
 5803SOL    HW118308   2.102   5.629   3.262
 5803SOL    HW218309   2.221   5.738   3.288
 5804SOL     OW18310   6.974   5.783   3.176
 5804SOL    HW118311   6.887   5.771   3.128
 5804SOL    HW218312   0.028   5.783   3.110
 5805SOL     OW18313   1.658   3.032   0.602
 5805SOL    HW118314   1.679   3.063   0.694
 5805SOL    HW218315   1.700   2.943   0.586
 5806SOL     OW18316   7.013   4.800   4.614
 5806SOL    HW118317   7.022   4.740   4.694
 5806SOL    HW218318   0.014   4.894   4.641
 5807SOL     OW18319   1.022   5.464   0.411
 5807SOL    HW118320   1.117   5.470   0.379
 5807SOL    HW218321   0.967   5.414   0.344
 5808SOL     OW18322   6.859   6.585   4.276
 5808SOL    HW118323   6.813   6.506   4.236
 5808SOL    HW218324   6.953   6.561   4.301
 5809SOL     OW18325   6.704   1.963   5.209
 5809SOL    HW118326   6.730   1.879   5.160
 5809SOL    HW218327   6.698   1.943   5.307
 5810SOL     OW18328   4.920   0.865   5.408
 5810SOL    HW118329   4.874   0.794   5.462
 5810SOL    HW218330   4.899   0.852   5.311
 5811SOL     OW18331   3.628   1.425   5.134
 5811SOL    HW118332   3.529   1.438   5.136
 5811SOL    HW218333   3.669   1.467   5.216
 5812SOL     OW18334   4.857   3.053   5.953
 5812SOL    HW118335   4.918   3.064   6.032
 5812SOL    HW218336   4.785   3.122   5.956
 5813SOL     OW18337   2.635   0.323   0.609
 5813SOL    HW118338   2.541   0.344   0.585
 5813SOL    HW218339   2.650   0.340   0.706
 5814SOL     OW18340   0.349   3.214   2.126
 5814SOL    HW118341   0.254   3.243   2.137
 5814SOL    HW218342   0.410   3.280   2.169
 5815SOL     OW18343   4.431   1.648   4.353
 5815SOL    HW118344   4.459   1.744   4.351
 5815SOL    HW218345   4.503   1.591   4.312
 5816SOL     OW18346   5.005   4.788   0.210
 5816SOL    HW118347   4.989   4.720   0.138
 5816SOL    HW218348   4.921   4.840   0.226
 5817SOL     OW18349   5.981   4.872   5.260
 5817SOL    HW118350   5.967   4.954   5.204
 5817SOL    HW218351   6.074   4.871   5.295
 5818SOL     OW18352   6.726   5.769   5.519
 5818SOL    HW118353   6.778   5.695   5.475
 5818SOL    HW218354   6.773   5.798   5.602
 5819SOL     OW18355   3.330   6.267   6.808
 5819SOL    HW118356   3.391   6.191   6.831
 5819SOL    HW218357   3.293   6.307   6.891
 5820SOL     OW18358   4.324   4.599   2.676
 5820SOL    HW118359   4.235   4.615   2.633
 5820SOL    HW218360   4.320   4.626   2.772
 5821SOL     OW18361   6.966   1.038   1.752
 5821SOL    HW118362   6.883   1.004   1.796
 5821SOL    HW218363   6.945   1.061   1.657
 5822SOL     OW18364   1.831   2.959   1.736
 5822SOL    HW118365   1.761   2.955   1.807
 5822SOL    HW218366   1.788   2.949   1.647
 5823SOL     OW18367   2.799   6.978   4.724
 5823SOL    HW118368   2.862   6.975   4.647
 5823SOL    HW218369   2.844   0.000   4.802
 5824SOL     OW18370   0.279   6.377   3.371
 5824SOL    HW118371   0.185   6.374   3.337
 5824SOL    HW218372   0.301   6.290   3.416
 5825SOL     OW18373   0.516   6.381   4.491
 5825SOL    HW118374   0.569   6.300   4.465
 5825SOL    HW218375   0.426   6.377   4.447
 5826SOL     OW18376   0.427   6.513   6.215
 5826SOL    HW118377   0.355   6.445   6.202
 5826SOL    HW218378   0.513   6.468   6.236
 5827SOL     OW18379   1.874   3.527   4.328
 5827SOL    HW118380   1.909   3.448   4.379
 5827SOL    HW218381   1.937   3.604   4.339
 5828SOL     OW18382   4.972   1.367   2.457
 5828SOL    HW118383   5.039   1.293   2.452
 5828SOL    HW218384   4.945   1.381   2.552
 5829SOL     OW18385   1.672   0.571   4.427
 5829SOL    HW118386   1.594   0.613   4.380
 5829SOL    HW218387   1.652   0.475   4.447
 5830SOL     OW18388   5.116   0.189   5.595
 5830SOL    HW118389   5.096   0.183   5.693
 5830SOL    HW218390   5.114   0.284   5.566
 5831SOL     OW18391   1.218   0.789   5.853
 5831SOL    HW118392   1.160   0.732   5.911
 5831SOL    HW218393   1.162   0.859   5.808
 5832SOL     OW18394   3.431   4.485   0.034
 5832SOL    HW118395   3.340   4.487   7.014
 5832SOL    HW218396   3.470   4.394   0.025
 5833SOL     OW18397   3.922   3.276   4.900
 5833SOL    HW118398   3.920   3.373   4.922
 5833SOL    HW218399   3.944   3.223   4.982
 5834SOL     OW18400   6.595   4.000   6.662
 5834SOL    HW118401   6.541   3.939   6.604
 5834SOL    HW218402   6.544   4.085   6.677
 5835SOL     OW18403   5.379   1.978   2.837
 5835SOL    HW118404   5.338   2.044   2.774
 5835SOL    HW218405   5.345   1.886   2.816
 5836SOL     OW18406   3.004   0.308   1.670
 5836SOL    HW118407   3.090   0.326   1.621
 5836SOL    HW218408   2.988   0.210   1.673
 5837SOL     OW18409   3.777   2.808   0.100
 5837SOL    HW118410   3.700   2.867   0.076
 5837SOL    HW218411   3.743   2.716   0.121
 5838SOL     OW18412   2.877   1.746   1.234
 5838SOL    HW118413   2.829   1.715   1.152
 5838SOL    HW218414   2.898   1.667   1.292
 5839SOL     OW18415   0.647   2.094   0.658
 5839SOL    HW118416   0.736   2.124   0.622
 5839SOL    HW218417   0.647   1.994   0.666
 5840SOL     OW18418   1.005   4.055   6.750
 5840SOL    HW118419   1.050   4.110   6.821
 5840SOL    HW218420   0.908   4.080   6.746
 5841SOL     OW18421   5.323   1.171   1.754
 5841SOL    HW118422   5.237   1.164   1.804
 5841SOL    HW218423   5.356   1.265   1.756
 5842SOL     OW18424   4.870   2.919   1.493
 5842SOL    HW118425   4.826   2.918   1.583
 5842SOL    HW218426   4.925   3.001   1.484
 5843SOL     OW18427   1.461   4.461   1.918
 5843SOL    HW118428   1.470   4.425   1.826
 5843SOL    HW218429   1.466   4.386   1.984
 5844SOL     OW18430   1.544   5.875   6.180
 5844SOL    HW118431   1.540   5.865   6.081
 5844SOL    HW218432   1.483   5.808   6.223
 5845SOL     OW18433   0.797   0.057   1.845
 5845SOL    HW118434   0.770   0.037   1.750
 5845SOL    HW218435   0.763   0.147   1.871
 5846SOL     OW18436   6.064   3.795   5.557
 5846SOL    HW118437   6.089   3.792   5.654
 5846SOL    HW218438   6.017   3.710   5.531
 5847SOL     OW18439   2.631   2.407   1.884
 5847SOL    HW118440   2.719   2.380   1.923
 5847SOL    HW218441   2.564   2.421   1.957
 5848SOL     OW18442   1.901   5.629   3.391
 5848SOL    HW118443   1.959   5.614   3.472
 5848SOL    HW218444   1.826   5.692   3.415
 5849SOL     OW18445   1.824   0.169   5.596
 5849SOL    HW118446   1.760   0.187   5.521
 5849SOL    HW218447   1.918   0.172   5.560
 5850SOL     OW18448   0.438   3.602   2.064
 5850SOL    HW118449   0.338   3.599   2.071
 5850SOL    HW218450   0.467   3.552   1.983
 5851SOL     OW18451   5.191   3.775   3.907
 5851SOL    HW118452   5.138   3.840   3.853
 5851SOL    HW218453   5.174   3.790   4.005
 5852SOL     OW18454   5.301   6.464   2.629
 5852SOL    HW118455   5.277   6.368   2.641
 5852SOL    HW218456   5.234   6.508   2.569
 5853SOL     OW18457   3.850   5.392   5.378
 5853SOL    HW118458   3.845   5.299   5.413
 5853SOL    HW218459   3.871   5.455   5.452
 5854SOL     OW18460   4.091   3.774   5.612
 5854SOL    HW118461   4.023   3.760   5.684
 5854SOL    HW218462   4.047   3.762   5.523
 5855SOL     OW18463   1.561   1.064   4.238
 5855SOL    HW118464   1.631   1.118   4.285
 5855SOL    HW218465   1.473   1.076   4.283
 5856SOL     OW18466   1.361   5.859   3.610
 5856SOL    HW118467   1.322   5.873   3.701
 5856SOL    HW218468   1.426   5.783   3.612
 5857SOL     OW18469   6.267   3.243   5.130
 5857SOL    HW118470   6.318   3.174   5.079
 5857SOL    HW218471   6.189   3.200   5.176
 5858SOL     OW18472   2.196   2.294   2.457
 5858SOL    HW118473   2.236   2.382   2.483
 5858SOL    HW218474   2.097   2.301   2.460
 5859SOL     OW18475   6.501   6.200   1.152
 5859SOL    HW118476   6.468   6.114   1.191
 5859SOL    HW218477   6.546   6.181   1.064
 5860SOL     OW18478   6.788   5.414   3.337
 5860SOL    HW118479   6.793   5.324   3.381
 5860SOL    HW218480   6.879   5.438   3.303
 5861SOL     OW18481   5.759   1.080   4.099
 5861SOL    HW118482   5.828   1.104   4.030
 5861SOL    HW218483   5.684   1.031   4.055
 5862SOL     OW18484   6.011   5.435   0.939
 5862SOL    HW118485   5.947   5.360   0.957
 5862SOL    HW218486   6.047   5.426   0.846
 5863SOL     OW18487   2.695   2.392   4.864
 5863SOL    HW118488   2.734   2.381   4.956
 5863SOL    HW218489   2.768   2.388   4.796
 5864SOL     OW18490   3.061   3.825   2.645
 5864SOL    HW118491   3.071   3.795   2.741
 5864SOL    HW218492   2.995   3.766   2.599
 5865SOL     OW18493   5.583   0.713   4.991
 5865SOL    HW118494   5.557   0.660   5.071
 5865SOL    HW218495   5.502   0.733   4.935
 5866SOL     OW18496   3.236   3.000   1.094
 5866SOL    HW118497   3.283   2.982   1.180
 5866SOL    HW218498   3.273   3.083   1.053
 5867SOL     OW18499   2.133   3.476   1.460
 5867SOL    HW118500   2.145   3.395   1.519
 5867SOL    HW218501   2.035   3.488   1.441
 5868SOL     OW18502   2.064   1.663   5.817
 5868SOL    HW118503   2.060   1.603   5.897
 5868SOL    HW218504   2.084   1.757   5.847
 5869SOL     OW18505   2.218   5.713   2.862
 5869SOL    HW118506   2.311   5.700   2.896
 5869SOL    HW218507   2.176   5.624   2.845
 5870SOL     OW18508   5.213   6.308   5.093
 5870SOL    HW118509   5.120   6.272   5.083
 5870SOL    HW218510   5.277   6.233   5.111
 5871SOL     OW18511   3.488   3.495   1.861
 5871SOL    HW118512   3.455   3.582   1.898
 5871SOL    HW218513   3.497   3.501   1.762
 5872SOL     OW18514   4.281   6.961   1.563
 5872SOL    HW118515   4.204   6.902   1.539
 5872SOL    HW218516   4.247   0.021   1.611
 5873SOL     OW18517   3.490   6.809   2.223
 5873SOL    HW118518   3.584   6.792   2.194
 5873SOL    HW218519   3.468   6.905   2.208
 5874SOL     OW18520   2.283   4.342   5.304
 5874SOL    HW118521   2.336   4.264   5.336
 5874SOL    HW218522   2.195   4.344   5.351
 5875SOL     OW18523   4.224   1.474   0.254
 5875SOL    HW118524   4.246   1.514   0.165
 5875SOL    HW218525   4.144   1.519   0.292
 5876SOL     OW18526   3.921   3.332   1.687
 5876SOL    HW118527   3.838   3.365   1.732
 5876SOL    HW218528   3.928   3.374   1.596
 5877SOL     OW18529   6.553   6.571   0.904
 5877SOL    HW118530   6.541   6.668   0.884
 5877SOL    HW218531   6.582   6.523   0.822
 5878SOL     OW18532   6.936   5.483   4.513
 5878SOL    HW118533   6.957   5.386   4.520
 5878SOL    HW218534   6.876   5.510   4.588
 5879SOL     OW18535   1.940   4.274   0.114
 5879SOL    HW118536   2.036   4.248   0.119
 5879SOL    HW218537   1.896   4.226   0.038
 5880SOL     OW18538   4.352   4.189   6.707
 5880SOL    HW118539   4.415   4.237   6.768
 5880SOL    HW218540   4.397   4.108   6.671
 5881SOL     OW18541   0.667   6.403   2.777
 5881SOL    HW118542   0.594   6.395   2.845
 5881SOL    HW218543   0.743   6.345   2.803
 5882SOL     OW18544   0.367   6.132   1.494
 5882SOL    HW118545   0.287   6.073   1.486
 5882SOL    HW218546   0.399   6.132   1.588
 5883SOL     OW18547   1.325   0.865   6.269
 5883SOL    HW118548   1.418   0.902   6.270
 5883SOL    HW218549   1.270   0.916   6.203
 5884SOL     OW18550   3.029   1.758   4.640
 5884SOL    HW118551   3.079   1.842   4.619
 5884SOL    HW218552   3.035   1.740   4.738
 5885SOL     OW18553   0.639   0.607   3.318
 5885SOL    HW118554   0.591   0.538   3.372
 5885SOL    HW218555   0.725   0.631   3.362
 5886SOL     OW18556   0.855   1.876   5.041
 5886SOL    HW118557   0.945   1.837   5.060
 5886SOL    HW218558   0.837   1.873   4.943
 5887SOL     OW18559   2.708   1.548   3.411
 5887SOL    HW118560   2.617   1.574   3.446
 5887SOL    HW218561   2.765   1.516   3.486
 5888SOL     OW18562   2.988   0.943   1.876
 5888SOL    HW118563   2.932   1.022   1.851
 5888SOL    HW218564   2.959   0.863   1.823
 5889SOL     OW18565   1.361   6.549   0.760
 5889SOL    HW118566   1.361   6.641   0.720
 5889SOL    HW218567   1.331   6.483   0.690
 5890SOL     OW18568   2.072   1.247   3.739
 5890SOL    HW118569   2.022   1.214   3.819
 5890SOL    HW218570   2.168   1.263   3.764
 5891SOL     OW18571   3.873   3.336   5.980
 5891SOL    HW118572   3.845   3.322   5.885
 5891SOL    HW218573   3.865   3.250   6.030
 5892SOL     OW18574   0.663   5.035   1.756
 5892SOL    HW118575   0.614   4.971   1.816
 5892SOL    HW218576   0.756   5.001   1.740
 5893SOL     OW18577   1.749   3.957   4.139
 5893SOL    HW118578   1.715   3.867   4.168
 5893SOL    HW218579   1.706   4.028   4.195
 5894SOL     OW18580   6.717   4.793   4.309
 5894SOL    HW118581   6.811   4.795   4.341
 5894SOL    HW218582   6.655   4.819   4.383
 5895SOL     OW18583   5.397   3.891   4.382
 5895SOL    HW118584   5.298   3.878   4.382
 5895SOL    HW218585   5.419   3.981   4.420
 5896SOL     OW18586   4.526   0.566   0.100
 5896SOL    HW118587   4.590   0.617   0.042
 5896SOL    HW218588   4.578   0.507   0.162
 5897SOL     OW18589   4.066   0.713   1.497
 5897SOL    HW118590   4.165   0.720   1.511
 5897SOL    HW218591   4.043   0.622   1.464
 5898SOL     OW18592   1.930   6.696   3.430
 5898SOL    HW118593   1.854   6.745   3.387
 5898SOL    HW218594   1.972   6.754   3.500
 5899SOL     OW18595   5.101   5.834   5.880
 5899SOL    HW118596   5.122   5.757   5.819
 5899SOL    HW218597   5.181   5.893   5.887
 5900SOL     OW18598   5.395   4.863   3.321
 5900SOL    HW118599   5.417   4.883   3.226
 5900SOL    HW218600   5.465   4.904   3.380
 5901SOL     OW18601   2.669   0.453   0.371
 5901SOL    HW118602   2.615   0.534   0.394
 5901SOL    HW218603   2.639   0.376   0.428
 5902SOL     OW18604   6.575   2.711   6.053
 5902SOL    HW118605   6.487   2.666   6.038
 5902SOL    HW218606   6.616   2.733   5.965
 5903SOL     OW18607   4.361   4.547   6.902
 5903SOL    HW118608   4.273   4.529   6.857
 5903SOL    HW218609   4.402   4.461   6.929
 5904SOL     OW18610   1.043   4.033   1.666
 5904SOL    HW118611   1.117   4.022   1.600
 5904SOL    HW218612   1.023   3.945   1.709
 5905SOL     OW18613   6.396   5.954   3.103
 5905SOL    HW118614   6.374   5.865   3.142
 5905SOL    HW218615   6.365   5.958   3.008
 5906SOL     OW18616   4.167   2.175   3.689
 5906SOL    HW118617   4.158   2.241   3.763
 5906SOL    HW218618   4.230   2.102   3.718
 5907SOL     OW18619   0.490   5.045   1.253
 5907SOL    HW118620   0.429   5.081   1.325
 5907SOL    HW218621   0.572   5.007   1.295
 5908SOL     OW18622   0.165   2.735   6.125
 5908SOL    HW118623   0.086   2.782   6.165
 5908SOL    HW218624   0.247   2.789   6.142
 5909SOL     OW18625   6.661   5.748   0.559
 5909SOL    HW118626   6.662   5.797   0.472
 5909SOL    HW218627   6.574   5.699   0.568
 5910SOL     OW18628   0.165   3.764   3.754
 5910SOL    HW118629   0.077   3.809   3.737
 5910SOL    HW218630   0.221   3.767   3.671
 5911SOL     OW18631   6.448   6.589   6.228
 5911SOL    HW118632   6.448   6.683   6.261
 5911SOL    HW218633   6.406   6.529   6.296
 5912SOL     OW18634   6.792   0.898   5.825
 5912SOL    HW118635   6.746   0.870   5.909
 5912SOL    HW218636   6.742   0.864   5.746
 5913SOL     OW18637   4.521   2.923   6.417
 5913SOL    HW118638   4.459   2.873   6.478
 5913SOL    HW218639   4.593   2.966   6.471
 5914SOL     OW18640   1.571   5.045   6.486
 5914SOL    HW118641   1.480   5.030   6.447
 5914SOL    HW218642   1.570   5.021   6.583
 5915SOL     OW18643   4.691   5.843   1.262
 5915SOL    HW118644   4.691   5.937   1.226
 5915SOL    HW218645   4.772   5.830   1.319
 5916SOL     OW18646   5.648   6.137   3.916
 5916SOL    HW118647   5.581   6.172   3.982
 5916SOL    HW218648   5.686   6.213   3.863
 5917SOL     OW18649   3.179   3.409   4.357
 5917SOL    HW118650   3.232   3.351   4.294
 5917SOL    HW218651   3.236   3.431   4.436
 5918SOL     OW18652   2.031   4.131   5.271
 5918SOL    HW118653   1.951   4.076   5.293
 5918SOL    HW218654   2.041   4.138   5.172
 5919SOL     OW18655   3.824   2.969   3.108
 5919SOL    HW118656   3.834   2.921   3.195
 5919SOL    HW218657   3.762   3.046   3.118
 5920SOL     OW18658   4.387   1.011   6.675
 5920SOL    HW118659   4.426   0.965   6.755
 5920SOL    HW218660   4.447   1.087   6.648
 5921SOL     OW18661   3.472   5.349   6.290
 5921SOL    HW118662   3.453   5.404   6.209
 5921SOL    HW218663   3.418   5.265   6.287
 5922SOL     OW18664   5.279   4.010   3.191
 5922SOL    HW118665   5.376   4.002   3.170
 5922SOL    HW218666   5.261   4.100   3.231
 5923SOL     OW18667   0.120   1.639   2.004
 5923SOL    HW118668   0.030   1.680   2.018
 5923SOL    HW218669   0.191   1.708   2.016
 5924SOL     OW18670   6.927   7.008   2.855
 5924SOL    HW118671   6.940   0.075   2.900
 5924SOL    HW218672   6.889   0.002   2.764
 5925SOL     OW18673   3.992   6.728   1.893
 5925SOL    HW118674   3.957   6.800   1.833
 5925SOL    HW218675   3.915   6.681   1.936
 5926SOL     OW18676   4.124   5.504   2.162
 5926SOL    HW118677   4.048   5.456   2.207
 5926SOL    HW218678   4.091   5.545   2.077
 5927SOL     OW18679   1.507   4.808   2.451
 5927SOL    HW118680   1.442   4.832   2.523
 5927SOL    HW218681   1.507   4.708   2.439
 5928SOL     OW18682   3.614   6.747   1.144
 5928SOL    HW118683   3.524   6.781   1.168
 5928SOL    HW218684   3.621   6.736   1.045
 5929SOL     OW18685   6.557   0.432   6.071
 5929SOL    HW118686   6.572   0.354   6.132
 5929SOL    HW218687   6.646   0.467   6.040
 5930SOL     OW18688   6.516   4.039   3.218
 5930SOL    HW118689   6.599   3.983   3.221
 5930SOL    HW218690   6.438   3.982   3.242
 5931SOL     OW18691   6.896   6.040   2.959
 5931SOL    HW118692   6.975   6.021   2.902
 5931SOL    HW218693   6.853   6.125   2.929
 5932SOL     OW18694   3.230   0.098   1.070
 5932SOL    HW118695   3.245   0.115   0.972
 5932SOL    HW218696   3.155   0.156   1.102
 5933SOL     OW18697   6.632   5.051   3.736
 5933SOL    HW118698   6.611   4.954   3.745
 5933SOL    HW218699   6.600   5.084   3.647
 5934SOL     OW18700   3.522   2.983   4.743
 5934SOL    HW118701   3.485   2.955   4.831
 5934SOL    HW218702   3.614   3.018   4.755
 5935SOL     OW18703   6.674   4.979   6.492
 5935SOL    HW118704   6.604   4.912   6.466
 5935SOL    HW218705   6.746   4.933   6.544
 5936SOL     OW18706   3.187   2.455   1.418
 5936SOL    HW118707   3.264   2.481   1.476
 5936SOL    HW218708   3.101   2.478   1.463
 5937SOL     OW18709   6.317   3.212   2.189
 5937SOL    HW118710   6.237   3.214   2.249
 5937SOL    HW218711   6.363   3.301   2.192
 5938SOL     OW18712   6.489   5.433   2.902
 5938SOL    HW118713   6.552   5.430   2.980
 5938SOL    HW218714   6.540   5.449   2.818
 5939SOL     OW18715   2.330   6.499   3.221
 5939SOL    HW118716   2.388   6.445   3.282
 5939SOL    HW218717   2.335   6.596   3.248
 5940SOL     OW18718   4.492   5.271   2.528
 5940SOL    HW118719   4.450   5.189   2.488
 5940SOL    HW218720   4.486   5.347   2.463
 5941SOL     OW18721   5.597   3.609   2.284
 5941SOL    HW118722   5.696   3.606   2.299
 5941SOL    HW218723   5.576   3.588   2.189
 5942SOL     OW18724   5.521   4.049   0.196
 5942SOL    HW118725   5.542   3.961   0.237
 5942SOL    HW218726   5.438   4.041   0.139
 5943SOL     OW18727   3.330   4.136   5.805
 5943SOL    HW118728   3.345   4.045   5.845
 5943SOL    HW218729   3.313   4.202   5.878
 5944SOL     OW18730   0.054   2.342   0.542
 5944SOL    HW118731   0.153   2.331   0.548
 5944SOL    HW218732   0.028   2.429   0.583
 5945SOL     OW18733   6.553   4.774   5.426
 5945SOL    HW118734   6.505   4.722   5.355
 5945SOL    HW218735   6.552   4.871   5.402
 5946SOL     OW18736   3.604   3.619   5.917
 5946SOL    HW118737   3.512   3.599   5.950
 5946SOL    HW218738   3.669   3.613   5.992
 5947SOL     OW18739   3.363   3.136   2.406
 5947SOL    HW118740   3.419   3.068   2.358
 5947SOL    HW218741   3.274   3.142   2.362
 5948SOL     OW18742   4.181   4.967   2.476
 5948SOL    HW118743   4.163   4.907   2.553
 5948SOL    HW218744   4.115   5.042   2.475
 5949SOL     OW18745   5.153   4.015   1.465
 5949SOL    HW118746   5.138   4.112   1.484
 5949SOL    HW218747   5.079   3.980   1.408
 5950SOL     OW18748   5.591   1.219   5.340
 5950SOL    HW118749   5.542   1.289   5.392
 5950SOL    HW218750   5.562   1.222   5.244
 5951SOL     OW18751   1.586   5.554   3.749
 5951SOL    HW118752   1.630   5.505   3.674
 5951SOL    HW218753   1.489   5.529   3.752
 5952SOL     OW18754   5.340   4.997   3.084
 5952SOL    HW118755   5.273   4.960   3.019
 5952SOL    HW218756   5.295   5.065   3.142
 5953SOL     OW18757   6.537   3.589   5.348
 5953SOL    HW118758   6.499   3.586   5.255
 5953SOL    HW218759   6.463   3.596   5.414
 5954SOL     OW18760   6.261   5.133   5.551
 5954SOL    HW118761   6.219   5.123   5.461
 5954SOL    HW218762   6.211   5.077   5.617
 5955SOL     OW18763   4.660   5.597   2.446
 5955SOL    HW118764   4.642   5.532   2.372
 5955SOL    HW218765   4.610   5.682   2.428
 5956SOL     OW18766   4.508   1.911   4.384
 5956SOL    HW118767   4.428   1.933   4.440
 5956SOL    HW218768   4.584   1.884   4.443
 5957SOL     OW18769   3.123   1.057   4.805
 5957SOL    HW118770   3.104   1.142   4.756
 5957SOL    HW218771   3.044   1.032   4.861
 5958SOL     OW18772   4.978   6.424   2.991
 5958SOL    HW118773   4.978   6.324   2.986
 5958SOL    HW218774   5.055   6.459   2.937
 5959SOL     OW18775   4.100   3.076   5.416
 5959SOL    HW118776   4.066   3.067   5.509
 5959SOL    HW218777   4.174   3.011   5.401
 5960SOL     OW18778   4.064   5.523   5.018
 5960SOL    HW118779   4.152   5.479   5.001
 5960SOL    HW218780   4.027   5.559   4.933
 5961SOL     OW18781   4.788   2.160   2.858
 5961SOL    HW118782   4.764   2.215   2.938
 5961SOL    HW218783   4.808   2.220   2.781
 5962SOL     OW18784   5.833   6.121   6.977
 5962SOL    HW118785   5.930   6.145   6.969
 5962SOL    HW218786   5.784   6.148   6.895
 5963SOL     OW18787   3.715   3.554   6.519
 5963SOL    HW118788   3.812   3.553   6.493
 5963SOL    HW218789   3.660   3.522   6.442
 5964SOL     OW18790   1.010   6.265   5.538
 5964SOL    HW118791   0.973   6.202   5.470
 5964SOL    HW218792   1.021   6.219   5.626
 5965SOL     OW18793   1.898   1.742   0.263
 5965SOL    HW118794   1.810   1.698   0.281
 5965SOL    HW218795   1.883   1.826   0.211
 5966SOL     OW18796   2.140   6.167   5.870
 5966SOL    HW118797   2.129   6.098   5.942
 5966SOL    HW218798   2.191   6.127   5.794
 5967SOL     OW18799   2.896   0.408   6.003
 5967SOL    HW118800   2.829   0.464   5.954
 5967SOL    HW218801   2.982   0.407   5.952
 5968SOL     OW18802   5.304   2.451   0.604
 5968SOL    HW118803   5.366   2.508   0.657
 5968SOL    HW218804   5.296   2.361   0.647
 5969SOL     OW18805   6.027   0.300   6.586
 5969SOL    HW118806   6.009   0.259   6.676
 5969SOL    HW218807   6.081   0.383   6.598
 5970SOL     OW18808   0.257   4.370   3.017
 5970SOL    HW118809   0.159   4.372   3.034
 5970SOL    HW218810   0.284   4.279   2.987
 5971SOL     OW18811   0.493   1.423   2.530
 5971SOL    HW118812   0.460   1.459   2.442
 5971SOL    HW218813   0.577   1.472   2.556
 5972SOL     OW18814   5.718   5.983   6.153
 5972SOL    HW118815   5.788   5.988   6.081
 5972SOL    HW218816   5.713   5.890   6.188
 5973SOL     OW18817   1.568   3.233   1.753
 5973SOL    HW118818   1.521   3.182   1.824
 5973SOL    HW218819   1.600   3.320   1.789
 5974SOL     OW18820   5.723   5.672   6.546
 5974SOL    HW118821   5.633   5.655   6.585
 5974SOL    HW218822   5.791   5.671   6.619
 5975SOL     OW18823   4.493   0.288   1.223
 5975SOL    HW118824   4.592   0.278   1.223
 5975SOL    HW218825   4.453   0.223   1.158
 5976SOL     OW18826   3.914   2.566   6.041
 5976SOL    HW118827   3.888   2.582   5.946
 5976SOL    HW218828   4.012   2.582   6.052
 5977SOL     OW18829   1.334   6.030   0.071
 5977SOL    HW118830   1.258   6.062   0.014
 5977SOL    HW218831   1.419   6.071   0.038
 5978SOL     OW18832   4.296   5.268   1.824
 5978SOL    HW118833   4.321   5.365   1.828
 5978SOL    HW218834   4.366   5.218   1.772
 5979SOL     OW18835   5.749   0.581   2.714
 5979SOL    HW118836   5.808   0.543   2.642
 5979SOL    HW218837   5.792   0.662   2.753
 5980SOL     OW18838   3.426   4.276   0.916
 5980SOL    HW118839   3.481   4.192   0.911
 5980SOL    HW218840   3.359   4.276   0.841
 5981SOL     OW18841   5.598   1.943   1.586
 5981SOL    HW118842   5.616   2.036   1.618
 5981SOL    HW218843   5.581   1.883   1.665
 5982SOL     OW18844   6.244   2.211   1.614
 5982SOL    HW118845   6.307   2.134   1.609
 5982SOL    HW218846   6.192   2.218   1.528
 5983SOL     OW18847   1.342   1.286   3.647
 5983SOL    HW118848   1.433   1.259   3.677
 5983SOL    HW218849   1.345   1.380   3.612
 5984SOL     OW18850   5.882   5.798   3.156
 5984SOL    HW118851   5.911   5.865   3.225
 5984SOL    HW218852   5.782   5.798   3.149
 5985SOL     OW18853   6.934   3.555   3.758
 5985SOL    HW118854   7.018   3.524   3.803
 5985SOL    HW218855   6.864   3.573   3.828
 5986SOL     OW18856   3.188   4.086   4.343
 5986SOL    HW118857   3.173   4.184   4.362
 5986SOL    HW218858   3.179   4.070   4.244
 5987SOL     OW18859   5.651   0.037   3.768
 5987SOL    HW118860   5.720   0.102   3.797
 5987SOL    HW218861   5.686   7.002   3.694
 5988SOL     OW18862   4.212   0.502   5.801
 5988SOL    HW118863   4.200   0.591   5.845
 5988SOL    HW218864   4.307   0.490   5.776
 5989SOL     OW18865   2.509   5.891   6.639
 5989SOL    HW118866   2.606   5.904   6.661
 5989SOL    HW218867   2.468   5.979   6.616
 5990SOL     OW18868   3.149   3.488   0.772
 5990SOL    HW118869   3.081   3.500   0.699
 5990SOL    HW218870   3.195   3.575   0.789
 5991SOL     OW18871   3.753   5.253   6.715
 5991SOL    HW118872   3.823   5.318   6.684
 5991SOL    HW218873   3.690   5.233   6.640
 5992SOL     OW18874   3.732   0.380   2.044
 5992SOL    HW118875   3.752   0.477   2.036
 5992SOL    HW218876   3.636   0.367   2.070
 5993SOL     OW18877   3.453   4.503   5.886
 5993SOL    HW118878   3.530   4.526   5.827
 5993SOL    HW218879   3.368   4.534   5.844
 5994SOL     OW18880   6.690   2.546   1.302
 5994SOL    HW118881   6.783   2.532   1.336
 5994SOL    HW218882   6.632   2.469   1.330
 5995SOL     OW18883   4.876   3.599   2.432
 5995SOL    HW118884   4.914   3.520   2.385
 5995SOL    HW218885   4.838   3.663   2.366
 5996SOL     OW18886   0.722   6.090   0.807
 5996SOL    HW118887   0.672   6.008   0.835
 5996SOL    HW218888   0.819   6.079   0.827
 5997SOL     OW18889   0.155   5.533   2.702
 5997SOL    HW118890   0.191   5.614   2.748
 5997SOL    HW218891   0.220   5.504   2.631
 5998SOL     OW18892   6.382   1.407   3.298
 5998SOL    HW118893   6.448   1.398   3.371
 5998SOL    HW218894   6.342   1.317   3.278
 5999SOL     OW18895   2.439   2.800   1.787
 5999SOL    HW118896   2.503   2.731   1.754
 5999SOL    HW218897   2.392   2.766   1.869
 6000SOL     OW18898   2.546   6.783   0.473
 6000SOL    HW118899   2.488   6.777   0.553
 6000SOL    HW218900   2.591   6.695   0.457
 6001SOL     OW18901   0.183   4.762   6.803
 6001SOL    HW118902   0.243   4.839   6.821
 6001SOL    HW218903   0.182   4.742   6.705
 6002SOL     OW18904   5.842   0.637   0.754
 6002SOL    HW118905   5.752   0.680   0.751
 6002SOL    HW218906   5.883   0.639   0.664
 6003SOL     OW18907   6.057   1.878   4.620
 6003SOL    HW118908   5.983   1.830   4.667
 6003SOL    HW218909   6.108   1.814   4.563
 6004SOL     OW18910   6.712   3.801   3.268
 6004SOL    HW118911   6.756   3.716   3.240
 6004SOL    HW218912   6.716   3.809   3.368
 6005SOL     OW18913   4.941   5.171   4.343
 6005SOL    HW118914   4.913   5.254   4.294
 6005SOL    HW218915   4.859   5.120   4.371
 6006SOL     OW18916   2.816   1.373   5.365
 6006SOL    HW118917   2.823   1.286   5.414
 6006SOL    HW218918   2.877   1.440   5.409
 6007SOL     OW18919   5.309   3.768   5.847
 6007SOL    HW118920   5.312   3.747   5.945
 6007SOL    HW218921   5.241   3.710   5.803
 6008SOL     OW18922   2.516   4.509   5.300
 6008SOL    HW118923   2.580   4.434   5.287
 6008SOL    HW218924   2.422   4.474   5.296
 6009SOL     OW18925   2.272   0.955   3.081
 6009SOL    HW118926   2.191   1.007   3.055
 6009SOL    HW218927   2.326   1.007   3.147
 6010SOL     OW18928   1.107   5.130   4.053
 6010SOL    HW118929   1.102   5.107   4.151
 6010SOL    HW218930   1.071   5.054   3.999
 6011SOL     OW18931   5.550   2.964   2.824
 6011SOL    HW118932   5.564   2.905   2.903
 6011SOL    HW218933   5.566   2.911   2.740
 6012SOL     OW18934   5.792   0.983   0.539
 6012SOL    HW118935   5.811   0.936   0.625
 6012SOL    HW218936   5.739   1.066   0.558
 6013SOL     OW18937   5.294   1.767   2.681
 6013SOL    HW118938   5.288   1.674   2.643
 6013SOL    HW218939   5.239   1.829   2.625
 6014SOL     OW18940   3.995   3.723   2.776
 6014SOL    HW118941   4.057   3.707   2.699
 6014SOL    HW218942   3.941   3.640   2.792
 6015SOL     OW18943   6.401   3.709   4.374
 6015SOL    HW118944   6.320   3.696   4.318
 6015SOL    HW218945   6.378   3.764   4.454
 6016SOL     OW18946   6.135   1.713   5.467
 6016SOL    HW118947   6.080   1.746   5.391
 6016SOL    HW218948   6.110   1.762   5.551
 6017SOL     OW18949   6.576   4.795   3.716
 6017SOL    HW118950   6.606   4.748   3.633
 6017SOL    HW218951   6.504   4.742   3.760
 6018SOL     OW18952   3.974   0.540   6.221
 6018SOL    HW118953   3.927   0.526   6.134
 6018SOL    HW218954   4.004   0.452   6.258
 6019SOL     OW18955   0.894   2.713   4.452
 6019SOL    HW118956   0.964   2.754   4.394
 6019SOL    HW218957   0.829   2.662   4.396
 6020SOL     OW18958   0.919   4.728   1.374
 6020SOL    HW118959   1.008   4.763   1.402
 6020SOL    HW218960   0.908   4.635   1.408
 6021SOL     OW18961   4.253   0.306   2.773
 6021SOL    HW118962   4.256   0.380   2.706
 6021SOL    HW218963   4.293   0.223   2.734
 6022SOL     OW18964   5.388   1.789   3.852
 6022SOL    HW118965   5.476   1.781   3.805
 6022SOL    HW218966   5.394   1.744   3.941
 6023SOL     OW18967   5.825   1.248   1.508
 6023SOL    HW118968   5.770   1.204   1.579
 6023SOL    HW218969   5.815   1.347   1.515
 6024SOL     OW18970   2.225   4.782   2.720
 6024SOL    HW118971   2.215   4.688   2.686
 6024SOL    HW218972   2.135   4.816   2.749
 6025SOL     OW18973   3.962   1.692   3.329
 6025SOL    HW118974   4.044   1.695   3.271
 6025SOL    HW218975   3.882   1.714   3.274
 6026SOL     OW18976   6.936   4.400   5.587
 6026SOL    HW118977   6.984   4.451   5.658
 6026SOL    HW218978   6.978   4.419   5.498
 6027SOL     OW18979   0.844   3.001   5.609
 6027SOL    HW118980   0.779   3.073   5.583
 6027SOL    HW218981   0.929   3.044   5.641
 6028SOL     OW18982   6.737   4.687   0.329
 6028SOL    HW118983   6.734   4.656   0.234
 6028SOL    HW218984   6.651   4.662   0.375
 6029SOL     OW18985   2.520   7.017   4.766
 6029SOL    HW118986   2.503   0.090   4.740
 6029SOL    HW218987   2.606   6.986   4.726
 6030SOL     OW18988   3.977   5.183   2.842
 6030SOL    HW118989   3.917   5.209   2.766
 6030SOL    HW218990   3.930   5.118   2.901
 6031SOL     OW18991   2.864   5.759   4.594
 6031SOL    HW118992   2.787   5.727   4.650
 6031SOL    HW218993   2.829   5.817   4.520
 6032SOL     OW18994   2.417   4.393   2.766
 6032SOL    HW118995   2.478   4.406   2.688
 6032SOL    HW218996   2.441   4.457   2.838
 6033SOL     OW18997   2.633   2.030   2.776
 6033SOL    HW118998   2.579   1.949   2.752
 6033SOL    HW218999   2.656   2.026   2.873
 6034SOL     OW19000   1.307   0.121   5.176
 6034SOL    HW119001   1.371   0.192   5.206
 6034SOL    HW219002   1.310   0.044   5.240
 6035SOL     OW19003   0.640   1.593   1.960
 6035SOL    HW119004   0.563   1.537   1.991
 6035SOL    HW219005   0.643   1.678   2.012
 6036SOL     OW19006   5.130   4.827   3.016
 6036SOL    HW119007   5.107   4.779   3.100
 6036SOL    HW219008   5.057   4.813   2.949
 6037SOL     OW19009   4.212   6.155   0.510
 6037SOL    HW119010   4.309   6.176   0.525
 6037SOL    HW219011   4.203   6.100   0.427
 6038SOL     OW19012   1.840   2.668   6.031
 6038SOL    HW119013   1.747   2.633   6.019
 6038SOL    HW219014   1.836   2.761   6.068
 6039SOL     OW19015   3.073   3.085   2.931
 6039SOL    HW119016   3.008   3.138   2.876
 6039SOL    HW219017   3.043   3.083   3.026
 6040SOL     OW19018   1.325   1.559   0.556
 6040SOL    HW119019   1.293   1.548   0.650
 6040SOL    HW219020   1.425   1.564   0.555
 6041SOL     OW19021   3.043   0.415   5.259
 6041SOL    HW119022   3.035   0.509   5.293
 6041SOL    HW219023   3.139   0.395   5.240
 6042SOL     OW19024   4.468   6.958   2.364
 6042SOL    HW119025   4.377   6.995   2.382
 6042SOL    HW219026   4.467   6.906   2.278
 6043SOL     OW19027   1.095   5.186   5.730
 6043SOL    HW119028   1.058   5.137   5.651
 6043SOL    HW219029   1.021   5.236   5.776
 6044SOL     OW19030   1.386   2.823   1.473
 6044SOL    HW119031   1.457   2.796   1.409
 6044SOL    HW219032   1.327   2.892   1.430
 6045SOL     OW19033   6.459   4.195   2.592
 6045SOL    HW119034   6.399   4.116   2.582
 6045SOL    HW219035   6.532   4.173   2.656
 6046SOL     OW19036   3.691   2.598   0.479
 6046SOL    HW119037   3.746   2.515   0.484
 6046SOL    HW219038   3.616   2.585   0.414
 6047SOL     OW19039   5.362   1.730   1.997
 6047SOL    HW119040   5.391   1.767   2.085
 6047SOL    HW219041   5.263   1.735   1.990
 6048SOL     OW19042   4.157   5.335   5.284
 6048SOL    HW119043   4.161   5.292   5.375
 6048SOL    HW219044   4.097   5.415   5.288
 6049SOL     OW19045   5.136   3.498   0.088
 6049SOL    HW119046   5.143   3.562   0.011
 6049SOL    HW219047   5.050   3.513   0.136
 6050SOL     OW19048   3.293   5.717   5.941
 6050SOL    HW119049   3.389   5.697   5.919
 6050SOL    HW219050   3.240   5.721   5.857
 6051SOL     OW19051   2.018   6.581   3.938
 6051SOL    HW119052   2.084   6.626   3.878
 6051SOL    HW219053   1.975   6.650   3.996
 6052SOL     OW19054   5.873   1.048   0.285
 6052SOL    HW119055   5.831   1.020   0.371
 6052SOL    HW219056   5.922   0.971   0.245
 6053SOL     OW19057   4.558   1.207   6.629
 6053SOL    HW119058   4.632   1.202   6.696
 6053SOL    HW219059   4.557   1.297   6.586
 6054SOL     OW19060   2.409   2.962   0.111
 6054SOL    HW119061   2.487   2.901   0.120
 6054SOL    HW219062   2.329   2.911   0.081
 6055SOL     OW19063   4.919   6.535   5.504
 6055SOL    HW119064   4.923   6.479   5.421
 6055SOL    HW219065   4.981   6.497   5.572
 6056SOL     OW19066   5.088   3.294   4.622
 6056SOL    HW119067   5.093   3.203   4.662
 6056SOL    HW219068   5.135   3.359   4.682
 6057SOL     OW19069   6.598   1.888   3.052
 6057SOL    HW119070   6.580   1.791   3.034
 6057SOL    HW219071   6.689   1.911   3.018
 6058SOL     OW19072   4.583   3.564   1.674
 6058SOL    HW119073   4.540   3.516   1.597
 6058SOL    HW219074   4.547   3.657   1.678
 6059SOL     OW19075   4.985   4.934   5.707
 6059SOL    HW119076   4.992   5.013   5.768
 6059SOL    HW219077   4.907   4.878   5.735
 6060SOL     OW19078   2.708   3.463   6.474
 6060SOL    HW119079   2.799   3.423   6.463
 6060SOL    HW219080   2.709   3.529   6.549
 6061SOL     OW19081   3.702   2.677   1.053
 6061SOL    HW119082   3.639   2.754   1.036
 6061SOL    HW219083   3.649   2.595   1.073
 6062SOL     OW19084   2.700   1.333   5.128
 6062SOL    HW119085   2.606   1.342   5.161
 6062SOL    HW219086   2.763   1.331   5.205
 6063SOL     OW19087   4.285   2.645   6.324
 6063SOL    HW119088   4.295   2.742   6.300
 6063SOL    HW219089   4.366   2.595   6.297
 6064SOL     OW19090   0.970   6.390   1.322
 6064SOL    HW119091   1.052   6.399   1.266
 6064SOL    HW219092   0.921   6.306   1.297
 6065SOL     OW19093   0.654   6.522   1.978
 6065SOL    HW119094   0.587   6.477   1.920
 6065SOL    HW219095   0.663   6.618   1.950
 6066SOL     OW19096   4.681   1.158   6.006
 6066SOL    HW119097   4.695   1.228   6.077
 6066SOL    HW219098   4.611   1.188   5.942
 6067SOL     OW19099   6.079   0.981   5.292
 6067SOL    HW119100   6.056   0.887   5.270
 6067SOL    HW219101   6.068   0.996   5.390
 6068SOL     OW19102   5.201   3.161   5.090
 6068SOL    HW119103   5.175   3.164   5.186
 6068SOL    HW219104   5.135   3.105   5.039
 6069SOL     OW19105   5.938   3.097   4.924
 6069SOL    HW119106   5.840   3.107   4.907
 6069SOL    HW219107   5.983   3.186   4.916
 6070SOL     OW19108   3.012   2.382   0.638
 6070SOL    HW119109   2.969   2.386   0.728
 6070SOL    HW219110   3.029   2.287   0.613
 6071SOL     OW19111   5.688   5.785   4.739
 6071SOL    HW119112   5.783   5.813   4.753
 6071SOL    HW219113   5.685   5.709   4.674
 6072SOL     OW19114   6.345   6.698   1.296
 6072SOL    HW119115   6.443   6.699   1.277
 6072SOL    HW219116   6.328   6.648   1.381
 6073SOL     OW19117   5.791   3.146   0.326
 6073SOL    HW119118   5.858   3.148   0.252
 6073SOL    HW219119   5.768   3.240   0.352
 6074SOL     OW19120   0.839   6.462   2.336
 6074SOL    HW119121   0.851   6.559   2.353
 6074SOL    HW219122   0.928   6.416   2.337
 6075SOL     OW19123   5.454   0.656   5.687
 6075SOL    HW119124   5.481   0.671   5.592
 6075SOL    HW219125   5.518   0.704   5.748
 6076SOL     OW19126   3.538   5.676   4.257
 6076SOL    HW119127   3.444   5.643   4.268
 6076SOL    HW219128   3.562   5.733   4.335
 6077SOL     OW19129   6.153   5.384   0.707
 6077SOL    HW119130   6.139   5.473   0.663
 6077SOL    HW219131   6.143   5.311   0.639
 6078SOL     OW19132   4.881   5.091   0.472
 6078SOL    HW119133   4.863   5.016   0.409
 6078SOL    HW219134   4.799   5.110   0.526
 6079SOL     OW19135   4.349   3.818   5.976
 6079SOL    HW119136   4.344   3.916   5.994
 6079SOL    HW219137   4.363   3.802   5.878
 6080SOL     OW19138   6.975   6.548   1.256
 6080SOL    HW119139   6.955   6.634   1.209
 6080SOL    HW219140   0.023   6.498   1.205
 6081SOL     OW19141   6.692   2.677   5.296
 6081SOL    HW119142   6.687   2.625   5.381
 6081SOL    HW219143   6.786   2.674   5.261
 6082SOL     OW19144   1.887   1.439   3.463
 6082SOL    HW119145   1.813   1.373   3.449
 6082SOL    HW219146   1.959   1.397   3.518
 6083SOL     OW19147   6.358   5.884   0.028
 6083SOL    HW119148   6.371   5.909   0.124
 6083SOL    HW219149   6.314   5.794   0.023
 6084SOL     OW19150   0.478   7.011   3.277
 6084SOL    HW119151   0.456   0.023   3.369
 6084SOL    HW219152   0.500   6.914   3.282
 6085SOL     OW19153   0.166   6.176   0.466
 6085SOL    HW119154   0.159   6.158   0.368
 6085SOL    HW219155   0.171   6.275   0.482
 6086SOL     OW19156   3.189   1.168   6.029
 6086SOL    HW119157   3.129   1.180   5.950
 6086SOL    HW219158   3.136   1.139   6.108
 6087SOL     OW19159   3.822   5.634   1.353
 6087SOL    HW119160   3.794   5.554   1.406
 6087SOL    HW219161   3.743   5.670   1.303
 6088SOL     OW19162   5.319   6.106   4.269
 6088SOL    HW119163   5.232   6.112   4.220
 6088SOL    HW219164   5.306   6.134   4.364
 6089SOL     OW19165   5.087   3.112   2.077
 6089SOL    HW119166   5.047   3.076   2.161
 6089SOL    HW219167   5.023   3.177   2.035
 6090SOL     OW19168   2.145   5.893   5.111
 6090SOL    HW119169   2.237   5.877   5.147
 6090SOL    HW219170   2.081   5.907   5.187
 6091SOL     OW19171   1.793   1.096   0.280
 6091SOL    HW119172   1.705   1.144   0.281
 6091SOL    HW219173   1.784   1.011   0.230
 6092SOL     OW19174   4.197   0.008   2.377
 6092SOL    HW119175   4.175   0.063   2.296
 6092SOL    HW219176   4.149   6.942   2.371
 6093SOL     OW19177   1.964   3.481   1.797
 6093SOL    HW119178   1.997   3.402   1.745
 6093SOL    HW219179   2.035   3.510   1.862
 6094SOL     OW19180   2.229   6.616   2.006
 6094SOL    HW119181   2.174   6.538   1.975
 6094SOL    HW219182   2.325   6.600   1.982
 6095SOL     OW19183   5.434   4.116   1.353
 6095SOL    HW119184   5.467   4.061   1.276
 6095SOL    HW219185   5.343   4.084   1.380
 6096SOL     OW19186   5.741   6.654   4.025
 6096SOL    HW119187   5.702   6.671   3.934
 6096SOL    HW219188   5.840   6.646   4.017
 6097SOL     OW19189   2.214   5.764   2.002
 6097SOL    HW119190   2.185   5.838   1.941
 6097SOL    HW219191   2.225   5.800   2.095
 6098SOL     OW19192   1.116   1.151   5.016
 6098SOL    HW119193   1.192   1.122   4.958
 6098SOL    HW219194   1.120   1.250   5.031
 6099SOL     OW19195   5.778   6.403   0.452
 6099SOL    HW119196   5.857   6.422   0.393
 6099SOL    HW219197   5.695   6.409   0.398
 6100SOL     OW19198   5.509   6.281   0.768
 6100SOL    HW119199   5.536   6.358   0.825
 6100SOL    HW219200   5.412   6.287   0.748
 6101SOL     OW19201   6.518   3.444   3.798
 6101SOL    HW119202   6.449   3.510   3.827
 6101SOL    HW219203   6.551   3.393   3.878
 6102SOL     OW19204   3.322   6.337   2.830
 6102SOL    HW119205   3.322   6.251   2.882
 6102SOL    HW219206   3.343   6.317   2.734
 6103SOL     OW19207   6.580   1.942   1.054
 6103SOL    HW119208   6.615   1.928   0.962
 6103SOL    HW219209   6.485   1.974   1.049
 6104SOL     OW19210   6.132   0.831   5.666
 6104SOL    HW119211   6.154   0.926   5.645
 6104SOL    HW219212   6.180   0.771   5.602
 6105SOL     OW19213   3.233   6.455   6.985
 6105SOL    HW119214   3.143   6.443   6.943
 6105SOL    HW219215   3.264   6.549   6.970
 6106SOL     OW19216   1.458   3.884   6.541
 6106SOL    HW119217   1.396   3.930   6.604
 6106SOL    HW219218   1.534   3.844   6.592
 6107SOL     OW19219   4.030   5.731   4.536
 6107SOL    HW119220   4.051   5.818   4.490
 6107SOL    HW219221   4.078   5.657   4.488
 6108SOL     OW19222   1.885   3.231   1.478
 6108SOL    HW119223   1.831   3.156   1.438
 6108SOL    HW219224   1.974   3.196   1.508
 6109SOL     OW19225   5.800   2.040   5.219
 6109SOL    HW119226   5.843   1.963   5.266
 6109SOL    HW219227   5.841   2.050   5.128
 6110SOL     OW19228   3.678   3.800   0.769
 6110SOL    HW119229   3.659   3.795   0.671
 6110SOL    HW219230   3.776   3.813   0.783
 6111SOL     OW19231   1.845   4.063   2.610
 6111SOL    HW119232   1.764   4.045   2.666
 6111SOL    HW219233   1.860   3.985   2.549
 6112SOL     OW19234   3.679   0.069   2.441
 6112SOL    HW119235   3.702   0.162   2.471
 6112SOL    HW219236   3.635   0.020   2.516
 6113SOL     OW19237   2.805   1.327   6.546
 6113SOL    HW119238   2.728   1.277   6.507
 6113SOL    HW219239   2.844   1.387   6.477
 6114SOL     OW19240   5.362   4.924   1.634
 6114SOL    HW119241   5.426   4.985   1.680
 6114SOL    HW219242   5.277   4.973   1.615
 6115SOL     OW19243   5.458   7.021   4.189
 6115SOL    HW119244   5.477   0.093   4.217
 6115SOL    HW219245   5.531   6.989   4.128
 6116SOL     OW19246   4.114   1.492   6.049
 6116SOL    HW119247   4.205   1.461   6.021
 6116SOL    HW219248   4.044   1.434   6.006
 6117SOL     OW19249   1.491   1.312   3.280
 6117SOL    HW119250   1.526   1.329   3.188
 6117SOL    HW219251   1.551   1.246   3.327
 6118SOL     OW19252   0.155   0.814   1.957
 6118SOL    HW119253   0.155   0.895   2.016
 6118SOL    HW219254   0.113   0.737   2.006
 6119SOL     OW19255   0.750   4.129   6.786
 6119SOL    HW119256   0.740   4.131   6.686
 6119SOL    HW219257   0.725   4.219   6.823
 6120SOL     OW19258   3.672   6.470   5.200
 6120SOL    HW119259   3.704   6.385   5.242
 6120SOL    HW219260   3.663   6.457   5.101
 6121SOL     OW19261   0.605   3.444   5.537
 6121SOL    HW119262   0.620   3.473   5.443
 6121SOL    HW219263   0.516   3.478   5.569
 6122SOL     OW19264   4.435   5.441   0.401
 6122SOL    HW119265   4.397   5.354   0.435
 6122SOL    HW219266   4.492   5.422   0.321
 6123SOL     OW19267   5.279   6.930   6.858
 6123SOL    HW119268   5.193   6.954   6.904
 6123SOL    HW219269   5.259   6.890   6.768
 6124SOL     OW19270   1.909   6.830   5.741
 6124SOL    HW119271   1.978   6.838   5.669
 6124SOL    HW219272   1.898   6.918   5.787
 6125SOL     OW19273   2.153   4.453   0.765
 6125SOL    HW119274   2.072   4.502   0.735
 6125SOL    HW219275   2.144   4.356   0.743
 6126SOL     OW19276   0.958   6.779   4.511
 6126SOL    HW119277   1.011   6.797   4.594
 6126SOL    HW219278   0.914   6.864   4.481
 6127SOL     OW19279   3.135   0.385   0.964
 6127SOL    HW119280   3.166   0.465   0.913
 6127SOL    HW219281   3.127   0.409   1.061
 6128SOL     OW19282   5.681   4.252   0.139
 6128SOL    HW119283   5.632   4.169   0.166
 6128SOL    HW219284   5.615   4.324   0.117
 6129SOL     OW19285   6.792   3.266   2.946
 6129SOL    HW119286   6.730   3.247   2.870
 6129SOL    HW219287   6.831   3.357   2.936
 6130SOL     OW19288   5.967   2.412   2.654
 6130SOL    HW119289   5.996   2.323   2.688
 6130SOL    HW219290   5.987   2.419   2.556
 6131SOL     OW19291   0.268   1.570   5.182
 6131SOL    HW119292   0.344   1.519   5.142
 6131SOL    HW219293   0.182   1.537   5.143
 6132SOL     OW19294   4.919   1.889   0.271
 6132SOL    HW119295   4.958   1.981   0.274
 6132SOL    HW219296   4.860   1.881   0.191
 6133SOL     OW19297   1.764   3.438   2.193
 6133SOL    HW119298   1.741   3.393   2.279
 6133SOL    HW219299   1.861   3.424   2.173
 6134SOL     OW19300   3.776   4.783   6.515
 6134SOL    HW119301   3.699   4.811   6.573
 6134SOL    HW219302   3.811   4.862   6.465
 6135SOL     OW19303   0.158   0.650   0.801
 6135SOL    HW119304   0.139   0.613   0.892
 6135SOL    HW219305   0.255   0.670   0.793
 6136SOL     OW19306   1.382   3.143   1.949
 6136SOL    HW119307   1.340   3.068   1.899
 6136SOL    HW219308   1.311   3.201   1.989
 6137SOL     OW19309   6.551   3.245   2.792
 6137SOL    HW119310   6.545   3.193   2.707
 6137SOL    HW219311   6.581   3.338   2.771
 6138SOL     OW19312   3.722   6.358   2.806
 6138SOL    HW119313   3.664   6.287   2.765
 6138SOL    HW219314   3.793   6.314   2.862
 6139SOL     OW19315   1.934   6.673   6.307
 6139SOL    HW119316   1.925   6.695   6.404
 6139SOL    HW219317   1.965   6.754   6.257
 6140SOL     OW19318   0.899   6.423   1.604
 6140SOL    HW119319   0.800   6.435   1.612
 6140SOL    HW219320   0.923   6.415   1.507
 6141SOL     OW19321   0.197   6.747   6.951
 6141SOL    HW119322   0.146   6.670   6.913
 6141SOL    HW219323   0.146   6.786   0.006
 6142SOL     OW19324   0.997   6.685   0.252
 6142SOL    HW119325   1.043   6.757   0.304
 6142SOL    HW219326   1.064   6.617   0.223
 6143SOL     OW19327   6.936   3.606   1.703
 6143SOL    HW119328   6.907   3.647   1.617
 6143SOL    HW219329   6.882   3.524   1.720
 6144SOL     OW19330   5.332   4.570   3.275
 6144SOL    HW119331   5.369   4.640   3.336
 6144SOL    HW219332   5.275   4.614   3.205
 6145SOL     OW19333   5.031   5.090   3.044
 6145SOL    HW119334   5.017   4.992   3.029
 6145SOL    HW219335   5.061   5.105   3.139
 6146SOL     OW19336   3.306   5.841   3.998
 6146SOL    HW119337   3.264   5.872   3.913
 6146SOL    HW219338   3.391   5.792   3.977
 6147SOL     OW19339   2.159   1.905   4.082
 6147SOL    HW119340   2.144   1.986   4.139
 6147SOL    HW219341   2.089   1.837   4.101
 6148SOL     OW19342   5.124   6.610   5.201
 6148SOL    HW119343   5.206   6.625   5.256
 6148SOL    HW219344   5.051   6.671   5.233
 6149SOL     OW19345   2.642   5.912   1.343
 6149SOL    HW119346   2.553   5.887   1.305
 6149SOL    HW219347   2.629   5.955   1.433
 6150SOL     OW19348   4.672   5.109   6.763
 6150SOL    HW119349   4.650   5.083   6.669
 6150SOL    HW219350   4.758   5.160   6.764
 6151SOL     OW19351   6.212   4.723   6.542
 6151SOL    HW119352   6.199   4.787   6.618
 6151SOL    HW219353   6.180   4.633   6.569
 6152SOL     OW19354   6.328   5.085   4.654
 6152SOL    HW119355   6.410   5.128   4.692
 6152SOL    HW219356   6.313   5.118   4.561
 6153SOL     OW19357   5.089   4.287   1.448
 6153SOL    HW119358   5.172   4.327   1.485
 6153SOL    HW219359   5.021   4.359   1.431
 6154SOL     OW19360   5.648   2.112   2.688
 6154SOL    HW119361   5.581   2.069   2.627
 6154SOL    HW219362   5.632   2.081   2.782
 6155SOL     OW19363   1.781   1.640   3.658
 6155SOL    HW119364   1.829   1.698   3.723
 6155SOL    HW219365   1.846   1.582   3.609
 6156SOL     OW19366   4.261   4.189   1.459
 6156SOL    HW119367   4.225   4.136   1.383
 6156SOL    HW219368   4.186   4.238   1.504
 6157SOL     OW19369   0.014   1.061   4.476
 6157SOL    HW119370   0.101   1.013   4.472
 6157SOL    HW219371   6.986   1.033   4.558
 6158SOL     OW19372   3.586   2.183   6.013
 6158SOL    HW119373   3.627   2.209   6.101
 6158SOL    HW219374   3.573   2.264   5.957
 6159SOL     OW19375   5.367   2.556   2.268
 6159SOL    HW119376   5.315   2.478   2.304
 6159SOL    HW219377   5.457   2.525   2.238
 6160SOL     OW19378   5.143   1.538   6.554
 6160SOL    HW119379   5.200   1.459   6.577
 6160SOL    HW219380   5.134   1.545   6.455
 6161SOL     OW19381   4.620   1.590   5.333
 6161SOL    HW119382   4.613   1.536   5.417
 6161SOL    HW219383   4.577   1.540   5.258
 6162SOL     OW19384   0.600   5.960   3.219
 6162SOL    HW119385   0.662   5.883   3.237
 6162SOL    HW219386   0.652   6.036   3.179
 6163SOL     OW19387   6.497   6.834   0.847
 6163SOL    HW119388   6.547   6.916   0.875
 6163SOL    HW219389   6.407   6.833   0.892
 6164SOL     OW19390   3.872   3.990   2.401
 6164SOL    HW119391   3.909   4.082   2.415
 6164SOL    HW219392   3.858   3.975   2.303
 6165SOL     OW19393   4.959   1.698   6.971
 6165SOL    HW119394   5.013   1.633   0.003
 6165SOL    HW219395   5.004   1.713   6.883
 6166SOL     OW19396   5.668   1.534   6.656
 6166SOL    HW119397   5.576   1.558   6.685
 6166SOL    HW219398   5.668   1.441   6.620
 6167SOL     OW19399   1.100   5.501   3.328
 6167SOL    HW119400   1.046   5.480   3.409
 6167SOL    HW219401   1.048   5.562   3.268
 6168SOL     OW19402   1.890   3.834   2.025
 6168SOL    HW119403   1.878   3.933   2.013
 6168SOL    HW219404   1.987   3.813   2.035
 6169SOL     OW19405   0.811   1.988   0.337
 6169SOL    HW119406   0.851   2.005   0.427
 6169SOL    HW219407   0.836   1.896   0.306
 6170SOL     OW19408   1.352   4.059   5.299
 6170SOL    HW119409   1.259   4.063   5.337
 6170SOL    HW219410   1.419   4.068   5.373
 6171SOL     OW19411   1.009   3.161   0.867
 6171SOL    HW119412   1.032   3.092   0.935
 6171SOL    HW219413   1.042   3.250   0.898
 6172SOL     OW19414   1.460   2.794   2.648
 6172SOL    HW119415   1.410   2.754   2.572
 6172SOL    HW219416   1.491   2.886   2.623
 6173SOL     OW19417   6.845   5.475   1.841
 6173SOL    HW119418   6.903   5.431   1.771
 6173SOL    HW219419   6.813   5.406   1.905
 6174SOL     OW19420   5.864   4.770   3.708
 6174SOL    HW119421   5.796   4.741   3.641
 6174SOL    HW219422   5.886   4.867   3.694
 6175SOL     OW19423   4.693   0.353   3.345
 6175SOL    HW119424   4.688   0.267   3.394
 6175SOL    HW219425   4.606   0.372   3.300
 6176SOL     OW19426   4.928   3.855   6.008
 6176SOL    HW119427   4.857   3.854   6.079
 6176SOL    HW219428   4.901   3.795   5.933
 6177SOL     OW19429   5.777   0.962   1.173
 6177SOL    HW119430   5.678   0.968   1.171
 6177SOL    HW219431   5.806   0.876   1.130
 6178SOL     OW19432   4.703   5.184   2.677
 6178SOL    HW119433   4.620   5.196   2.623
 6178SOL    HW219434   4.758   5.111   2.636
 6179SOL     OW19435   7.006   4.258   3.558
 6179SOL    HW119436   6.992   4.326   3.630
 6179SOL    HW219437   0.082   4.234   3.553
 6180SOL     OW19438   3.524   4.236   0.021
 6180SOL    HW119439   3.564   4.245   6.951
 6180SOL    HW219440   3.595   4.211   0.087
 6181SOL     OW19441   4.053   6.934   1.101
 6181SOL    HW119442   4.106   6.923   1.017
 6181SOL    HW219443   4.105   6.898   1.178
 6182SOL     OW19444   5.473   3.172   5.186
 6182SOL    HW119445   5.400   3.207   5.128
 6182SOL    HW219446   5.561   3.192   5.144
 6183SOL     OW19447   1.210   2.378   2.985
 6183SOL    HW119448   1.111   2.394   2.979
 6183SOL    HW219449   1.248   2.369   2.894
 6184SOL     OW19450   1.951   6.949   6.612
 6184SOL    HW119451   2.035   6.940   6.559
 6184SOL    HW219452   1.893   6.869   6.596
 6185SOL     OW19453   0.689   3.595   5.852
 6185SOL    HW119454   0.770   3.635   5.897
 6185SOL    HW219455   0.699   3.603   5.753
 6186SOL     OW19456   6.974   0.245   7.011
 6186SOL    HW119457   6.883   0.206   0.001
 6186SOL    HW219458   6.989   0.317   0.057
 6187SOL     OW19459   4.867   4.754   3.374
 6187SOL    HW119460   4.882   4.713   3.284
 6187SOL    HW219461   4.950   4.801   3.404
 6188SOL     OW19462   2.219   0.852   0.628
 6188SOL    HW119463   2.304   0.804   0.648
 6188SOL    HW219464   2.171   0.872   0.713
 6189SOL     OW19465   4.693   4.436   3.173
 6189SOL    HW119466   4.662   4.466   3.083
 6189SOL    HW219467   4.620   4.451   3.240
 6190SOL     OW19468   0.759   3.978   5.658
 6190SOL    HW119469   0.844   3.980   5.712
 6190SOL    HW219470   0.755   3.893   5.606
 6191SOL     OW19471   3.124   1.920   6.991
 6191SOL    HW119472   3.096   2.007   6.950
 6191SOL    HW219473   3.047   1.857   6.991
 6192SOL     OW19474   3.339   2.512   5.822
 6192SOL    HW119475   3.269   2.526   5.891
 6192SOL    HW219476   3.297   2.515   5.731
 6193SOL     OW19477   5.283   0.940   2.145
 6193SOL    HW119478   5.379   0.915   2.128
 6193SOL    HW219479   5.231   0.929   2.061
 6194SOL     OW19480   1.470   0.015   1.782
 6194SOL    HW119481   1.508   0.096   1.827
 6194SOL    HW219482   1.541   6.966   1.777
 6195SOL     OW19483   3.874   6.335   6.244
 6195SOL    HW119484   3.870   6.400   6.320
 6195SOL    HW219485   3.781   6.312   6.216
 6196SOL     OW19486   5.586   2.960   1.442
 6196SOL    HW119487   5.522   2.900   1.394
 6196SOL    HW219488   5.676   2.916   1.446
 6197SOL     OW19489   4.203   4.403   0.871
 6197SOL    HW119490   4.266   4.412   0.948
 6197SOL    HW219491   4.136   4.477   0.873
 6198SOL     OW19492   4.215   6.257   2.215
 6198SOL    HW119493   4.298   6.311   2.200
 6198SOL    HW219494   4.186   6.265   2.310
 6199SOL     OW19495   0.961   1.095   0.517
 6199SOL    HW119496   0.871   1.138   0.527
 6199SOL    HW219497   1.000   1.077   0.608
 6200SOL     OW19498   1.400   1.522   5.942
 6200SOL    HW119499   1.430   1.541   6.036
 6200SOL    HW219500   1.479   1.506   5.884
 6201SOL     OW19501   0.697   3.626   5.120
 6201SOL    HW119502   0.700   3.660   5.026
 6201SOL    HW219503   0.778   3.570   5.137
 6202SOL     OW19504   3.496   1.536   2.224
 6202SOL    HW119505   3.410   1.488   2.210
 6202SOL    HW219506   3.527   1.524   2.318
 6203SOL     OW19507   0.025   6.337   2.581
 6203SOL    HW119508   0.076   6.265   2.533
 6203SOL    HW219509   0.089   6.406   2.614
 6204SOL     OW19510   0.671   4.990   4.582
 6204SOL    HW119511   0.645   4.998   4.678
 6204SOL    HW219512   0.663   5.078   4.537
 6205SOL     OW19513   6.468   5.557   0.180
 6205SOL    HW119514   6.429   5.513   0.262
 6205SOL    HW219515   6.409   5.539   0.102
 6206SOL     OW19516   6.258   1.864   3.477
 6206SOL    HW119517   6.165   1.839   3.450
 6206SOL    HW219518   6.311   1.890   3.396
 6207SOL     OW19519   0.766   5.041   4.832
 6207SOL    HW119520   0.764   5.129   4.880
 6207SOL    HW219521   0.858   5.023   4.798
 6208SOL     OW19522   5.483   2.131   5.856
 6208SOL    HW119523   5.397   2.102   5.898
 6208SOL    HW219524   5.465   2.166   5.764
 6209SOL     OW19525   4.092   5.749   6.668
 6209SOL    HW119526   4.189   5.729   6.658
 6209SOL    HW219527   4.058   5.789   6.582
 6210SOL     OW19528   5.232   3.390   3.556
 6210SOL    HW119529   5.312   3.336   3.531
 6210SOL    HW219530   5.239   3.417   3.653
 6211SOL     OW19531   2.881   6.297   5.566
 6211SOL    HW119532   2.824   6.256   5.638
 6211SOL    HW219533   2.825   6.357   5.509
 6212SOL     OW19534   2.192   5.190   4.470
 6212SOL    HW119535   2.219   5.211   4.565
 6212SOL    HW219536   2.096   5.217   4.456
 6213SOL     OW19537   6.272   0.558   0.634
 6213SOL    HW119538   6.333   0.548   0.712
 6213SOL    HW219539   6.240   0.652   0.627
 6214SOL     OW19540   4.766   4.877   4.274
 6214SOL    HW119541   4.706   4.807   4.237
 6214SOL    HW219542   4.860   4.842   4.279
 6215SOL     OW19543   4.008   1.584   0.401
 6215SOL    HW119544   4.063   1.662   0.370
 6215SOL    HW219545   4.000   1.586   0.500
 6216SOL     OW19546   6.225   1.634   2.120
 6216SOL    HW119547   6.187   1.591   2.202
 6216SOL    HW219548   6.291   1.573   2.077
 6217SOL     OW19549   0.210   3.496   2.873
 6217SOL    HW119550   0.144   3.427   2.845
 6217SOL    HW219551   0.253   3.468   2.959
 6218SOL     OW19552   3.891   6.191   6.962
 6218SOL    HW119553   3.927   6.098   6.967
 6218SOL    HW219554   3.950   6.253   7.013
 6219SOL     OW19555   1.376   1.920   4.534
 6219SOL    HW119556   1.371   1.998   4.596
 6219SOL    HW219557   1.380   1.835   4.587
 6220SOL     OW19558   2.131   1.540   4.516
 6220SOL    HW119559   2.140   1.549   4.615
 6220SOL    HW219560   2.122   1.631   4.475
 6221SOL     OW19561   5.904   5.868   6.793
 6221SOL    HW119562   5.941   5.932   6.860
 6221SOL    HW219563   5.974   5.843   6.728
 6222SOL     OW19564   1.255   6.160   1.423
 6222SOL    HW119565   1.338   6.110   1.399
 6222SOL    HW219566   1.185   6.143   1.354
 6223SOL     OW19567   1.471   5.280   3.854
 6223SOL    HW119568   1.451   5.196   3.906
 6223SOL    HW219569   1.526   5.256   3.774
 6224SOL     OW19570   2.892   1.780   6.067
 6224SOL    HW119571   2.942   1.775   6.153
 6224SOL    HW219572   2.821   1.709   6.065
 6225SOL     OW19573   3.912   3.444   6.821
 6225SOL    HW119574   3.965   3.508   6.765
 6225SOL    HW219575   3.901   3.482   6.913
 6226SOL     OW19576   0.053   1.787   5.544
 6226SOL    HW119577   0.118   1.859   5.568
 6226SOL    HW219578   0.101   1.699   5.542
 6227SOL     OW19579   3.066   5.696   5.209
 6227SOL    HW119580   2.991   5.632   5.193
 6227SOL    HW219581   3.118   5.709   5.125
 6228SOL     OW19582   1.352   3.240   2.302
 6228SOL    HW119583   1.412   3.234   2.382
 6228SOL    HW219584   1.350   3.152   2.255
 6229SOL     OW19585   0.632   1.828   3.479
 6229SOL    HW119586   0.683   1.788   3.555
 6229SOL    HW219587   0.555   1.880   3.514
 6230SOL     OW19588   0.547   1.565   3.253
 6230SOL    HW119589   0.525   1.527   3.343
 6230SOL    HW219590   0.616   1.508   3.208
 6231SOL     OW19591   6.081   6.026   0.297
 6231SOL    HW119592   6.041   6.046   0.386
 6231SOL    HW219593   6.045   5.939   0.263
 6232SOL     OW19594   6.750   0.817   0.429
 6232SOL    HW119595   6.813   0.822   0.506
 6232SOL    HW219596   6.684   0.892   0.435
 6233SOL     OW19597   6.897   1.686   1.205
 6233SOL    HW119598   6.912   1.753   1.133
 6233SOL    HW219599   6.933   1.597   1.176
 6234SOL     OW19600   6.665   0.878   5.360
 6234SOL    HW119601   6.708   0.791   5.383
 6234SOL    HW219602   6.730   0.936   5.312
 6235SOL     OW19603   0.083   6.624   0.855
 6235SOL    HW119604   0.135   6.651   0.774
 6235SOL    HW219605   0.048   6.705   0.901
 6236SOL     OW19606   1.064   4.022   0.816
 6236SOL    HW119607   1.007   3.974   0.882
 6236SOL    HW219608   1.149   4.051   0.859
 6237SOL     OW19609   3.508   0.459   6.399
 6237SOL    HW119610   3.512   0.430   6.494
 6237SOL    HW219611   3.590   0.429   6.351
 6238SOL     OW19612   3.868   4.934   2.954
 6238SOL    HW119613   3.791   4.959   2.896
 6238SOL    HW219614   3.857   4.839   2.985
 6239SOL     OW19615   2.953   0.722   1.707
 6239SOL    HW119616   3.036   0.735   1.652
 6239SOL    HW219617   2.872   0.735   1.650
 6240SOL     OW19618   2.090   3.410   5.627
 6240SOL    HW119619   2.136   3.322   5.622
 6240SOL    HW219620   2.127   3.471   5.557
 6241SOL     OW19621   3.116   0.204   1.423
 6241SOL    HW119622   3.115   0.105   1.408
 6241SOL    HW219623   3.201   0.230   1.469
 6242SOL     OW19624   4.362   0.581   3.955
 6242SOL    HW119625   4.343   0.660   4.013
 6242SOL    HW219626   4.368   0.610   3.859
 6243SOL     OW19627   6.224   6.687   4.910
 6243SOL    HW119628   6.285   6.738   4.850
 6243SOL    HW219629   6.226   6.590   4.885
 6244SOL     OW19630   6.609   2.598   2.395
 6244SOL    HW119631   6.588   2.503   2.419
 6244SOL    HW219632   6.565   2.660   2.461
 6245SOL     OW19633   1.822   4.169   0.312
 6245SOL    HW119634   1.725   4.142   0.311
 6245SOL    HW219635   1.842   4.223   0.230
 6246SOL     OW19636   1.460   1.955   5.796
 6246SOL    HW119637   1.537   1.891   5.803
 6246SOL    HW219638   1.488   2.045   5.832
 6247SOL     OW19639   6.962   5.213   4.490
 6247SOL    HW119640   6.995   5.214   4.396
 6247SOL    HW219641   6.881   5.156   4.496
 6248SOL     OW19642   3.244   3.386   0.353
 6248SOL    HW119643   3.175   3.323   0.390
 6248SOL    HW219644   3.324   3.388   0.413
 6249SOL     OW19645   6.996   3.987   0.378
 6249SOL    HW119646   0.014   3.951   0.462
 6249SOL    HW219647   7.007   3.920   0.305
 6250SOL     OW19648   6.659   0.386   0.072
 6250SOL    HW119649   6.748   0.422   0.099
 6250SOL    HW219650   6.666   0.288   0.056
 6251SOL     OW19651   3.601   6.140   6.517
 6251SOL    HW119652   3.591   6.231   6.478
 6251SOL    HW219653   3.654   6.145   6.602
 6252SOL     OW19654   2.293   6.084   5.671
 6252SOL    HW119655   2.361   6.158   5.667
 6252SOL    HW219656   2.333   6.001   5.631
 6253SOL     OW19657   2.399   4.778   3.909
 6253SOL    HW119658   2.498   4.787   3.901
 6253SOL    HW219659   2.357   4.869   3.916
 6254SOL     OW19660   5.675   1.329   1.215
 6254SOL    HW119661   5.697   1.253   1.277
 6254SOL    HW219662   5.586   1.366   1.239
 6255SOL     OW19663   3.211   0.548   0.750
 6255SOL    HW119664   3.276   0.600   0.806
 6255SOL    HW219665   3.192   0.598   0.665
 6256SOL     OW19666   3.777   5.388   1.808
 6256SOL    HW119667   3.849   5.390   1.739
 6256SOL    HW219668   3.722   5.305   1.798
 6257SOL     OW19669   4.993   2.200   0.847
 6257SOL    HW119670   5.050   2.281   0.856
 6257SOL    HW219671   4.994   2.167   0.752
 6258SOL     OW19672   3.565   0.590   3.333
 6258SOL    HW119673   3.508   0.654   3.384
 6258SOL    HW219674   3.508   0.531   3.277
 6259SOL     OW19675   1.778   2.579   6.974
 6259SOL    HW119676   1.714   2.527   6.918
 6259SOL    HW219677   1.846   2.622   6.915
 6260SOL     OW19678   3.428   5.860   0.202
 6260SOL    HW119679   3.520   5.823   0.192
 6260SOL    HW219680   3.385   5.824   0.284
 6261SOL     OW19681   4.061   1.361   0.013
 6261SOL    HW119682   4.149   1.325   7.004
 6261SOL    HW219683   4.005   1.382   6.955
 6262SOL     OW19684   2.703   6.482   1.618
 6262SOL    HW119685   2.649   6.404   1.651
 6262SOL    HW219686   2.655   6.525   1.542
 6263SOL     OW19687   0.141   0.603   4.924
 6263SOL    HW119688   0.233   0.635   4.902
 6263SOL    HW219689   0.146   0.525   4.986
 6264SOL     OW19690   1.558   0.237   1.904
 6264SOL    HW119691   1.604   0.306   1.847
 6264SOL    HW219692   1.537   0.276   1.993
 6265SOL     OW19693   3.936   3.186   0.578
 6265SOL    HW119694   3.990   3.102   0.580
 6265SOL    HW219695   3.856   3.172   0.520
 6266SOL     OW19696   4.027   0.936   3.989
 6266SOL    HW119697   4.041   0.852   3.938
 6266SOL    HW219698   4.100   1.001   3.969
 6267SOL     OW19699   2.621   6.893   5.836
 6267SOL    HW119700   2.629   6.946   5.752
 6267SOL    HW219701   2.524   6.887   5.862
 6268SOL     OW19702   2.827   0.194   3.199
 6268SOL    HW119703   2.919   0.219   3.169
 6268SOL    HW219704   2.759   0.245   3.146
 6269SOL     OW19705   0.367   6.704   1.819
 6269SOL    HW119706   0.375   6.684   1.721
 6269SOL    HW219707   0.415   6.789   1.840
 6270SOL     OW19708   1.791   0.326   6.046
 6270SOL    HW119709   1.725   0.264   6.088
 6270SOL    HW219710   1.743   0.402   6.003
 6271SOL     OW19711   6.110   1.984   6.452
 6271SOL    HW119712   6.200   2.028   6.453
 6271SOL    HW219713   6.039   2.053   6.437
 6272SOL     OW19714   0.525   2.645   0.145
 6272SOL    HW119715   0.454   2.689   0.090
 6272SOL    HW219716   0.497   2.645   0.241
 6273SOL     OW19717   0.981   6.161   2.609
 6273SOL    HW119718   1.015   6.177   2.516
 6273SOL    HW219719   0.903   6.099   2.606
 6274SOL     OW19720   3.390   6.137   5.975
 6274SOL    HW119721   3.364   6.207   6.042
 6274SOL    HW219722   3.414   6.052   6.023
 6275SOL     OW19723   2.216   6.591   6.520
 6275SOL    HW119724   2.271   6.573   6.438
 6275SOL    HW219725   2.179   6.505   6.554
 6276SOL     OW19726   2.106   4.407   3.903
 6276SOL    HW119727   2.008   4.422   3.918
 6276SOL    HW219728   2.127   4.310   3.916
 6277SOL     OW19729   4.751   3.537   1.135
 6277SOL    HW119730   4.837   3.533   1.083
 6277SOL    HW219731   4.732   3.448   1.175
 6278SOL     OW19732   5.410   6.800   5.140
 6278SOL    HW119733   5.427   6.702   5.135
 6278SOL    HW219734   5.430   6.832   5.233
 6279SOL     OW19735   3.907   6.513   6.823
 6279SOL    HW119736   3.829   6.505   6.761
 6279SOL    HW219737   3.970   6.437   6.807
 6280SOL     OW19738   1.118   1.707   5.072
 6280SOL    HW119739   1.133   1.615   5.110
 6280SOL    HW219740   1.082   1.698   4.979
 6281SOL     OW19741   0.330   4.810   4.010
 6281SOL    HW119742   0.411   4.753   3.996
 6281SOL    HW219743   0.318   4.826   4.108
 6282SOL     OW19744   0.128   5.862   5.900
 6282SOL    HW119745   0.172   5.885   5.813
 6282SOL    HW219746   0.046   5.807   5.882
 6283SOL     OW19747   7.014   3.590   5.093
 6283SOL    HW119748   0.067   3.588   5.026
 6283SOL    HW219749   0.027   3.556   5.180
 6284SOL     OW19750   0.849   5.433   4.580
 6284SOL    HW119751   0.769   5.377   4.559
 6284SOL    HW219752   0.825   5.502   4.649
 6285SOL     OW19753   0.074   3.733   4.580
 6285SOL    HW119754   0.132   3.800   4.533
 6285SOL    HW219755   0.023   3.778   4.653
 6286SOL     OW19756   6.109   1.635   4.501
 6286SOL    HW119757   6.180   1.617   4.433
 6286SOL    HW219758   6.020   1.603   4.466
 6287SOL     OW19759   3.522   5.219   4.892
 6287SOL    HW119760   3.434   5.224   4.844
 6287SOL    HW219761   3.531   5.298   4.953
 6288SOL     OW19762   4.998   4.555   2.409
 6288SOL    HW119763   4.976   4.495   2.332
 6288SOL    HW219764   5.067   4.511   2.467
 6289SOL     OW19765   1.876   4.879   0.953
 6289SOL    HW119766   1.897   4.886   1.050
 6289SOL    HW219767   1.949   4.828   0.906
 6290SOL     OW19768   6.778   5.273   5.886
 6290SOL    HW119769   6.748   5.242   5.795
 6290SOL    HW219770   6.719   5.232   5.956
 6291SOL     OW19771   4.056   3.381   4.278
 6291SOL    HW119772   4.001   3.311   4.324
 6291SOL    HW219773   4.097   3.342   4.196
 6292SOL     OW19774   1.246   1.910   4.892
 6292SOL    HW119775   1.291   1.989   4.852
 6292SOL    HW219776   1.223   1.929   4.988
 6293SOL     OW19777   4.377   1.002   0.646
 6293SOL    HW119778   4.416   1.024   0.557
 6293SOL    HW219779   4.373   1.084   0.702
 6294SOL     OW19780   3.507   6.585   4.078
 6294SOL    HW119781   3.563   6.607   3.997
 6294SOL    HW219782   3.490   6.668   4.130
 6295SOL     OW19783   5.721   4.387   5.828
 6295SOL    HW119784   5.782   4.324   5.780
 6295SOL    HW219785   5.716   4.361   5.925
 6296SOL     OW19786   0.640   6.559   6.009
 6296SOL    HW119787   0.648   6.557   5.909
 6296SOL    HW219788   0.543   6.561   6.034
 6297SOL     OW19789   5.504   0.912   4.461
 6297SOL    HW119790   5.573   0.944   4.397
 6297SOL    HW219791   5.536   0.925   4.555
 6298SOL     OW19792   1.458   3.233   6.747
 6298SOL    HW119793   1.428   3.168   6.678
 6298SOL    HW219794   1.537   3.284   6.713
 6299SOL     OW19795   6.222   2.023   0.920
 6299SOL    HW119796   6.194   1.995   0.829
 6299SOL    HW219797   6.155   2.087   0.957
 6300SOL     OW19798   6.657   1.073   0.012
 6300SOL    HW119799   6.732   1.011   0.036
 6300SOL    HW219800   6.685   1.167   0.029
 6301SOL     OW19801   4.018   6.814   0.404
 6301SOL    HW119802   4.017   6.914   0.403
 6301SOL    HW219803   4.076   6.782   0.479
 6302SOL     OW19804   1.540   0.263   3.392
 6302SOL    HW119805   1.475   0.187   3.397
 6302SOL    HW219806   1.582   0.277   3.481
 6303SOL     OW19807   1.798   1.044   3.697
 6303SOL    HW119808   1.833   1.067   3.788
 6303SOL    HW219809   1.823   0.950   3.675
 6304SOL     OW19810   2.262   1.374   1.279
 6304SOL    HW119811   2.225   1.306   1.215
 6304SOL    HW219812   2.288   1.456   1.228
 6305SOL     OW19813   6.507   7.004   0.449
 6305SOL    HW119814   6.492   0.054   0.518
 6305SOL    HW219815   6.555   6.927   0.490
 6306SOL     OW19816   0.332   4.313   3.936
 6306SOL    HW119817   0.294   4.333   3.845
 6306SOL    HW219818   0.303   4.384   4.000
 6307SOL     OW19819   3.602   4.080   4.931
 6307SOL    HW119820   3.639   4.132   5.008
 6307SOL    HW219821   3.530   4.132   4.887
 6308SOL     OW19822   2.248   1.903   4.649
 6308SOL    HW119823   2.302   1.978   4.610
 6308SOL    HW219824   2.159   1.938   4.678
 6309SOL     OW19825   5.879   4.646   5.185
 6309SOL    HW119826   5.925   4.725   5.225
 6309SOL    HW219827   5.782   4.647   5.209
 6310SOL     OW19828   2.392   5.888   3.078
 6310SOL    HW119829   2.336   5.934   3.009
 6310SOL    HW219830   2.352   5.798   3.099
 6311SOL     OW19831   5.125   1.223   6.001
 6311SOL    HW119832   5.214   1.249   6.038
 6311SOL    HW219833   5.052   1.259   6.060
 6312SOL     OW19834   6.598   6.370   5.246
 6312SOL    HW119835   6.518   6.401   5.297
 6312SOL    HW219836   6.672   6.436   5.256
 6313SOL     OW19837   6.621   5.807   4.452
 6313SOL    HW119838   6.571   5.836   4.371
 6313SOL    HW219839   6.715   5.841   4.447
 6314SOL     OW19840   4.047   6.844   1.364
 6314SOL    HW119841   3.986   6.806   1.295
 6314SOL    HW219842   4.049   6.784   1.444
 6315SOL     OW19843   1.923   2.655   5.300
 6315SOL    HW119844   1.944   2.716   5.377
 6315SOL    HW219845   2.007   2.638   5.248
 6316SOL     OW19846   5.251   2.066   6.712
 6316SOL    HW119847   5.192   2.142   6.737
 6316SOL    HW219848   5.292   2.083   6.622
 6317SOL     OW19849   4.584   4.988   1.332
 6317SOL    HW119850   4.486   4.979   1.347
 6317SOL    HW219851   4.601   5.003   1.234
 6318SOL     OW19852   3.661   0.221   5.736
 6318SOL    HW119853   3.634   0.133   5.696
 6318SOL    HW219854   3.621   0.296   5.683
 6319SOL     OW19855   6.458   1.961   4.698
 6319SOL    HW119856   6.401   2.027   4.650
 6319SOL    HW219857   6.502   2.005   4.776
 6320SOL     OW19858   6.128   6.625   5.394
 6320SOL    HW119859   6.152   6.636   5.490
 6320SOL    HW219860   6.028   6.623   5.385
 6321SOL     OW19861   3.973   3.829   0.823
 6321SOL    HW119862   4.060   3.805   0.867
 6321SOL    HW219863   3.991   3.892   0.747
 6322SOL     OW19864   2.184   2.582   0.822
 6322SOL    HW119865   2.226   2.520   0.755
 6322SOL    HW219866   2.103   2.538   0.862
 6323SOL     OW19867   2.601   2.613   1.691
 6323SOL    HW119868   2.652   2.541   1.738
 6323SOL    HW219869   2.665   2.668   1.636
 6324SOL     OW19870   5.135   0.517   0.401
 6324SOL    HW119871   5.212   0.461   0.373
 6324SOL    HW219872   5.155   0.561   0.489
 6325SOL     OW19873   1.789   3.221   2.734
 6325SOL    HW119874   1.824   3.128   2.729
 6325SOL    HW219875   1.819   3.273   2.654
 6326SOL     OW19876   4.962   4.917   1.571
 6326SOL    HW119877   4.956   4.852   1.648
 6326SOL    HW219878   4.894   4.892   1.502
 6327SOL     OW19879   0.289   0.938   5.004
 6327SOL    HW119880   0.320   1.023   5.048
 6327SOL    HW219881   0.302   0.862   5.068
 6328SOL     OW19882   3.135   3.823   0.519
 6328SOL    HW119883   3.217   3.774   0.550
 6328SOL    HW219884   3.081   3.852   0.598
 6329SOL     OW19885   1.807   2.764   3.280
 6329SOL    HW119886   1.762   2.744   3.193
 6329SOL    HW219887   1.785   2.693   3.346
 6330SOL     OW19888   5.261   0.406   1.685
 6330SOL    HW119889   5.258   0.455   1.772
 6330SOL    HW219890   5.181   0.432   1.630
 6331SOL     OW19891   6.312   2.470   5.456
 6331SOL    HW119892   6.252   2.408   5.507
 6331SOL    HW219893   6.258   2.542   5.414
 6332SOL     OW19894   0.346   3.134   0.707
 6332SOL    HW119895   0.370   3.051   0.757
 6332SOL    HW219896   0.253   3.126   0.671
 6333SOL     OW19897   4.647   6.042   5.110
 6333SOL    HW119898   4.713   5.976   5.076
 6333SOL    HW219899   4.692   6.129   5.129
 6334SOL     OW19900   2.860   0.805   2.138
 6334SOL    HW119901   2.848   0.889   2.085
 6334SOL    HW219902   2.957   0.793   2.160
 6335SOL     OW19903   4.190   0.455   0.445
 6335SOL    HW119904   4.222   0.448   0.351
 6335SOL    HW219905   4.094   0.485   0.446
 6336SOL     OW19906   1.099   2.510   6.316
 6336SOL    HW119907   1.101   2.610   6.326
 6336SOL    HW219908   1.032   2.472   6.379
 6337SOL     OW19909   4.992   4.838   5.257
 6337SOL    HW119910   4.975   4.740   5.249
 6337SOL    HW219911   5.035   4.857   5.345
 6338SOL     OW19912   3.499   2.103   4.201
 6338SOL    HW119913   3.524   2.100   4.297
 6338SOL    HW219914   3.400   2.089   4.192
 6339SOL     OW19915   1.017   3.748   3.462
 6339SOL    HW119916   1.020   3.844   3.434
 6339SOL    HW219917   1.108   3.718   3.488
 6340SOL     OW19918   1.909   5.071   1.894
 6340SOL    HW119919   1.881   5.078   1.990
 6340SOL    HW219920   1.983   5.003   1.886
 6341SOL     OW19921   0.291   4.221   4.318
 6341SOL    HW119922   0.341   4.143   4.281
 6341SOL    HW219923   0.233   4.261   4.246
 6342SOL     OW19924   1.776   0.972   2.293
 6342SOL    HW119925   1.772   0.915   2.211
 6342SOL    HW219926   1.753   0.918   2.373
 6343SOL     OW19927   4.881   1.737   6.523
 6343SOL    HW119928   4.828   1.701   6.600
 6343SOL    HW219929   4.851   1.695   6.438
 6344SOL     OW19930   5.273   2.105   4.557
 6344SOL    HW119931   5.308   2.178   4.616
 6344SOL    HW219932   5.217   2.145   4.485
 6345SOL     OW19933   6.063   3.077   2.553
 6345SOL    HW119934   6.057   2.982   2.522
 6345SOL    HW219935   6.133   3.125   2.499
 6346SOL     OW19936   6.772   5.337   4.075
 6346SOL    HW119937   6.698   5.382   4.025
 6346SOL    HW219938   6.860   5.364   4.037
 6347SOL     OW19939   1.707   0.788   0.858
 6347SOL    HW119940   1.666   0.702   0.827
 6347SOL    HW219941   1.640   0.839   0.913
 6348SOL     OW19942   1.709   2.931   5.887
 6348SOL    HW119943   1.734   2.889   5.799
 6348SOL    HW219944   1.792   2.943   5.942
 6349SOL     OW19945   2.282   0.767   1.317
 6349SOL    HW119946   2.341   0.705   1.369
 6349SOL    HW219947   2.218   0.811   1.380
 6350SOL     OW19948   0.472   5.111   4.299
 6350SOL    HW119949   0.438   5.173   4.369
 6350SOL    HW219950   0.422   5.124   4.214
 6351SOL     OW19951   6.293   3.586   3.881
 6351SOL    HW119952   6.209   3.532   3.872
 6351SOL    HW219953   6.270   3.675   3.921
 6352SOL     OW19954   3.651   6.439   4.911
 6352SOL    HW119955   3.557   6.409   4.930
 6352SOL    HW219956   3.649   6.533   4.876
 6353SOL     OW19957   1.584   6.806   6.205
 6353SOL    HW119958   1.607   6.718   6.162
 6353SOL    HW219959   1.652   6.875   6.179
 6354SOL     OW19960   2.690   5.337   2.880
 6354SOL    HW119961   2.619   5.349   2.949
 6354SOL    HW219962   2.767   5.398   2.899
 6355SOL     OW19963   1.023   5.112   6.850
 6355SOL    HW119964   1.111   5.068   6.833
 6355SOL    HW219965   1.034   5.211   6.845
 6356SOL     OW19966   5.031   5.825   1.771
 6356SOL    HW119967   5.100   5.753   1.762
 6356SOL    HW219968   4.997   5.826   1.865
 6357SOL     OW19969   6.367   3.450   2.618
 6357SOL    HW119970   6.286   3.395   2.636
 6357SOL    HW219971   6.436   3.394   2.573
 6358SOL     OW19972   0.288   2.469   6.394
 6358SOL    HW119973   0.295   2.475   6.493
 6358SOL    HW219974   0.312   2.557   6.354
 6359SOL     OW19975   6.137   0.468   0.119
 6359SOL    HW119976   6.222   0.418   0.101
 6359SOL    HW219977   6.105   0.510   0.035
 6360SOL     OW19978   1.293   4.783   4.019
 6360SOL    HW119979   1.282   4.684   4.031
 6360SOL    HW219980   1.295   4.827   4.109
 6361SOL     OW19981   1.128   6.508   0.953
 6361SOL    HW119982   1.217   6.529   0.914
 6361SOL    HW219983   1.139   6.475   1.047
 6362SOL     OW19984   6.877   5.931   6.971
 6362SOL    HW119985   6.868   6.020   7.017
 6362SOL    HW219986   6.822   5.864   7.021
 6363SOL     OW19987   1.775   5.393   3.856
 6363SOL    HW119988   1.684   5.430   3.838
 6363SOL    HW219989   1.780   5.363   3.952
 6364SOL     OW19990   2.430   1.715   5.759
 6364SOL    HW119991   2.472   1.751   5.676
 6364SOL    HW219992   2.333   1.697   5.742
 6365SOL     OW19993   5.837   0.245   3.829
 6365SOL    HW119994   5.845   0.217   3.925
 6365SOL    HW219995   5.928   0.247   3.788
 6366SOL     OW19996   1.282   6.003   5.883
 6366SOL    HW119997   1.372   5.971   5.854
 6366SOL    HW219998   1.230   5.926   5.921
 6367SOL     OW19999   3.506   1.460   4.665
 6367SOL    HW120000   3.517   1.399   4.744
 6367SOL    HW220001   3.573   1.535   4.671
 6368SOL     OW20002   3.511   5.141   3.299
 6368SOL    HW120003   3.536   5.067   3.361
 6368SOL    HW220004   3.428   5.186   3.331
 6369SOL     OW20005   2.356   6.078   4.300
 6369SOL    HW120006   2.286   6.080   4.371
 6369SOL    HW220007   2.316   6.104   4.213
 6370SOL     OW20008   0.188   3.476   3.504
 6370SOL    HW120009   0.168   3.536   3.582
 6370SOL    HW220010   0.279   3.436   3.516
 6371SOL     OW20011   4.702   4.616   2.961
 6371SOL    HW120012   4.674   4.598   2.867
 6371SOL    HW220013   4.651   4.694   2.997
 6372SOL     OW20014   2.012   0.976   1.848
 6372SOL    HW120015   1.932   1.023   1.885
 6372SOL    HW220016   2.070   1.041   1.800
 6373SOL     OW20017   4.732   4.257   2.338
 6373SOL    HW120018   4.723   4.313   2.421
 6373SOL    HW220019   4.806   4.191   2.350
 6374SOL     OW20020   4.018   3.767   3.036
 6374SOL    HW120021   3.952   3.696   3.063
 6374SOL    HW220022   4.031   3.763   2.937
 6375SOL     OW20023   0.016   1.627   3.412
 6375SOL    HW120024   7.013   1.724   3.416
 6375SOL    HW220025   7.008   1.588   3.325
 6376SOL     OW20026   5.465   2.483   4.930
 6376SOL    HW120027   5.482   2.529   5.017
 6376SOL    HW220028   5.389   2.419   4.941
 6377SOL     OW20029   7.020   1.852   5.290
 6377SOL    HW120030   0.019   1.796   5.371
 6377SOL    HW220031   7.007   1.792   5.211
 6378SOL     OW20032   4.582   4.757   4.125
 6378SOL    HW120033   4.619   4.664   4.117
 6378SOL    HW220034   4.485   4.752   4.150
 6379SOL     OW20035   1.326   4.212   4.503
 6379SOL    HW120036   1.366   4.208   4.411
 6379SOL    HW220037   1.398   4.204   4.572
 6380SOL     OW20038   0.525   1.782   5.377
 6380SOL    HW120039   0.540   1.864   5.432
 6380SOL    HW220040   0.442   1.793   5.322
 6381SOL     OW20041   3.980   3.028   1.934
 6381SOL    HW120042   3.906   3.044   1.999
 6381SOL    HW220043   3.962   2.943   1.883
 6382SOL     OW20044   2.357   1.988   0.629
 6382SOL    HW120045   2.277   1.939   0.593
 6382SOL    HW220046   2.421   2.006   0.554
 6383SOL     OW20047   1.710   2.657   3.035
 6383SOL    HW120048   1.778   2.607   2.982
 6383SOL    HW220049   1.619   2.619   3.019
 6384SOL     OW20050   6.428   4.219   3.025
 6384SOL    HW120051   6.470   4.139   3.067
 6384SOL    HW220052   6.498   4.272   2.976
 6385SOL     OW20053   0.341   3.777   3.553
 6385SOL    HW120054   0.341   3.828   3.468
 6385SOL    HW220055   0.435   3.755   3.580
 6386SOL     OW20056   2.423   4.580   5.924
 6386SOL    HW120057   2.385   4.667   5.957
 6386SOL    HW220058   2.486   4.598   5.849
 6387SOL     OW20059   6.786   1.576   6.429
 6387SOL    HW120060   6.823   1.588   6.337
 6387SOL    HW220061   6.688   1.555   6.423
 6388SOL     OW20062   4.080   6.206   1.977
 6388SOL    HW120063   4.136   6.158   1.910
 6388SOL    HW220064   4.133   6.219   2.061
 6389SOL     OW20065   0.093   5.543   2.146
 6389SOL    HW120066   0.110   5.515   2.241
 6389SOL    HW220067   0.000   5.515   2.120
 6390SOL     OW20068   0.511   0.710   5.791
 6390SOL    HW120069   0.607   0.737   5.794
 6390SOL    HW220070   0.456   0.785   5.754
 6391SOL     OW20071   2.893   0.136   6.104
 6391SOL    HW120072   2.877   0.226   6.063
 6391SOL    HW220073   2.896   0.067   6.032
 6392SOL     OW20074   2.874   5.580   2.593
 6392SOL    HW120075   2.941   5.601   2.664
 6392SOL    HW220076   2.868   5.658   2.530
 6393SOL     OW20077   0.169   6.398   2.021
 6393SOL    HW120078   0.098   6.368   1.957
 6393SOL    HW220079   0.147   6.489   2.056
 6394SOL     OW20080   2.373   5.322   0.824
 6394SOL    HW120081   2.286   5.344   0.781
 6394SOL    HW220082   2.357   5.286   0.916
 6395SOL     OW20083   0.384   2.805   1.663
 6395SOL    HW120084   0.369   2.793   1.565
 6395SOL    HW220085   0.355   2.896   1.690
 6396SOL     OW20086   5.307   3.779   6.739
 6396SOL    HW120087   5.381   3.800   6.675
 6396SOL    HW220088   5.321   3.689   6.779
 6397SOL     OW20089   6.074   1.708   0.956
 6397SOL    HW120090   6.044   1.750   1.041
 6397SOL    HW220091   6.079   1.778   0.884
 6398SOL     OW20092   2.991   0.028   1.722
 6398SOL    HW120093   3.053   7.011   1.654
 6398SOL    HW220094   2.897   0.023   1.689
 6399SOL     OW20095   1.429   6.467   6.530
 6399SOL    HW120096   1.351   6.530   6.518
 6399SOL    HW220097   1.473   6.485   6.617
 6400SOL     OW20098   2.684   6.037   2.083
 6400SOL    HW120099   2.641   5.948   2.070
 6400SOL    HW220100   2.725   6.067   1.997
 6401SOL     OW20101   5.563   5.619   3.311
 6401SOL    HW120102   5.533   5.552   3.243
 6401SOL    HW220103   5.579   5.707   3.266
 6402SOL     OW20104   2.984   2.159   3.342
 6402SOL    HW120105   3.082   2.143   3.344
 6402SOL    HW220106   2.961   2.223   3.269
 6403SOL     OW20107   6.960   5.993   6.450
 6403SOL    HW120108   0.038   5.996   6.435
 6403SOL    HW220109   6.941   5.988   6.548
 6404SOL     OW20110   4.600   0.885   2.469
 6404SOL    HW120111   4.551   0.948   2.408
 6404SOL    HW220112   4.571   0.902   2.564
 6405SOL     OW20113   3.113   0.370   3.935
 6405SOL    HW120114   3.085   0.433   4.007
 6405SOL    HW220115   3.207   0.390   3.908
 6406SOL     OW20116   0.815   2.704   2.347
 6406SOL    HW120117   0.736   2.764   2.359
 6406SOL    HW220118   0.832   2.691   2.249
 6407SOL     OW20119   2.623   6.598   3.792
 6407SOL    HW120120   2.670   6.535   3.854
 6407SOL    HW220121   2.690   6.660   3.751
 6408SOL     OW20122   5.564   1.099   0.131
 6408SOL    HW120123   5.589   1.124   0.224
 6408SOL    HW220124   5.601   1.008   0.110
 6409SOL     OW20125   6.777   4.141   3.454
 6409SOL    HW120126   6.863   4.188   3.478
 6409SOL    HW220127   6.715   4.207   3.412
 6410SOL     OW20128   2.117   1.338   6.752
 6410SOL    HW120129   2.087   1.277   6.678
 6410SOL    HW220130   2.125   1.287   6.837
 6411SOL     OW20131   0.844   3.263   3.133
 6411SOL    HW120132   0.872   3.285   3.040
 6411SOL    HW220133   0.748   3.286   3.145
 6412SOL     OW20134   0.744   1.872   4.549
 6412SOL    HW120135   0.713   1.813   4.475
 6412SOL    HW220136   0.670   1.933   4.577
 6413SOL     OW20137   3.723   4.921   3.741
 6413SOL    HW120138   3.805   4.877   3.777
 6413SOL    HW220139   3.674   4.966   3.816
 6414SOL     OW20140   5.645   0.741   0.410
 6414SOL    HW120141   5.588   0.814   0.373
 6414SOL    HW220142   5.734   0.779   0.438
 6415SOL     OW20143   1.937   3.405   2.960
 6415SOL    HW120144   1.896   3.386   2.871
 6415SOL    HW220145   1.868   3.442   3.022
 6416SOL     OW20146   0.821   1.317   6.500
 6416SOL    HW120147   0.852   1.392   6.558
 6416SOL    HW220148   0.858   1.231   6.533
 6417SOL     OW20149   5.990   4.949   0.748
 6417SOL    HW120150   5.938   5.006   0.684
 6417SOL    HW220151   5.932   4.927   0.827
 6418SOL     OW20152   4.851   3.764   2.224
 6418SOL    HW120153   4.904   3.803   2.300
 6418SOL    HW220154   4.804   3.837   2.175
 6419SOL     OW20155   2.063   4.587   3.168
 6419SOL    HW120156   2.088   4.512   3.229
 6419SOL    HW220157   2.087   4.674   3.212
 6420SOL     OW20158   2.785   5.905   4.400
 6420SOL    HW120159   2.689   5.914   4.371
 6420SOL    HW220160   2.832   5.992   4.385
 6421SOL     OW20161   5.267   0.060   3.251
 6421SOL    HW120162   5.207   0.028   3.325
 6421SOL    HW220163   5.295   0.154   3.269
 6422SOL     OW20164   0.067   0.905   3.987
 6422SOL    HW120165   6.992   0.913   4.013
 6422SOL    HW220166   0.106   0.996   3.975
 6423SOL     OW20167   4.987   5.259   3.576
 6423SOL    HW120168   4.928   5.315   3.634
 6423SOL    HW220169   5.017   5.178   3.627
 6424SOL     OW20170   0.326   5.139   6.245
 6424SOL    HW120171   0.255   5.208   6.249
 6424SOL    HW220172   0.306   5.074   6.172
 6425SOL     OW20173   6.382   6.083   3.336
 6425SOL    HW120174   6.468   6.094   3.386
 6425SOL    HW220175   6.397   6.026   3.255
 6426SOL     OW20176   1.261   5.107   2.784
 6426SOL    HW120177   1.184   5.054   2.747
 6426SOL    HW220178   1.337   5.045   2.803
 6427SOL     OW20179   3.548   3.727   4.631
 6427SOL    HW120180   3.585   3.815   4.600
 6427SOL    HW220181   3.545   3.663   4.554
 6428SOL     OW20182   5.861   3.535   5.889
 6428SOL    HW120183   5.849   3.474   5.968
 6428SOL    HW220184   5.774   3.544   5.841
 6429SOL     OW20185   1.196   1.734   5.912
 6429SOL    HW120186   1.211   1.640   5.942
 6429SOL    HW220187   1.281   1.772   5.876
 6430SOL     OW20188   6.125   1.054   2.945
 6430SOL    HW120189   6.032   1.084   2.964
 6430SOL    HW220190   6.190   1.118   2.984
 6431SOL     OW20191   4.911   6.855   4.016
 6431SOL    HW120192   4.932   6.945   4.054
 6431SOL    HW220193   4.812   6.838   4.023
 6432SOL     OW20194   4.448   4.489   6.009
 6432SOL    HW120195   4.456   4.415   5.943
 6432SOL    HW220196   4.457   4.577   5.962
 6433SOL     OW20197   1.650   5.469   6.077
 6433SOL    HW120198   1.599   5.493   5.995
 6433SOL    HW220199   1.598   5.402   6.130
 6434SOL     OW20200   2.547   4.464   6.632
 6434SOL    HW120201   2.609   4.386   6.628
 6434SOL    HW220202   2.474   4.446   6.698
 6435SOL     OW20203   4.946   6.560   1.033
 6435SOL    HW120204   4.940   6.623   0.956
 6435SOL    HW220205   4.974   6.609   1.115
 6436SOL     OW20206   1.447   3.091   3.003
 6436SOL    HW120207   1.463   3.006   2.953
 6436SOL    HW220208   1.519   3.157   2.981
 6437SOL     OW20209   2.586   1.331   0.406
 6437SOL    HW120210   2.633   1.288   0.329
 6437SOL    HW220211   2.651   1.348   0.480
 6438SOL     OW20212   6.256   4.257   5.813
 6438SOL    HW120213   6.300   4.197   5.880
 6438SOL    HW220214   6.325   4.318   5.772
 6439SOL     OW20215   5.798   1.312   1.871
 6439SOL    HW120216   5.844   1.394   1.837
 6439SOL    HW220217   5.785   1.248   1.796
 6440SOL     OW20218   2.158   1.908   5.955
 6440SOL    HW120219   2.140   2.005   5.938
 6440SOL    HW220220   2.249   1.897   5.993
 6441SOL     OW20221   6.446   6.697   1.681
 6441SOL    HW120222   6.390   6.648   1.614
 6441SOL    HW220223   6.471   6.635   1.756
 6442SOL     OW20224   2.433   1.733   4.723
 6442SOL    HW120225   2.453   1.662   4.656
 6442SOL    HW220226   2.344   1.775   4.703
 6443SOL     OW20227   4.139   2.195   5.833
 6443SOL    HW120228   4.061   2.245   5.796
 6443SOL    HW220229   4.157   2.114   5.777
 6444SOL     OW20230   5.637   2.604   4.391
 6444SOL    HW120231   5.564   2.664   4.426
 6444SOL    HW220232   5.726   2.648   4.407
 6445SOL     OW20233   4.065   3.282   4.668
 6445SOL    HW120234   4.100   3.191   4.644
 6445SOL    HW220235   4.009   3.275   4.750
 6446SOL     OW20236   0.999   1.145   6.953
 6446SOL    HW120237   1.047   1.228   6.981
 6446SOL    HW220238   0.903   1.152   6.978
 6447SOL     OW20239   5.121   4.983   3.643
 6447SOL    HW120240   5.122   4.894   3.599
 6447SOL    HW220241   5.136   4.972   3.742
 6448SOL     OW20242   4.086   5.735   2.301
 6448SOL    HW120243   4.115   5.661   2.240
 6448SOL    HW220244   4.128   5.821   2.272
 6449SOL     OW20245   3.527   6.149   1.182
 6449SOL    HW120246   3.574   6.113   1.101
 6449SOL    HW220247   3.518   6.077   1.250
 6450SOL     OW20248   0.367   3.923   0.966
 6450SOL    HW120249   0.430   4.000   0.957
 6450SOL    HW220250   0.343   3.910   1.062
 6451SOL     OW20251   2.145   0.888   4.498
 6451SOL    HW120252   2.212   0.829   4.542
 6451SOL    HW220253   2.119   0.848   4.409
 6452SOL     OW20254   4.658   5.792   4.179
 6452SOL    HW120255   4.717   5.873   4.174
 6452SOL    HW220256   4.674   5.745   4.266
 6453SOL     OW20257   2.260   6.417   1.686
 6453SOL    HW120258   2.240   6.378   1.596
 6453SOL    HW220259   2.290   6.512   1.674
 6454SOL     OW20260   0.938   2.400   2.964
 6454SOL    HW120261   0.863   2.431   2.905
 6454SOL    HW220262   0.915   2.419   3.059
 6455SOL     OW20263   6.917   3.191   3.326
 6455SOL    HW120264   6.832   3.190   3.377
 6455SOL    HW220265   6.939   3.285   3.299
 6456SOL     OW20266   0.835   0.470   3.552
 6456SOL    HW120267   0.756   0.441   3.604
 6456SOL    HW220268   0.825   0.565   3.525
 6457SOL     OW20269   4.989   1.798   1.358
 6457SOL    HW120270   4.891   1.805   1.377
 6457SOL    HW220271   5.037   1.875   1.400
 6458SOL     OW20272   1.157   6.362   4.542
 6458SOL    HW120273   1.256   6.351   4.532
 6458SOL    HW220274   1.118   6.394   4.456
 6459SOL     OW20275   6.337   3.122   1.151
 6459SOL    HW120276   6.262   3.083   1.206
 6459SOL    HW220277   6.377   3.199   1.200
 6460SOL     OW20278   6.021   6.237   5.861
 6460SOL    HW120279   6.046   6.151   5.816
 6460SOL    HW220280   5.966   6.217   5.942
 6461SOL     OW20281   2.018   4.589   6.103
 6461SOL    HW120282   2.009   4.689   6.101
 6461SOL    HW220283   1.932   4.549   6.134
 6462SOL     OW20284   2.089   2.527   4.382
 6462SOL    HW120285   2.137   2.615   4.377
 6462SOL    HW220286   2.089   2.484   4.291
 6463SOL     OW20287   6.072   2.923   6.885
 6463SOL    HW120288   5.995   2.868   6.917
 6463SOL    HW220289   6.152   2.906   6.943
 6464SOL     OW20290   0.990   5.644   4.927
 6464SOL    HW120291   0.896   5.619   4.953
 6464SOL    HW220292   1.047   5.562   4.925
 6465SOL     OW20293   0.118   3.106   2.865
 6465SOL    HW120294   0.086   3.175   2.799
 6465SOL    HW220295   0.087   3.130   2.957
 6466SOL     OW20296   0.944   1.025   6.451
 6466SOL    HW120297   0.860   0.995   6.406
 6466SOL    HW220298   0.990   0.946   6.493
 6467SOL     OW20299   3.226   1.568   0.186
 6467SOL    HW120300   3.148   1.532   0.135
 6467SOL    HW220301   3.193   1.623   0.263
 6468SOL     OW20302   3.117   6.480   0.525
 6468SOL    HW120303   3.178   6.410   0.562
 6468SOL    HW220304   3.126   6.483   0.425
 6469SOL     OW20305   4.608   1.203   4.649
 6469SOL    HW120306   4.517   1.241   4.660
 6469SOL    HW220307   4.675   1.263   4.691
 6470SOL     OW20308   6.182   2.968   0.569
 6470SOL    HW120309   6.232   3.052   0.589
 6470SOL    HW220310   6.087   2.978   0.595
 6471SOL     OW20311   6.610   6.499   5.775
 6471SOL    HW120312   6.616   6.399   5.767
 6471SOL    HW220313   6.598   6.539   5.684
 6472SOL     OW20314   0.373   5.511   1.778
 6472SOL    HW120315   0.300   5.482   1.716
 6472SOL    HW220316   0.384   5.443   1.850
 6473SOL     OW20317   3.260   1.378   4.486
 6473SOL    HW120318   3.256   1.477   4.468
 6473SOL    HW220319   3.348   1.355   4.528
 6474SOL     OW20320   2.746   4.147   5.780
 6474SOL    HW120321   2.677   4.198   5.729
 6474SOL    HW220322   2.834   4.154   5.733
 6475SOL     OW20323   5.713   5.329   3.884
 6475SOL    HW120324   5.780   5.262   3.851
 6475SOL    HW220325   5.649   5.351   3.810
 6476SOL     OW20326   3.942   3.460   1.432
 6476SOL    HW120327   4.038   3.474   1.409
 6476SOL    HW220328   3.888   3.536   1.396
 6477SOL     OW20329   5.944   5.033   1.197
 6477SOL    HW120330   5.901   4.989   1.118
 6477SOL    HW220331   5.982   4.963   1.257
 6478SOL     OW20332   3.515   0.517   1.801
 6478SOL    HW120333   3.423   0.509   1.762
 6478SOL    HW220334   3.563   0.593   1.758
 6479SOL     OW20335   4.519   5.263   3.810
 6479SOL    HW120336   4.504   5.355   3.844
 6479SOL    HW220337   4.609   5.230   3.839
 6480SOL     OW20338   2.842   1.518   6.360
 6480SOL    HW120339   2.937   1.546   6.344
 6480SOL    HW220340   2.786   1.542   6.280
 6481SOL     OW20341   3.536   2.029   2.201
 6481SOL    HW120342   3.459   2.063   2.254
 6481SOL    HW220343   3.570   2.101   2.141
 6482SOL     OW20344   6.635   0.737   6.481
 6482SOL    HW120345   6.679   0.804   6.421
 6482SOL    HW220346   6.692   0.655   6.486
 6483SOL     OW20347   1.225   6.745   2.249
 6483SOL    HW120348   1.233   6.743   2.349
 6483SOL    HW220349   1.148   6.804   2.224
 6484SOL     OW20350   3.386   6.932   1.199
 6484SOL    HW120351   3.337   7.010   1.161
 6484SOL    HW220352   3.443   6.962   1.275
 6485SOL     OW20353   2.102   5.014   3.615
 6485SOL    HW120354   2.062   4.922   3.616
 6485SOL    HW220355   2.036   5.079   3.653
 6486SOL     OW20356   2.463   4.416   3.625
 6486SOL    HW120357   2.541   4.386   3.680
 6486SOL    HW220358   2.415   4.490   3.672
 6487SOL     OW20359   0.364   6.341   5.131
 6487SOL    HW120360   0.461   6.356   5.152
 6487SOL    HW220361   0.320   6.429   5.116
 6488SOL     OW20362   3.561   6.129   4.468
 6488SOL    HW120363   3.520   6.201   4.524
 6488SOL    HW220364   3.541   6.146   4.372
 6489SOL     OW20365   3.258   2.592   6.429
 6489SOL    HW120366   3.204   2.675   6.416
 6489SOL    HW220367   3.206   2.513   6.396
 6490SOL     OW20368   4.344   0.567   6.902
 6490SOL    HW120369   4.322   0.664   6.907
 6490SOL    HW220370   4.403   0.542   6.979
 6491SOL     OW20371   4.147   0.925   0.470
 6491SOL    HW120372   4.237   0.966   0.483
 6491SOL    HW220373   4.158   0.833   0.431
 6492SOL     OW20374   4.045   4.823   6.674
 6492SOL    HW120375   3.952   4.787   6.685
 6492SOL    HW220376   4.108   4.770   6.730
 6493SOL     OW20377   1.001   4.755   5.128
 6493SOL    HW120378   1.058   4.809   5.066
 6493SOL    HW220379   1.033   4.767   5.222
 6494SOL     OW20380   7.021   0.347   3.996
 6494SOL    HW120381   6.992   0.362   3.902
 6494SOL    HW220382   0.098   0.360   4.003
 6495SOL     OW20383   5.661   0.032   4.767
 6495SOL    HW120384   5.735   0.078   4.816
 6495SOL    HW220385   5.597   7.013   4.832
 6496SOL     OW20386   6.338   0.642   2.581
 6496SOL    HW120387   6.306   0.599   2.666
 6496SOL    HW220388   6.393   0.722   2.602
 6497SOL     OW20389   1.302   1.635   0.831
 6497SOL    HW120390   1.292   1.550   0.882
 6497SOL    HW220391   1.357   1.700   0.884
 6498SOL     OW20392   1.811   3.298   3.781
 6498SOL    HW120393   1.891   3.284   3.839
 6498SOL    HW220394   1.841   3.315   3.687
 6499SOL     OW20395   5.411   2.966   5.440
 6499SOL    HW120396   5.484   3.025   5.476
 6499SOL    HW220397   5.444   2.919   5.358
 6500SOL     OW20398   6.817   3.950   4.448
 6500SOL    HW120399   6.828   3.930   4.545
 6500SOL    HW220400   6.850   4.042   4.428
 6501SOL     OW20401   6.822   1.731   6.685
 6501SOL    HW120402   6.843   1.670   6.609
 6501SOL    HW220403   6.907   1.773   6.718
 6502SOL     OW20404   6.958   1.905   1.546
 6502SOL    HW120405   6.881   1.881   1.487
 6502SOL    HW220406   6.972   2.004   1.542
 6503SOL     OW20407   5.097   1.095   3.426
 6503SOL    HW120408   5.017   1.043   3.456
 6503SOL    HW220409   5.174   1.033   3.415
 6504SOL     OW20410   4.043   6.242   5.350
 6504SOL    HW120411   4.083   6.207   5.265
 6504SOL    HW220412   4.094   6.322   5.381
 6505SOL     OW20413   5.402   5.901   0.471
 6505SOL    HW120414   5.356   5.925   0.556
 6505SOL    HW220415   5.495   5.869   0.491
 6506SOL     OW20416   6.319   2.314   2.636
 6506SOL    HW120417   6.258   2.252   2.588
 6506SOL    HW220418   6.266   2.390   2.675
 6507SOL     OW20419   1.454   5.298   5.595
 6507SOL    HW120420   1.448   5.219   5.534
 6507SOL    HW220421   1.492   5.270   5.682
 6508SOL     OW20422   1.368   0.623   2.654
 6508SOL    HW120423   1.426   0.591   2.580
 6508SOL    HW220424   1.343   0.546   2.713
 6509SOL     OW20425   3.643   1.921   4.477
 6509SOL    HW120426   3.715   1.979   4.439
 6509SOL    HW220427   3.559   1.975   4.488
 6510SOL     OW20428   6.604   5.429   6.861
 6510SOL    HW120429   6.627   5.421   6.958
 6510SOL    HW220430   6.688   5.436   6.808
 6511SOL     OW20431   4.179   1.588   4.430
 6511SOL    HW120432   4.143   1.681   4.429
 6511SOL    HW220433   4.273   1.588   4.396
 6512SOL     OW20434   4.741   6.454   1.801
 6512SOL    HW120435   4.829   6.486   1.837
 6512SOL    HW220436   4.680   6.434   1.878
 6513SOL     OW20437   3.024   5.205   2.841
 6513SOL    HW120438   3.005   5.158   2.755
 6513SOL    HW220439   2.985   5.154   2.917
 6514SOL     OW20440   6.394   1.126   3.669
 6514SOL    HW120441   6.490   1.120   3.643
 6514SOL    HW220442   6.382   1.093   3.762
 6515SOL     OW20443   0.103   4.547   4.295
 6515SOL    HW120444   0.014   4.518   4.259
 6515SOL    HW220445   0.103   4.536   4.394
 6516SOL     OW20446   0.306   3.372   1.628
 6516SOL    HW120447   0.335   3.278   1.647
 6516SOL    HW220448   0.224   3.371   1.571
 6517SOL     OW20449   6.587   1.082   1.352
 6517SOL    HW120450   6.630   1.016   1.290
 6517SOL    HW220451   6.555   1.161   1.300
 6518SOL     OW20452   6.952   0.696   0.021
 6518SOL    HW120453   6.945   0.619   0.085
 6518SOL    HW220454   6.884   0.685   6.970
 6519SOL     OW20455   1.311   2.234   3.226
 6519SOL    HW120456   1.276   2.293   3.153
 6519SOL    HW220457   1.348   2.150   3.186
 6520SOL     OW20458   5.474   5.792   2.191
 6520SOL    HW120459   5.432   5.745   2.269
 6520SOL    HW220460   5.424   5.877   2.173
 6521SOL     OW20461   1.991   2.472   3.966
 6521SOL    HW120462   2.038   2.506   3.885
 6521SOL    HW220463   1.947   2.548   4.014
 6522SOL     OW20464   3.121   5.297   6.332
 6522SOL    HW120465   3.195   5.314   6.397
 6522SOL    HW220466   3.074   5.212   6.356
 6523SOL     OW20467   4.025   1.097   6.499
 6523SOL    HW120468   4.094   1.161   6.533
 6523SOL    HW220469   4.031   1.012   6.551
 6524SOL     OW20470   3.142   3.790   1.721
 6524SOL    HW120471   3.130   3.871   1.778
 6524SOL    HW220472   3.240   3.772   1.709
 6525SOL     OW20473   2.708   5.105   2.488
 6525SOL    HW120474   2.797   5.124   2.531
 6525SOL    HW220475   2.684   5.009   2.504
 6526SOL     OW20476   1.973   0.146   6.753
 6526SOL    HW120477   1.881   0.162   6.790
 6526SOL    HW220478   1.975   0.056   6.708
 6527SOL     OW20479   0.943   1.977   4.722
 6527SOL    HW120480   0.883   1.971   4.642
 6527SOL    HW220481   0.997   1.894   4.730
 6528SOL     OW20482   0.085   0.688   5.467
 6528SOL    HW120483   0.128   0.634   5.539
 6528SOL    HW220484   0.110   0.784   5.478
 6529SOL     OW20485   1.486   0.855   2.735
 6529SOL    HW120486   1.434   0.771   2.722
 6529SOL    HW220487   1.435   0.933   2.699
 6530SOL     OW20488   6.661   3.773   0.212
 6530SOL    HW120489   6.643   3.786   0.310
 6530SOL    HW220490   6.578   3.793   0.161
 6531SOL     OW20491   5.817   2.968   5.339
 6531SOL    HW120492   5.902   3.022   5.342
 6531SOL    HW220493   5.827   2.895   5.271
 6532SOL     OW20494   6.999   1.221   0.565
 6532SOL    HW120495   6.901   1.210   0.582
 6532SOL    HW220496   0.026   1.216   0.652
 6533SOL     OW20497   4.601   7.017   1.213
 6533SOL    HW120498   4.678   0.059   1.214
 6533SOL    HW220499   4.583   6.985   1.306
 6534SOL     OW20500   3.706   4.729   1.300
 6534SOL    HW120501   3.684   4.818   1.339
 6534SOL    HW220502   3.772   4.682   1.358
 6535SOL     OW20503   5.976   4.308   4.180
 6535SOL    HW120504   5.933   4.330   4.093
 6535SOL    HW220505   5.913   4.326   4.255
 6536SOL     OW20506   1.407   1.215   5.799
 6536SOL    HW120507   1.329   1.249   5.851
 6536SOL    HW220508   1.484   1.277   5.810
 6537SOL     OW20509   6.872   5.434   0.345
 6537SOL    HW120510   6.885   5.513   0.286
 6537SOL    HW220511   6.775   5.409   0.348
 6538SOL     OW20512   2.754   4.143   6.712
 6538SOL    HW120513   2.798   4.070   6.764
 6538SOL    HW220514   2.797   4.230   6.734
 6539SOL     OW20515   3.989   0.363   5.817
 6539SOL    HW120516   4.077   0.411   5.820
 6539SOL    HW220517   3.964   0.346   5.722
 6540SOL     OW20518   4.303   1.809   5.899
 6540SOL    HW120519   4.375   1.863   5.943
 6540SOL    HW220520   4.216   1.828   5.943
 6541SOL     OW20521   5.005   2.396   5.114
 6541SOL    HW120522   5.057   2.470   5.156
 6541SOL    HW220523   5.067   2.337   5.061
 6542SOL     OW20524   6.166   3.819   3.977
 6542SOL    HW120525   6.089   3.864   3.931
 6542SOL    HW220526   6.237   3.887   3.996
 6543SOL     OW20527   5.742   2.877   5.805
 6543SOL    HW120528   5.758   2.797   5.864
 6543SOL    HW220529   5.713   2.847   5.715
 6544SOL     OW20530   0.915   6.276   2.858
 6544SOL    HW120531   0.925   6.252   2.762
 6544SOL    HW220532   0.989   6.236   2.911
 6545SOL     OW20533   3.807   2.460   0.802
 6545SOL    HW120534   3.733   2.413   0.850
 6545SOL    HW220535   3.779   2.553   0.780
 6546SOL     OW20536   2.820   4.667   0.269
 6546SOL    HW120537   2.839   4.600   0.341
 6546SOL    HW220538   2.873   4.750   0.286
 6547SOL     OW20539   4.807   1.093   5.575
 6547SOL    HW120540   4.827   1.017   5.512
 6547SOL    HW220541   4.837   1.069   5.667
 6548SOL     OW20542   1.235   3.829   0.278
 6548SOL    HW120543   1.171   3.805   0.205
 6548SOL    HW220544   1.311   3.882   0.239
 6549SOL     OW20545   4.624   1.097   1.616
 6549SOL    HW120546   4.661   1.018   1.566
 6549SOL    HW220547   4.698   1.143   1.665
 6550SOL     OW20548   0.101   6.536   4.320
 6550SOL    HW120549   0.137   6.442   4.318
 6550SOL    HW220550   0.115   6.579   4.232
 6551SOL     OW20551   1.910   4.996   2.599
 6551SOL    HW120552   2.000   5.022   2.566
 6551SOL    HW220553   1.914   4.906   2.641
 6552SOL     OW20554   1.853   6.705   6.574
 6552SOL    HW120555   1.755   6.706   6.589
 6552SOL    HW220556   1.898   6.661   6.652
 6553SOL     OW20557   0.209   2.184   3.428
 6553SOL    HW120558   0.131   2.213   3.485
 6553SOL    HW220559   0.176   2.128   3.353
 6554SOL     OW20560   0.373   1.069   4.738
 6554SOL    HW120561   0.322   1.020   4.810
 6554SOL    HW220562   0.338   1.162   4.730
 6555SOL     OW20563   6.142   2.127   2.586
 6555SOL    HW120564   6.112   2.089   2.499
 6555SOL    HW220565   6.082   2.093   2.659
 6556SOL     OW20566   5.496   4.694   4.842
 6556SOL    HW120567   5.517   4.601   4.874
 6556SOL    HW220568   5.401   4.697   4.811
 6557SOL     OW20569   3.298   6.659   2.141
 6557SOL    HW120570   3.300   6.682   2.043
 6557SOL    HW220571   3.361   6.717   2.190
 6558SOL     OW20572   0.030   4.898   6.532
 6558SOL    HW120573   6.976   4.934   6.587
 6558SOL    HW220574   0.026   4.937   6.440
 6559SOL     OW20575   0.778   3.743   6.246
 6559SOL    HW120576   0.811   3.831   6.280
 6559SOL    HW220577   0.761   3.682   6.323
 6560SOL     OW20578   4.445   5.257   1.124
 6560SOL    HW120579   4.412   5.290   1.213
 6560SOL    HW220580   4.539   5.285   1.111
 6561SOL     OW20581   3.467   3.937   1.199
 6561SOL    HW120582   3.495   4.032   1.212
 6561SOL    HW220583   3.419   3.905   1.281
 6562SOL     OW20584   5.930   3.722   1.176
 6562SOL    HW120585   5.944   3.791   1.247
 6562SOL    HW220586   6.018   3.697   1.136
 6563SOL     OW20587   5.427   6.383   0.205
 6563SOL    HW120588   5.525   6.380   0.184
 6563SOL    HW220589   5.401   6.301   0.255
 6564SOL     OW20590   6.954   4.472   3.368
 6564SOL    HW120591   6.955   4.392   3.427
 6564SOL    HW220592   6.976   4.553   3.423
 6565SOL     OW20593   6.171   2.339   3.594
 6565SOL    HW120594   6.143   2.284   3.515
 6565SOL    HW220595   6.218   2.280   3.660
 6566SOL     OW20596   3.568   6.141   2.387
 6566SOL    HW120597   3.570   6.240   2.380
 6566SOL    HW220598   3.621   6.101   2.313
 6567SOL     OW20599   4.134   1.257   2.077
 6567SOL    HW120600   4.108   1.161   2.073
 6567SOL    HW220601   4.169   1.278   2.169
 6568SOL     OW20602   3.804   1.191   3.411
 6568SOL    HW120603   3.889   1.141   3.427
 6568SOL    HW220604   3.754   1.149   3.335
 6569SOL     OW20605   2.956   3.389   6.377
 6569SOL    HW120606   3.052   3.360   6.379
 6569SOL    HW220607   2.931   3.412   6.283
 6570SOL     OW20608   4.016   0.582   2.236
 6570SOL    HW120609   3.973   0.634   2.162
 6570SOL    HW220610   4.085   0.520   2.197
 6571SOL     OW20611   2.983   5.904   1.529
 6571SOL    HW120612   2.927   5.869   1.604
 6571SOL    HW220613   3.032   5.986   1.559
 6572SOL     OW20614   6.578   5.048   5.836
 6572SOL    HW120615   6.560   4.959   5.793
 6572SOL    HW220616   6.511   5.064   5.908
 6573SOL     OW20617   2.258   1.467   2.309
 6573SOL    HW120618   2.272   1.495   2.214
 6573SOL    HW220619   2.272   1.369   2.317
 6574SOL     OW20620   3.232   5.720   2.847
 6574SOL    HW120621   3.168   5.644   2.841
 6574SOL    HW220622   3.240   5.763   2.757
 6575SOL     OW20623   1.032   0.385   2.807
 6575SOL    HW120624   1.097   0.396   2.882
 6575SOL    HW220625   0.952   0.443   2.823
 6576SOL     OW20626   2.359   5.743   6.371
 6576SOL    HW120627   2.324   5.651   6.353
 6576SOL    HW220628   2.452   5.738   6.406
 6577SOL     OW20629   0.495   1.229   4.417
 6577SOL    HW120630   0.489   1.133   4.389
 6577SOL    HW220631   0.557   1.236   4.496
 6578SOL     OW20632   1.576   5.164   3.351
 6578SOL    HW120633   1.508   5.208   3.291
 6578SOL    HW220634   1.573   5.207   3.441
 6579SOL     OW20635   6.466   3.585   5.069
 6579SOL    HW120636   6.441   3.666   5.016
 6579SOL    HW220637   6.544   3.540   5.027
 6580SOL     OW20638   0.469   2.188   0.462
 6580SOL    HW120639   0.407   2.111   0.479
 6580SOL    HW220640   0.534   2.196   0.537
 6581SOL     OW20641   2.794   0.774   6.940
 6581SOL    HW120642   2.838   0.730   6.862
 6581SOL    HW220643   2.710   0.820   6.910
 6582SOL     OW20644   0.854   1.526   1.792
 6582SOL    HW120645   0.908   1.490   1.868
 6582SOL    HW220646   0.773   1.572   1.828
 6583SOL     OW20647   4.291   0.678   5.053
 6583SOL    HW120648   4.196   0.646   5.045
 6583SOL    HW220649   4.291   0.772   5.088
 6584SOL     OW20650   4.675   2.215   1.009
 6584SOL    HW120651   4.602   2.277   1.040
 6584SOL    HW220652   4.759   2.267   0.994
 6585SOL     OW20653   5.662   6.733   0.167
 6585SOL    HW120654   5.574   6.698   0.137
 6585SOL    HW220655   5.650   6.825   0.205
 6586SOL     OW20656   0.730   1.614   5.545
 6586SOL    HW120657   0.689   1.656   5.464
 6586SOL    HW220658   0.660   1.602   5.616
 6587SOL     OW20659   2.042   6.753   4.816
 6587SOL    HW120660   2.005   6.797   4.898
 6587SOL    HW220661   2.125   6.703   4.839
 6588SOL     OW20662   0.724   3.999   1.766
 6588SOL    HW120663   0.740   3.905   1.735
 6588SOL    HW220664   0.812   4.043   1.786
 6589SOL     OW20665   5.108   0.889   0.399
 6589SOL    HW120666   5.187   0.858   0.346
 6589SOL    HW220667   5.137   0.962   0.462
 6590SOL     OW20668   1.102   0.706   5.553
 6590SOL    HW120669   1.061   0.700   5.644
 6590SOL    HW220670   1.033   0.733   5.486
 6591SOL     OW20671   5.339   5.539   2.024
 6591SOL    HW120672   5.409   5.606   2.050
 6591SOL    HW220673   5.295   5.504   2.106
 6592SOL     OW20674   6.095   0.234   3.723
 6592SOL    HW120675   6.158   0.222   3.800
 6592SOL    HW220676   6.143   0.215   3.637
 6593SOL     OW20677   2.471   2.181   2.487
 6593SOL    HW120678   2.372   2.197   2.486
 6593SOL    HW220679   2.508   2.208   2.576
 6594SOL     OW20680   3.496   2.165   6.801
 6594SOL    HW120681   3.455   2.256   6.800
 6594SOL    HW220682   3.437   2.102   6.750
 6595SOL     OW20683   0.571   3.913   6.842
 6595SOL    HW120684   0.651   3.965   6.814
 6595SOL    HW220685   0.564   3.914   6.942
 6596SOL     OW20686   3.232   6.409   4.405
 6596SOL    HW120687   3.195   6.356   4.482
 6596SOL    HW220688   3.245   6.504   4.434
 6597SOL     OW20689   1.737   5.392   1.514
 6597SOL    HW120690   1.748   5.487   1.542
 6597SOL    HW220691   1.816   5.338   1.543
 6598SOL     OW20692   1.597   6.041   4.694
 6598SOL    HW120693   1.569   5.989   4.613
 6598SOL    HW220694   1.683   6.003   4.729
 6599SOL     OW20695   4.516   6.133   6.021
 6599SOL    HW120696   4.453   6.202   6.054
 6599SOL    HW220697   4.465   6.052   5.992
 6600SOL     OW20698   5.061   5.148   5.447
 6600SOL    HW120699   5.090   5.052   5.444
 6600SOL    HW220700   5.113   5.196   5.518
 6601SOL     OW20701   1.162   1.443   5.244
 6601SOL    HW120702   1.210   1.503   5.308
 6601SOL    HW220703   1.150   1.353   5.287
 6602SOL     OW20704   0.559   0.928   2.282
 6602SOL    HW120705   0.569   0.957   2.187
 6602SOL    HW220706   0.462   0.924   2.306
 6603SOL     OW20707   6.879   2.736   4.162
 6603SOL    HW120708   6.798   2.678   4.163
 6603SOL    HW220709   6.856   2.825   4.120
 6604SOL     OW20710   2.435   6.979   1.589
 6604SOL    HW120711   2.380   7.002   1.669
 6604SOL    HW220712   2.443   0.037   1.529
 6605SOL     OW20713   5.583   3.618   1.368
 6605SOL    HW120714   5.586   3.562   1.450
 6605SOL    HW220715   5.607   3.561   1.289
 6606SOL     OW20716   6.924   5.967   1.619
 6606SOL    HW120717   6.855   5.896   1.638
 6606SOL    HW220718   6.885   6.035   1.557
 6607SOL     OW20719   1.595   3.336   2.471
 6607SOL    HW120720   1.683   3.288   2.473
 6607SOL    HW220721   1.545   3.316   2.555
 6608SOL     OW20722   6.162   5.988   0.803
 6608SOL    HW120723   6.077   5.977   0.854
 6608SOL    HW220724   6.235   5.935   0.847
 6609SOL     OW20725   4.513   1.232   5.823
 6609SOL    HW120726   4.538   1.306   5.761
 6609SOL    HW220727   4.466   1.160   5.771
 6610SOL     OW20728   2.919   0.215   6.744
 6610SOL    HW120729   2.884   0.128   6.709
 6610SOL    HW220730   2.882   0.290   6.690
 6611SOL     OW20731   5.709   2.897   3.661
 6611SOL    HW120732   5.805   2.875   3.673
 6611SOL    HW220733   5.653   2.818   3.685
 6612SOL     OW20734   6.060   2.204   6.156
 6612SOL    HW120735   6.102   2.260   6.228
 6612SOL    HW220736   6.131   2.154   6.108
 6613SOL     OW20737   6.415   5.943   4.894
 6613SOL    HW120738   6.505   5.946   4.852
 6613SOL    HW220739   6.424   5.951   4.994
 6614SOL     OW20740   5.178   6.669   0.830
 6614SOL    HW120741   5.169   6.576   0.865
 6614SOL    HW220742   5.258   6.675   0.771
 6615SOL     OW20743   1.272   5.002   2.501
 6615SOL    HW120744   1.233   5.044   2.419
 6615SOL    HW220745   1.352   5.053   2.530
 6616SOL     OW20746   4.273   1.071   5.634
 6616SOL    HW120747   4.204   1.095   5.703
 6616SOL    HW220748   4.300   0.975   5.647
 6617SOL     OW20749   4.345   4.915   3.221
 6617SOL    HW120750   4.284   4.968   3.161
 6617SOL    HW220751   4.361   4.967   3.305
 6618SOL     OW20752   1.461   2.506   2.363
 6618SOL    HW120753   1.491   2.415   2.391
 6618SOL    HW220754   1.540   2.563   2.342
 6619SOL     OW20755   6.243   6.802   3.956
 6619SOL    HW120756   6.301   6.755   4.022
 6619SOL    HW220757   6.294   6.879   3.916
 6620SOL     OW20758   1.720   3.190   4.833
 6620SOL    HW120759   1.646   3.148   4.887
 6620SOL    HW220760   1.680   3.241   4.757
 6621SOL     OW20761   2.790   2.888   6.258
 6621SOL    HW120762   2.888   2.898   6.241
 6621SOL    HW220763   2.753   2.975   6.292
 6622SOL     OW20764   5.923   6.603   1.178
 6622SOL    HW120765   5.844   6.664   1.166
 6622SOL    HW220766   5.893   6.517   1.219
 6623SOL     OW20767   3.091   3.040   5.846
 6623SOL    HW120768   3.145   3.076   5.770
 6623SOL    HW220769   3.010   3.096   5.861
 6624SOL     OW20770   0.869   5.257   5.911
 6624SOL    HW120771   0.862   5.162   5.879
 6624SOL    HW220772   0.799   5.273   5.981
 6625SOL     OW20773   4.897   2.105   5.459
 6625SOL    HW120774   4.818   2.070   5.509
 6625SOL    HW220775   4.882   2.201   5.437
 6626SOL     OW20776   4.765   5.159   5.412
 6626SOL    HW120777   4.776   5.113   5.324
 6626SOL    HW220778   4.855   5.173   5.454
 6627SOL     OW20779   2.249   6.590   4.853
 6627SOL    HW120780   2.330   6.647   4.865
 6627SOL    HW220781   2.267   6.521   4.782
 6628SOL     OW20782   4.608   4.604   5.008
 6628SOL    HW120783   4.663   4.538   5.058
 6628SOL    HW220784   4.518   4.566   4.989
 6629SOL     OW20785   4.358   5.802   0.119
 6629SOL    HW120786   4.317   5.863   0.188
 6629SOL    HW220787   4.321   5.710   0.130
 6630SOL     OW20788   3.782   0.938   1.873
 6630SOL    HW120789   3.817   0.902   1.787
 6630SOL    HW220790   3.859   0.969   1.930
 6631SOL     OW20791   2.580   5.760   3.794
 6631SOL    HW120792   2.529   5.804   3.868
 6631SOL    HW220793   2.519   5.746   3.716
 6632SOL     OW20794   6.969   6.354   1.433
 6632SOL    HW120795   6.960   6.432   1.371
 6632SOL    HW220796   7.000   6.387   1.523
 6633SOL     OW20797   0.857   4.372   6.418
 6633SOL    HW120798   0.948   4.360   6.378
 6633SOL    HW220799   0.792   4.394   6.346
 6634SOL     OW20800   5.402   2.163   4.066
 6634SOL    HW120801   5.372   2.176   4.160
 6634SOL    HW220802   5.439   2.249   4.030
 6635SOL     OW20803   4.552   4.847   3.063
 6635SOL    HW120804   4.479   4.884   3.121
 6635SOL    HW220805   4.535   4.873   2.968
 6636SOL     OW20806   5.048   2.625   5.755
 6636SOL    HW120807   5.102   2.675   5.823
 6636SOL    HW220808   4.975   2.684   5.722
 6637SOL     OW20809   1.647   0.172   6.216
 6637SOL    HW120810   1.549   0.164   6.199
 6637SOL    HW220811   1.662   0.201   6.311
 6638SOL     OW20812   3.338   3.542   3.937
 6638SOL    HW120813   3.271   3.545   4.012
 6638SOL    HW220814   3.332   3.627   3.885
 6639SOL     OW20815   5.435   4.399   6.654
 6639SOL    HW120816   5.476   4.476   6.605
 6639SOL    HW220817   5.459   4.404   6.750
 6640SOL     OW20818   1.610   1.313   5.028
 6640SOL    HW120819   1.581   1.392   5.082
 6640SOL    HW220820   1.692   1.336   4.976
 6641SOL     OW20821   2.244   1.708   6.652
 6641SOL    HW120822   2.217   1.685   6.745
 6641SOL    HW220823   2.326   1.657   6.627
 6642SOL     OW20824   2.721   5.562   6.569
 6642SOL    HW120825   2.636   5.554   6.620
 6642SOL    HW220826   2.785   5.491   6.601
 6643SOL     OW20827   5.936   4.896   0.110
 6643SOL    HW120828   5.871   4.906   0.034
 6643SOL    HW220829   5.887   4.865   0.191
 6644SOL     OW20830   2.450   5.379   2.107
 6644SOL    HW120831   2.375   5.424   2.059
 6644SOL    HW220832   2.495   5.445   2.168
 6645SOL     OW20833   6.350   5.131   0.661
 6645SOL    HW120834   6.420   5.191   0.701
 6645SOL    HW220835   6.338   5.050   0.719
 6646SOL     OW20836   4.512   6.897   5.082
 6646SOL    HW120837   4.482   6.982   5.124
 6646SOL    HW220838   4.432   6.842   5.058
 6647SOL     OW20839   4.781   0.886   1.939
 6647SOL    HW120840   4.784   0.786   1.942
 6647SOL    HW220841   4.786   0.916   1.844
 6648SOL     OW20842   4.465   6.566   3.192
 6648SOL    HW120843   4.465   6.493   3.123
 6648SOL    HW220844   4.470   6.525   3.283
 6649SOL     OW20845   4.901   0.890   6.610
 6649SOL    HW120846   4.957   0.807   6.610
 6649SOL    HW220847   4.902   0.930   6.702
 6650SOL     OW20848   3.380   1.412   5.513
 6650SOL    HW120849   3.374   1.321   5.554
 6650SOL    HW220850   3.349   1.408   5.418
 6651SOL     OW20851   2.052   2.036   5.520
 6651SOL    HW120852   2.057   2.012   5.423
 6651SOL    HW220853   1.965   2.006   5.558
 6652SOL     OW20854   0.655   4.465   0.653
 6652SOL    HW120855   0.750   4.439   0.633
 6652SOL    HW220856   0.633   4.441   0.747
 6653SOL     OW20857   3.044   3.282   2.566
 6653SOL    HW120858   3.057   3.189   2.533
 6653SOL    HW220859   3.052   3.346   2.490
 6654SOL     OW20860   1.287   4.213   1.340
 6654SOL    HW120861   1.224   4.290   1.346
 6654SOL    HW220862   1.359   4.234   1.274
 6655SOL     OW20863   0.821   0.007   3.353
 6655SOL    HW120864   0.889   6.987   3.292
 6655SOL    HW220865   0.729   7.011   3.317
 6656SOL     OW20866   5.655   1.820   3.793
 6656SOL    HW120867   5.731   1.764   3.825
 6656SOL    HW220868   5.636   1.891   3.860
 6657SOL     OW20869   5.718   5.721   6.232
 6657SOL    HW120870   5.637   5.680   6.189
 6657SOL    HW220871   5.712   5.709   6.331
 6658SOL     OW20872   6.630   0.921   4.439
 6658SOL    HW120873   6.708   0.969   4.400
 6658SOL    HW220874   6.593   0.856   4.373
 6659SOL     OW20875   1.898   2.310   0.324
 6659SOL    HW120876   1.943   2.232   0.280
 6659SOL    HW220877   1.961   2.351   0.391
 6660SOL     OW20878   1.210   4.983   1.287
 6660SOL    HW120879   1.270   5.054   1.323
 6660SOL    HW220880   1.124   5.023   1.258
 6661SOL     OW20881   0.984   6.507   5.046
 6661SOL    HW120882   1.084   6.514   5.047
 6661SOL    HW220883   0.952   6.466   5.131
 6662SOL     OW20884   1.125   0.805   0.196
 6662SOL    HW120885   1.169   0.894   0.184
 6662SOL    HW220886   1.191   0.732   0.177
 6663SOL     OW20887   6.480   4.666   4.159
 6663SOL    HW120888   6.576   4.676   4.186
 6663SOL    HW220889   6.458   4.734   4.089
 6664SOL     OW20890   1.942   6.156   0.565
 6664SOL    HW120891   1.980   6.189   0.478
 6664SOL    HW220892   1.889   6.073   0.548
 6665SOL     OW20893   1.997   6.315   4.022
 6665SOL    HW120894   2.025   6.409   4.004
 6665SOL    HW220895   1.898   6.312   4.036
 6666SOL     OW20896   6.463   6.875   5.239
 6666SOL    HW120897   6.377   6.830   5.217
 6666SOL    HW220898   6.450   6.937   5.316
 6667SOL     OW20899   6.504   5.966   6.648
 6667SOL    HW120900   6.494   5.998   6.554
 6667SOL    HW220901   6.448   5.883   6.660
 6668SOL     OW20902   0.243   5.457   1.540
 6668SOL    HW120903   0.206   5.540   1.498
 6668SOL    HW220904   0.302   5.410   1.475
 6669SOL     OW20905   1.659   3.063   3.703
 6669SOL    HW120906   1.572   3.041   3.747
 6669SOL    HW220907   1.718   3.110   3.769
 6670SOL     OW20908   3.594   2.064   5.407
 6670SOL    HW120909   3.536   2.145   5.403
 6670SOL    HW220910   3.540   1.985   5.435
 6671SOL     OW20911   6.358   5.739   0.561
 6671SOL    HW120912   6.375   5.795   0.480
 6671SOL    HW220913   6.343   5.798   0.641
 6672SOL     OW20914   6.441   1.825   6.297
 6672SOL    HW120915   6.376   1.766   6.345
 6672SOL    HW220916   6.407   1.920   6.301
 6673SOL     OW20917   5.750   5.648   4.504
 6673SOL    HW120918   5.795   5.711   4.441
 6673SOL    HW220919   5.662   5.619   4.465
 6674SOL     OW20920   0.834   4.947   5.972
 6674SOL    HW120921   0.880   4.897   6.045
 6674SOL    HW220922   0.876   4.924   5.884
 6675SOL     OW20923   4.721   3.873   1.709
 6675SOL    HW120924   4.767   3.812   1.644
 6675SOL    HW220925   4.624   3.847   1.714
 6676SOL     OW20926   7.006   3.260   5.553
 6676SOL    HW120927   0.060   3.210   5.595
 6676SOL    HW220928   6.964   3.320   5.621
 6677SOL     OW20929   1.167   1.341   6.742
 6677SOL    HW120930   1.114   1.257   6.743
 6677SOL    HW220931   1.234   1.338   6.668
 6678SOL     OW20932   3.214   3.312   6.389
 6678SOL    HW120933   3.270   3.230   6.381
 6678SOL    HW220934   3.260   3.378   6.448
 6679SOL     OW20935   2.875   1.126   4.052
 6679SOL    HW120936   2.948   1.129   3.984
 6679SOL    HW220937   2.857   1.031   4.078
 6680SOL     OW20938   4.711   6.878   6.964
 6680SOL    HW120939   4.620   6.837   6.977
 6680SOL    HW220940   4.731   6.939   0.019
 6681SOL     OW20941   4.103   5.916   1.592
 6681SOL    HW120942   4.175   5.950   1.531
 6681SOL    HW220943   4.123   5.944   1.686
 6682SOL     OW20944   0.137   4.682   2.695
 6682SOL    HW120945   0.197   4.605   2.675
 6682SOL    HW220946   0.178   4.766   2.658
 6683SOL     OW20947   6.053   2.743   5.580
 6683SOL    HW120948   6.107   2.740   5.497
 6683SOL    HW220949   5.974   2.683   5.571
 6684SOL     OW20950   2.765   0.414   1.583
 6684SOL    HW120951   2.855   0.371   1.588
 6684SOL    HW220952   2.765   0.484   1.512
 6685SOL     OW20953   6.354   3.613   5.547
 6685SOL    HW120954   6.260   3.641   5.529
 6685SOL    HW220955   6.364   3.587   5.643
 6686SOL     OW20956   5.549   5.947   4.330
 6686SOL    HW120957   5.462   5.990   4.306
 6686SOL    HW220958   5.594   5.913   4.247
 6687SOL     OW20959   1.072   3.498   0.232
 6687SOL    HW120960   1.027   3.579   0.194
 6687SOL    HW220961   1.171   3.507   0.221
 6688SOL     OW20962   0.319   3.857   2.877
 6688SOL    HW120963   0.227   3.819   2.894
 6688SOL    HW220964   0.352   3.824   2.789
 6689SOL     OW20965   4.513   2.811   0.490
 6689SOL    HW120966   4.593   2.751   0.488
 6689SOL    HW220967   4.519   2.878   0.416
 6690SOL     OW20968   2.006   0.827   0.816
 6690SOL    HW120969   2.060   0.759   0.866
 6690SOL    HW220970   1.908   0.812   0.834
 6691SOL     OW20971   2.538   6.526   1.043
 6691SOL    HW120972   2.533   6.580   1.127
 6691SOL    HW220973   2.633   6.505   1.022
 6692SOL     OW20974   3.901   3.992   4.889
 6692SOL    HW120975   3.931   4.046   4.968
 6692SOL    HW220976   3.801   3.994   4.884
 6693SOL     OW20977   4.109   3.766   5.017
 6693SOL    HW120978   4.079   3.856   5.050
 6693SOL    HW220979   4.176   3.728   5.081
 6694SOL     OW20980   3.993   6.068   1.091
 6694SOL    HW120981   4.069   6.125   1.123
 6694SOL    HW220982   3.956   6.107   1.007
 6695SOL     OW20983   3.377   1.340   0.232
 6695SOL    HW120984   3.302   1.398   0.201
 6695SOL    HW220985   3.449   1.397   0.271
 6696SOL     OW20986   2.155   3.116   5.568
 6696SOL    HW120987   2.057   3.110   5.545
 6696SOL    HW220988   2.174   3.057   5.646
 6697SOL     OW20989   4.585   2.345   2.420
 6697SOL    HW120990   4.505   2.362   2.478
 6697SOL    HW220991   4.563   2.365   2.325
 6698SOL     OW20992   2.804   2.789   1.556
 6698SOL    HW120993   2.850   2.717   1.610
 6698SOL    HW220994   2.808   2.765   1.459
 6699SOL     OW20995   2.411   4.983   6.549
 6699SOL    HW120996   2.377   4.910   6.609
 6699SOL    HW220997   2.510   4.992   6.560
 6700SOL     OW20998   6.764   6.735   0.995
 6700SOL    HW120999   6.777   6.702   0.902
 6700SOL    HW221000   6.845   6.787   1.024
 6701SOL     OW21001   5.515   3.324   1.504
 6701SOL    HW121002   5.484   3.378   1.582
 6701SOL    HW221003   5.441   3.266   1.471
 6702SOL     OW21004   3.202   1.850   1.915
 6702SOL    HW121005   3.142   1.802   1.852
 6702SOL    HW221006   3.284   1.795   1.932
 6703SOL     OW21007   6.363   1.960   6.748
 6703SOL    HW121008   6.278   1.924   6.786
 6703SOL    HW221009   6.349   2.055   6.721
 6704SOL     OW21010   3.491   2.075   3.177
 6704SOL    HW121011   3.532   2.045   3.090
 6704SOL    HW221012   3.563   2.092   3.244
 6705SOL     OW21013   6.611   2.744   1.476
 6705SOL    HW121014   6.631   2.690   1.394
 6705SOL    HW221015   6.513   2.744   1.493
 6706SOL     OW21016   1.479   3.953   2.120
 6706SOL    HW121017   1.466   3.929   2.216
 6706SOL    HW221018   1.550   3.896   2.080
 6707SOL     OW21019   6.444   5.755   3.744
 6707SOL    HW121020   6.410   5.825   3.681
 6707SOL    HW221021   6.423   5.781   3.838
 6708SOL     OW21022   6.921   4.943   1.558
 6708SOL    HW121023   6.880   4.854   1.538
 6708SOL    HW221024   6.854   5.015   1.538
 6709SOL     OW21025   2.698   6.954   3.189
 6709SOL    HW121026   2.726   6.928   3.097
 6709SOL    HW221027   2.730   0.026   3.208
 6710SOL     OW21028   3.611   1.016   6.266
 6710SOL    HW121029   3.595   0.920   6.291
 6710SOL    HW221030   3.646   1.066   6.345
 6711SOL     OW21031   4.637   5.539   6.072
 6711SOL    HW121032   4.701   5.590   6.129
 6711SOL    HW221033   4.549   5.585   6.071
 6712SOL     OW21034   4.955   4.558   0.044
 6712SOL    HW121035   4.885   4.575   0.112
 6712SOL    HW221036   5.033   4.512   0.086
 6713SOL     OW21037   1.950   0.427   2.436
 6713SOL    HW121038   1.918   0.341   2.395
 6713SOL    HW221039   1.912   0.504   2.385
 6714SOL     OW21040   6.305   1.405   6.237
 6714SOL    HW121041   6.373   1.423   6.165
 6714SOL    HW221042   6.268   1.313   6.224
 6715SOL     OW21043   0.081   6.954   6.808
 6715SOL    HW121044   7.004   6.949   6.825
 6715SOL    HW221045   0.129   6.896   6.875
 6716SOL     OW21046   0.568   6.000   1.338
 6716SOL    HW121047   0.486   6.021   1.392
 6716SOL    HW221048   0.559   5.910   1.297
 6717SOL     OW21049   4.597   2.845   6.807
 6717SOL    HW121050   4.572   2.940   6.824
 6717SOL    HW221051   4.539   2.808   6.734
 6718SOL     OW21052   4.920   0.054   0.199
 6718SOL    HW121053   4.873   0.129   0.154
 6718SOL    HW221054   4.960   7.015   0.130
 6719SOL     OW21055   2.282   0.121   6.761
 6719SOL    HW121056   2.184   0.105   6.747
 6719SOL    HW221057   2.300   0.134   6.858
 6720SOL     OW21058   0.730   6.803   3.850
 6720SOL    HW121059   0.792   6.823   3.774
 6720SOL    HW221060   0.690   6.712   3.837
 6721SOL     OW21061   6.187   0.580   6.163
 6721SOL    HW121062   6.252   0.651   6.190
 6721SOL    HW221063   6.222   0.529   6.085
 6722SOL     OW21064   0.213   2.971   1.305
 6722SOL    HW121065   0.192   3.015   1.218
 6722SOL    HW221066   0.137   2.985   1.368
 6723SOL     OW21067   2.462   6.799   3.008
 6723SOL    HW121068   2.523   6.776   2.932
 6723SOL    HW221069   2.506   6.776   3.095
 6724SOL     OW21070   1.573   3.572   5.775
 6724SOL    HW121071   1.651   3.635   5.777
 6724SOL    HW221072   1.606   3.478   5.786
 6725SOL     OW21073   0.479   3.719   1.490
 6725SOL    HW121074   0.388   3.717   1.532
 6725SOL    HW221075   0.486   3.799   1.430
 6726SOL     OW21076   0.922   2.073   5.221
 6726SOL    HW121077   0.888   2.138   5.153
 6726SOL    HW221078   0.938   1.985   5.177
 6727SOL     OW21079   6.270   3.863   5.387
 6727SOL    HW121080   6.195   3.821   5.335
 6727SOL    HW221081   6.235   3.902   5.471
 6728SOL     OW21082   4.095   1.263   3.265
 6728SOL    HW121083   4.182   1.311   3.263
 6728SOL    HW221084   4.074   1.233   3.358
 6729SOL     OW21085   7.005   1.278   2.503
 6729SOL    HW121086   0.019   1.230   2.423
 6729SOL    HW221087   0.056   1.289   2.570
 6730SOL     OW21088   2.454   6.425   6.963
 6730SOL    HW121089   2.466   6.466   6.873
 6730SOL    HW221090   2.452   6.325   6.955
 6731SOL     OW21091   1.040   6.264   1.774
 6731SOL    HW121092   1.091   6.193   1.726
 6731SOL    HW221093   1.000   6.328   1.708
 6732SOL     OW21094   5.540   4.992   5.468
 6732SOL    HW121095   5.485   5.010   5.549
 6732SOL    HW221096   5.603   4.917   5.486
 6733SOL     OW21097   3.891   4.859   0.003
 6733SOL    HW121098   3.825   4.909   6.969
 6733SOL    HW221099   3.905   4.768   6.987
 6734SOL     OW21100   6.559   2.055   4.988
 6734SOL    HW121101   6.478   2.092   5.034
 6734SOL    HW221102   6.623   2.020   5.056
 6735SOL     OW21103   0.152   4.261   4.559
 6735SOL    HW121104   0.219   4.228   4.625
 6735SOL    HW221105   0.193   4.262   4.467
 6736SOL     OW21106   3.260   3.690   7.016
 6736SOL    HW121107   3.331   3.667   0.061
 6736SOL    HW221108   3.195   3.614   7.010
 6737SOL     OW21109   1.967   2.710   0.663
 6737SOL    HW121110   2.051   2.723   0.715
 6737SOL    HW221111   1.922   2.626   0.692
 6738SOL     OW21112   1.652   5.059   2.733
 6738SOL    HW121113   1.626   4.972   2.776
 6738SOL    HW221114   1.718   5.041   2.660
 6739SOL     OW21115   3.587   5.851   5.713
 6739SOL    HW121116   3.500   5.817   5.680
 6739SOL    HW221117   3.594   5.949   5.694
 6740SOL     OW21118   1.629   0.967   3.992
 6740SOL    HW121119   1.598   1.011   4.077
 6740SOL    HW221120   1.567   0.991   3.917
 6741SOL     OW21121   4.119   1.057   5.392
 6741SOL    HW121122   4.120   1.120   5.314
 6741SOL    HW221123   4.191   1.082   5.456
 6742SOL     OW21124   6.427   5.914   2.729
 6742SOL    HW121125   6.519   5.901   2.766
 6742SOL    HW221126   6.361   5.865   2.785
 6743SOL     OW21127   4.282   4.849   0.402
 6743SOL    HW121128   4.225   4.910   0.347
 6743SOL    HW221129   4.227   4.772   0.434
 6744SOL     OW21130   5.579   5.379   6.277
 6744SOL    HW121131   5.663   5.330   6.300
 6744SOL    HW221132   5.501   5.318   6.284
 6745SOL     OW21133   6.965   0.240   2.952
 6745SOL    HW121134   6.935   0.322   3.001
 6745SOL    HW221135   0.043   0.236   2.953
 6746SOL     OW21136   1.207   1.360   3.133
 6746SOL    HW121137   1.289   1.400   3.175
 6746SOL    HW221138   1.233   1.279   3.081
 6747SOL     OW21139   5.778   0.875   5.072
 6747SOL    HW121140   5.724   0.809   5.018
 6747SOL    HW221141   5.834   0.825   5.138
 6748SOL     OW21142   1.307   0.574   3.714
 6748SOL    HW121143   1.235   0.509   3.738
 6748SOL    HW221144   1.396   0.532   3.727
 6749SOL     OW21145   2.625   6.294   0.164
 6749SOL    HW121146   2.562   6.273   0.239
 6749SOL    HW221147   2.718   6.274   0.193
 6750SOL     OW21148   4.070   2.305   5.446
 6750SOL    HW121149   4.051   2.211   5.474
 6750SOL    HW221150   4.112   2.355   5.522
 6751SOL     OW21151   4.454   0.194   3.655
 6751SOL    HW121152   4.470   0.130   3.730
 6751SOL    HW221153   4.518   0.174   3.581
 6752SOL     OW21154   0.217   2.460   2.973
 6752SOL    HW121155   0.228   2.547   3.022
 6752SOL    HW221156   0.259   2.386   3.026
 6753SOL     OW21157   4.322   0.652   6.252
 6753SOL    HW121158   4.320   0.721   6.325
 6753SOL    HW221159   4.353   0.565   6.290
 6754SOL     OW21160   0.404   1.280   6.778
 6754SOL    HW121161   0.380   1.194   6.824
 6754SOL    HW221162   0.382   1.357   6.839
 6755SOL     OW21163   4.382   0.618   3.334
 6755SOL    HW121164   4.395   0.634   3.432
 6755SOL    HW221165   4.290   0.580   3.319
 6756SOL     OW21166   3.795   5.579   5.168
 6756SOL    HW121167   3.877   5.555   5.115
 6756SOL    HW221168   3.801   5.539   5.259
 6757SOL     OW21169   4.298   0.267   1.440
 6757SOL    HW121170   4.318   0.225   1.528
 6757SOL    HW221171   4.380   0.265   1.382
 6758SOL     OW21172   6.952   2.567   1.408
 6758SOL    HW121173   0.022   2.561   1.367
 6758SOL    HW221174   6.959   2.552   1.507
 6759SOL     OW21175   0.772   4.921   4.006
 6759SOL    HW121176   0.871   4.913   3.998
 6759SOL    HW221177   0.731   4.919   3.914
 6760SOL     OW21178   6.661   4.675   3.472
 6760SOL    HW121179   6.582   4.694   3.415
 6760SOL    HW221180   6.731   4.746   3.458
 6761SOL     OW21181   6.321   2.157   6.063
 6761SOL    HW121182   6.389   2.209   6.115
 6761SOL    HW221183   6.349   2.151   5.967
 6762SOL     OW21184   0.036   5.497   3.215
 6762SOL    HW121185   0.093   5.495   3.297
 6762SOL    HW221186   0.014   5.592   3.192
 6763SOL     OW21187   0.203   5.185   3.542
 6763SOL    HW121188   0.125   5.229   3.586
 6763SOL    HW221189   0.284   5.194   3.600
 6764SOL     OW21190   2.691   4.977   6.592
 6764SOL    HW121191   2.752   5.050   6.562
 6764SOL    HW221192   2.681   4.980   6.691
 6765SOL     OW21193   4.799   4.563   4.202
 6765SOL    HW121194   4.831   4.474   4.235
 6765SOL    HW221195   4.865   4.634   4.229
 6766SOL     OW21196   4.896   6.141   6.363
 6766SOL    HW121197   4.972   6.189   6.320
 6766SOL    HW221198   4.820   6.131   6.299
 6767SOL     OW21199   0.989   2.622   0.213
 6767SOL    HW121200   0.894   2.591   0.209
 6767SOL    HW221201   1.001   2.683   0.292
 6768SOL     OW21202   0.702   6.389   3.199
 6768SOL    HW121203   0.628   6.453   3.219
 6768SOL    HW221204   0.767   6.432   3.136
 6769SOL     OW21205   3.082   6.938   5.637
 6769SOL    HW121206   3.016   6.918   5.564
 6769SOL    HW221207   3.107   0.014   5.633
 6770SOL     OW21208   6.047   1.858   2.964
 6770SOL    HW121209   6.077   1.905   3.047
 6770SOL    HW221210   5.948   1.867   2.955
 6771SOL     OW21211   3.639   1.276   2.097
 6771SOL    HW121212   3.586   1.210   2.150
 6771SOL    HW221213   3.719   1.305   2.150
 6772SOL     OW21214   4.603   2.073   2.397
 6772SOL    HW121215   4.580   2.037   2.307
 6772SOL    HW221216   4.599   2.173   2.395
 6773SOL     OW21217   0.265   6.374   1.595
 6773SOL    HW121218   0.289   6.288   1.551
 6773SOL    HW221219   0.317   6.384   1.680
 6774SOL     OW21220   1.471   3.040   4.365
 6774SOL    HW121221   1.464   2.968   4.434
 6774SOL    HW221222   1.568   3.056   4.344
 6775SOL     OW21223   0.836   1.870   3.284
 6775SOL    HW121224   0.764   1.859   3.352
 6775SOL    HW221225   0.901   1.939   3.314
 6776SOL     OW21226   4.204   3.719   1.467
 6776SOL    HW121227   4.122   3.770   1.440
 6776SOL    HW221228   4.210   3.715   1.567
 6777SOL     OW21229   4.611   5.635   0.441
 6777SOL    HW121230   4.534   5.575   0.421
 6777SOL    HW221231   4.616   5.707   0.372
 6778SOL     OW21232   6.127   4.088   2.273
 6778SOL    HW121233   6.078   4.004   2.297
 6778SOL    HW221234   6.088   4.127   2.190
 6779SOL     OW21235   5.032   4.484   5.998
 6779SOL    HW121236   5.108   4.446   5.945
 6779SOL    HW221237   4.953   4.423   5.990
 6780SOL     OW21238   0.994   3.734   2.679
 6780SOL    HW121239   1.050   3.751   2.760
 6780SOL    HW221240   0.936   3.813   2.661
 6781SOL     OW21241   6.629   1.893   3.770
 6781SOL    HW121242   6.679   1.944   3.840
 6781SOL    HW221243   6.691   1.829   3.724
 6782SOL     OW21244   0.740   1.432   3.139
 6782SOL    HW121245   0.737   1.341   3.180
 6782SOL    HW221246   0.827   1.476   3.162
 6783SOL     OW21247   1.332   3.203   6.113
 6783SOL    HW121248   1.425   3.238   6.098
 6783SOL    HW221249   1.267   3.277   6.097
 6784SOL     OW21250   2.524   4.052   0.906
 6784SOL    HW121251   2.480   4.121   0.965
 6784SOL    HW221252   2.509   4.076   0.810
 6785SOL     OW21253   5.843   4.859   5.527
 6785SOL    HW121254   5.896   4.843   5.444
 6785SOL    HW221255   5.780   4.782   5.541
 6786SOL     OW21256   0.481   3.164   6.342
 6786SOL    HW121257   0.409   3.110   6.298
 6786SOL    HW221258   0.541   3.203   6.272
 6787SOL     OW21259   3.355   2.051   1.124
 6787SOL    HW121260   3.367   2.128   1.187
 6787SOL    HW221261   3.399   1.970   1.161
 6788SOL     OW21262   0.280   4.458   2.627
 6788SOL    HW121263   0.362   4.488   2.674
 6788SOL    HW221264   0.268   4.359   2.641
 6789SOL     OW21265   0.055   4.188   4.044
 6789SOL    HW121266   7.012   4.125   4.000
 6789SOL    HW221267   0.138   4.195   3.989
 6790SOL     OW21268   0.325   4.457   6.819
 6790SOL    HW121269   0.333   4.471   6.918
 6790SOL    HW221270   0.369   4.534   6.772
 6791SOL     OW21271   4.102   2.115   2.505
 6791SOL    HW121272   4.108   2.166   2.419
 6791SOL    HW221273   4.019   2.142   2.554
 6792SOL     OW21274   4.997   0.010   5.426
 6792SOL    HW121275   4.908   7.018   5.469
 6792SOL    HW221276   5.059   0.055   5.490
 6793SOL     OW21277   3.359   0.547   6.872
 6793SOL    HW121278   3.430   0.543   6.943
 6793SOL    HW221279   3.280   0.492   6.900
 6794SOL     OW21280   5.178   1.245   5.230
 6794SOL    HW121281   5.110   1.200   5.289
 6794SOL    HW221282   5.132   1.313   5.173
 6795SOL     OW21283   0.697   6.316   0.309
 6795SOL    HW121284   0.736   6.384   0.247
 6795SOL    HW221285   0.634   6.362   0.372
 6796SOL     OW21286   5.753   0.224   2.407
 6796SOL    HW121287   5.781   0.195   2.499
 6796SOL    HW221288   5.818   0.189   2.340
 6797SOL     OW21289   6.411   1.725   0.375
 6797SOL    HW121290   6.459   1.809   0.397
 6797SOL    HW221291   6.478   1.653   0.353
 6798SOL     OW21292   6.407   0.587   1.652
 6798SOL    HW121293   6.448   0.540   1.731
 6798SOL    HW221294   6.354   0.521   1.599
 6799SOL     OW21295   5.581   6.997   2.328
 6799SOL    HW121296   5.657   0.038   2.345
 6799SOL    HW221297   5.516   0.019   2.266
 6800SOL     OW21298   2.407   2.614   2.054
 6800SOL    HW121299   2.470   2.540   2.077
 6800SOL    HW221300   2.394   2.673   2.134
 6801SOL     OW21301   0.894   6.536   3.908
 6801SOL    HW121302   0.910   6.474   3.832
 6801SOL    HW221303   0.981   6.572   3.941
 6802SOL     OW21304   3.591   5.965   1.447
 6802SOL    HW121305   3.686   5.949   1.476
 6802SOL    HW221306   3.529   5.943   1.523
 6803SOL     OW21307   4.108   4.444   6.744
 6803SOL    HW121308   4.153   4.358   6.719
 6803SOL    HW221309   4.040   4.467   6.675
 6804SOL     OW21310   3.772   5.209   3.185
 6804SOL    HW121311   3.687   5.178   3.227
 6804SOL    HW221312   3.848   5.151   3.215
 6805SOL     OW21313   0.606   5.123   6.910
 6805SOL    HW121314   0.691   5.070   6.918
 6805SOL    HW221315   0.589   5.171   6.996
 6806SOL     OW21316   6.797   0.682   4.170
 6806SOL    HW121317   6.763   0.709   4.080
 6806SOL    HW221318   6.721   0.674   4.234
 6807SOL     OW21319   3.893   4.011   3.099
 6807SOL    HW121320   3.957   4.083   3.072
 6807SOL    HW221321   3.926   3.923   3.065
 6808SOL     OW21322   6.715   1.244   5.052
 6808SOL    HW121323   6.733   1.150   5.022
 6808SOL    HW221324   6.658   1.290   4.984
 6809SOL     OW21325   6.528   3.729   0.728
 6809SOL    HW121326   6.625   3.704   0.738
 6809SOL    HW221327   6.470   3.653   0.757
 6810SOL     OW21328   3.238   0.844   2.232
 6810SOL    HW121329   3.295   0.853   2.314
 6810SOL    HW221330   3.288   0.793   2.162
 6811SOL     OW21331   6.056   2.783   2.540
 6811SOL    HW121332   6.092   2.726   2.466
 6811SOL    HW221333   6.035   2.725   2.618
 6812SOL     OW21334   3.478   4.210   5.179
 6812SOL    HW121335   3.447   4.204   5.084
 6812SOL    HW221336   3.412   4.164   5.239
 6813SOL     OW21337   5.774   3.227   2.464
 6813SOL    HW121338   5.807   3.278   2.543
 6813SOL    HW221339   5.782   3.129   2.481
 6814SOL     OW21340   4.720   1.633   6.715
 6814SOL    HW121341   4.700   1.581   6.798
 6814SOL    HW221342   4.711   1.730   6.734
 6815SOL     OW21343   2.468   6.250   6.688
 6815SOL    HW121344   2.559   6.218   6.714
 6815SOL    HW221345   2.464   6.350   6.694
 6816SOL     OW21346   6.823   1.412   5.231
 6816SOL    HW121347   6.776   1.351   5.167
 6816SOL    HW221348   6.788   1.396   5.323
 6817SOL     OW21349   2.494   2.605   3.818
 6817SOL    HW121350   2.509   2.601   3.719
 6817SOL    HW221351   2.567   2.556   3.865
 6818SOL     OW21352   1.840   6.856   0.320
 6818SOL    HW121353   1.878   6.816   0.237
 6818SOL    HW221354   1.913   6.875   0.385
 6819SOL     OW21355   4.731   1.526   3.170
 6819SOL    HW121356   4.759   1.459   3.102
 6819SOL    HW221357   4.805   1.541   3.235
 6820SOL     OW21358   1.110   5.798   1.529
 6820SOL    HW121359   1.038   5.764   1.469
 6820SOL    HW221360   1.105   5.751   1.617
 6821SOL     OW21361   4.579   2.956   5.333
 6821SOL    HW121362   4.594   2.858   5.349
 6821SOL    HW221363   4.564   3.002   5.420
 6822SOL     OW21364   6.182   2.514   5.941
 6822SOL    HW121365   6.274   2.479   5.960
 6822SOL    HW221366   6.189   2.603   5.896
 6823SOL     OW21367   5.842   4.250   6.523
 6823SOL    HW121368   5.761   4.236   6.466
 6823SOL    HW221369   5.913   4.297   6.470
 6824SOL     OW21370   1.569   1.496   0.427
 6824SOL    HW121371   1.568   1.584   0.378
 6824SOL    HW221372   1.653   1.447   0.404
 6825SOL     OW21373   6.092   0.122   0.057
 6825SOL    HW121374   6.174   0.136   0.112
 6825SOL    HW221375   6.092   0.030   0.018
 6826SOL     OW21376   1.442   3.791   3.352
 6826SOL    HW121377   1.492   3.768   3.269
 6826SOL    HW221378   1.506   3.797   3.429
 6827SOL     OW21379   5.053   5.419   5.863
 6827SOL    HW121380   5.047   5.487   5.936
 6827SOL    HW221381   4.986   5.439   5.792
 6828SOL     OW21382   3.907   1.556   2.575
 6828SOL    HW121383   3.878   1.556   2.670
 6828SOL    HW221384   3.880   1.642   2.532
 6829SOL     OW21385   5.306   6.694   5.488
 6829SOL    HW121386   5.405   6.700   5.482
 6829SOL    HW221387   5.271   6.771   5.542
 6830SOL     OW21388   5.411   0.572   3.519
 6830SOL    HW121389   5.443   0.615   3.435
 6830SOL    HW221390   5.460   0.486   3.534
 6831SOL     OW21391   1.713   1.043   5.631
 6831SOL    HW121392   1.789   1.068   5.692
 6831SOL    HW221393   1.641   1.000   5.684
 6832SOL     OW21394   2.548   4.118   0.640
 6832SOL    HW121395   2.549   4.039   0.578
 6832SOL    HW221396   2.627   4.177   0.621
 6833SOL     OW21397   2.466   4.616   6.369
 6833SOL    HW121398   2.483   4.714   6.371
 6833SOL    HW221399   2.517   4.571   6.442
 6834SOL     OW21400   6.235   6.918   0.944
 6834SOL    HW121401   6.140   6.909   0.915
 6834SOL    HW221402   6.247   7.005   0.992
 6835SOL     OW21403   3.533   1.412   4.395
 6835SOL    HW121404   3.525   1.316   4.370
 6835SOL    HW221405   3.590   1.421   4.476
 6836SOL     OW21406   2.570   4.025   6.162
 6836SOL    HW121407   2.666   4.022   6.189
 6836SOL    HW221408   2.519   4.080   6.229
 6837SOL     OW21409   0.535   1.956   2.512
 6837SOL    HW121410   0.628   1.946   2.475
 6837SOL    HW221411   0.528   2.045   2.558
 6838SOL     OW21412   2.865   4.032   6.225
 6838SOL    HW121413   2.866   4.103   6.295
 6838SOL    HW221414   2.927   4.058   6.150
 6839SOL     OW21415   5.141   1.309   4.618
 6839SOL    HW121416   5.178   1.401   4.626
 6839SOL    HW221417   5.090   1.286   4.702
 6840SOL     OW21418   3.027   6.599   5.489
 6840SOL    HW121419   2.940   6.645   5.474
 6840SOL    HW221420   3.031   6.565   5.583
 6841SOL     OW21421   4.045   5.104   0.508
 6841SOL    HW121422   3.971   5.039   0.522
 6841SOL    HW221423   4.090   5.123   0.595
 6842SOL     OW21424   2.325   2.556   7.005
 6842SOL    HW121425   2.281   2.469   6.988
 6842SOL    HW221426   2.259   2.621   0.022
 6843SOL     OW21427   5.122   0.495   2.435
 6843SOL    HW121428   5.129   0.594   2.440
 6843SOL    HW221429   5.142   0.455   2.525
 6844SOL     OW21430   6.000   6.219   4.157
 6844SOL    HW121431   6.077   6.283   4.154
 6844SOL    HW221432   5.923   6.263   4.203
 6845SOL     OW21433   5.233   4.419   2.578
 6845SOL    HW121434   5.273   4.340   2.531
 6845SOL    HW221435   5.240   4.406   2.677
 6846SOL     OW21436   4.071   3.050   1.561
 6846SOL    HW121437   4.102   3.087   1.473
 6846SOL    HW221438   4.093   2.953   1.566
 6847SOL     OW21439   0.008   4.155   2.240
 6847SOL    HW121440   6.951   4.101   2.269
 6847SOL    HW221441   0.017   4.149   2.140
 6848SOL     OW21442   3.028   6.605   3.371
 6848SOL    HW121443   2.947   6.624   3.316
 6848SOL    HW221444   3.089   6.544   3.321
 6849SOL     OW21445   2.924   5.490   4.637
 6849SOL    HW121446   2.913   5.584   4.604
 6849SOL    HW221447   2.895   5.485   4.733
 6850SOL     OW21448   5.359   3.624   2.411
 6850SOL    HW121449   5.452   3.629   2.373
 6850SOL    HW221450   5.294   3.651   2.340
 6851SOL     OW21451   1.559   2.833   4.115
 6851SOL    HW121452   1.477   2.879   4.082
 6851SOL    HW221453   1.562   2.837   4.215
 6852SOL     OW21454   1.065   4.494   1.156
 6852SOL    HW121455   1.087   4.491   1.253
 6852SOL    HW221456   1.110   4.573   1.114
 6853SOL     OW21457   6.750   3.368   6.413
 6853SOL    HW121458   6.684   3.294   6.406
 6853SOL    HW221459   6.713   3.441   6.469
 6854SOL     OW21460   6.311   1.992   5.637
 6854SOL    HW121461   6.326   1.957   5.545
 6854SOL    HW221462   6.216   1.978   5.664
 6855SOL     OW21463   3.486   5.919   2.528
 6855SOL    HW121464   3.512   5.995   2.468
 6855SOL    HW221465   3.566   5.862   2.547
 6856SOL     OW21466   5.344   4.697   5.591
 6856SOL    HW121467   5.434   4.706   5.632
 6856SOL    HW221468   5.326   4.600   5.572
 6857SOL     OW21469   3.458   1.569   0.015
 6857SOL    HW121470   3.509   1.626   0.080
 6857SOL    HW221471   3.365   1.554   0.049
 6858SOL     OW21472   3.829   3.343   3.997
 6858SOL    HW121473   3.749   3.403   4.005
 6858SOL    HW221474   3.851   3.304   4.086
 6859SOL     OW21475   1.306   6.777   1.165
 6859SOL    HW121476   1.358   6.699   1.200
 6859SOL    HW221477   1.248   6.814   1.237
 6860SOL     OW21478   5.883   5.275   1.301
 6860SOL    HW121479   5.943   5.203   1.269
 6860SOL    HW221480   5.840   5.247   1.387
 6861SOL     OW21481   5.882   4.333   0.721
 6861SOL    HW121482   5.811   4.382   0.772
 6861SOL    HW221483   5.864   4.235   0.724
 6862SOL     OW21484   2.202   4.417   4.814
 6862SOL    HW121485   2.199   4.377   4.906
 6862SOL    HW221486   2.226   4.346   4.748
 6863SOL     OW21487   5.582   1.377   4.764
 6863SOL    HW121488   5.548   1.467   4.790
 6863SOL    HW221489   5.592   1.372   4.664
 6864SOL     OW21490   3.736   6.051   3.466
 6864SOL    HW121491   3.739   6.020   3.561
 6864SOL    HW221492   3.829   6.077   3.437
 6865SOL     OW21493   6.729   5.452   2.699
 6865SOL    HW121494   6.787   5.463   2.779
 6865SOL    HW221495   6.768   5.502   2.622
 6866SOL     OW21496   6.523   4.601   2.208
 6866SOL    HW121497   6.455   4.623   2.278
 6866SOL    HW221498   6.601   4.555   2.251
 6867SOL     OW21499   1.404   4.599   1.450
 6867SOL    HW121500   1.409   4.699   1.449
 6867SOL    HW221501   1.321   4.569   1.402
 6868SOL     OW21502   1.321   5.252   5.895
 6868SOL    HW121503   1.264   5.309   5.953
 6868SOL    HW221504   1.270   5.228   5.812
 6869SOL     OW21505   5.992   1.407   5.287
 6869SOL    HW121506   6.070   1.344   5.280
 6869SOL    HW221507   5.939   1.385   5.368
 6870SOL     OW21508   0.247   4.884   2.302
 6870SOL    HW121509   0.244   4.786   2.318
 6870SOL    HW221510   0.322   4.906   2.240
 6871SOL     OW21511   5.721   5.021   2.264
 6871SOL    HW121512   5.774   4.937   2.252
 6871SOL    HW221513   5.653   5.007   2.335
 6872SOL     OW21514   1.157   3.709   0.639
 6872SOL    HW121515   1.229   3.759   0.688
 6872SOL    HW221516   1.107   3.773   0.581
 6873SOL     OW21517   6.413   3.881   5.125
 6873SOL    HW121518   6.356   3.882   5.207
 6873SOL    HW221519   6.510   3.884   5.151
 6874SOL     OW21520   0.962   5.303   2.740
 6874SOL    HW121521   0.981   5.401   2.749
 6874SOL    HW221522   1.040   5.257   2.699
 6875SOL     OW21523   1.022   2.578   3.778
 6875SOL    HW121524   1.066   2.515   3.714
 6875SOL    HW221525   0.923   2.573   3.767
 6876SOL     OW21526   4.149   6.150   5.125
 6876SOL    HW121527   4.169   6.053   5.135
 6876SOL    HW221528   4.228   6.198   5.087
 6877SOL     OW21529   2.874   4.388   6.806
 6877SOL    HW121530   2.858   4.471   6.860
 6877SOL    HW221531   2.944   4.332   6.850
 6878SOL     OW21532   2.533   2.623   5.320
 6878SOL    HW121533   2.508   2.557   5.391
 6878SOL    HW221534   2.515   2.583   5.230
 6879SOL     OW21535   0.800   2.061   0.043
 6879SOL    HW121536   0.720   2.001   0.038
 6879SOL    HW221537   0.848   2.046   0.130
 6880SOL     OW21538   1.909   3.591   5.414
 6880SOL    HW121539   1.984   3.643   5.374
 6880SOL    HW221540   1.923   3.584   5.513
 6881SOL     OW21541   0.410   3.786   2.642
 6881SOL    HW121542   0.480   3.728   2.599
 6881SOL    HW221543   0.395   3.868   2.585
 6882SOL     OW21544   3.216   0.391   5.948
 6882SOL    HW121545   3.232   0.407   6.045
 6882SOL    HW221546   3.265   0.459   5.894
 6883SOL     OW21547   4.136   1.819   0.846
 6883SOL    HW121548   4.048   1.855   0.878
 6883SOL    HW221549   4.120   1.742   0.784
 6884SOL     OW21550   1.576   3.859   4.449
 6884SOL    HW121551   1.594   3.760   4.445
 6884SOL    HW221552   1.479   3.875   4.432
 6885SOL     OW21553   4.285   5.968   4.781
 6885SOL    HW121554   4.191   5.994   4.803
 6885SOL    HW221555   4.309   6.002   4.690
 6886SOL     OW21556   0.016   0.771   3.608
 6886SOL    HW121557   0.090   0.792   3.672
 6886SOL    HW221558   0.039   0.690   3.555
 6887SOL     OW21559   5.017   6.416   6.069
 6887SOL    HW121560   4.919   6.407   6.054
 6887SOL    HW221561   5.049   6.503   6.033
 6888SOL     OW21562   5.323   6.528   7.008
 6888SOL    HW121563   5.325   6.480   0.074
 6888SOL    HW221564   5.235   6.574   6.997
 6889SOL     OW21565   1.644   2.419   5.075
 6889SOL    HW121566   1.669   2.479   5.151
 6889SOL    HW221567   1.726   2.399   5.020
 6890SOL     OW21568   3.482   6.487   1.308
 6890SOL    HW121569   3.411   6.480   1.238
 6890SOL    HW221570   3.571   6.468   1.267
 6891SOL     OW21571   2.223   4.138   4.314
 6891SOL    HW121572   2.251   4.233   4.301
 6891SOL    HW221573   2.127   4.127   4.288
 6892SOL     OW21574   3.468   1.228   3.333
 6892SOL    HW121575   3.548   1.204   3.278
 6892SOL    HW221576   3.495   1.293   3.404
 6893SOL     OW21577   5.602   5.536   0.344
 6893SOL    HW121578   5.532   5.574   0.284
 6893SOL    HW221579   5.607   5.437   0.330
 6894SOL     OW21580   6.149   5.043   0.138
 6894SOL    HW121581   6.055   5.010   0.149
 6894SOL    HW221582   6.188   5.004   0.054
 6895SOL     OW21583   2.571   5.307   6.530
 6895SOL    HW121584   2.520   5.276   6.611
 6895SOL    HW221585   2.515   5.372   6.479
 6896SOL     OW21586   2.230   6.931   3.983
 6896SOL    HW121587   2.323   6.960   3.959
 6896SOL    HW221588   2.224   6.831   3.980
 6897SOL     OW21589   2.786   3.421   0.031
 6897SOL    HW121590   2.748   3.390   6.966
 6897SOL    HW221591   2.853   3.355   0.064
 6898SOL     OW21592   3.912   1.600   2.222
 6898SOL    HW121593   3.887   1.672   2.287
 6898SOL    HW221594   3.897   1.632   2.129
 6899SOL     OW21595   5.161   6.887   0.999
 6899SOL    HW121596   5.187   6.841   1.083
 6899SOL    HW221597   5.169   6.823   0.922
 6900SOL     OW21598   6.406   0.769   5.951
 6900SOL    HW121599   6.325   0.711   5.936
 6900SOL    HW221600   6.453   0.782   5.864
 6901SOL     OW21601   0.548   6.991   6.168
 6901SOL    HW121602   0.536   0.023   6.084
 6901SOL    HW221603   0.469   6.930   6.179
 6902SOL     OW21604   6.183   6.982   0.416
 6902SOL    HW121605   6.214   6.888   0.428
 6902SOL    HW221606   6.226   7.021   0.334
 6903SOL     OW21607   4.226   5.366   4.640
 6903SOL    HW121608   4.163   5.436   4.675
 6903SOL    HW221609   4.314   5.409   4.620
 6904SOL     OW21610   5.875   2.017   4.099
 6904SOL    HW121611   5.847   2.010   4.195
 6904SOL    HW221612   5.891   2.113   4.077
 6905SOL     OW21613   5.897   6.692   0.079
 6905SOL    HW121614   5.817   6.698   0.139
 6905SOL    HW221615   5.870   6.653   7.013
 6906SOL     OW21616   4.230   0.850   4.394
 6906SOL    HW121617   4.279   0.766   4.419
 6906SOL    HW221618   4.136   0.845   4.427
 6907SOL     OW21619   5.236   1.910   1.196
 6907SOL    HW121620   5.296   1.831   1.211
 6907SOL    HW221621   5.142   1.879   1.183
 6908SOL     OW21622   1.059   6.440   5.885
 6908SOL    HW121623   1.128   6.371   5.865
 6908SOL    HW221624   1.072   6.474   5.978
 6909SOL     OW21625   5.670   4.522   1.596
 6909SOL    HW121626   5.715   4.438   1.564
 6909SOL    HW221627   5.653   4.515   1.695
 6910SOL     OW21628   0.060   2.049   3.693
 6910SOL    HW121629   0.127   2.101   3.746
 6910SOL    HW221630   7.014   2.112   3.654
 6911SOL     OW21631   4.858   6.308   3.481
 6911SOL    HW121632   4.944   6.351   3.510
 6911SOL    HW221633   4.828   6.349   3.395
 6912SOL     OW21634   4.350   5.265   0.112
 6912SOL    HW121635   4.447   5.246   0.098
 6912SOL    HW221636   4.309   5.191   0.166
 6913SOL     OW21637   5.307   4.721   5.861
 6913SOL    HW121638   5.399   4.750   5.885
 6913SOL    HW221639   5.296   4.724   5.761
 6914SOL     OW21640   5.494   4.877   0.053
 6914SOL    HW121641   5.558   4.953   0.045
 6914SOL    HW221642   5.434   4.891   0.132
 6915SOL     OW21643   6.177   4.264   1.596
 6915SOL    HW121644   6.136   4.312   1.673
 6915SOL    HW221645   6.230   4.328   1.540
 6916SOL     OW21646   5.866   3.848   6.988
 6916SOL    HW121647   5.908   3.936   6.965
 6916SOL    HW221648   5.834   3.850   0.061
 6917SOL     OW21649   3.369   5.926   0.916
 6917SOL    HW121650   3.463   5.911   0.946
 6917SOL    HW221651   3.332   6.008   0.960
 6918SOL     OW21652   0.964   3.325   4.533
 6918SOL    HW121653   0.963   3.290   4.439
 6918SOL    HW221654   0.954   3.249   4.597
 6919SOL     OW21655   0.472   6.409   2.946
 6919SOL    HW121656   0.427   6.498   2.956
 6919SOL    HW221657   0.437   6.346   3.014
 6920SOL     OW21658   4.217   5.636   5.516
 6920SOL    HW121659   4.134   5.592   5.550
 6920SOL    HW221660   4.216   5.637   5.416
 6921SOL     OW21661   5.148   6.150   3.261
 6921SOL    HW121662   5.182   6.230   3.311
 6921SOL    HW221663   5.054   6.166   3.234
 6922SOL     OW21664   2.475   5.530   6.735
 6922SOL    HW121665   2.427   5.447   6.762
 6922SOL    HW221666   2.410   5.606   6.729
 6923SOL     OW21667   4.986   5.266   3.972
 6923SOL    HW121668   5.064   5.204   3.980
 6923SOL    HW221669   5.019   5.358   3.954
 6924SOL     OW21670   1.127   4.218   6.931
 6924SOL    HW121671   1.063   4.283   6.973
 6924SOL    HW221672   1.219   4.239   6.962
 6925SOL     OW21673   4.090   5.970   4.400
 6925SOL    HW121674   4.043   5.932   4.320
 6925SOL    HW221675   4.120   6.063   4.379
 6926SOL     OW21676   3.121   3.061   2.258
 6926SOL    HW121677   3.043   3.099   2.207
 6926SOL    HW221678   3.172   2.999   2.199
 6927SOL     OW21679   5.327   3.229   5.825
 6927SOL    HW121680   5.321   3.227   5.925
 6927SOL    HW221681   5.377   3.311   5.797
 6928SOL     OW21682   6.861   6.245   1.093
 6928SOL    HW121683   6.806   6.328   1.082
 6928SOL    HW221684   6.813   6.167   1.051
 6929SOL     OW21685   4.752   5.364   1.163
 6929SOL    HW121686   4.814   5.335   1.237
 6929SOL    HW221687   4.744   5.463   1.164
 6930SOL     OW21688   6.925   0.180   2.237
 6930SOL    HW121689   6.861   0.237   2.288
 6930SOL    HW221690   6.940   0.221   2.147
 6931SOL     OW21691   1.561   0.503   2.491
 6931SOL    HW121692   1.570   0.403   2.489
 6931SOL    HW221693   1.638   0.544   2.441
 6932SOL     OW21694   3.979   0.176   0.743
 6932SOL    HW121695   4.070   0.193   0.705
 6932SOL    HW221696   3.910   0.194   0.673
 6933SOL     OW21697   2.991   5.819   5.441
 6933SOL    HW121698   2.918   5.883   5.417
 6933SOL    HW221699   3.032   5.781   5.358
 6934SOL     OW21700   4.996   4.099   5.892
 6934SOL    HW121701   4.934   4.159   5.943
 6934SOL    HW221702   5.014   4.016   5.945
 6935SOL     OW21703   4.568   5.675   3.629
 6935SOL    HW121704   4.517   5.615   3.690
 6935SOL    HW221705   4.570   5.635   3.537
 6936SOL     OW21706   6.400   2.688   3.000
 6936SOL    HW121707   6.494   2.662   3.025
 6936SOL    HW221708   6.335   2.637   3.057
 6937SOL     OW21709   6.672   6.140   0.475
 6937SOL    HW121710   6.669   6.065   0.409
 6937SOL    HW221711   6.630   6.221   0.436
 6938SOL     OW21712   4.868   3.315   5.689
 6938SOL    HW121713   4.907   3.259   5.762
 6938SOL    HW221714   4.915   3.296   5.603
 6939SOL     OW21715   0.023   4.186   1.302
 6939SOL    HW121716   0.011   4.099   1.254
 6939SOL    HW221717   0.045   4.257   1.235
 6940SOL     OW21718   4.807   1.359   0.505
 6940SOL    HW121719   4.889   1.308   0.531
 6940SOL    HW221720   4.736   1.345   0.575
 6941SOL     OW21721   3.313   2.878   3.234
 6941SOL    HW121722   3.394   2.836   3.273
 6941SOL    HW221723   3.315   2.870   3.135
 6942SOL     OW21724   6.288   2.763   0.859
 6942SOL    HW121725   6.253   2.746   0.951
 6942SOL    HW221726   6.235   2.836   0.817
 6943SOL     OW21727   4.914   6.227   6.807
 6943SOL    HW121728   4.926   6.190   6.899
 6943SOL    HW221729   4.833   6.185   6.765
 6944SOL     OW21730   1.771   4.307   6.092
 6944SOL    HW121731   1.864   4.300   6.130
 6944SOL    HW221732   1.724   4.384   6.135
 6945SOL     OW21733   5.885   3.399   6.129
 6945SOL    HW121734   5.841   3.327   6.182
 6945SOL    HW221735   5.984   3.389   6.136
 6946SOL     OW21736   6.300   6.495   1.513
 6946SOL    HW121737   6.356   6.426   1.559
 6946SOL    HW221738   6.207   6.490   1.548
 6947SOL     OW21739   3.274   6.692   5.613
 6947SOL    HW121740   3.215   6.665   5.537
 6947SOL    HW221741   3.230   6.764   5.667
 6948SOL     OW21742   5.555   0.790   6.412
 6948SOL    HW121743   5.635   0.832   6.368
 6948SOL    HW221744   5.571   0.691   6.422
 6949SOL     OW21745   4.969   0.087   4.073
 6949SOL    HW121746   4.929   0.147   4.003
 6949SOL    HW221747   5.061   0.061   4.045
 6950SOL     OW21748   1.992   0.213   3.656
 6950SOL    HW121749   2.032   0.284   3.597
 6950SOL    HW221750   1.981   0.129   3.604
 6951SOL     OW21751   6.630   6.383   6.205
 6951SOL    HW121752   6.566   6.460   6.209
 6951SOL    HW221753   6.721   6.415   6.230
 6952SOL     OW21754   6.877   5.856   4.372
 6952SOL    HW121755   6.969   5.819   4.360
 6952SOL    HW221756   6.860   5.926   4.303
 6953SOL     OW21757   5.008   0.234   6.659
 6953SOL    HW121758   5.058   0.239   6.745
 6953SOL    HW221759   5.010   0.323   6.613
 6954SOL     OW21760   0.421   4.001   4.226
 6954SOL    HW121761   0.478   3.943   4.284
 6954SOL    HW221762   0.479   4.063   4.173
 6955SOL     OW21763   6.433   0.460   2.285
 6955SOL    HW121764   6.491   0.525   2.235
 6955SOL    HW221765   6.365   0.510   2.338
 6956SOL     OW21766   4.901   6.153   3.182
 6956SOL    HW121767   4.898   6.064   3.135
 6956SOL    HW221768   4.822   6.207   3.154
 6957SOL     OW21769   5.828   4.836   0.934
 6957SOL    HW121770   5.777   4.758   0.972
 6957SOL    HW221771   5.764   4.907   0.905
 6958SOL     OW21772   2.946   3.992   5.074
 6958SOL    HW121773   2.948   3.895   5.048
 6958SOL    HW221774   2.852   4.026   5.064
 6959SOL     OW21775   2.658   1.582   4.933
 6959SOL    HW121776   2.622   1.614   4.845
 6959SOL    HW221777   2.655   1.482   4.936
 6960SOL     OW21778   1.262   5.551   1.318
 6960SOL    HW121779   1.259   5.515   1.411
 6960SOL    HW221780   1.294   5.646   1.320
 6961SOL     OW21781   6.644   2.583   4.219
 6961SOL    HW121782   6.647   2.525   4.300
 6961SOL    HW221783   6.552   2.578   4.179
 6962SOL     OW21784   5.571   6.121   1.995
 6962SOL    HW121785   5.485   6.072   1.980
 6962SOL    HW221786   5.587   6.184   1.920
 6963SOL     OW21787   6.728   5.155   1.000
 6963SOL    HW121788   6.719   5.062   0.962
 6963SOL    HW221789   6.699   5.155   1.095
 6964SOL     OW21790   3.580   6.171   4.989
 6964SOL    HW121791   3.573   6.100   4.919
 6964SOL    HW221792   3.627   6.251   4.951
 6965SOL     OW21793   0.441   3.502   6.803
 6965SOL    HW121794   0.481   3.446   6.731
 6965SOL    HW221795   0.485   3.481   6.890
 6966SOL     OW21796   6.910   2.239   3.537
 6966SOL    HW121797   6.954   2.328   3.529
 6966SOL    HW221798   6.846   2.227   3.461
 6967SOL     OW21799   1.736   0.515   5.540
 6967SOL    HW121800   1.770   0.491   5.630
 6967SOL    HW221801   1.812   0.547   5.483
 6968SOL     OW21802   4.451   6.397   2.996
 6968SOL    HW121803   4.530   6.387   2.936
 6968SOL    HW221804   4.371   6.422   2.942
 6969SOL     OW21805   2.573   2.282   1.007
 6969SOL    HW121806   2.523   2.238   1.081
 6969SOL    HW221807   2.642   2.219   0.971
 6970SOL     OW21808   3.798   4.208   6.545
 6970SOL    HW121809   3.870   4.141   6.530
 6970SOL    HW221810   3.786   4.263   6.463
 6971SOL     OW21811   6.650   4.260   1.288
 6971SOL    HW121812   6.704   4.328   1.238
 6971SOL    HW221813   6.645   4.176   1.234
 6972SOL     OW21814   5.574   4.413   3.533
 6972SOL    HW121815   5.546   4.399   3.438
 6972SOL    HW221816   5.656   4.360   3.552
 6973SOL     OW21817   1.146   3.561   5.674
 6973SOL    HW121818   1.162   3.574   5.772
 6973SOL    HW221819   1.233   3.542   5.628
 6974SOL     OW21820   3.397   2.888   2.962
 6974SOL    HW121821   3.493   2.889   2.937
 6974SOL    HW221822   3.342   2.922   2.886
 6975SOL     OW21823   1.982   5.937   6.345
 6975SOL    HW121824   1.887   5.906   6.334
 6975SOL    HW221825   2.043   5.874   6.296
 6976SOL     OW21826   4.370   5.397   5.091
 6976SOL    HW121827   4.392   5.494   5.085
 6976SOL    HW221828   4.309   5.382   5.169
 6977SOL     OW21829   4.575   2.558   1.945
 6977SOL    HW121830   4.592   2.466   1.909
 6977SOL    HW221831   4.487   2.591   1.910
 6978SOL     OW21832   4.878   1.745   2.103
 6978SOL    HW121833   4.786   1.712   2.084
 6978SOL    HW221834   4.930   1.674   2.151
 6979SOL     OW21835   1.397   4.387   0.852
 6979SOL    HW121836   1.373   4.445   0.774
 6979SOL    HW221837   1.473   4.327   0.828
 6980SOL     OW21838   1.279   1.148   3.403
 6980SOL    HW121839   1.306   1.192   3.489
 6980SOL    HW221840   1.318   1.199   3.326
 6981SOL     OW21841   3.583   3.186   6.295
 6981SOL    HW121842   3.606   3.089   6.301
 6981SOL    HW221843   3.528   3.202   6.213
 6982SOL     OW21844   1.447   0.669   4.301
 6982SOL    HW121845   1.357   0.649   4.338
 6982SOL    HW221846   1.439   0.690   4.203
 6983SOL     OW21847   4.552   2.081   4.132
 6983SOL    HW121848   4.494   2.072   4.050
 6983SOL    HW221849   4.529   2.009   4.197
 6984SOL     OW21850   2.284   1.748   3.870
 6984SOL    HW121851   2.327   1.662   3.896
 6984SOL    HW221852   2.232   1.783   3.948
 6985SOL     OW21853   4.109   5.643   1.562
 6985SOL    HW121854   4.087   5.740   1.574
 6985SOL    HW221855   4.200   5.634   1.524
 6986SOL     OW21856   2.363   6.517   6.299
 6986SOL    HW121857   2.305   6.581   6.250
 6986SOL    HW221858   2.349   6.425   6.264
 6987SOL     OW21859   0.444   2.035   6.042
 6987SOL    HW121860   0.523   2.017   6.100
 6987SOL    HW221861   0.363   1.992   6.082
 6988SOL     OW21862   6.863   1.075   5.322
 6988SOL    HW121863   6.952   1.111   5.295
 6988SOL    HW221864   6.804   1.149   5.351
 6989SOL     OW21865   0.582   3.768   4.375
 6989SOL    HW121866   0.604   3.697   4.308
 6989SOL    HW221867   0.488   3.756   4.407
 6990SOL     OW21868   5.181   2.397   1.701
 6990SOL    HW121869   5.215   2.448   1.780
 6990SOL    HW221870   5.090   2.432   1.677
 6991SOL     OW21871   2.997   4.939   4.215
 6991SOL    HW121872   3.011   4.870   4.285
 6991SOL    HW221873   2.955   5.020   4.256
 6992SOL     OW21874   5.138   6.511   5.676
 6992SOL    HW121875   5.165   6.592   5.624
 6992SOL    HW221876   5.126   6.534   5.772
 6993SOL     OW21877   6.912   0.960   3.198
 6993SOL    HW121878   6.906   0.925   3.105
 6993SOL    HW221879   6.821   0.958   3.241
 6994SOL     OW21880   0.462   2.999   4.593
 6994SOL    HW121881   0.463   2.923   4.529
 6994SOL    HW221882   0.395   3.067   4.563
 6995SOL     OW21883   6.537   4.648   5.939
 6995SOL    HW121884   6.592   4.703   6.002
 6995SOL    HW221885   6.545   4.686   5.847
 6996SOL     OW21886   2.082   0.369   6.871
 6996SOL    HW121887   2.063   0.272   6.854
 6996SOL    HW221888   2.068   0.389   6.968
 6997SOL     OW21889   5.828   6.397   5.393
 6997SOL    HW121890   5.911   6.349   5.363
 6997SOL    HW221891   5.749   6.361   5.344
 6998SOL     OW21892   1.597   2.146   1.023
 6998SOL    HW121893   1.601   2.183   0.931
 6998SOL    HW221894   1.502   2.124   1.046
 6999SOL     OW21895   2.456   2.739   5.629
 6999SOL    HW121896   2.436   2.814   5.692
 6999SOL    HW221897   2.452   2.773   5.535
 7000SOL     OW21898   6.606   5.961   1.536
 7000SOL    HW121899   6.602   5.927   1.442
 7000SOL    HW221900   6.654   6.049   1.537
 7001SOL     OW21901   2.314   3.242   5.290
 7001SOL    HW121902   2.361   3.172   5.235
 7001SOL    HW221903   2.254   3.197   5.356
 7002SOL     OW21904   2.607   4.917   3.614
 7002SOL    HW121905   2.624   4.952   3.706
 7002SOL    HW221906   2.521   4.956   3.579
 7003SOL     OW21907   4.016   5.610   6.874
 7003SOL    HW121908   4.036   5.670   6.797
 7003SOL    HW221909   4.092   5.545   6.887
 7004SOL     OW21910   1.707   4.879   1.975
 7004SOL    HW121911   1.759   4.893   2.059
 7004SOL    HW221912   1.754   4.924   1.899
 7005SOL     OW21913   1.428   6.785   0.445
 7005SOL    HW121914   1.470   6.836   0.370
 7005SOL    HW221915   1.490   6.711   0.473
 7006SOL     OW21916   4.783   4.729   4.664
 7006SOL    HW121917   4.760   4.765   4.754
 7006SOL    HW221918   4.702   4.731   4.605
 7007SOL     OW21919   4.437   6.701   4.073
 7007SOL    HW121920   4.340   6.679   4.087
 7007SOL    HW221921   4.492   6.618   4.081
 7008SOL     OW21922   1.205   4.563   5.071
 7008SOL    HW121923   1.243   4.484   5.120
 7008SOL    HW221924   1.126   4.598   5.120
 7009SOL     OW21925   6.665   5.584   2.463
 7009SOL    HW121926   6.570   5.588   2.433
 7009SOL    HW221927   6.679   5.647   2.539
 7010SOL     OW21928   5.138   4.878   5.497
 7010SOL    HW121929   5.081   4.895   5.577
 7010SOL    HW221930   5.231   4.856   5.526
 7011SOL     OW21931   3.972   6.675   5.964
 7011SOL    HW121932   3.925   6.689   6.051
 7011SOL    HW221933   3.905   6.655   5.893
 7012SOL     OW21934   1.644   1.495   2.002
 7012SOL    HW121935   1.603   1.536   2.084
 7012SOL    HW221936   1.707   1.422   2.030
 7013SOL     OW21937   0.678   0.707   0.751
 7013SOL    HW121938   0.615   0.629   0.749
 7013SOL    HW221939   0.751   0.693   0.684
 7014SOL     OW21940   4.201   3.474   1.367
 7014SOL    HW121941   4.208   3.559   1.419
 7014SOL    HW221942   4.288   3.425   1.371
 7015SOL     OW21943   5.736   4.702   2.007
 7015SOL    HW121944   5.821   4.736   2.047
 7015SOL    HW221945   5.669   4.687   2.080
 7016SOL     OW21946   3.550   4.887   1.688
 7016SOL    HW121947   3.557   4.808   1.750
 7016SOL    HW221948   3.454   4.915   1.682
 7017SOL     OW21949   2.479   6.306   2.365
 7017SOL    HW121950   2.504   6.251   2.285
 7017SOL    HW221951   2.477   6.247   2.446
 7018SOL     OW21952   6.179   4.343   3.593
 7018SOL    HW121953   6.148   4.437   3.609
 7018SOL    HW221954   6.241   4.316   3.666
 7019SOL     OW21955   2.495   3.876   6.621
 7019SOL    HW121956   2.505   3.959   6.566
 7019SOL    HW221957   2.465   3.901   6.713
 7020SOL     OW21958   5.642   7.001   0.017
 7020SOL    HW121959   5.598   6.924   6.992
 7020SOL    HW221960   5.728   0.002   6.992
 7021SOL     OW21961   1.466   1.575   6.200
 7021SOL    HW121962   1.526   1.506   6.240
 7021SOL    HW221963   1.500   1.666   6.221
 7022SOL     OW21964   4.643   5.970   0.589
 7022SOL    HW121965   4.714   5.950   0.656
 7022SOL    HW221966   4.596   5.885   0.565
 7023SOL     OW21967   0.489   1.755   3.095
 7023SOL    HW121968   0.540   1.712   3.169
 7023SOL    HW221969   0.546   1.823   3.050
 7024SOL     OW21970   1.487   4.446   5.502
 7024SOL    HW121971   1.436   4.526   5.472
 7024SOL    HW221972   1.556   4.473   5.568
 7025SOL     OW21973   2.588   0.910   6.834
 7025SOL    HW121974   2.534   0.827   6.826
 7025SOL    HW221975   2.529   0.985   6.865
 7026SOL     OW21976   3.258   2.113   1.941
 7026SOL    HW121977   3.261   2.150   2.034
 7026SOL    HW221978   3.251   2.013   1.945
 7027SOL     OW21979   2.537   5.164   4.066
 7027SOL    HW121980   2.483   5.194   4.145
 7027SOL    HW221981   2.605   5.233   4.043
 7028SOL     OW21982   4.723   0.077   4.191
 7028SOL    HW121983   4.692   0.168   4.217
 7028SOL    HW221984   4.814   0.082   4.152
 7029SOL     OW21985   5.315   5.261   6.306
 7029SOL    HW121986   5.239   5.322   6.284
 7029SOL    HW221987   5.299   5.217   6.394
 7030SOL     OW21988   0.342   1.834   5.122
 7030SOL    HW121989   0.316   1.743   5.157
 7030SOL    HW221990   0.288   1.854   5.040
 7031SOL     OW21991   1.902   6.234   5.123
 7031SOL    HW121992   1.892   6.310   5.058
 7031SOL    HW221993   1.838   6.248   5.199
 7032SOL     OW21994   3.606   0.428   3.604
 7032SOL    HW121995   3.602   0.328   3.600
 7032SOL    HW221996   3.514   0.465   3.587
 7033SOL     OW21997   1.409   2.552   3.133
 7033SOL    HW121998   1.324   2.517   3.173
 7033SOL    HW221999   1.422   2.512   3.043
 7034SOL     OW22000   6.353   0.172   2.919
 7034SOL    HW122001   6.399   0.228   2.988
 7034SOL    HW222002   6.417   0.105   2.881
 7035SOL     OW22003   1.901   6.485   1.662
 7035SOL    HW122004   1.909   6.401   1.715
 7035SOL    HW222005   1.897   6.564   1.724
 7036SOL     OW22006   0.257   0.683   2.800
 7036SOL    HW122007   0.225   0.772   2.833
 7036SOL    HW222008   0.331   0.651   2.859
 7037SOL     OW22009   1.962   0.394   6.227
 7037SOL    HW122010   1.893   0.392   6.155
 7037SOL    HW222011   1.963   0.307   6.276
 7038SOL     OW22012   1.416   3.393   4.534
 7038SOL    HW122013   1.370   3.355   4.454
 7038SOL    HW222014   1.360   3.378   4.615
 7039SOL     OW22015   2.752   4.671   1.322
 7039SOL    HW122016   2.841   4.682   1.277
 7039SOL    HW222017   2.743   4.740   1.394
 7040SOL     OW22018   6.673   2.355   4.797
 7040SOL    HW122019   6.681   2.440   4.745
 7040SOL    HW222020   6.681   2.375   4.895
 7041SOL     OW22021   0.673   2.446   1.477
 7041SOL    HW122022   0.705   2.540   1.481
 7041SOL    HW222023   0.689   2.402   1.566
 7042SOL     OW22024   5.457   5.753   6.011
 7042SOL    HW122025   5.409   5.789   6.090
 7042SOL    HW222026   5.438   5.656   6.000
 7043SOL     OW22027   2.105   3.485   2.450
 7043SOL    HW122028   2.068   3.573   2.481
 7043SOL    HW222029   2.193   3.500   2.406
 7044SOL     OW22030   4.974   5.102   3.329
 7044SOL    HW122031   4.992   5.156   3.411
 7044SOL    HW222032   4.881   5.065   3.333
 7045SOL     OW22033   5.335   5.644   3.107
 7045SOL    HW122034   5.284   5.679   3.028
 7045SOL    HW222035   5.357   5.719   3.169
 7046SOL     OW22036   3.354   1.659   3.262
 7046SOL    HW122037   3.309   1.586   3.212
 7046SOL    HW222038   3.399   1.721   3.197
 7047SOL     OW22039   0.853   2.692   2.091
 7047SOL    HW122040   0.795   2.645   2.025
 7047SOL    HW222041   0.868   2.786   2.061
 7048SOL     OW22042   6.508   6.313   2.987
 7048SOL    HW122043   6.425   6.333   2.936
 7048SOL    HW222044   6.497   6.339   3.083
 7049SOL     OW22045   3.128   1.249   0.960
 7049SOL    HW122046   3.154   1.345   0.957
 7049SOL    HW222047   3.176   1.199   0.888
 7050SOL     OW22048   3.852   4.086   1.772
 7050SOL    HW122049   3.773   4.082   1.833
 7050SOL    HW222050   3.834   4.032   1.690
 7051SOL     OW22051   6.724   0.303   1.270
 7051SOL    HW122052   6.708   0.398   1.242
 7051SOL    HW222053   6.743   0.300   1.369
 7052SOL     OW22054   5.524   2.818   4.006
 7052SOL    HW122055   5.447   2.847   3.949
 7052SOL    HW222056   5.590   2.892   4.013
 7053SOL     OW22057   0.751   3.655   4.837
 7053SOL    HW122058   0.727   3.743   4.797
 7053SOL    HW222059   0.838   3.624   4.799
 7054SOL     OW22060   0.534   6.240   0.679
 7054SOL    HW122061   0.598   6.198   0.744
 7054SOL    HW222062   0.574   6.324   0.642
 7055SOL     OW22063   3.613   6.110   5.578
 7055SOL    HW122064   3.642   6.160   5.496
 7055SOL    HW222065   3.515   6.090   5.571
 7056SOL     OW22066   6.335   5.908   2.221
 7056SOL    HW122067   6.278   5.916   2.303
 7056SOL    HW222068   6.404   5.837   2.235
 7057SOL     OW22069   1.182   6.098   3.433
 7057SOL    HW122070   1.147   6.101   3.340
 7057SOL    HW222071   1.228   6.011   3.450
 7058SOL     OW22072   6.967   5.792   6.260
 7058SOL    HW122073   6.929   5.710   6.303
 7058SOL    HW222074   6.947   5.872   6.317
 7059SOL     OW22075   6.327   1.145   4.237
 7059SOL    HW122076   6.235   1.183   4.226
 7059SOL    HW222077   6.322   1.045   4.236
 7060SOL     OW22078   4.125   0.140   1.680
 7060SOL    HW122079   4.098   0.103   1.769
 7060SOL    HW222080   4.131   0.240   1.686
 7061SOL     OW22081   1.260   3.262   3.579
 7061SOL    HW122082   1.303   3.190   3.525
 7061SOL    HW222083   1.186   3.304   3.526
 7062SOL     OW22084   4.933   1.266   5.373
 7062SOL    HW122085   4.855   1.229   5.424
 7062SOL    HW222086   4.988   1.324   5.433
 7063SOL     OW22087   0.906   0.433   1.739
 7063SOL    HW122088   0.981   0.499   1.746
 7063SOL    HW222089   0.830   0.473   1.688
 7064SOL     OW22090   4.205   2.123   1.475
 7064SOL    HW122091   4.170   2.157   1.563
 7064SOL    HW222092   4.130   2.085   1.422
 7065SOL     OW22093   3.758   3.755   6.169
 7065SOL    HW122094   3.772   3.810   6.086
 7065SOL    HW222095   3.668   3.774   6.206
 7066SOL     OW22096   4.298   6.938   0.569
 7066SOL    HW122097   4.261   6.870   0.633
 7066SOL    HW222098   4.397   6.931   0.566
 7067SOL     OW22099   1.735   1.794   5.042
 7067SOL    HW122100   1.690   1.847   4.970
 7067SOL    HW222101   1.833   1.786   5.021
 7068SOL     OW22102   6.942   4.657   3.805
 7068SOL    HW122103   6.889   4.684   3.886
 7068SOL    HW222104   6.888   4.596   3.748
 7069SOL     OW22105   5.412   1.522   4.492
 7069SOL    HW122106   5.471   1.594   4.455
 7069SOL    HW222107   5.460   1.434   4.486
 7070SOL     OW22108   6.650   6.090   4.826
 7070SOL    HW122109   6.630   6.177   4.782
 7070SOL    HW222110   6.672   6.105   4.922
 7071SOL     OW22111   1.822   6.122   6.692
 7071SOL    HW122112   1.732   6.106   6.650
 7071SOL    HW222113   1.813   6.191   6.765
 7072SOL     OW22114   0.953   6.404   6.949
 7072SOL    HW122115   0.864   6.423   6.909
 7072SOL    HW222116   1.016   6.372   6.877
 7073SOL     OW22117   4.802   0.005   4.479
 7073SOL    HW122118   4.880   0.067   4.472
 7073SOL    HW222119   4.760   7.015   4.389
 7074SOL     OW22120   4.568   2.276   2.142
 7074SOL    HW122121   4.659   2.294   2.105
 7074SOL    HW222122   4.549   2.178   2.140
 7075SOL     OW22123   1.761   4.953   5.078
 7075SOL    HW122124   1.814   4.879   5.037
 7075SOL    HW222125   1.684   4.977   5.019
 7076SOL     OW22126   5.496   2.142   6.960
 7076SOL    HW122127   5.551   2.202   7.018
 7076SOL    HW222128   5.419   2.106   7.012
 7077SOL     OW22129   2.256   4.398   4.277
 7077SOL    HW122130   2.209   4.482   4.306
 7077SOL    HW222131   2.344   4.421   4.237
 7078SOL     OW22132   0.154   0.044   1.674
 7078SOL    HW122133   0.086   6.993   1.676
 7078SOL    HW222134   0.245   0.006   1.686
 7079SOL     OW22135   6.690   6.045   4.556
 7079SOL    HW122136   6.661   5.965   4.504
 7079SOL    HW222137   6.672   6.031   4.653
 7080SOL     OW22138   3.051   2.092   4.059
 7080SOL    HW122139   2.998   2.007   4.056
 7080SOL    HW222140   3.073   2.122   3.966
 7081SOL     OW22141   3.102   0.397   0.083
 7081SOL    HW122142   3.175   0.457   0.113
 7081SOL    HW222143   3.037   0.383   0.158
 7082SOL     OW22144   6.252   4.263   6.540
 7082SOL    HW122145   6.216   4.339   6.595
 7082SOL    HW222146   6.332   4.224   6.586
 7083SOL     OW22147   2.932   0.363   0.598
 7083SOL    HW122148   2.931   0.457   0.631
 7083SOL    HW222149   2.849   0.316   0.628
 7084SOL     OW22150   0.359   6.550   5.697
 7084SOL    HW122151   0.300   6.490   5.751
 7084SOL    HW222152   0.454   6.534   5.721
 7085SOL     OW22153   1.061   2.323   1.804
 7085SOL    HW122154   1.105   2.319   1.714
 7085SOL    HW222155   0.981   2.263   1.804
 7086SOL     OW22156   5.331   0.915   5.149
 7086SOL    HW122157   5.310   1.004   5.189
 7086SOL    HW222158   5.386   0.862   5.214
 7087SOL     OW22159   6.315   2.924   3.660
 7087SOL    HW122160   6.357   2.858   3.723
 7087SOL    HW222161   6.216   2.917   3.667
 7088SOL     OW22162   5.580   2.958   3.399
 7088SOL    HW122163   5.635   2.887   3.356
 7088SOL    HW222164   5.585   2.948   3.498
 7089SOL     OW22165   3.031   2.176   4.864
 7089SOL    HW122166   3.104   2.219   4.916
 7089SOL    HW222167   2.997   2.239   4.795
 7090SOL     OW22168   2.626   0.464   6.783
 7090SOL    HW122169   2.661   0.543   6.733
 7090SOL    HW222170   2.526   0.470   6.788
 7091SOL     OW22171   0.801   1.465   6.733
 7091SOL    HW122172   0.791   1.401   6.809
 7091SOL    HW222173   0.711   1.487   6.696
 7092SOL     OW22174   4.546   2.834   6.159
 7092SOL    HW122175   4.525   2.869   6.250
 7092SOL    HW222176   4.481   2.872   6.093
 7093SOL     OW22177   2.945   3.753   3.239
 7093SOL    HW122178   2.934   3.680   3.306
 7093SOL    HW222179   2.979   3.835   3.283
 7094SOL     OW22180   0.560   5.879   5.873
 7094SOL    HW122181   0.502   5.812   5.920
 7094SOL    HW222182   0.504   5.937   5.814
 7095SOL     OW22183   3.187   3.777   6.432
 7095SOL    HW122184   3.222   3.713   6.364
 7095SOL    HW222185   3.228   3.867   6.418
 7096SOL     OW22186   6.392   0.719   3.887
 7096SOL    HW122187   6.350   0.712   3.797
 7096SOL    HW222188   6.383   0.631   3.935
 7097SOL     OW22189   5.983   1.382   0.614
 7097SOL    HW122190   6.041   1.460   0.635
 7097SOL    HW222191   6.013   1.340   0.528
 7098SOL     OW22192   1.797   0.175   5.218
 7098SOL    HW122193   1.751   0.238   5.280
 7098SOL    HW222194   1.737   0.154   5.141
 7099SOL     OW22195   3.082   1.116   5.224
 7099SOL    HW122196   3.053   1.128   5.319
 7099SOL    HW222197   3.086   1.205   5.178
 7100SOL     OW22198   5.524   2.557   1.210
 7100SOL    HW122199   5.483   2.476   1.251
 7100SOL    HW222200   5.485   2.639   1.253
 7101SOL     OW22201   1.763   1.076   4.978
 7101SOL    HW122202   1.751   1.047   4.883
 7101SOL    HW222203   1.706   1.157   4.995
 7102SOL     OW22204   4.853   0.044   0.799
 7102SOL    HW122205   4.799   0.122   0.768
 7102SOL    HW222206   4.826   6.983   0.748
 7103SOL     OW22207   4.635   4.653   1.860
 7103SOL    HW122208   4.699   4.617   1.928
 7103SOL    HW222209   4.542   4.625   1.884
 7104SOL     OW22210   0.517   2.749   4.436
 7104SOL    HW122211   0.435   2.703   4.469
 7104SOL    HW222212   0.582   2.682   4.400
 7105SOL     OW22213   3.082   2.841   5.255
 7105SOL    HW122214   3.110   2.926   5.211
 7105SOL    HW222215   3.150   2.770   5.235
 7106SOL     OW22216   3.273   4.022   2.594
 7106SOL    HW122217   3.190   3.973   2.619
 7106SOL    HW222218   3.310   4.068   2.675
 7107SOL     OW22219   3.575   1.286   0.611
 7107SOL    HW122220   3.568   1.211   0.546
 7107SOL    HW222221   3.651   1.268   0.674
 7108SOL     OW22222   4.902   5.707   3.053
 7108SOL    HW122223   4.917   5.804   3.032
 7108SOL    HW222224   4.810   5.681   3.024
 7109SOL     OW22225   2.823   0.605   5.606
 7109SOL    HW122226   2.790   0.607   5.512
 7109SOL    HW222227   2.856   0.513   5.628
 7110SOL     OW22228   3.235   6.225   4.607
 7110SOL    HW122229   3.314   6.282   4.630
 7110SOL    HW222230   3.237   6.141   4.661
 7111SOL     OW22231   1.148   2.037   4.179
 7111SOL    HW122232   1.072   2.020   4.242
 7111SOL    HW222233   1.230   2.062   4.232
 7112SOL     OW22234   0.993   5.682   4.434
 7112SOL    HW122235   1.043   5.757   4.475
 7112SOL    HW222236   0.962   5.619   4.506
 7113SOL     OW22237   3.893   4.098   4.632
 7113SOL    HW122238   3.958   4.049   4.573
 7113SOL    HW222239   3.922   4.091   4.727
 7114SOL     OW22240   3.873   6.931   1.736
 7114SOL    HW122241   3.874   7.014   1.681
 7114SOL    HW222242   3.832   6.856   1.684
 7115SOL     OW22243   5.286   3.149   1.579
 7115SOL    HW122244   5.235   3.105   1.506
 7115SOL    HW222245   5.236   3.140   1.665
 7116SOL     OW22246   6.186   4.350   3.063
 7116SOL    HW122247   6.128   4.298   2.999
 7116SOL    HW222248   6.261   4.292   3.093
 7117SOL     OW22249   0.026   6.236   5.118
 7117SOL    HW122250   0.079   6.263   5.038
 7117SOL    HW222251   0.025   6.136   5.125
 7118SOL     OW22252   2.806   3.660   1.424
 7118SOL    HW122253   2.851   3.720   1.490
 7118SOL    HW222254   2.813   3.565   1.455
 7119SOL     OW22255   5.206   2.181   2.718
 7119SOL    HW122256   5.128   2.131   2.681
 7119SOL    HW222257   5.191   2.199   2.815
 7120SOL     OW22258   3.538   1.771   2.446
 7120SOL    HW122259   3.452   1.746   2.400
 7120SOL    HW222260   3.541   1.726   2.536
 7121SOL     OW22261   1.371   6.351   3.104
 7121SOL    HW122262   1.396   6.445   3.082
 7121SOL    HW222263   1.449   6.291   3.086
 7122SOL     OW22264   0.924   0.232   5.707
 7122SOL    HW122265   0.940   0.135   5.692
 7122SOL    HW222266   0.826   0.251   5.702
 7123SOL     OW22267   2.330   4.573   3.050
 7123SOL    HW122268   2.230   4.570   3.046
 7123SOL    HW222269   2.360   4.668   3.058
 7124SOL     OW22270   7.010   2.245   0.808
 7124SOL    HW122271   7.011   2.265   0.710
 7124SOL    HW222272   0.057   2.174   0.828
 7125SOL     OW22273   7.016   6.849   1.048
 7125SOL    HW122274   7.001   6.840   1.147
 7125SOL    HW222275   0.002   6.946   1.024
 7126SOL     OW22276   3.354   5.504   0.158
 7126SOL    HW122277   3.426   5.540   0.100
 7126SOL    HW222278   3.301   5.580   0.196
 7127SOL     OW22279   1.156   5.608   5.394
 7127SOL    HW122280   1.145   5.524   5.447
 7127SOL    HW222281   1.237   5.601   5.336
 7128SOL     OW22282   3.089   4.769   0.597
 7128SOL    HW122283   3.112   4.865   0.607
 7128SOL    HW222284   3.097   4.723   0.685
 7129SOL     OW22285   2.221   1.499   6.995
 7129SOL    HW122286   2.135   1.536   6.959
 7129SOL    HW222287   2.298   1.541   6.948
 7130SOL     OW22288   3.962   5.900   5.275
 7130SOL    HW122289   3.982   5.963   5.350
 7130SOL    HW222290   3.864   5.901   5.256
 7131SOL     OW22291   2.478   0.855   1.130
 7131SOL    HW122292   2.420   0.809   1.197
 7131SOL    HW222293   2.428   0.867   1.045
 7132SOL     OW22294   3.674   4.307   6.788
 7132SOL    HW122295   3.750   4.259   6.742
 7132SOL    HW222296   3.640   4.379   6.729
 7133SOL     OW22297   5.143   5.738   5.606
 7133SOL    HW122298   5.225   5.792   5.588
 7133SOL    HW222299   5.148   5.651   5.556
 7134SOL     OW22300   5.435   6.886   1.823
 7134SOL    HW122301   5.473   6.860   1.912
 7134SOL    HW222302   5.434   6.986   1.815
 7135SOL     OW22303   1.345   3.418   3.287
 7135SOL    HW122304   1.371   3.401   3.192
 7135SOL    HW222305   1.427   3.419   3.345
 7136SOL     OW22306   2.272   2.962   1.107
 7136SOL    HW122307   2.257   2.960   1.008
 7136SOL    HW222308   2.366   2.989   1.126
 7137SOL     OW22309   3.758   6.925   6.860
 7137SOL    HW122310   3.830   6.902   6.925
 7137SOL    HW222311   3.671   6.935   6.908
 7138SOL     OW22312   1.542   2.492   6.851
 7138SOL    HW122313   1.513   2.433   6.927
 7138SOL    HW222314   1.496   2.580   6.859
 7139SOL     OW22315   5.921   3.827   1.543
 7139SOL    HW122316   5.894   3.875   1.460
 7139SOL    HW222317   5.841   3.782   1.583
 7140SOL     OW22318   5.847   4.367   3.702
 7140SOL    HW122319   5.927   4.418   3.673
 7140SOL    HW222320   5.807   4.410   3.783
 7141SOL     OW22321   3.692   6.106   1.859
 7141SOL    HW122322   3.716   6.142   1.949
 7141SOL    HW222323   3.691   6.180   1.792
 7142SOL     OW22324   4.279   0.337   3.501
 7142SOL    HW122325   4.242   0.407   3.562
 7142SOL    HW222326   4.351   0.287   3.549
 7143SOL     OW22327   1.347   2.478   5.926
 7143SOL    HW122328   1.263   2.475   5.980
 7143SOL    HW222329   1.344   2.407   5.856
 7144SOL     OW22330   1.814   2.497   2.211
 7144SOL    HW122331   1.897   2.525   2.259
 7144SOL    HW222332   1.825   2.510   2.113
 7145SOL     OW22333   4.465   6.687   0.385
 7145SOL    HW122334   4.482   6.770   0.438
 7145SOL    HW222335   4.484   6.606   0.441
 7146SOL     OW22336   2.271   0.363   1.438
 7146SOL    HW122337   2.268   0.267   1.411
 7146SOL    HW222338   2.197   0.383   1.501
 7147SOL     OW22339   0.105   0.560   3.458
 7147SOL    HW122340   0.167   0.543   3.534
 7147SOL    HW222341   0.129   0.501   3.381
 7148SOL     OW22342   1.208   5.933   0.769
 7148SOL    HW122343   1.229   5.933   0.671
 7148SOL    HW222344   1.201   5.839   0.801
 7149SOL     OW22345   6.322   6.704   2.852
 7149SOL    HW122346   6.355   6.629   2.795
 7149SOL    HW222347   6.260   6.762   2.799
 7150SOL     OW22348   3.016   2.072   2.260
 7150SOL    HW122349   2.988   2.000   2.197
 7150SOL    HW222350   2.949   2.146   2.259
 7151SOL     OW22351   2.047   6.233   0.827
 7151SOL    HW122352   2.007   6.193   0.743
 7151SOL    HW222353   2.029   6.172   0.904
 7152SOL     OW22354   0.863   0.583   5.088
 7152SOL    HW122355   0.914   0.499   5.068
 7152SOL    HW222356   0.920   0.643   5.145
 7153SOL     OW22357   3.290   5.414   1.870
 7153SOL    HW122358   3.387   5.409   1.847
 7153SOL    HW222359   3.269   5.505   1.905
 7154SOL     OW22360   3.563   0.140   3.552
 7154SOL    HW122361   3.552   0.161   3.455
 7154SOL    HW222362   3.586   0.044   3.564
 7155SOL     OW22363   1.768   3.814   1.296
 7155SOL    HW122364   1.750   3.895   1.241
 7155SOL    HW222365   1.867   3.807   1.314
 7156SOL     OW22366   0.596   3.373   3.895
 7156SOL    HW122367   0.598   3.461   3.848
 7156SOL    HW222368   0.507   3.360   3.938
 7157SOL     OW22369   6.863   4.059   1.636
 7157SOL    HW122370   6.819   4.140   1.597
 7157SOL    HW222371   6.793   3.994   1.666
 7158SOL     OW22372   0.908   6.895   3.639
 7158SOL    HW122373   0.969   6.948   3.699
 7158SOL    HW222374   0.850   6.958   3.587
 7159SOL     OW22375   0.683   5.127   2.787
 7159SOL    HW122376   0.754   5.191   2.757
 7159SOL    HW222377   0.712   5.082   2.871
 7160SOL     OW22378   5.690   6.953   2.684
 7160SOL    HW122379   5.616   6.912   2.738
 7160SOL    HW222380   5.720   6.887   2.615
 7161SOL     OW22381   2.970   3.766   4.278
 7161SOL    HW122382   3.022   3.825   4.340
 7161SOL    HW222383   2.927   3.693   4.331
 7162SOL     OW22384   1.343   5.455   6.350
 7162SOL    HW122385   1.264   5.398   6.328
 7162SOL    HW222386   1.367   5.510   6.270
 7163SOL     OW22387   2.934   6.146   3.274
 7163SOL    HW122388   3.028   6.160   3.305
 7163SOL    HW222389   2.871   6.196   3.333
 7164SOL     OW22390   1.672   0.677   3.526
 7164SOL    HW122391   1.702   0.676   3.430
 7164SOL    HW222392   1.591   0.736   3.534
 7165SOL     OW22393   6.841   1.192   2.243
 7165SOL    HW122394   6.753   1.149   2.222
 7165SOL    HW222395   6.898   1.193   2.160
 7166SOL     OW22396   6.479   2.809   0.287
 7166SOL    HW122397   6.426   2.797   0.371
 7166SOL    HW222398   6.471   2.904   0.255
 7167SOL     OW22399   5.222   3.501   3.794
 7167SOL    HW122400   5.124   3.481   3.806
 7167SOL    HW222401   5.243   3.588   3.838
 7168SOL     OW22402   1.571   2.556   3.381
 7168SOL    HW122403   1.540   2.590   3.292
 7168SOL    HW222404   1.665   2.522   3.373
 7169SOL     OW22405   0.083   2.394   4.737
 7169SOL    HW122406   0.047   2.335   4.665
 7169SOL    HW222407   0.072   2.489   4.711
 7170SOL     OW22408   4.972   6.615   3.928
 7170SOL    HW122409   5.022   6.576   4.005
 7170SOL    HW222410   4.955   6.712   3.945
 7171SOL     OW22411   5.459   3.403   6.827
 7171SOL    HW122412   5.543   3.425   6.777
 7171SOL    HW222413   5.408   3.333   6.777
 7172SOL     OW22414   1.497   0.411   4.951
 7172SOL    HW122415   1.578   0.468   4.967
 7172SOL    HW222416   1.459   0.431   4.861
 7173SOL     OW22417   6.876   4.495   6.025
 7173SOL    HW122418   6.929   4.411   6.043
 7173SOL    HW222419   6.782   4.482   6.056
 7174SOL     OW22420   0.634   4.384   0.218
 7174SOL    HW122421   0.700   4.313   0.244
 7174SOL    HW222422   0.665   4.472   0.252
 7175SOL     OW22423   5.345   2.417   6.864
 7175SOL    HW122424   5.407   2.457   6.931
 7175SOL    HW222425   5.397   2.390   6.783
 7176SOL     OW22426   0.490   0.258   3.141
 7176SOL    HW122427   0.484   0.170   3.187
 7176SOL    HW222428   0.543   0.248   3.057
 7177SOL     OW22429   1.608   5.491   4.583
 7177SOL    HW122430   1.682   5.462   4.521
 7177SOL    HW222431   1.573   5.580   4.554
 7178SOL     OW22432   2.305   2.223   5.800
 7178SOL    HW122433   2.239   2.282   5.753
 7178SOL    HW222434   2.308   2.247   5.897
 7179SOL     OW22435   1.946   3.831   4.742
 7179SOL    HW122436   2.009   3.907   4.727
 7179SOL    HW222437   1.998   3.750   4.769
 7180SOL     OW22438   2.957   5.357   0.527
 7180SOL    HW122439   3.055   5.350   0.547
 7180SOL    HW222440   2.926   5.275   0.480
 7181SOL     OW22441   2.082   6.546   0.456
 7181SOL    HW122442   2.040   6.568   0.544
 7181SOL    HW222443   2.028   6.585   0.382
 7182SOL     OW22444   0.844   2.587   4.963
 7182SOL    HW122445   0.787   2.505   4.964
 7182SOL    HW222446   0.833   2.635   4.876
 7183SOL     OW22447   2.059   6.293   0.345
 7183SOL    HW122448   2.084   6.309   0.250
 7183SOL    HW222449   2.047   6.380   0.392
 7184SOL     OW22450   6.647   0.933   3.285
 7184SOL    HW122451   6.613   0.846   3.250
 7184SOL    HW222452   6.648   0.930   3.385
 7185SOL     OW22453   5.535   0.530   5.183
 7185SOL    HW122454   5.439   0.555   5.196
 7185SOL    HW222455   5.547   0.433   5.205
 7186SOL     OW22456   6.815   1.424   6.891
 7186SOL    HW122457   6.836   1.513   6.932
 7186SOL    HW222458   6.892   1.362   6.905
 7187SOL     OW22459   3.429   5.060   6.277
 7187SOL    HW122460   3.371   5.048   6.197
 7187SOL    HW222461   3.510   5.002   6.269
 7188SOL     OW22462   6.408   0.908   0.920
 7188SOL    HW122463   6.320   0.878   0.884
 7188SOL    HW222464   6.439   0.987   0.868
 7189SOL     OW22465   0.534   1.572   5.738
 7189SOL    HW122466   0.504   1.615   5.823
 7189SOL    HW222467   0.472   1.496   5.716
 7190SOL     OW22468   6.861   3.785   2.915
 7190SOL    HW122469   6.883   3.835   2.999
 7190SOL    HW222470   6.931   3.802   2.846
 7191SOL     OW22471   0.837   4.449   2.920
 7191SOL    HW122472   0.899   4.380   2.957
 7191SOL    HW222473   0.789   4.494   2.996
 7192SOL     OW22474   3.130   4.493   5.712
 7192SOL    HW122475   3.099   4.439   5.790
 7192SOL    HW222476   3.160   4.583   5.743
 7193SOL     OW22477   1.585   2.842   1.825
 7193SOL    HW122478   1.494   2.841   1.785
 7193SOL    HW222479   1.636   2.761   1.796
 7194SOL     OW22480   2.507   1.950   0.385
 7194SOL    HW122481   2.467   1.877   0.330
 7194SOL    HW222482   2.546   2.020   0.325
 7195SOL     OW22483   0.126   4.323   6.982
 7195SOL    HW122484   0.163   4.394   6.922
 7195SOL    HW222485   0.201   4.273   0.003
 7196SOL     OW22486   3.600   4.483   0.977
 7196SOL    HW122487   3.556   4.396   0.957
 7196SOL    HW222488   3.566   4.518   1.064
 7197SOL     OW22489   0.628   2.813   5.440
 7197SOL    HW122490   0.631   2.828   5.539
 7197SOL    HW222491   0.716   2.835   5.399
 7198SOL     OW22492   0.240   0.355   0.437
 7198SOL    HW122493   0.338   0.354   0.413
 7198SOL    HW222494   0.214   0.446   0.467
 7199SOL     OW22495   2.364   0.973   2.392
 7199SOL    HW122496   2.350   0.888   2.443
 7199SOL    HW222497   2.440   1.024   2.433
 7200SOL     OW22498   2.500   2.051   0.039
 7200SOL    HW122499   2.537   2.017   6.975
 7200SOL    HW222500   2.448   1.978   0.084
 7201SOL     OW22501   0.696   5.734   4.177
 7201SOL    HW122502   0.789   5.704   4.197
 7201SOL    HW222503   0.660   5.786   4.254
 7202SOL     OW22504   4.478   0.508   6.068
 7202SOL    HW122505   4.444   0.576   6.133
 7202SOL    HW222506   4.567   0.475   6.098
 7203SOL     OW22507   0.632   1.808   0.993
 7203SOL    HW122508   0.697   1.778   1.063
 7203SOL    HW222509   0.594   1.729   0.945
 7204SOL     OW22510   0.789   6.784   5.433
 7204SOL    HW122511   0.778   6.816   5.339
 7204SOL    HW222512   0.866   6.719   5.438
 7205SOL     OW22513   1.016   5.786   4.005
 7205SOL    HW122514   0.997   5.714   4.072
 7205SOL    HW222515   1.022   5.746   3.914
 7206SOL     OW22516   1.726   0.140   1.582
 7206SOL    HW122517   1.764   0.224   1.544
 7206SOL    HW222518   1.729   0.144   1.682
 7207SOL     OW22519   3.658   0.037   2.710
 7207SOL    HW122520   3.559   0.035   2.726
 7207SOL    HW222521   3.684   0.123   2.667
 7208SOL     OW22522   4.052   6.924   3.146
 7208SOL    HW122523   4.129   6.861   3.154
 7208SOL    HW222524   4.067   6.984   3.068
 7209SOL     OW22525   2.935   3.680   2.064
 7209SOL    HW122526   3.013   3.619   2.075
 7209SOL    HW222527   2.874   3.645   1.993
 7210SOL     OW22528   4.679   0.721   3.898
 7210SOL    HW122529   4.633   0.673   3.823
 7210SOL    HW222530   4.671   0.668   3.982
 7211SOL     OW22531   3.140   6.071   4.090
 7211SOL    HW122532   3.147   6.118   4.178
 7211SOL    HW222533   3.231   6.044   4.059
 7212SOL     OW22534   0.178   6.335   4.915
 7212SOL    HW122535   0.266   6.309   4.955
 7212SOL    HW222536   0.191   6.362   4.820
 7213SOL     OW22537   5.530   6.543   0.829
 7213SOL    HW122538   5.551   6.629   0.877
 7213SOL    HW222539   5.489   6.563   0.740
 7214SOL     OW22540   6.783   5.253   5.277
 7214SOL    HW122541   6.771   5.322   5.349
 7214SOL    HW222542   6.763   5.163   5.314
 7215SOL     OW22543   7.015   3.841   5.228
 7215SOL    HW122544   6.948   3.768   5.243
 7215SOL    HW222545   0.031   3.832   5.136
 7216SOL     OW22546   3.558   6.501   6.902
 7216SOL    HW122547   3.581   6.518   6.997
 7216SOL    HW222548   3.551   6.402   6.886
 7217SOL     OW22549   2.845   4.781   3.073
 7217SOL    HW122550   2.796   4.701   3.036
 7217SOL    HW222551   2.849   4.774   3.172
 7218SOL     OW22552   5.076   2.726   5.424
 7218SOL    HW122553   5.111   2.671   5.348
 7218SOL    HW222554   5.146   2.734   5.495
 7219SOL     OW22555   4.629   0.336   4.322
 7219SOL    HW122556   4.614   0.415   4.262
 7219SOL    HW222557   4.543   0.285   4.331
 7220SOL     OW22558   0.446   5.315   5.043
 7220SOL    HW122559   0.390   5.279   4.969
 7220SOL    HW222560   0.442   5.253   5.122
 7221SOL     OW22561   3.803   6.050   4.637
 7221SOL    HW122562   3.894   6.092   4.641
 7221SOL    HW222563   3.740   6.111   4.591
 7222SOL     OW22564   5.827   0.386   2.938
 7222SOL    HW122565   5.830   0.442   2.855
 7222SOL    HW222566   5.794   0.442   3.015
 7223SOL     OW22567   2.894   1.892   1.542
 7223SOL    HW122568   2.895   1.992   1.545
 7223SOL    HW222569   2.974   1.859   1.492
 7224SOL     OW22570   5.250   2.023   3.833
 7224SOL    HW122571   5.291   1.932   3.840
 7224SOL    HW222572   5.262   2.071   3.920
 7225SOL     OW22573   0.980   5.735   0.487
 7225SOL    HW122574   0.985   5.782   0.399
 7225SOL    HW222575   0.996   5.637   0.474
 7226SOL     OW22576   6.676   1.040   1.013
 7226SOL    HW122577   6.623   1.087   0.942
 7226SOL    HW222578   6.708   0.952   0.978
 7227SOL     OW22579   1.417   1.845   0.965
 7227SOL    HW122580   1.379   1.861   1.056
 7227SOL    HW222581   1.515   1.825   0.973
 7228SOL     OW22582   0.681   1.574   2.656
 7228SOL    HW122583   0.755   1.642   2.659
 7228SOL    HW222584   0.650   1.554   2.749
 7229SOL     OW22585   1.587   5.841   5.921
 7229SOL    HW122586   1.621   5.767   5.863
 7229SOL    HW222587   1.629   5.927   5.892
 7230SOL     OW22588   4.624   5.096   4.305
 7230SOL    HW122589   4.564   5.059   4.375
 7230SOL    HW222590   4.697   5.030   4.286
 7231SOL     OW22591   4.719   0.437   0.241
 7231SOL    HW122592   4.700   0.426   0.339
 7231SOL    HW222593   4.803   0.489   0.230
 7232SOL     OW22594   5.229   5.281   3.026
 7232SOL    HW122595   5.154   5.217   3.008
 7232SOL    HW222596   5.268   5.312   2.940
 7233SOL     OW22597   0.401   2.222   4.129
 7233SOL    HW122598   0.470   2.192   4.195
 7233SOL    HW222599   0.313   2.232   4.174
 7234SOL     OW22600   5.413   3.173   3.519
 7234SOL    HW122601   5.500   3.173   3.470
 7234SOL    HW222602   5.340   3.140   3.459
 7235SOL     OW22603   6.736   4.040   2.052
 7235SOL    HW122604   6.828   4.050   2.013
 7235SOL    HW222605   6.688   4.128   2.047
 7236SOL     OW22606   2.433   2.103   2.107
 7236SOL    HW122607   2.341   2.129   2.136
 7236SOL    HW222608   2.436   2.004   2.092
 7237SOL     OW22609   4.743   1.107   4.448
 7237SOL    HW122610   4.682   1.132   4.523
 7237SOL    HW222611   4.803   1.032   4.478
 7238SOL     OW22612   2.888   1.388   0.927
 7238SOL    HW122613   2.838   1.396   1.014
 7238SOL    HW222614   2.957   1.316   0.935
 7239SOL     OW22615   1.661   2.688   2.343
 7239SOL    HW122616   1.730   2.645   2.285
 7239SOL    HW222617   1.634   2.776   2.304
 7240SOL     OW22618   2.787   4.771   6.082
 7240SOL    HW122619   2.777   4.695   6.016
 7240SOL    HW222620   2.702   4.781   6.133
 7241SOL     OW22621   2.075   0.656   0.229
 7241SOL    HW122622   2.056   0.699   0.318
 7241SOL    HW222623   2.151   0.704   0.185
 7242SOL     OW22624   6.901   6.047   0.597
 7242SOL    HW122625   6.815   6.074   0.556
 7242SOL    HW222626   6.972   6.041   0.527
 7243SOL     OW22627   6.301   4.634   6.071
 7243SOL    HW122628   6.318   4.613   6.168
 7243SOL    HW222629   6.388   4.645   6.024
 7244SOL     OW22630   5.743   0.716   1.398
 7244SOL    HW122631   5.803   0.797   1.395
 7244SOL    HW222632   5.648   0.746   1.392
 7245SOL     OW22633   0.847   2.203   4.967
 7245SOL    HW122634   0.852   2.124   4.905
 7245SOL    HW222635   0.939   2.229   4.995
 7246SOL     OW22636   6.392   0.489   4.042
 7246SOL    HW122637   6.299   0.492   4.080
 7246SOL    HW222638   6.441   0.411   4.081
 7247SOL     OW22639   2.968   6.856   4.230
 7247SOL    HW122640   3.016   6.788   4.175
 7247SOL    HW222641   2.978   6.946   4.188
 7248SOL     OW22642   3.326   1.687   3.753
 7248SOL    HW122643   3.271   1.624   3.809
 7248SOL    HW222644   3.369   1.636   3.679
 7249SOL     OW22645   6.560   4.270   2.005
 7249SOL    HW122646   6.551   4.262   2.104
 7249SOL    HW222647   6.612   4.353   1.984
 7250SOL     OW22648   3.834   6.868   6.595
 7250SOL    HW122649   3.898   6.796   6.566
 7250SOL    HW222650   3.805   6.851   6.689
 7251SOL     OW22651   0.429   0.123   5.521
 7251SOL    HW122652   0.371   0.129   5.440
 7251SOL    HW222653   0.518   0.083   5.496
 7252SOL     OW22654   2.927   3.300   2.830
 7252SOL    HW122655   2.841   3.351   2.823
 7252SOL    HW222656   2.965   3.286   2.739
 7253SOL     OW22657   2.830   6.266   6.268
 7253SOL    HW122658   2.754   6.244   6.329
 7253SOL    HW222659   2.796   6.320   6.191
 7254SOL     OW22660   4.123   5.380   4.009
 7254SOL    HW122661   4.168   5.290   4.002
 7254SOL    HW222662   4.080   5.402   3.921
 7255SOL     OW22663   3.533   3.554   0.831
 7255SOL    HW122664   3.437   3.528   0.841
 7255SOL    HW222665   3.538   3.648   0.798
 7256SOL     OW22666   3.902   5.125   4.485
 7256SOL    HW122667   3.879   5.172   4.400
 7256SOL    HW222668   3.828   5.136   4.551
 7257SOL     OW22669   4.901   3.400   4.046
 7257SOL    HW122670   4.921   3.442   4.135
 7257SOL    HW222671   4.882   3.303   4.059
 7258SOL     OW22672   4.226   0.832   2.921
 7258SOL    HW122673   4.315   0.877   2.931
 7258SOL    HW222674   4.181   0.864   2.838
 7259SOL     OW22675   3.172   3.444   1.160
 7259SOL    HW122676   3.121   3.498   1.227
 7259SOL    HW222677   3.270   3.462   1.169
 7260SOL     OW22678   2.900   1.905   2.770
 7260SOL    HW122679   2.930   1.978   2.831
 7260SOL    HW222680   2.899   1.939   2.676
 7261SOL     OW22681   1.320   3.402   1.573
 7261SOL    HW122682   1.354   3.394   1.667
 7261SOL    HW222683   1.345   3.491   1.536
 7262SOL     OW22684   5.119   1.605   5.370
 7262SOL    HW122685   5.197   1.585   5.311
 7262SOL    HW222686   5.144   1.678   5.434
 7263SOL     OW22687   0.664   6.717   1.555
 7263SOL    HW122688   0.723   6.702   1.477
 7263SOL    HW222689   0.572   6.682   1.535
 7264SOL     OW22690   5.923   1.220   6.749
 7264SOL    HW122691   5.903   1.173   6.834
 7264SOL    HW222692   5.932   1.318   6.766
 7265SOL     OW22693   5.356   5.814   6.264
 7265SOL    HW122694   5.371   5.720   6.294
 7265SOL    HW222695   5.285   5.856   6.320
 7266SOL     OW22696   5.048   0.495   1.472
 7266SOL    HW122697   4.954   0.472   1.447
 7266SOL    HW222698   5.111   0.435   1.423
 7267SOL     OW22699   6.886   6.142   5.642
 7267SOL    HW122700   6.875   6.089   5.558
 7267SOL    HW222701   6.958   6.210   5.628
 7268SOL     OW22702   4.240   5.128   2.796
 7268SOL    HW122703   4.146   5.162   2.807
 7268SOL    HW222704   4.297   5.200   2.756
 7269SOL     OW22705   0.033   6.154   1.268
 7269SOL    HW122706   7.008   6.163   1.179
 7269SOL    HW222707   0.004   6.229   1.328
 7270SOL     OW22708   0.644   3.238   5.226
 7270SOL    HW122709   0.616   3.162   5.284
 7270SOL    HW222710   0.633   3.213   5.130
 7271SOL     OW22711   0.118   5.549   4.361
 7271SOL    HW122712   0.135   5.644   4.336
 7271SOL    HW222713   0.031   5.542   4.410
 7272SOL     OW22714   5.337   4.821   2.273
 7272SOL    HW122715   5.267   4.759   2.307
 7272SOL    HW222716   5.303   4.870   2.193
 7273SOL     OW22717   5.186   4.679   1.993
 7273SOL    HW122718   5.204   4.777   1.997
 7273SOL    HW222719   5.272   4.629   1.984
 7274SOL     OW22720   0.727   6.194   7.006
 7274SOL    HW122721   0.822   6.224   7.013
 7274SOL    HW222722   0.670   6.250   0.044
 7275SOL     OW22723   6.707   1.069   2.634
 7275SOL    HW122724   6.763   1.082   2.716
 7275SOL    HW222725   6.716   1.149   2.575
 7276SOL     OW22726   3.750   1.351   2.980
 7276SOL    HW122727   3.835   1.301   2.961
 7276SOL    HW222728   3.742   1.366   3.078
 7277SOL     OW22729   4.776   1.299   4.235
 7277SOL    HW122730   4.870   1.272   4.212
 7277SOL    HW222731   4.743   1.241   4.310
 7278SOL     OW22732   3.368   2.220   1.688
 7278SOL    HW122733   3.461   2.191   1.666
 7278SOL    HW222734   3.345   2.188   1.780
 7279SOL     OW22735   4.182   2.807   6.098
 7279SOL    HW122736   4.246   2.856   6.038
 7279SOL    HW222737   4.104   2.866   6.118
 7280SOL     OW22738   0.100   2.052   4.027
 7280SOL    HW122739   0.080   2.094   4.115
 7280SOL    HW222740   0.132   2.122   3.963
 7281SOL     OW22741   1.588   0.798   0.364
 7281SOL    HW122742   1.536   0.715   0.381
 7281SOL    HW222743   1.666   0.802   0.426
 7282SOL     OW22744   6.259   6.727   0.534
 7282SOL    HW122745   6.310   6.807   0.566
 7282SOL    HW222746   6.248   6.662   0.609
 7283SOL     OW22747   3.643   0.011   1.974
 7283SOL    HW122748   3.724   0.070   1.977
 7283SOL    HW222749   3.568   0.056   2.022
 7284SOL     OW22750   0.134   2.694   4.682
 7284SOL    HW122751   0.059   2.732   4.627
 7284SOL    HW222752   0.176   2.767   4.736
 7285SOL     OW22753   5.905   3.794   1.982
 7285SOL    HW122754   5.889   3.700   2.011
 7285SOL    HW222755   5.817   3.838   1.962
 7286SOL     OW22756   0.834   0.303   1.346
 7286SOL    HW122757   0.861   0.399   1.339
 7286SOL    HW222758   0.892   0.257   1.413
 7287SOL     OW22759   6.349   3.042   4.940
 7287SOL    HW122760   6.281   3.065   4.870
 7287SOL    HW222761   6.395   2.957   4.916
 7288SOL     OW22762   0.911   1.836   1.719
 7288SOL    HW122763   0.930   1.738   1.719
 7288SOL    HW222764   0.986   1.884   1.673
 7289SOL     OW22765   6.545   1.580   3.101
 7289SOL    HW122766   6.524   1.500   3.158
 7289SOL    HW222767   6.513   1.564   3.008
 7290SOL     OW22768   3.033   1.166   5.799
 7290SOL    HW122769   2.955   1.218   5.764
 7290SOL    HW222770   3.016   1.069   5.787
 7291SOL     OW22771   2.252   0.103   1.285
 7291SOL    HW122772   2.344   0.114   1.248
 7291SOL    HW222773   2.214   0.016   1.256
 7292SOL     OW22774   2.926   6.636   2.499
 7292SOL    HW122775   2.833   6.641   2.462
 7292SOL    HW222776   2.991   6.674   2.432
 7293SOL     OW22777   1.750   1.173   6.181
 7293SOL    HW122778   1.782   1.222   6.100
 7293SOL    HW222779   1.828   1.137   6.231
 7294SOL     OW22780   3.240   4.046   0.409
 7294SOL    HW122781   3.315   4.076   0.468
 7294SOL    HW222782   3.211   3.955   0.438
 7295SOL     OW22783   0.004   4.568   1.038
 7295SOL    HW122784   0.057   4.547   0.955
 7295SOL    HW222785   0.064   4.611   1.106
 7296SOL     OW22786   4.790   5.205   2.957
 7296SOL    HW122787   4.876   5.160   2.980
 7296SOL    HW222788   4.782   5.213   2.857
 7297SOL     OW22789   2.751   7.003   1.590
 7297SOL    HW122790   2.690   6.935   1.630
 7297SOL    HW222791   2.697   0.054   1.546
 7298SOL     OW22792   4.891   5.526   6.824
 7298SOL    HW122793   4.912   5.550   6.729
 7298SOL    HW222794   4.872   5.428   6.830
 7299SOL     OW22795   0.685   1.819   0.717
 7299SOL    HW122796   0.725   1.753   0.653
 7299SOL    HW222797   0.652   1.771   0.798
 7300SOL     OW22798   0.764   6.018   2.595
 7300SOL    HW122799   0.730   5.931   2.632
 7300SOL    HW222800   0.719   6.036   2.508
 7301SOL     OW22801   6.575   2.146   5.784
 7301SOL    HW122802   6.628   2.131   5.700
 7301SOL    HW222803   6.523   2.063   5.805
 7302SOL     OW22804   0.340   2.301   5.887
 7302SOL    HW122805   0.268   2.330   5.825
 7302SOL    HW222806   0.306   2.228   5.946
 7303SOL     OW22807   3.517   0.600   0.077
 7303SOL    HW122808   3.552   0.538   0.146
 7303SOL    HW222809   3.578   0.599   7.019
 7304SOL     OW22810   2.645   5.599   1.794
 7304SOL    HW122811   2.681   5.558   1.878
 7304SOL    HW222812   2.574   5.540   1.755
 7305SOL     OW22813   5.442   1.705   1.223
 7305SOL    HW122814   5.517   1.764   1.252
 7305SOL    HW222815   5.476   1.640   1.155
 7306SOL     OW22816   3.553   1.460   1.682
 7306SOL    HW122817   3.560   1.532   1.612
 7306SOL    HW222818   3.628   1.470   1.747
 7307SOL     OW22819   4.091   0.094   2.653
 7307SOL    HW122820   4.052   0.173   2.700
 7307SOL    HW222821   4.124   0.121   2.563
 7308SOL     OW22822   6.201   1.554   3.763
 7308SOL    HW122823   6.181   1.570   3.860
 7308SOL    HW222824   6.257   1.629   3.728
 7309SOL     OW22825   3.154   6.962   1.442
 7309SOL    HW122826   3.220   6.887   1.439
 7309SOL    HW222827   3.068   6.932   1.400
 7310SOL     OW22828   2.173   3.585   7.005
 7310SOL    HW122829   2.090   3.583   6.950
 7310SOL    HW222830   2.236   3.514   6.972
 7311SOL     OW22831   1.416   0.594   0.453
 7311SOL    HW122832   1.328   0.606   0.499
 7311SOL    HW222833   1.435   0.496   0.444
 7312SOL     OW22834   0.694   1.721   4.788
 7312SOL    HW122835   0.787   1.701   4.757
 7312SOL    HW222836   0.663   1.807   4.747
 7313SOL     OW22837   1.924   1.483   0.693
 7313SOL    HW122838   2.010   1.530   0.713
 7313SOL    HW222839   1.880   1.458   0.778
 7314SOL     OW22840   7.020   4.256   6.081
 7314SOL    HW122841   6.945   4.195   6.055
 7314SOL    HW222842   0.039   4.223   6.166
 7315SOL     OW22843   5.134   5.921   2.294
 7315SOL    HW122844   5.158   5.824   2.279
 7315SOL    HW222845   5.101   5.933   2.388
 7316SOL     OW22846   3.449   2.789   6.945
 7316SOL    HW122847   3.475   2.840   6.863
 7316SOL    HW222848   3.391   2.712   6.919
 7317SOL     OW22849   3.550   1.796   2.040
 7317SOL    HW122850   3.563   1.705   2.080
 7317SOL    HW222851   3.509   1.857   2.107
 7318SOL     OW22852   3.229   6.423   3.248
 7318SOL    HW122853   3.329   6.421   3.250
 7318SOL    HW222854   3.198   6.429   3.153
 7319SOL     OW22855   5.844   3.028   6.583
 7319SOL    HW122856   5.793   2.944   6.602
 7319SOL    HW222857   5.875   3.027   6.488
 7320SOL     OW22858   0.436   3.534   0.416
 7320SOL    HW122859   0.526   3.491   0.429
 7320SOL    HW222860   0.407   3.522   0.321
 7321SOL     OW22861   2.651   6.971   6.267
 7321SOL    HW122862   2.609   6.880   6.258
 7321SOL    HW222863   2.748   6.966   6.241
 7322SOL     OW22864   0.383   2.725   2.699
 7322SOL    HW122865   0.329   2.790   2.646
 7322SOL    HW222866   0.479   2.731   2.671
 7323SOL     OW22867   2.319   3.025   1.705
 7323SOL    HW122868   2.239   2.988   1.753
 7323SOL    HW222869   2.395   2.960   1.710
 7324SOL     OW22870   5.957   4.940   2.488
 7324SOL    HW122871   5.923   4.876   2.419
 7324SOL    HW222872   5.885   5.005   2.512
 7325SOL     OW22873   3.075   0.022   5.286
 7325SOL    HW122874   3.137   6.966   5.280
 7325SOL    HW222875   3.107   0.084   5.358
 7326SOL     OW22876   3.448   0.004   6.093
 7326SOL    HW122877   3.357   0.035   6.122
 7326SOL    HW222878   3.452   6.926   6.096
 7327SOL     OW22879   5.920   2.592   4.098
 7327SOL    HW122880   5.962   2.565   4.011
 7327SOL    HW222881   5.822   2.606   4.085
 7328SOL     OW22882   4.453   6.282   5.643
 7328SOL    HW122883   4.371   6.280   5.700
 7328SOL    HW222884   4.533   6.299   5.701
 7329SOL     OW22885   1.230   3.238   0.518
 7329SOL    HW122886   1.247   3.333   0.490
 7329SOL    HW222887   1.295   3.213   0.590
 7330SOL     OW22888   2.244   3.305   1.257
 7330SOL    HW122889   2.299   3.375   1.304
 7330SOL    HW222890   2.268   3.304   1.160
 7331SOL     OW22891   5.467   6.527   1.906
 7331SOL    HW122892   5.522   6.506   1.825
 7331SOL    HW222893   5.416   6.446   1.934
 7332SOL     OW22894   3.354   4.335   6.761
 7332SOL    HW122895   3.271   4.331   6.817
 7332SOL    HW222896   3.341   4.399   6.686
 7333SOL     OW22897   6.055   3.279   2.350
 7333SOL    HW122898   5.957   3.265   2.367
 7333SOL    HW222899   6.080   3.372   2.374
 7334SOL     OW22900   2.359   5.681   5.869
 7334SOL    HW122901   2.305   5.717   5.793
 7334SOL    HW222902   2.413   5.754   5.911
 7335SOL     OW22903   0.295   2.584   3.429
 7335SOL    HW122904   0.285   2.652   3.357
 7335SOL    HW222905   0.371   2.523   3.407
 7336SOL     OW22906   2.418   6.699   1.226
 7336SOL    HW122907   2.414   6.780   1.167
 7336SOL    HW222908   2.327   6.659   1.234
 7337SOL     OW22909   2.174   3.119   1.465
 7337SOL    HW122910   2.256   3.091   1.516
 7337SOL    HW222911   2.202   3.163   1.380
 7338SOL     OW22912   5.363   1.652   1.484
 7338SOL    HW122913   5.449   1.658   1.534
 7338SOL    HW222914   5.381   1.666   1.386
 7339SOL     OW22915   6.748   0.563   5.140
 7339SOL    HW122916   6.689   0.634   5.102
 7339SOL    HW222917   6.773   0.587   5.234
 7340SOL     OW22918   3.652   1.826   6.969
 7340SOL    HW122919   3.729   1.819   6.907
 7340SOL    HW222920   3.594   1.902   6.942
 7341SOL     OW22921   1.004   5.176   5.274
 7341SOL    HW122922   1.008   5.183   5.175
 7341SOL    HW222923   1.076   5.115   5.307
 7342SOL     OW22924   6.318   6.215   6.647
 7342SOL    HW122925   6.307   6.256   6.738
 7342SOL    HW222926   6.415   6.209   6.624
 7343SOL     OW22927   5.574   3.577   1.882
 7343SOL    HW122928   5.495   3.559   1.823
 7343SOL    HW222929   5.638   3.500   1.876
 7344SOL     OW22930   2.220   0.182   6.258
 7344SOL    HW122931   2.286   0.116   6.222
 7344SOL    HW222932   2.230   0.188   6.357
 7345SOL     OW22933   5.490   6.216   5.486
 7345SOL    HW122934   5.458   6.121   5.493
 7345SOL    HW222935   5.458   6.268   5.565
 7346SOL     OW22936   3.483   4.582   1.224
 7346SOL    HW122937   3.569   4.630   1.241
 7346SOL    HW222938   3.431   4.573   1.309
 7347SOL     OW22939   6.550   3.151   1.474
 7347SOL    HW122940   6.575   3.213   1.548
 7347SOL    HW222941   6.525   3.062   1.511
 7348SOL     OW22942   1.467   3.531   3.722
 7348SOL    HW122943   1.489   3.475   3.802
 7348SOL    HW222944   1.551   3.572   3.686
 7349SOL     OW22945   4.324   1.778   1.235
 7349SOL    HW122946   4.252   1.711   1.254
 7349SOL    HW222947   4.373   1.751   1.152
 7350SOL     OW22948   1.600   3.698   4.162
 7350SOL    HW122949   1.612   3.610   4.210
 7350SOL    HW222950   1.502   3.717   4.153
 7351SOL     OW22951   4.547   5.655   5.534
 7351SOL    HW122952   4.595   5.568   5.547
 7351SOL    HW222953   4.448   5.637   5.531
 7352SOL     OW22954   1.435   3.526   2.871
 7352SOL    HW122955   1.358   3.513   2.933
 7352SOL    HW222956   1.511   3.468   2.899
 7353SOL     OW22957   0.387   0.383   5.607
 7353SOL    HW122958   0.420   0.290   5.590
 7353SOL    HW222959   0.435   0.447   5.548
 7354SOL     OW22960   0.916   1.426   6.265
 7354SOL    HW122961   1.015   1.409   6.260
 7354SOL    HW222962   0.877   1.373   6.340
 7355SOL     OW22963   1.364   1.264   0.517
 7355SOL    HW122964   1.423   1.340   0.544
 7355SOL    HW222965   1.292   1.253   0.585
 7356SOL     OW22966   4.874   2.838   6.514
 7356SOL    HW122967   4.966   2.839   6.553
 7356SOL    HW222968   4.865   2.763   6.449
 7357SOL     OW22969   4.128   1.138   1.558
 7357SOL    HW122970   4.188   1.090   1.494
 7357SOL    HW222971   4.178   1.157   1.642
 7358SOL     OW22972   1.532   2.858   2.097
 7358SOL    HW122973   1.441   2.825   2.074
 7358SOL    HW222974   1.589   2.857   2.015
 7359SOL     OW22975   2.873   2.752   0.742
 7359SOL    HW122976   2.880   2.829   0.807
 7359SOL    HW222977   2.964   2.727   0.710
 7360SOL     OW22978   3.487   2.865   5.577
 7360SOL    HW122979   3.441   2.936   5.523
 7360SOL    HW222980   3.508   2.787   5.517
 7361SOL     OW22981   4.450   0.175   1.733
 7361SOL    HW122982   4.502   0.223   1.804
 7361SOL    HW222983   4.444   0.078   1.756
 7362SOL     OW22984   0.688   6.498   4.843
 7362SOL    HW122985   0.602   6.448   4.833
 7362SOL    HW222986   0.762   6.447   4.799
 7363SOL     OW22987   3.730   1.702   1.042
 7363SOL    HW122988   3.776   1.782   1.002
 7363SOL    HW222989   3.640   1.729   1.075
 7364SOL     OW22990   4.089   0.443   1.450
 7364SOL    HW122991   4.163   0.376   1.450
 7364SOL    HW222992   4.027   0.424   1.375
 7365SOL     OW22993   1.510   6.092   2.091
 7365SOL    HW122994   1.459   6.100   2.006
 7365SOL    HW222995   1.458   6.134   2.166
 7366SOL     OW22996   1.949   5.366   0.624
 7366SOL    HW122997   1.975   5.269   0.622
 7366SOL    HW222998   1.978   5.410   0.539
 7367SOL     OW22999   4.949   3.871   1.287
 7367SOL    HW123000   4.941   3.968   1.266
 7367SOL    HW223001   4.858   3.831   1.296
 7368SOL     OW23002   3.871   2.971   3.666
 7368SOL    HW123003   3.788   2.927   3.701
 7368SOL    HW223004   3.900   3.043   3.729
 7369SOL     OW23005   4.377   3.366   0.582
 7369SOL    HW123006   4.291   3.398   0.543
 7369SOL    HW223007   4.359   3.295   0.651
 7370SOL     OW23008   2.316   0.832   5.139
 7370SOL    HW123009   2.380   0.768   5.096
 7370SOL    HW223010   2.229   0.785   5.157
 7371SOL     OW23011   2.199   6.317   3.725
 7371SOL    HW123012   2.165   6.409   3.704
 7371SOL    HW223013   2.247   6.281   3.646
 7372SOL     OW23014   2.815   1.556   5.792
 7372SOL    HW123015   2.802   1.640   5.739
 7372SOL    HW223016   2.913   1.536   5.799
 7373SOL     OW23017   5.536   1.255   4.473
 7373SOL    HW123018   5.542   1.156   4.474
 7373SOL    HW223019   5.563   1.290   4.383
 7374SOL     OW23020   2.855   2.392   5.380
 7374SOL    HW123021   2.903   2.347   5.455
 7374SOL    HW223022   2.866   2.491   5.388
 7375SOL     OW23023   1.769   3.243   3.169
 7375SOL    HW123024   1.813   3.184   3.101
 7375SOL    HW223025   1.736   3.188   3.245
 7376SOL     OW23026   4.045   1.773   6.973
 7376SOL    HW123027   3.978   1.812   0.015
 7376SOL    HW223028   4.115   1.725   0.004
 7377SOL     OW23029   5.511   5.391   1.836
 7377SOL    HW123030   5.460   5.441   1.906
 7377SOL    HW223031   5.594   5.353   1.877
 7378SOL     OW23032   0.182   1.576   5.443
 7378SOL    HW123033   0.137   1.486   5.442
 7378SOL    HW223034   0.219   1.596   5.352
 7379SOL     OW23035   4.005   2.003   3.038
 7379SOL    HW123036   4.060   2.013   2.955
 7379SOL    HW223037   4.039   2.066   3.108
 7380SOL     OW23038   6.726   3.142   5.197
 7380SOL    HW123039   6.692   3.152   5.104
 7380SOL    HW223040   6.735   3.233   5.239
 7381SOL     OW23041   5.183   4.141   2.120
 7381SOL    HW123042   5.225   4.229   2.140
 7381SOL    HW223043   5.205   4.113   2.027
 7382SOL     OW23044   0.388   5.741   6.061
 7382SOL    HW123045   0.305   5.685   6.066
 7382SOL    HW223046   0.370   5.831   6.101
 7383SOL     OW23047   0.729   6.539   1.328
 7383SOL    HW123048   0.642   6.491   1.343
 7383SOL    HW223049   0.799   6.473   1.301
 7384SOL     OW23050   5.859   0.716   2.160
 7384SOL    HW123051   5.764   0.721   2.191
 7384SOL    HW223052   5.865   0.659   2.078
 7385SOL     OW23053   4.024   5.856   1.948
 7385SOL    HW123054   3.995   5.911   2.026
 7385SOL    HW223055   3.961   5.869   1.872
 7386SOL     OW23056   0.086   2.174   5.583
 7386SOL    HW123057   0.013   2.209   5.524
 7386SOL    HW223058   0.170   2.164   5.530
 7387SOL     OW23059   4.265   6.858   4.452
 7387SOL    HW123060   4.297   6.878   4.360
 7387SOL    HW223061   4.228   6.765   4.455
 7388SOL     OW23062   0.591   4.960   3.238
 7388SOL    HW123063   0.622   4.915   3.322
 7388SOL    HW223064   0.504   5.007   3.257
 7389SOL     OW23065   1.065   4.417   6.602
 7389SOL    HW123066   1.068   4.472   6.686
 7389SOL    HW223067   0.990   4.450   6.544
 7390SOL     OW23068   2.101   1.206   6.997
 7390SOL    HW123069   2.065   1.143   0.044
 7390SOL    HW223070   2.125   1.292   0.019
 7391SOL     OW23071   5.238   4.423   4.938
 7391SOL    HW123072   5.198   4.355   4.876
 7391SOL    HW223073   5.207   4.406   5.031
 7392SOL     OW23074   2.869   6.123   7.014
 7392SOL    HW123075   2.872   6.221   0.009
 7392SOL    HW223076   2.828   6.077   0.070
 7393SOL     OW23077   5.395   4.720   1.436
 7393SOL    HW123078   5.321   4.653   1.442
 7393SOL    HW223079   5.386   4.786   1.511
 7394SOL     OW23080   2.863   2.592   6.028
 7394SOL    HW123081   2.824   2.650   5.957
 7394SOL    HW223082   2.789   2.554   6.084
 7395SOL     OW23083   2.680   1.655   6.999
 7395SOL    HW123084   2.778   1.665   7.013
 7395SOL    HW223085   2.637   1.621   0.061
 7396SOL     OW23086   0.823   6.991   0.611
 7396SOL    HW123087   0.729   6.965   0.589
 7396SOL    HW223088   0.872   7.015   0.527
 7397SOL     OW23089   4.839   5.048   5.168
 7397SOL    HW123090   4.914   4.983   5.179
 7397SOL    HW223091   4.752   5.000   5.168
 7398SOL     OW23092   2.964   5.197   4.309
 7398SOL    HW123093   3.043   5.226   4.363
 7398SOL    HW223094   2.882   5.247   4.339
 7399SOL     OW23095   1.199   3.004   5.944
 7399SOL    HW123096   1.246   3.066   6.007
 7399SOL    HW223097   1.215   2.910   5.973
 7400SOL     OW23098   3.325   3.245   6.032
 7400SOL    HW123099   3.229   3.272   6.039
 7400SOL    HW223100   3.331   3.154   5.990
 7401SOL     OW23101   0.769   0.798   3.768
 7401SOL    HW123102   0.818   0.885   3.760
 7401SOL    HW223103   0.803   0.748   3.848
 7402SOL     OW23104   2.565   5.239   5.902
 7402SOL    HW123105   2.663   5.257   5.903
 7402SOL    HW223106   2.517   5.314   5.858
 7403SOL     OW23107   1.605   4.210   2.904
 7403SOL    HW123108   1.668   4.272   2.858
 7403SOL    HW223109   1.559   4.153   2.835
 7404SOL     OW23110   3.000   5.244   1.213
 7404SOL    HW123111   2.988   5.215   1.118
 7404SOL    HW223112   2.953   5.331   1.228
 7405SOL     OW23113   2.986   4.815   4.456
 7405SOL    HW123114   2.960   4.862   4.540
 7405SOL    HW223115   2.943   4.725   4.454
 7406SOL     OW23116   1.017   3.037   3.437
 7406SOL    HW123117   0.951   3.093   3.489
 7406SOL    HW223118   1.057   2.969   3.498
 7407SOL     OW23119   0.330   5.882   4.832
 7407SOL    HW123120   0.273   5.879   4.914
 7407SOL    HW223121   0.275   5.856   4.752
 7408SOL     OW23122   1.582   3.272   6.331
 7408SOL    HW123123   1.567   3.210   6.254
 7408SOL    HW223124   1.566   3.366   6.301
 7409SOL     OW23125   0.699   1.266   5.059
 7409SOL    HW123126   0.737   1.174   5.067
 7409SOL    HW223127   0.763   1.332   5.100
 7410SOL     OW23128   0.552   4.765   1.530
 7410SOL    HW123129   0.464   4.778   1.578
 7410SOL    HW223130   0.625   4.755   1.598
 7411SOL     OW23131   2.837   6.659   4.383
 7411SOL    HW123132   2.884   6.680   4.469
 7411SOL    HW223133   2.848   6.736   4.320
 7412SOL     OW23134   4.147   0.052   2.927
 7412SOL    HW123135   4.170   0.060   2.830
 7412SOL    HW223136   4.112   0.140   2.960
 7413SOL     OW23137   4.877   5.285   5.040
 7413SOL    HW123138   4.885   5.205   5.099
 7413SOL    HW223139   4.864   5.367   5.095
 7414SOL     OW23140   0.139   6.613   4.068
 7414SOL    HW123141   0.235   6.588   4.075
 7414SOL    HW223142   0.126   6.675   3.990
 7415SOL     OW23143   1.227   3.783   2.817
 7415SOL    HW123144   1.291   3.819   2.885
 7415SOL    HW223145   1.252   3.689   2.794
 7416SOL     OW23146   3.096   0.958   3.631
 7416SOL    HW123147   3.151   0.959   3.547
 7416SOL    HW223148   3.087   0.864   3.663
 7417SOL     OW23149   2.183   0.377   5.762
 7417SOL    HW123150   2.214   0.342   5.851
 7417SOL    HW223151   2.084   0.393   5.765
 7418SOL     OW23152   3.609   5.609   0.437
 7418SOL    HW123153   3.513   5.619   0.408
 7418SOL    HW223154   3.613   5.555   0.521
 7419SOL     OW23155   6.476   2.336   5.295
 7419SOL    HW123156   6.570   2.311   5.316
 7419SOL    HW223157   6.436   2.386   5.371
 7420SOL     OW23158   6.995   6.880   1.708
 7420SOL    HW123159   6.966   6.862   1.802
 7420SOL    HW223160   6.937   6.828   1.645
 7421SOL     OW23161   3.432   3.518   1.228
 7421SOL    HW123162   3.485   3.450   1.279
 7421SOL    HW223163   3.495   3.578   1.179
 7422SOL     OW23164   0.349   3.057   2.477
 7422SOL    HW123165   0.387   3.003   2.401
 7422SOL    HW223166   0.367   3.154   2.461
 7423SOL     OW23167   6.920   4.680   5.723
 7423SOL    HW123168   6.952   4.702   5.631
 7423SOL    HW223169   6.999   4.667   5.783
 7424SOL     OW23170   0.059   0.289   5.041
 7424SOL    HW123171   0.120   0.255   4.969
 7424SOL    HW223172   0.113   0.340   5.108
 7425SOL     OW23173   4.626   5.967   6.496
 7425SOL    HW123174   4.560   6.022   6.548
 7425SOL    HW223175   4.710   6.019   6.484
 7426SOL     OW23176   1.750   1.284   6.649
 7426SOL    HW123177   1.847   1.261   6.648
 7426SOL    HW223178   1.740   1.384   6.654
 7427SOL     OW23179   3.397   6.351   4.020
 7427SOL    HW123180   3.303   6.357   4.054
 7427SOL    HW223181   3.430   6.443   3.999
 7428SOL     OW23182   3.879   1.326   5.983
 7428SOL    HW123183   3.858   1.228   5.982
 7428SOL    HW223184   3.886   1.357   6.078
 7429SOL     OW23185   6.065   6.586   3.498
 7429SOL    HW123186   5.981   6.591   3.552
 7429SOL    HW223187   6.110   6.675   3.498
 7430SOL     OW23188   0.184   3.807   5.815
 7430SOL    HW123189   0.272   3.813   5.768
 7430SOL    HW223190   0.146   3.899   5.827
 7431SOL     OW23191   0.364   3.157   2.753
 7431SOL    HW123192   0.361   3.125   2.659
 7431SOL    HW223193   0.276   3.138   2.797
 7432SOL     OW23194   6.927   0.271   3.435
 7432SOL    HW123195   7.006   0.212   3.449
 7432SOL    HW223196   6.844   0.223   3.464
 7433SOL     OW23197   5.641   5.128   7.011
 7433SOL    HW123198   5.558   5.168   6.972
 7433SOL    HW223199   5.694   5.199   0.036
 7434SOL     OW23200   4.724   0.468   6.135
 7434SOL    HW123201   4.719   0.521   6.219
 7434SOL    HW223202   4.817   0.471   6.099
 7435SOL     OW23203   3.836   5.606   0.904
 7435SOL    HW123204   3.912   5.542   0.916
 7435SOL    HW223205   3.869   5.699   0.919
 7436SOL     OW23206   5.720   3.207   6.283
 7436SOL    HW123207   5.652   3.236   6.216
 7436SOL    HW223208   5.720   3.107   6.289
 7437SOL     OW23209   0.412   6.038   0.520
 7437SOL    HW123210   0.326   6.083   0.496
 7437SOL    HW223211   0.469   6.101   0.572
 7438SOL     OW23212   0.869   5.423   0.643
 7438SOL    HW123213   0.944   5.432   0.578
 7438SOL    HW223214   0.899   5.371   0.723
 7439SOL     OW23215   1.568   6.178   4.933
 7439SOL    HW123216   1.593   6.130   4.849
 7439SOL    HW223217   1.624   6.260   4.942
 7440SOL     OW23218   0.807   3.504   4.217
 7440SOL    HW123219   0.892   3.479   4.171
 7440SOL    HW223220   0.758   3.572   4.161
 7441SOL     OW23221   4.599   5.932   4.520
 7441SOL    HW123222   4.646   5.868   4.580
 7441SOL    HW223223   4.522   5.885   4.475
 7442SOL     OW23224   0.698   0.947   6.377
 7442SOL    HW123225   0.689   0.918   6.282
 7442SOL    HW223226   0.649   0.884   6.437
 7443SOL     OW23227   0.433   0.726   2.042
 7443SOL    HW123228   0.437   0.667   2.123
 7443SOL    HW223229   0.408   0.819   2.070
 7444SOL     OW23230   6.411   3.292   4.501
 7444SOL    HW123231   6.419   3.194   4.518
 7444SOL    HW223232   6.344   3.331   4.564
 7445SOL     OW23233   3.188   0.979   1.291
 7445SOL    HW123234   3.133   0.934   1.221
 7445SOL    HW223235   3.284   0.953   1.280
 7446SOL     OW23236   5.457   3.659   1.081
 7446SOL    HW123237   5.409   3.658   0.993
 7446SOL    HW223238   5.406   3.604   1.147
 7447SOL     OW23239   1.076   3.092   5.688
 7447SOL    HW123240   1.152   3.110   5.626
 7447SOL    HW223241   1.111   3.053   5.774
 7448SOL     OW23242   6.216   6.777   5.173
 7448SOL    HW123243   6.193   6.724   5.255
 7448SOL    HW223244   6.212   6.718   5.093
 7449SOL     OW23245   6.749   2.604   1.926
 7449SOL    HW123246   6.717   2.576   1.835
 7449SOL    HW223247   6.696   2.557   1.996
 7450SOL     OW23248   5.146   1.898   4.250
 7450SOL    HW123249   5.088   1.944   4.182
 7450SOL    HW223250   5.235   1.879   4.210
 7451SOL     OW23251   1.141   6.207   2.983
 7451SOL    HW123252   1.180   6.191   2.893
 7451SOL    HW223253   1.206   6.258   3.039
 7452SOL     OW23254   0.284   6.338   5.467
 7452SOL    HW123255   0.257   6.406   5.399
 7452SOL    HW223256   0.383   6.330   5.470
 7453SOL     OW23257   4.569   6.086   5.478
 7453SOL    HW123258   4.522   6.130   5.554
 7453SOL    HW223259   4.503   6.068   5.404
 7454SOL     OW23260   1.082   2.408   1.480
 7454SOL    HW123261   1.005   2.465   1.450
 7454SOL    HW223262   1.168   2.451   1.451
 7455SOL     OW23263   0.315   1.860   1.982
 7455SOL    HW123264   0.287   1.908   2.065
 7455SOL    HW223265   0.246   1.873   1.911
 7456SOL     OW23266   0.648   2.164   4.246
 7456SOL    HW123267   0.668   2.201   4.155
 7456SOL    HW223268   0.673   2.231   4.316
 7457SOL     OW23269   3.690   0.927   5.275
 7457SOL    HW123270   3.726   0.839   5.304
 7457SOL    HW223271   3.678   0.927   5.176
 7458SOL     OW23272   2.428   6.910   6.520
 7458SOL    HW123273   2.499   6.902   6.450
 7458SOL    HW223274   2.467   6.952   6.601
 7459SOL     OW23275   4.516   0.914   1.236
 7459SOL    HW123276   4.542   0.947   1.145
 7459SOL    HW223277   4.548   0.820   1.248
 7460SOL     OW23278   1.796   4.436   1.243
 7460SOL    HW123279   1.723   4.435   1.174
 7460SOL    HW223280   1.756   4.429   1.334
 7461SOL     OW23281   6.272   1.677   5.789
 7461SOL    HW123282   6.276   1.732   5.872
 7461SOL    HW223283   6.234   1.587   5.810
 7462SOL     OW23284   1.194   4.106   2.899
 7462SOL    HW123285   1.197   4.046   2.819
 7462SOL    HW223286   1.243   4.062   2.974
 7463SOL     OW23287   2.788   5.123   1.036
 7463SOL    HW123288   2.756   5.218   1.046
 7463SOL    HW223289   2.817   5.107   0.942
 7464SOL     OW23290   4.406   0.462   6.666
 7464SOL    HW123291   4.505   0.456   6.655
 7464SOL    HW223292   4.385   0.512   6.750
 7465SOL     OW23293   1.198   6.879   0.305
 7465SOL    HW123294   1.271   6.862   0.371
 7465SOL    HW223295   1.149   6.962   0.330
 7466SOL     OW23296   0.433   0.436   5.891
 7466SOL    HW123297   0.464   0.531   5.882
 7466SOL    HW223298   0.408   0.400   5.802
 7467SOL     OW23299   6.699   1.945   0.186
 7467SOL    HW123300   6.719   2.042   0.201
 7467SOL    HW223301   6.602   1.933   0.166
 7468SOL     OW23302   6.670   2.821   2.824
 7468SOL    HW123303   6.602   2.804   2.895
 7468SOL    HW223304   6.759   2.786   2.854
 7469SOL     OW23305   6.909   0.453   0.224
 7469SOL    HW123306   6.947   0.390   0.291
 7469SOL    HW223307   6.844   0.514   0.269
 7470SOL     OW23308   0.075   2.764   3.773
 7470SOL    HW123309   0.012   2.842   3.778
 7470SOL    HW223310   0.028   2.686   3.732
 7471SOL     OW23311   6.632   6.235   5.739
 7471SOL    HW123312   6.724   6.228   5.700
 7471SOL    HW223313   6.574   6.163   5.700
 7472SOL     OW23314   5.931   6.970   4.431
 7472SOL    HW123315   5.923   6.879   4.392
 7472SOL    HW223316   5.839   7.006   4.450
 7473SOL     OW23317   6.740   4.669   2.788
 7473SOL    HW123318   6.696   4.679   2.877
 7473SOL    HW223319   6.671   4.674   2.716
 7474SOL     OW23320   2.442   1.664   5.320
 7474SOL    HW123321   2.353   1.628   5.348
 7474SOL    HW223322   2.430   1.731   5.247
 7475SOL     OW23323   3.799   0.908   2.775
 7475SOL    HW123324   3.871   0.920   2.706
 7475SOL    HW223325   3.838   0.863   2.855
 7476SOL     OW23326   3.370   5.194   3.894
 7476SOL    HW123327   3.287   5.173   3.947
 7476SOL    HW223328   3.343   5.234   3.807
 7477SOL     OW23329   6.855   1.413   4.613
 7477SOL    HW123330   6.927   1.455   4.668
 7477SOL    HW223331   6.845   1.317   4.640
 7478SOL     OW23332   4.403   4.792   6.667
 7478SOL    HW123333   4.427   4.696   6.679
 7478SOL    HW223334   4.409   4.816   6.570
 7479SOL     OW23335   4.085   2.618   1.670
 7479SOL    HW123336   4.142   2.584   1.595
 7479SOL    HW223337   4.027   2.544   1.704
 7480SOL     OW23338   6.920   3.726   1.953
 7480SOL    HW123339   6.930   3.693   1.859
 7480SOL    HW223340   6.823   3.728   1.978
 7481SOL     OW23341   6.162   5.582   1.791
 7481SOL    HW123342   6.171   5.627   1.880
 7481SOL    HW223343   6.241   5.524   1.775
 7482SOL     OW23344   4.729   2.185   3.535
 7482SOL    HW123345   4.809   2.166   3.478
 7482SOL    HW223346   4.755   2.244   3.611
 7483SOL     OW23347   4.752   2.359   4.991
 7483SOL    HW123348   4.707   2.447   4.974
 7483SOL    HW223349   4.832   2.374   5.049
 7484SOL     OW23350   0.772   1.263   3.639
 7484SOL    HW123351   0.801   1.169   3.656
 7484SOL    HW223352   0.834   1.326   3.685
 7485SOL     OW23353   3.197   0.183   4.285
 7485SOL    HW123354   3.111   0.211   4.244
 7485SOL    HW223355   3.220   0.243   4.362
 7486SOL     OW23356   2.874   0.380   5.703
 7486SOL    HW123357   2.816   0.327   5.765
 7486SOL    HW223358   2.879   0.333   5.614
 7487SOL     OW23359   2.616   5.954   2.776
 7487SOL    HW123360   2.696   5.904   2.809
 7487SOL    HW223361   2.590   6.023   2.843
 7488SOL     OW23362   2.149   6.858   4.549
 7488SOL    HW123363   2.090   6.914   4.490
 7488SOL    HW223364   2.093   6.803   4.610
 7489SOL     OW23365   5.453   2.105   4.884
 7489SOL    HW123366   5.455   2.137   4.979
 7489SOL    HW223367   5.424   2.180   4.824
 7490SOL     OW23368   0.390   0.834   1.239
 7490SOL    HW123369   0.315   0.894   1.211
 7490SOL    HW223370   0.384   0.817   1.338
 7491SOL     OW23371   6.205   3.352   6.112
 7491SOL    HW123372   6.286   3.411   6.106
 7491SOL    HW223373   6.184   3.315   6.021
 7492SOL     OW23374   2.054   0.607   3.760
 7492SOL    HW123375   2.133   0.562   3.719
 7492SOL    HW223376   2.033   0.564   3.848
 7493SOL     OW23377   6.503   3.930   0.009
 7493SOL    HW123378   6.482   3.842   6.989
 7493SOL    HW223379   6.578   3.973   6.981
 7494SOL     OW23380   5.467   0.712   2.957
 7494SOL    HW123381   5.548   0.666   2.994
 7494SOL    HW223382   5.439   0.666   2.873
 7495SOL     OW23383   1.811   0.735   0.535
 7495SOL    HW123384   1.870   0.810   0.506
 7495SOL    HW223385   1.795   0.740   0.633
 7496SOL     OW23386   0.125   3.289   5.868
 7496SOL    HW123387   0.098   3.385   5.878
 7496SOL    HW223388   0.170   3.276   5.780
 7497SOL     OW23389   2.502   4.676   0.917
 7497SOL    HW123390   2.513   4.621   1.000
 7497SOL    HW223391   2.576   4.743   0.912
 7498SOL     OW23392   2.156   1.242   5.509
 7498SOL    HW123393   2.113   1.158   5.474
 7498SOL    HW223394   2.254   1.228   5.517
 7499SOL     OW23395   4.215   2.072   2.852
 7499SOL    HW123396   4.219   2.167   2.882
 7499SOL    HW223397   4.265   2.061   2.766
 7500SOL     OW23398   3.572   5.412   4.495
 7500SOL    HW123399   3.663   5.454   4.494
 7500SOL    HW223400   3.577   5.323   4.542
 7501SOL     OW23401   5.917   3.835   3.823
 7501SOL    HW123402   5.893   3.926   3.791
 7501SOL    HW223403   5.872   3.766   3.765
 7502SOL     OW23404   1.432   0.020   4.694
 7502SOL    HW123405   1.511   0.082   4.687
 7502SOL    HW223406   1.461   6.948   4.674
 7503SOL     OW23407   2.880   1.633   0.826
 7503SOL    HW123408   2.805   1.643   0.761
 7503SOL    HW223409   2.882   1.540   0.862
 7504SOL     OW23410   1.996   7.012   2.890
 7504SOL    HW123411   2.095   7.019   2.876
 7504SOL    HW223412   1.950   7.018   2.801
 7505SOL     OW23413   2.327   2.049   5.596
 7505SOL    HW123414   2.330   2.120   5.666
 7505SOL    HW223415   2.233   2.016   5.586
 7506SOL     OW23416   4.915   0.293   3.202
 7506SOL    HW123417   4.921   0.193   3.195
 7506SOL    HW223418   4.846   0.318   3.269
 7507SOL     OW23419   0.609   0.334   2.644
 7507SOL    HW123420   0.665   0.252   2.630
 7507SOL    HW223421   0.628   0.372   2.734
 7508SOL     OW23422   0.301   6.692   2.094
 7508SOL    HW123423   0.315   6.679   1.996
 7508SOL    HW223424   0.273   6.787   2.110
 7509SOL     OW23425   5.532   4.080   0.474
 7509SOL    HW123426   5.546   4.106   0.378
 7509SOL    HW223427   5.435   4.089   0.498
 7510SOL     OW23428   3.664   4.654   5.347
 7510SOL    HW123429   3.663   4.719   5.271
 7510SOL    HW223430   3.671   4.561   5.312
 7511SOL     OW23431   1.854   6.863   3.798
 7511SOL    HW123432   1.795   6.944   3.803
 7511SOL    HW223433   1.850   6.813   3.885
 7512SOL     OW23434   2.683   5.246   0.074
 7512SOL    HW123435   2.610   5.201   0.023
 7512SOL    HW223436   2.654   5.338   0.101
 7513SOL     OW23437   2.081   1.280   1.909
 7513SOL    HW123438   2.150   1.239   1.969
 7513SOL    HW223439   2.104   1.263   1.813
 7514SOL     OW23440   2.093   5.537   1.482
 7514SOL    HW123441   2.187   5.550   1.512
 7514SOL    HW223442   2.030   5.558   1.557
 7515SOL     OW23443   0.497   4.883   1.911
 7515SOL    HW123444   0.524   4.792   1.942
 7515SOL    HW223445   0.420   4.916   1.965
 7516SOL     OW23446   6.467   5.972   5.195
 7516SOL    HW123447   6.532   6.018   5.255
 7516SOL    HW223448   6.453   5.878   5.226
 7517SOL     OW23449   0.059   3.083   0.659
 7517SOL    HW123450   0.043   3.031   0.575
 7517SOL    HW223451   0.091   3.021   0.731
 7518SOL     OW23452   4.417   5.210   3.288
 7518SOL    HW123453   4.321   5.236   3.279
 7518SOL    HW223454   4.456   5.254   3.368
 7519SOL     OW23455   6.393   6.839   4.279
 7519SOL    HW123456   6.470   6.899   4.304
 7519SOL    HW223457   6.428   6.750   4.251
 7520SOL     OW23458   3.485   0.075   2.221
 7520SOL    HW123459   3.546   0.093   2.299
 7520SOL    HW223460   3.456   0.162   2.181
 7521SOL     OW23461   4.704   4.570   6.054
 7521SOL    HW123462   4.696   4.588   5.956
 7521SOL    HW223463   4.613   4.566   6.095
 7522SOL     OW23464   2.239   0.256   6.542
 7522SOL    HW123465   2.158   0.308   6.568
 7522SOL    HW223466   2.270   0.203   6.621
 7523SOL     OW23467   5.514   0.120   5.809
 7523SOL    HW123468   5.507   0.041   5.748
 7523SOL    HW223469   5.513   0.089   5.904
 7524SOL     OW23470   1.684   1.737   5.938
 7524SOL    HW123471   1.696   1.650   5.985
 7524SOL    HW223472   1.766   1.793   5.951
 7525SOL     OW23473   3.216   0.925   6.336
 7525SOL    HW123474   3.279   0.988   6.381
 7525SOL    HW223475   3.149   0.977   6.283
 7526SOL     OW23476   3.117   3.302   1.684
 7526SOL    HW123477   3.120   3.271   1.589
 7526SOL    HW223478   3.027   3.341   1.704
 7527SOL     OW23479   4.402   5.700   2.800
 7527SOL    HW123480   4.388   5.606   2.830
 7527SOL    HW223481   4.319   5.734   2.755
 7528SOL     OW23482   5.561   1.778   0.301
 7528SOL    HW123483   5.617   1.798   0.221
 7528SOL    HW223484   5.490   1.712   0.276
 7529SOL     OW23485   5.768   0.171   4.087
 7529SOL    HW123486   5.724   0.082   4.073
 7529SOL    HW223487   5.707   0.230   4.141
 7530SOL     OW23488   0.191   3.748   2.227
 7530SOL    HW123489   0.141   3.681   2.171
 7530SOL    HW223490   0.237   3.813   2.166
 7531SOL     OW23491   4.508   2.438   4.216
 7531SOL    HW123492   4.594   2.399   4.183
 7531SOL    HW223493   4.435   2.418   4.150
 7532SOL     OW23494   5.325   4.446   1.465
 7532SOL    HW123495   5.405   4.445   1.405
 7532SOL    HW223496   5.354   4.438   1.560
 7533SOL     OW23497   2.182   2.129   2.250
 7533SOL    HW123498   2.208   2.048   2.302
 7533SOL    HW223499   2.168   2.206   2.312
 7534SOL     OW23500   4.391   6.060   5.262
 7534SOL    HW123501   4.396   6.160   5.264
 7534SOL    HW223502   4.467   6.024   5.208
 7535SOL     OW23503   2.675   0.200   5.814
 7535SOL    HW123504   2.640   0.218   5.906
 7535SOL    HW223505   2.709   0.106   5.809
 7536SOL     OW23506   4.767   4.435   4.831
 7536SOL    HW123507   4.760   4.358   4.894
 7536SOL    HW223508   4.736   4.518   4.878
 7537SOL     OW23509   3.394   4.903   2.791
 7537SOL    HW123510   3.298   4.880   2.777
 7537SOL    HW223511   3.421   4.879   2.884
 7538SOL     OW23512   2.783   3.246   1.862
 7538SOL    HW123513   2.823   3.160   1.833
 7538SOL    HW223514   2.688   3.252   1.831
 7539SOL     OW23515   1.079   2.822   4.285
 7539SOL    HW123516   1.043   2.861   4.200
 7539SOL    HW223517   1.148   2.753   4.264
 7540SOL     OW23518   4.214   6.768   5.300
 7540SOL    HW123519   4.173   6.796   5.387
 7540SOL    HW223520   4.244   6.849   5.250
 7541SOL     OW23521   6.917   4.424   4.185
 7541SOL    HW123522   6.981   4.364   4.137
 7541SOL    HW223523   6.825   4.411   4.148
 7542SOL     OW23524   0.879   5.784   6.779
 7542SOL    HW123525   0.899   5.802   6.875
 7542SOL    HW223526   0.843   5.691   6.769
 7543SOL     OW23527   3.502   2.125   0.438
 7543SOL    HW123528   3.444   2.205   0.453
 7543SOL    HW223529   3.525   2.117   0.341
 7544SOL     OW23530   0.297   2.265   3.168
 7544SOL    HW123531   0.259   2.277   3.260
 7544SOL    HW223532   0.383   2.215   3.174
 7545SOL     OW23533   6.360   5.864   1.611
 7545SOL    HW123534   6.447   5.887   1.566
 7545SOL    HW223535   6.379   5.820   1.698
 7546SOL     OW23536   3.034   1.582   2.078
 7546SOL    HW123537   3.105   1.565   2.010
 7546SOL    HW223538   3.067   1.648   2.145
 7547SOL     OW23539   4.796   1.265   0.237
 7547SOL    HW123540   4.788   1.278   0.335
 7547SOL    HW223541   4.783   1.352   0.190
 7548SOL     OW23542   4.020   2.419   0.369
 7548SOL    HW123543   3.986   2.512   0.358
 7548SOL    HW223544   3.972   2.374   0.445
 7549SOL     OW23545   6.047   2.071   1.153
 7549SOL    HW123546   6.073   2.022   1.236
 7549SOL    HW223547   5.995   2.011   1.093
 7550SOL     OW23548   2.536   4.505   2.556
 7550SOL    HW123549   2.579   4.565   2.624
 7550SOL    HW223550   2.576   4.523   2.466
 7551SOL     OW23551   4.999   3.831   6.607
 7551SOL    HW123552   5.001   3.732   6.618
 7551SOL    HW223553   5.066   3.873   6.668
 7552SOL     OW23554   1.366   5.430   3.400
 7552SOL    HW123555   1.390   5.413   3.496
 7552SOL    HW223556   1.272   5.398   3.384
 7553SOL     OW23557   4.349   5.659   5.146
 7553SOL    HW123558   4.284   5.734   5.161
 7553SOL    HW223559   4.433   5.676   5.198
 7554SOL     OW23560   4.380   1.690   1.654
 7554SOL    HW123561   4.291   1.718   1.621
 7554SOL    HW223562   4.431   1.645   1.580
 7555SOL     OW23563   1.645   4.823   5.529
 7555SOL    HW123564   1.648   4.765   5.447
 7555SOL    HW223565   1.702   4.904   5.514
 7556SOL     OW23566   0.761   2.872   6.211
 7556SOL    HW123567   0.749   2.897   6.308
 7556SOL    HW223568   0.826   2.935   6.169
 7557SOL     OW23569   5.213   2.000   6.293
 7557SOL    HW123570   5.238   2.096   6.302
 7557SOL    HW223571   5.287   1.949   6.249
 7558SOL     OW23572   1.546   2.525   4.562
 7558SOL    HW123573   1.616   2.509   4.631
 7558SOL    HW223574   1.576   2.489   4.474
 7559SOL     OW23575   5.988   4.703   6.817
 7559SOL    HW123576   6.071   4.758   6.820
 7559SOL    HW223577   5.909   4.760   6.841
 7560SOL     OW23578   4.901   6.821   1.254
 7560SOL    HW123579   4.874   6.892   1.318
 7560SOL    HW223580   4.985   6.778   1.286
 7561SOL     OW23581   1.202   3.279   6.891
 7561SOL    HW123582   1.207   3.365   6.941
 7561SOL    HW223583   1.285   3.267   6.837
 7562SOL     OW23584   6.297   6.217   4.404
 7562SOL    HW123585   6.293   6.119   4.428
 7562SOL    HW223586   6.260   6.271   4.480
 7563SOL     OW23587   1.979   6.672   0.897
 7563SOL    HW123588   1.928   6.714   0.972
 7563SOL    HW223589   2.036   6.598   0.933
 7564SOL     OW23590   4.837   1.310   2.994
 7564SOL    HW123591   4.821   1.366   2.913
 7564SOL    HW223592   4.931   1.324   3.026
 7565SOL     OW23593   6.108   3.244   0.619
 7565SOL    HW123594   6.015   3.276   0.603
 7565SOL    HW223595   6.116   3.209   0.712
 7566SOL     OW23596   6.679   4.734   3.054
 7566SOL    HW123597   6.770   4.754   3.091
 7566SOL    HW223598   6.634   4.664   3.111
 7567SOL     OW23599   1.564   2.177   5.157
 7567SOL    HW123600   1.614   2.250   5.111
 7567SOL    HW223601   1.500   2.217   5.223
 7568SOL     OW23602   5.510   6.816   2.849
 7568SOL    HW123603   5.521   6.747   2.920
 7568SOL    HW223604   5.413   6.823   2.824
 7569SOL     OW23605   3.566   6.359   6.351
 7569SOL    HW123606   3.501   6.432   6.374
 7569SOL    HW223607   3.595   6.369   6.256
 7570SOL     OW23608   5.508   4.431   4.944
 7570SOL    HW123609   5.533   4.389   5.031
 7570SOL    HW223610   5.411   4.413   4.925
 7571SOL     OW23611   5.459   5.504   3.819
 7571SOL    HW123612   5.449   5.549   3.730
 7571SOL    HW223613   5.474   5.573   3.890
 7572SOL     OW23614   4.061   0.736   1.934
 7572SOL    HW123615   4.152   0.699   1.914
 7572SOL    HW223616   3.992   0.673   1.899
 7573SOL     OW23617   0.181   6.385   4.657
 7573SOL    HW123618   0.081   6.386   4.649
 7573SOL    HW223619   0.221   6.370   4.566
 7574SOL     OW23620   6.450   1.040   4.717
 7574SOL    HW123621   6.416   1.131   4.740
 7574SOL    HW223622   6.532   1.047   4.660
 7575SOL     OW23623   4.253   0.332   6.064
 7575SOL    HW123624   4.351   0.339   6.046
 7575SOL    HW223625   4.207   0.414   6.029
 7576SOL     OW23626   5.005   4.457   6.638
 7576SOL    HW123627   4.989   4.556   6.635
 7576SOL    HW223628   5.065   4.430   6.563
 7577SOL     OW23629   6.859   6.989   6.316
 7577SOL    HW123630   6.830   0.061   6.331
 7577SOL    HW223631   6.905   6.955   6.398
 7578SOL     OW23632   2.533   6.366   1.787
 7578SOL    HW123633   2.528   6.313   1.871
 7578SOL    HW223634   2.451   6.348   1.732
 7579SOL     OW23635   6.450   1.502   1.990
 7579SOL    HW123636   6.368   1.488   1.935
 7579SOL    HW223637   6.520   1.549   1.936
 7580SOL     OW23638   1.080   4.075   3.792
 7580SOL    HW123639   1.080   4.114   3.884
 7580SOL    HW223640   1.099   4.147   3.725
 7581SOL     OW23641   6.652   0.652   1.251
 7581SOL    HW123642   6.685   0.603   1.171
 7581SOL    HW223643   6.569   0.703   1.229
 7582SOL     OW23644   2.841   0.927   0.918
 7582SOL    HW123645   2.855   0.981   1.001
 7582SOL    HW223646   2.926   0.923   0.866
 7583SOL     OW23647   6.477   3.079   0.911
 7583SOL    HW123648   6.516   2.987   0.902
 7583SOL    HW223649   6.443   3.091   1.004
 7584SOL     OW23650   2.578   0.192   1.474
 7584SOL    HW123651   2.583   0.149   1.384
 7584SOL    HW223652   2.604   0.288   1.468
 7585SOL     OW23653   1.771   2.279   6.261
 7585SOL    HW123654   1.737   2.372   6.247
 7585SOL    HW223655   1.711   2.231   6.324
 7586SOL     OW23656   3.471   1.128   3.773
 7586SOL    HW123657   3.466   1.227   3.765
 7586SOL    HW223658   3.523   1.103   3.854
 7587SOL     OW23659   2.622   1.930   6.837
 7587SOL    HW123660   2.688   1.960   6.768
 7587SOL    HW223661   2.631   1.831   6.851
 7588SOL     OW23662   1.436   3.269   2.669
 7588SOL    HW123663   1.356   3.328   2.664
 7588SOL    HW223664   1.477   3.276   2.760
 7589SOL     OW23665   0.996   6.887   2.200
 7589SOL    HW123666   0.977   6.890   2.102
 7589SOL    HW223667   0.983   6.794   2.234
 7590SOL     OW23668   4.636   1.881   6.801
 7590SOL    HW123669   4.693   1.951   6.758
 7590SOL    HW223670   4.539   1.901   6.784
 7591SOL     OW23671   0.035   3.786   0.183
 7591SOL    HW123672   7.016   3.832   0.104
 7591SOL    HW223673   0.031   3.687   0.169
 7592SOL     OW23674   6.768   3.802   5.971
 7592SOL    HW123675   6.673   3.794   5.942
 7592SOL    HW223676   6.829   3.766   5.900
 7593SOL     OW23677   5.846   2.990   1.239
 7593SOL    HW123678   5.845   2.925   1.315
 7593SOL    HW223679   5.767   3.050   1.246
 7594SOL     OW23680   0.920   5.145   2.445
 7594SOL    HW123681   0.987   5.202   2.493
 7594SOL    HW223682   0.935   5.049   2.468
 7595SOL     OW23683   0.103   2.368   5.767
 7595SOL    HW123684   0.076   2.292   5.708
 7595SOL    HW223685   0.020   2.413   5.801
 7596SOL     OW23686   4.662   5.498   3.949
 7596SOL    HW123687   4.635   5.447   4.031
 7596SOL    HW223688   4.615   5.586   3.948
 7597SOL     OW23689   4.015   6.312   2.868
 7597SOL    HW123690   4.086   6.247   2.896
 7597SOL    HW223691   3.989   6.368   2.947
 7598SOL     OW23692   6.732   1.704   2.817
 7598SOL    HW123693   6.789   1.773   2.860
 7598SOL    HW223694   6.778   1.615   2.822
 7599SOL     OW23695   5.585   1.595   2.465
 7599SOL    HW123696   5.604   1.633   2.556
 7599SOL    HW223697   5.663   1.541   2.435
 7600SOL     OW23698   2.319   1.696   2.796
 7600SOL    HW123699   2.220   1.683   2.793
 7600SOL    HW223700   2.362   1.617   2.840
 7601SOL     OW23701   2.191   5.219   3.176
 7601SOL    HW123702   2.182   5.220   3.275
 7601SOL    HW223703   2.225   5.307   3.144
 7602SOL     OW23704   0.616   4.504   6.326
 7602SOL    HW123705   0.630   4.551   6.239
 7602SOL    HW223706   0.537   4.544   6.373
 7603SOL     OW23707   1.889   5.313   6.143
 7603SOL    HW123708   1.834   5.379   6.092
 7603SOL    HW223709   1.835   5.277   6.220
 7604SOL     OW23710   1.498   4.578   4.330
 7604SOL    HW123711   1.518   4.638   4.407
 7604SOL    HW223712   1.403   4.546   4.337
 7605SOL     OW23713   0.506   0.001   1.149
 7605SOL    HW123714   0.591   6.997   1.197
 7605SOL    HW223715   0.433   0.013   1.216
 7606SOL     OW23716   6.035   3.238   4.384
 7606SOL    HW123717   5.953   3.287   4.354
 7606SOL    HW223718   6.111   3.257   4.322
 7607SOL     OW23719   3.851   4.771   0.259
 7607SOL    HW123720   3.852   4.820   0.172
 7607SOL    HW223721   3.757   4.754   0.287
 7608SOL     OW23722   4.061   3.785   2.486
 7608SOL    HW123723   4.121   3.731   2.427
 7608SOL    HW223724   4.027   3.865   2.435
 7609SOL     OW23725   0.993   3.411   4.049
 7609SOL    HW123726   0.980   3.463   3.964
 7609SOL    HW223727   1.055   3.334   4.032
 7610SOL     OW23728   5.440   5.992   6.987
 7610SOL    HW123729   5.502   5.955   6.918
 7610SOL    HW223730   5.494   6.032   0.041
 7611SOL     OW23731   0.271   1.999   0.542
 7611SOL    HW123732   0.231   1.928   0.484
 7611SOL    HW223733   0.274   1.967   0.636
 7612SOL     OW23734   5.305   3.496   4.189
 7612SOL    HW123735   5.354   3.564   4.243
 7612SOL    HW223736   5.230   3.540   4.139
 7613SOL     OW23737   6.552   3.468   1.496
 7613SOL    HW123738   6.542   3.435   1.402
 7613SOL    HW223739   6.465   3.504   1.529
 7614SOL     OW23740   4.889   3.526   0.735
 7614SOL    HW123741   4.807   3.469   0.735
 7614SOL    HW223742   4.950   3.499   0.661
 7615SOL     OW23743   3.192   4.606   6.798
 7615SOL    HW123744   3.210   4.639   6.705
 7615SOL    HW223745   3.093   4.596   6.811
 7616SOL     OW23746   6.123   5.167   5.299
 7616SOL    HW123747   6.024   5.154   5.306
 7616SOL    HW223748   6.151   5.163   5.203
 7617SOL     OW23749   3.682   5.193   2.918
 7617SOL    HW123750   3.726   5.205   3.007
 7617SOL    HW223751   3.672   5.281   2.873
 7618SOL     OW23752   0.397   1.425   5.473
 7618SOL    HW123753   0.305   1.456   5.498
 7618SOL    HW223754   0.459   1.503   5.471
 7619SOL     OW23755   5.499   2.617   5.168
 7619SOL    HW123756   5.497   2.598   5.266
 7619SOL    HW223757   5.477   2.713   5.152
 7620SOL     OW23758   4.333   5.558   0.626
 7620SOL    HW123759   4.250   5.578   0.575
 7620SOL    HW223760   4.400   5.514   0.566
 7621SOL     OW23761   7.017   1.872   1.016
 7621SOL    HW123762   0.013   1.953   0.961
 7621SOL    HW223763   0.078   1.814   1.017
 7622SOL     OW23764   5.019   5.668   1.330
 7622SOL    HW123765   4.996   5.727   1.408
 7622SOL    HW223766   4.998   5.573   1.352
 7623SOL     OW23767   4.606   4.422   6.697
 7623SOL    HW123768   4.666   4.342   6.692
 7623SOL    HW223769   4.566   4.427   6.789
 7624SOL     OW23770   0.158   3.297   5.046
 7624SOL    HW123771   0.214   3.316   5.126
 7624SOL    HW223772   0.121   3.204   5.053
 7625SOL     OW23773   4.415   0.961   1.737
 7625SOL    HW123774   4.502   0.988   1.697
 7625SOL    HW223775   4.369   1.042   1.776
 7626SOL     OW23776   5.642   6.939   4.011
 7626SOL    HW123777   5.685   6.849   4.001
 7626SOL    HW223778   5.643   6.986   3.923
 7627SOL     OW23779   5.263   2.628   0.391
 7627SOL    HW123780   5.337   2.652   0.328
 7627SOL    HW223781   5.297   2.563   0.459
 7628SOL     OW23782   3.529   1.436   2.486
 7628SOL    HW123783   3.454   1.393   2.537
 7628SOL    HW223784   3.589   1.484   2.549
 7629SOL     OW23785   6.692   6.532   3.201
 7629SOL    HW123786   6.693   6.627   3.168
 7629SOL    HW223787   6.598   6.504   3.219
 7630SOL     OW23788   6.680   6.560   1.462
 7630SOL    HW123789   6.665   6.637   1.400
 7630SOL    HW223790   6.679   6.475   1.410
 7631SOL     OW23791   1.168   1.090   6.163
 7631SOL    HW123792   1.082   1.140   6.171
 7631SOL    HW223793   1.236   1.147   6.119
 7632SOL     OW23794   3.222   2.978   1.826
 7632SOL    HW123795   3.300   2.995   1.766
 7632SOL    HW223796   3.178   2.892   1.800
 7633SOL     OW23797   5.087   1.198   1.314
 7633SOL    HW123798   5.143   1.122   1.281
 7633SOL    HW223799   5.141   1.254   1.378
 7634SOL     OW23800   1.155   2.020   2.728
 7634SOL    HW123801   1.089   2.056   2.795
 7634SOL    HW223802   1.149   2.074   2.644
 7635SOL     OW23803   3.852   5.177   4.955
 7635SOL    HW123804   3.814   5.242   4.889
 7635SOL    HW223805   3.874   5.092   4.908
 7636SOL     OW23806   1.176   2.516   4.008
 7636SOL    HW123807   1.156   2.530   3.911
 7636SOL    HW223808   1.170   2.419   4.030
 7637SOL     OW23809   2.533   5.376   2.469
 7637SOL    HW123810   2.599   5.301   2.471
 7637SOL    HW223811   2.533   5.423   2.557
 7638SOL     OW23812   2.933   6.147   0.659
 7638SOL    HW123813   3.030   6.145   0.632
 7638SOL    HW223814   2.924   6.111   0.752
 7639SOL     OW23815   1.302   2.294   0.545
 7639SOL    HW123816   1.354   2.368   0.588
 7639SOL    HW223817   1.205   2.303   0.569
 7640SOL     OW23818   3.081   2.011   6.408
 7640SOL    HW123819   3.180   2.016   6.390
 7640SOL    HW223820   3.036   2.088   6.363
 7641SOL     OW23821   1.330   4.850   2.212
 7641SOL    HW123822   1.387   4.837   2.293
 7641SOL    HW223823   1.362   4.929   2.160
 7642SOL     OW23824   3.716   0.309   2.642
 7642SOL    HW123825   3.777   0.340   2.715
 7642SOL    HW223826   3.686   0.388   2.588
 7643SOL     OW23827   4.970   3.521   4.291
 7643SOL    HW123828   4.954   3.579   4.371
 7643SOL    HW223829   4.972   3.425   4.320
 7644SOL     OW23830   5.976   2.351   2.134
 7644SOL    HW123831   5.974   2.419   2.060
 7644SOL    HW223832   5.939   2.264   2.099
 7645SOL     OW23833   4.138   4.228   5.570
 7645SOL    HW123834   4.188   4.143   5.555
 7645SOL    HW223835   4.105   4.263   5.482
 7646SOL     OW23836   1.300   4.046   3.182
 7646SOL    HW123837   1.312   4.006   3.273
 7646SOL    HW223838   1.202   4.052   3.161
 7647SOL     OW23839   6.454   3.734   3.023
 7647SOL    HW123840   6.432   3.797   3.098
 7647SOL    HW223841   6.458   3.641   3.059
 7648SOL     OW23842   2.308   1.443   3.114
 7648SOL    HW123843   2.286   1.535   3.083
 7648SOL    HW223844   2.400   1.418   3.083
 7649SOL     OW23845   0.902   0.624   2.839
 7649SOL    HW123846   0.846   0.605   2.920
 7649SOL    HW223847   0.844   0.623   2.757
 7650SOL     OW23848   4.915   1.964   0.950
 7650SOL    HW123849   4.955   2.045   0.905
 7650SOL    HW223850   4.824   1.948   0.913
 7651SOL     OW23851   2.571   1.036   4.081
 7651SOL    HW123852   2.472   1.035   4.095
 7651SOL    HW223853   2.611   1.112   4.133
 7652SOL     OW23854   5.848   3.453   4.689
 7652SOL    HW123855   5.793   3.524   4.646
 7652SOL    HW223856   5.790   3.373   4.707
 7653SOL     OW23857   1.487   2.113   6.813
 7653SOL    HW123858   1.424   2.185   6.784
 7653SOL    HW223859   1.458   2.079   6.903
 7654SOL     OW23860   4.814   3.172   3.632
 7654SOL    HW123861   4.871   3.243   3.589
 7654SOL    HW223862   4.855   3.145   3.719
 7655SOL     OW23863   4.896   0.214   2.886
 7655SOL    HW123864   4.974   0.163   2.923
 7655SOL    HW223865   4.837   0.152   2.834
 7656SOL     OW23866   2.219   4.296   5.952
 7656SOL    HW123867   2.215   4.395   5.938
 7656SOL    HW223868   2.146   4.251   5.900
 7657SOL     OW23869   1.741   3.107   4.326
 7657SOL    HW123870   1.829   3.084   4.369
 7657SOL    HW223871   1.748   3.094   4.227
 7658SOL     OW23872   3.750   6.830   5.854
 7658SOL    HW123873   3.817   6.903   5.845
 7658SOL    HW223874   3.674   6.845   5.790
 7659SOL     OW23875   5.439   5.751   6.645
 7659SOL    HW123876   5.369   5.738   6.716
 7659SOL    HW223877   5.404   5.720   6.557
 7660SOL     OW23878   0.327   5.912   4.047
 7660SOL    HW123879   0.423   5.937   4.036
 7660SOL    HW223880   0.319   5.840   4.116
 7661SOL     OW23881   6.345   2.507   4.480
 7661SOL    HW123882   6.272   2.541   4.420
 7661SOL    HW223883   6.394   2.433   4.435
 7662SOL     OW23884   1.228   3.631   2.511
 7662SOL    HW123885   1.174   3.709   2.479
 7662SOL    HW223886   1.266   3.583   2.433
 7663SOL     OW23887   1.127   5.807   6.024
 7663SOL    HW123888   1.046   5.841   6.072
 7663SOL    HW223889   1.099   5.749   5.948
 7664SOL     OW23890   3.638   0.007   1.355
 7664SOL    HW123891   3.682   6.993   1.272
 7664SOL    HW223892   3.593   0.094   1.334
 7665SOL     OW23893   5.367   0.267   5.386
 7665SOL    HW123894   5.292   0.257   5.321
 7665SOL    HW223895   5.346   0.341   5.450
 7666SOL     OW23896   0.385   5.843   1.727
 7666SOL    HW123897   0.354   5.792   1.808
 7666SOL    HW223898   0.381   5.941   1.746
 7667SOL     OW23899   5.223   6.211   2.613
 7667SOL    HW123900   5.185   6.121   2.591
 7667SOL    HW223901   5.321   6.213   2.590
 7668SOL     OW23902   3.147   4.699   0.326
 7668SOL    HW123903   3.236   4.665   0.294
 7668SOL    HW223904   3.153   4.721   0.423
 7669SOL     OW23905   5.025   1.650   5.789
 7669SOL    HW123906   4.971   1.568   5.769
 7669SOL    HW223907   4.978   1.704   5.859
 7670SOL     OW23908   0.886   5.121   6.624
 7670SOL    HW123909   0.916   5.111   6.719
 7670SOL    HW223910   0.896   5.034   6.576
 7671SOL     OW23911   4.554   1.004   2.991
 7671SOL    HW123912   4.647   1.024   3.022
 7671SOL    HW223913   4.488   1.055   3.046
 7672SOL     OW23914   0.206   0.205   2.927
 7672SOL    HW123915   0.254   0.252   2.852
 7672SOL    HW223916   0.271   0.186   3.001
 7673SOL     OW23917   1.610   5.754   6.932
 7673SOL    HW123918   1.517   5.779   6.907
 7673SOL    HW223919   1.672   5.772   6.856
 7674SOL     OW23920   5.635   1.360   3.219
 7674SOL    HW123921   5.703   1.410   3.165
 7674SOL    HW223922   5.562   1.328   3.159
 7675SOL     OW23923   6.223   6.789   2.163
 7675SOL    HW123924   6.125   6.795   2.147
 7675SOL    HW223925   6.260   6.710   2.113
 7676SOL     OW23926   1.673   1.733   0.663
 7676SOL    HW123927   1.653   1.776   0.752
 7676SOL    HW223928   1.722   1.647   0.678
 7677SOL     OW23929   0.515   5.067   2.266
 7677SOL    HW123930   0.531   5.156   2.224
 7677SOL    HW223931   0.572   4.998   2.221
 7678SOL     OW23932   1.779   2.489   4.385
 7678SOL    HW123933   1.857   2.544   4.357
 7678SOL    HW223934   1.785   2.398   4.344
 7679SOL     OW23935   3.012   5.493   6.627
 7679SOL    HW123936   3.068   5.436   6.687
 7679SOL    HW223937   3.072   5.554   6.574
 7680SOL     OW23938   1.855   1.418   0.438
 7680SOL    HW123939   1.942   1.439   0.392
 7680SOL    HW223940   1.867   1.427   0.537
 7681SOL     OW23941   1.922   0.094   1.360
 7681SOL    HW123942   1.844   0.033   1.345
 7681SOL    HW223943   2.006   0.049   1.328
 7682SOL     OW23944   3.463   6.857   2.494
 7682SOL    HW123945   3.482   6.836   2.398
 7682SOL    HW223946   3.485   6.776   2.550
 7683SOL     OW23947   5.550   1.491   3.715
 7683SOL    HW123948   5.491   1.513   3.637
 7683SOL    HW223949   5.616   1.421   3.687
 7684SOL     OW23950   3.617   2.109   1.686
 7684SOL    HW123951   3.650   2.180   1.748
 7684SOL    HW223952   3.611   2.022   1.735
 7685SOL     OW23953   3.186   2.300   6.631
 7685SOL    HW123954   3.241   2.217   6.621
 7685SOL    HW223955   3.231   2.376   6.583
 7686SOL     OW23956   0.022   6.661   3.213
 7686SOL    HW123957   6.971   6.687   3.148
 7686SOL    HW223958   0.059   6.744   3.255
 7687SOL     OW23959   5.765   4.979   3.962
 7687SOL    HW123960   5.727   5.025   4.043
 7687SOL    HW223961   5.823   4.903   3.991
 7688SOL     OW23962   1.303   6.036   6.229
 7688SOL    HW123963   1.355   6.076   6.304
 7688SOL    HW223964   1.365   5.987   6.167
 7689SOL     OW23965   6.005   6.470   3.040
 7689SOL    HW123966   6.027   6.536   2.968
 7689SOL    HW223967   5.909   6.443   3.032
 7690SOL     OW23968   5.509   4.650   0.776
 7690SOL    HW123969   5.456   4.714   0.832
 7690SOL    HW223970   5.460   4.633   0.690
 7691SOL     OW23971   5.165   2.627   5.168
 7691SOL    HW123972   5.133   2.683   5.092
 7691SOL    HW223973   5.262   2.605   5.155
 7692SOL     OW23974   0.437   6.412   1.828
 7692SOL    HW123975   0.434   6.315   1.853
 7692SOL    HW223976   0.378   6.464   1.890
 7693SOL     OW23977   3.915   0.321   1.227
 7693SOL    HW123978   3.969   0.249   1.271
 7693SOL    HW223979   3.942   0.330   1.132
 7694SOL     OW23980   0.077   4.496   5.023
 7694SOL    HW123981   0.080   4.396   5.014
 7694SOL    HW223982   0.030   4.520   5.108
 7695SOL     OW23983   4.542   0.481   0.819
 7695SOL    HW123984   4.492   0.465   0.734
 7695SOL    HW223985   4.482   0.525   0.885
 7696SOL     OW23986   0.060   0.928   4.807
 7696SOL    HW123987   7.004   0.873   4.836
 7696SOL    HW223988   0.144   0.894   4.850
 7697SOL     OW23989   3.042   6.686   2.250
 7697SOL    HW123990   2.976   6.647   2.187
 7697SOL    HW223991   3.135   6.670   2.215
 7698SOL     OW23992   6.372   1.774   3.748
 7698SOL    HW123993   6.341   1.792   3.655
 7698SOL    HW223994   6.470   1.793   3.755
 7699SOL     OW23995   3.594   6.213   6.953
 7699SOL    HW123996   3.672   6.255   6.998
 7699SOL    HW223997   3.533   6.174   0.001
 7700SOL     OW23998   5.124   6.037   3.928
 7700SOL    HW123999   5.141   6.076   3.837
 7700SOL    HW224000   5.203   5.983   3.956
 7701SOL     OW24001   6.625   1.379   6.685
 7701SOL    HW124002   6.695   1.352   6.619
 7701SOL    HW224003   6.658   1.362   6.777
 7702SOL     OW24004   3.504   6.956   5.220
 7702SOL    HW124005   3.487   6.886   5.290
 7702SOL    HW224006   3.541   6.912   5.138
 7703SOL     OW24007   6.076   0.322   6.280
 7703SOL    HW124008   6.086   0.323   6.379
 7703SOL    HW224009   6.100   0.412   6.244
 7704SOL     OW24010   5.778   5.386   5.027
 7704SOL    HW124011   5.790   5.294   4.990
 7704SOL    HW224012   5.742   5.446   4.955
 7705SOL     OW24013   3.777   5.571   6.636
 7705SOL    HW124014   3.876   5.585   6.633
 7705SOL    HW224015   3.749   5.511   6.561
 7706SOL     OW24016   4.218   3.226   5.212
 7706SOL    HW124017   4.315   3.247   5.220
 7706SOL    HW224018   4.186   3.181   5.295
 7707SOL     OW24019   0.359   5.621   6.431
 7707SOL    HW124020   0.429   5.680   6.472
 7707SOL    HW224021   0.401   5.538   6.397
 7708SOL     OW24022   0.334   0.189   5.252
 7708SOL    HW124023   0.291   0.279   5.254
 7708SOL    HW224024   0.338   0.156   5.158
 7709SOL     OW24025   6.380   4.620   1.839
 7709SOL    HW124026   6.439   4.634   1.919
 7709SOL    HW224027   6.363   4.708   1.795
 7710SOL     OW24028   2.661   0.932   0.372
 7710SOL    HW124029   2.695   0.973   0.456
 7710SOL    HW224030   2.737   0.920   0.307
 7711SOL     OW24031   6.236   6.663   5.668
 7711SOL    HW124032   6.215   6.713   5.752
 7711SOL    HW224033   6.220   6.565   5.682
 7712SOL     OW24034   6.209   5.687   2.050
 7712SOL    HW124035   6.142   5.716   2.118
 7712SOL    HW224036   6.256   5.767   2.013
 7713SOL     OW24037   1.419   4.363   0.438
 7713SOL    HW124038   1.507   4.404   0.464
 7713SOL    HW224039   1.435   4.273   0.396
 7714SOL     OW24040   5.931   4.232   5.718
 7714SOL    HW124041   5.984   4.195   5.795
 7714SOL    HW224042   5.906   4.157   5.656
 7715SOL     OW24043   4.059   2.121   0.537
 7715SOL    HW124044   4.146   2.148   0.578
 7715SOL    HW224045   4.067   2.124   0.437
 7716SOL     OW24046   5.982   4.522   2.689
 7716SOL    HW124047   6.033   4.445   2.650
 7716SOL    HW224048   6.042   4.601   2.698
 7717SOL     OW24049   1.760   0.994   4.710
 7717SOL    HW124050   1.777   1.086   4.674
 7717SOL    HW224051   1.684   0.952   4.660
 7718SOL     OW24052   1.341   2.735   3.466
 7718SOL    HW124053   1.391   2.649   3.478
 7718SOL    HW224054   1.382   2.788   3.392
 7719SOL     OW24055   6.549   4.600   5.147
 7719SOL    HW124056   6.573   4.557   5.060
 7719SOL    HW224057   6.450   4.613   5.152
 7720SOL     OW24058   0.289   1.123   0.188
 7720SOL    HW124059   0.328   1.105   0.097
 7720SOL    HW224060   0.252   1.038   0.226
 7721SOL     OW24061   0.314   5.503   2.977
 7721SOL    HW124062   0.322   5.574   2.907
 7721SOL    HW224063   0.331   5.414   2.935
 7722SOL     OW24064   1.345   5.091   3.574
 7722SOL    HW124065   1.444   5.100   3.558
 7722SOL    HW224066   1.329   5.024   3.646
 7723SOL     OW24067   4.719   3.303   0.142
 7723SOL    HW124068   4.691   3.226   0.085
 7723SOL    HW224069   4.640   3.361   0.162
 7724SOL     OW24070   2.786   4.109   0.852
 7724SOL    HW124071   2.693   4.074   0.866
 7724SOL    HW224072   2.828   4.125   0.942
 7725SOL     OW24073   6.596   1.928   3.375
 7725SOL    HW124074   6.595   2.024   3.402
 7725SOL    HW224075   6.504   1.900   3.348
 7726SOL     OW24076   1.782   5.566   5.434
 7726SOL    HW124077   1.776   5.524   5.344
 7726SOL    HW224078   1.701   5.623   5.451
 7727SOL     OW24079   0.095   0.915   2.776
 7727SOL    HW124080   0.145   0.952   2.698
 7727SOL    HW224081   0.006   0.881   2.746
 7728SOL     OW24082   1.536   4.811   3.611
 7728SOL    HW124083   1.451   4.791   3.660
 7728SOL    HW224084   1.568   4.902   3.635
 7729SOL     OW24085   5.529   2.932   1.003
 7729SOL    HW124086   5.585   2.853   0.981
 7729SOL    HW224087   5.585   3.001   1.050
 7730SOL     OW24088   5.873   5.685   0.861
 7730SOL    HW124089   5.885   5.783   0.877
 7730SOL    HW224090   5.932   5.634   0.924
 7731SOL     OW24091   6.473   0.902   0.145
 7731SOL    HW124092   6.502   0.817   0.102
 7731SOL    HW224093   6.550   0.966   0.149
 7732SOL     OW24094   4.727   6.813   0.705
 7732SOL    HW124095   4.710   6.762   0.789
 7732SOL    HW224096   4.807   6.775   0.658
 7733SOL     OW24097   4.888   6.228   2.581
 7733SOL    HW124098   4.957   6.254   2.514
 7733SOL    HW224099   4.824   6.304   2.595
 7734SOL     OW24100   2.781   5.291   3.384
 7734SOL    HW124101   2.834   5.345   3.319
 7734SOL    HW224102   2.804   5.195   3.374
 7735SOL     OW24103   4.471   6.867   6.596
 7735SOL    HW124104   4.478   6.869   6.695
 7735SOL    HW224105   4.390   6.918   6.567
 7736SOL     OW24106   3.490   3.491   6.988
 7736SOL    HW124107   3.472   3.524   6.895
 7736SOL    HW224108   3.511   3.393   6.985
 7737SOL     OW24109   3.261   0.014   2.544
 7737SOL    HW124110   3.334   6.970   2.525
 7737SOL    HW224111   3.175   7.003   2.505
 7738SOL     OW24112   2.726   6.196   6.794
 7738SOL    HW124113   2.771   6.184   6.882
 7738SOL    HW224114   2.741   6.114   6.738
 7739SOL     OW24115   0.582   2.593   1.142
 7739SOL    HW124116   0.534   2.547   1.217
 7739SOL    HW224117   0.674   2.554   1.131
 7740SOL     OW24118   2.366   1.347   2.580
 7740SOL    HW124119   2.383   1.440   2.547
 7740SOL    HW224120   2.270   1.336   2.603
 7741SOL     OW24121   1.179   4.998   5.937
 7741SOL    HW124122   1.159   5.062   5.863
 7741SOL    HW224123   1.268   5.021   5.977
 7742SOL     OW24124   4.496   2.446   3.712
 7742SOL    HW124125   4.440   2.409   3.638
 7742SOL    HW224126   4.548   2.524   3.679
 7743SOL     OW24127   5.857   1.026   6.976
 7743SOL    HW124128   5.887   0.943   6.929
 7743SOL    HW224129   5.897   1.029   0.046
 7744SOL     OW24130   0.770   6.423   4.160
 7744SOL    HW124131   0.788   6.494   4.093
 7744SOL    HW224132   0.758   6.464   4.251
 7745SOL     OW24133   3.726   1.303   6.749
 7745SOL    HW124134   3.674   1.382   6.781
 7745SOL    HW224135   3.823   1.324   6.752
 7746SOL     OW24136   2.301   7.010   0.440
 7746SOL    HW124137   2.245   6.964   0.509
 7746SOL    HW224138   2.250   7.017   0.354
 7747SOL     OW24139   5.643   5.380   1.240
 7747SOL    HW124140   5.590   5.333   1.311
 7747SOL    HW224141   5.738   5.351   1.244
 7748SOL     OW24142   3.374   4.198   4.804
 7748SOL    HW124143   3.281   4.162   4.796
 7748SOL    HW224144   3.419   4.195   4.714
 7749SOL     OW24145   2.475   2.665   5.977
 7749SOL    HW124146   2.524   2.743   6.015
 7749SOL    HW224147   2.530   2.624   5.904
 7750SOL     OW24148   0.301   6.092   1.780
 7750SOL    HW124149   0.204   6.113   1.765
 7750SOL    HW224150   0.318   6.083   1.878
 7751SOL     OW24151   1.285   2.589   1.903
 7751SOL    HW124152   1.309   2.552   1.813
 7751SOL    HW224153   1.205   2.541   1.938
 7752SOL     OW24154   5.593   6.928   5.648
 7752SOL    HW124155   5.578   6.840   5.694
 7752SOL    HW224156   5.671   6.975   5.691
 7753SOL     OW24157   2.758   1.444   4.016
 7753SOL    HW124158   2.813   1.419   4.095
 7753SOL    HW224159   2.818   1.479   3.943
 7754SOL     OW24160   3.294   6.235   1.330
 7754SOL    HW124161   3.281   6.137   1.316
 7754SOL    HW224162   3.384   6.263   1.297
 7755SOL     OW24163   2.210   2.569   5.224
 7755SOL    HW124164   2.288   2.527   5.270
 7755SOL    HW224165   2.234   2.662   5.196
 7756SOL     OW24166   2.882   5.898   2.792
 7756SOL    HW124167   2.870   5.876   2.695
 7756SOL    HW224168   2.966   5.951   2.804
 7757SOL     OW24169   5.371   4.861   0.277
 7757SOL    HW124170   5.425   4.850   0.361
 7757SOL    HW224171   5.320   4.947   0.282
 7758SOL     OW24172   2.418   0.526   5.633
 7758SOL    HW124173   2.350   0.472   5.682
 7758SOL    HW224174   2.375   0.571   5.555
 7759SOL     OW24175   1.763   2.335   5.548
 7759SOL    HW124176   1.738   2.251   5.596
 7759SOL    HW224177   1.800   2.312   5.458
 7760SOL     OW24178   5.994   3.576   2.563
 7760SOL    HW124179   5.951   3.614   2.645
 7760SOL    HW224180   6.044   3.492   2.588
 7761SOL     OW24181   6.603   0.185   4.560
 7761SOL    HW124182   6.576   0.201   4.655
 7761SOL    HW224183   6.539   0.233   4.499
 7762SOL     OW24184   2.248   0.355   4.083
 7762SOL    HW124185   2.220   0.286   4.015
 7762SOL    HW224186   2.179   0.427   4.087
 7763SOL     OW24187   2.252   0.145   0.003
 7763SOL    HW124188   2.226   0.072   0.066
 7763SOL    HW224189   2.270   0.229   0.055
 7764SOL     OW24190   3.483   3.518   5.025
 7764SOL    HW124191   3.511   3.548   5.116
 7764SOL    HW224192   3.540   3.564   4.956
 7765SOL     OW24193   5.921   4.046   4.793
 7765SOL    HW124194   5.946   3.990   4.872
 7765SOL    HW224195   5.895   4.137   4.822
 7766SOL     OW24196   6.733   4.061   6.912
 7766SOL    HW124197   6.689   4.043   6.824
 7766SOL    HW224198   6.770   4.154   6.911
 7767SOL     OW24199   4.864   6.101   2.241
 7767SOL    HW124200   4.859   6.142   2.150
 7767SOL    HW224201   4.920   6.159   2.300
 7768SOL     OW24202   4.490   4.467   3.363
 7768SOL    HW124203   4.415   4.517   3.319
 7768SOL    HW224204   4.493   4.492   3.460
 7769SOL     OW24205   4.466   1.476   3.570
 7769SOL    HW124206   4.429   1.430   3.651
 7769SOL    HW224207   4.450   1.575   3.578
 7770SOL     OW24208   1.681   3.935   4.735
 7770SOL    HW124209   1.627   3.911   4.654
 7770SOL    HW224210   1.744   3.861   4.757
 7771SOL     OW24211   3.761   1.734   5.389
 7771SOL    HW124212   3.849   1.780   5.375
 7771SOL    HW224213   3.719   1.767   5.473
 7772SOL     OW24214   4.572   0.326   1.913
 7772SOL    HW124215   4.548   0.354   2.006
 7772SOL    HW224216   4.672   0.319   1.906
 7773SOL     OW24217   2.321   4.944   5.387
 7773SOL    HW124218   2.369   4.951   5.474
 7773SOL    HW224219   2.348   5.020   5.328
 7774SOL     OW24220   4.943   1.922   4.470
 7774SOL    HW124221   5.017   1.897   4.408
 7774SOL    HW224222   4.885   1.991   4.427
 7775SOL     OW24223   4.473   6.186   0.602
 7775SOL    HW124224   4.547   6.119   0.601
 7775SOL    HW224225   4.436   6.193   0.695
 7776SOL     OW24226   0.372   5.985   6.944
 7776SOL    HW124227   0.337   5.893   6.963
 7776SOL    HW224228   0.458   5.978   6.893
 7777SOL     OW24229   6.096   5.713   4.069
 7777SOL    HW124230   6.099   5.613   4.073
 7777SOL    HW224231   6.003   5.742   4.047
 7778SOL     OW24232   5.759   3.663   0.720
 7778SOL    HW124233   5.742   3.664   0.819
 7778SOL    HW224234   5.731   3.750   0.680
 7779SOL     OW24235   2.580   2.021   1.512
 7779SOL    HW124236   2.604   1.924   1.511
 7779SOL    HW224237   2.494   2.034   1.463
 7780SOL     OW24238   0.596   4.941   5.818
 7780SOL    HW124239   0.667   4.918   5.884
 7780SOL    HW224240   0.549   4.858   5.788
 7781SOL     OW24241   2.255   4.484   1.538
 7781SOL    HW124242   2.204   4.456   1.457
 7781SOL    HW224243   2.218   4.569   1.574
 7782SOL     OW24244   5.434   4.949   4.720
 7782SOL    HW124245   5.358   4.998   4.763
 7782SOL    HW224246   5.481   4.893   4.788
 7783SOL     OW24247   0.542   6.784   5.564
 7783SOL    HW124248   0.462   6.749   5.513
 7783SOL    HW224249   0.625   6.764   5.512
 7784SOL     OW24250   3.644   2.760   1.841
 7784SOL    HW124251   3.737   2.779   1.811
 7784SOL    HW224252   3.611   2.836   1.897
 7785SOL     OW24253   1.978   6.044   4.959
 7785SOL    HW124254   2.058   5.999   4.998
 7785SOL    HW224255   1.930   6.094   5.031
 7786SOL     OW24256   3.506   0.077   0.635
 7786SOL    HW124257   3.495   0.062   0.734
 7786SOL    HW224258   3.489   0.174   0.615
 7787SOL     OW24259   2.456   3.207   6.985
 7787SOL    HW124260   2.497   3.132   0.017
 7787SOL    HW224261   2.473   3.294   0.009
 7788SOL     OW24262   1.873   5.028   1.269
 7788SOL    HW124263   1.811   5.083   1.213
 7788SOL    HW224264   1.898   5.079   1.351
 7789SOL     OW24265   2.653   0.216   6.640
 7789SOL    HW124266   2.691   0.279   6.708
 7789SOL    HW224267   2.633   0.128   6.683
 7790SOL     OW24268   5.428   5.708   2.465
 7790SOL    HW124269   5.468   5.800   2.464
 7790SOL    HW224270   5.498   5.642   2.491
 7791SOL     OW24271   2.265   5.293   2.685
 7791SOL    HW124272   2.249   5.200   2.653
 7791SOL    HW224273   2.217   5.358   2.625
 7792SOL     OW24274   1.949   5.503   4.610
 7792SOL    HW124275   1.885   5.539   4.678
 7792SOL    HW224276   1.901   5.487   4.524
 7793SOL     OW24277   4.112   1.036   0.193
 7793SOL    HW124278   4.156   1.034   0.282
 7793SOL    HW224279   4.027   0.982   0.196
 7794SOL     OW24280   6.866   4.059   2.460
 7794SOL    HW124281   6.795   3.994   2.487
 7794SOL    HW224282   6.913   4.093   2.541
 7795SOL     OW24283   2.024   4.377   5.407
 7795SOL    HW124284   1.997   4.285   5.379
 7795SOL    HW224285   1.954   4.443   5.379
 7796SOL     OW24286   3.752   2.941   4.975
 7796SOL    HW124287   3.830   2.967   5.032
 7796SOL    HW224288   3.784   2.885   4.898
 7797SOL     OW24289   1.450   6.596   1.737
 7797SOL    HW124290   1.463   6.513   1.791
 7797SOL    HW224291   1.358   6.633   1.753
 7798SOL     OW24292   1.070   3.028   3.179
 7798SOL    HW124293   1.088   2.933   3.155
 7798SOL    HW224294   1.060   3.036   3.278
 7799SOL     OW24295   1.595   5.372   2.378
 7799SOL    HW124296   1.572   5.320   2.295
 7799SOL    HW224297   1.571   5.468   2.365
 7800SOL     OW24298   1.041   5.660   3.088
 7800SOL    HW124299   1.029   5.567   3.054
 7800SOL    HW224300   1.003   5.725   3.021
 7801SOL     OW24301   2.124   1.857   1.991
 7801SOL    HW124302   2.099   1.934   2.049
 7801SOL    HW224303   2.060   1.781   2.006
 7802SOL     OW24304   6.656   2.863   0.874
 7802SOL    HW124305   6.639   2.772   0.912
 7802SOL    HW224306   6.651   2.859   0.774
 7803SOL     OW24307   4.155   2.207   6.765
 7803SOL    HW124308   4.206   2.176   6.685
 7803SOL    HW224309   4.208   2.277   6.814
 7804SOL     OW24310   4.562   2.172   5.185
 7804SOL    HW124311   4.578   2.253   5.241
 7804SOL    HW224312   4.562   2.196   5.088
 7805SOL     OW24313   5.229   3.315   1.933
 7805SOL    HW124314   5.196   3.379   2.002
 7805SOL    HW224315   5.225   3.222   1.968
 7806SOL     OW24316   6.025   1.385   6.074
 7806SOL    HW124317   5.966   1.466   6.080
 7806SOL    HW224318   6.036   1.345   6.165
 7807SOL     OW24319   1.163   4.492   6.077
 7807SOL    HW124320   1.167   4.538   6.165
 7807SOL    HW224321   1.200   4.399   6.086
 7808SOL     OW24322   5.941   3.156   3.801
 7808SOL    HW124323   5.843   3.174   3.810
 7808SOL    HW224324   5.978   3.209   3.725
 7809SOL     OW24325   5.064   4.978   4.909
 7809SOL    HW124326   5.048   4.881   4.927
 7809SOL    HW224327   5.065   4.995   4.811
 7810SOL     OW24328   3.382   6.655   5.147
 7810SOL    HW124329   3.419   6.567   5.175
 7810SOL    HW224330   3.312   6.642   5.078
 7811SOL     OW24331   1.268   5.247   1.781
 7811SOL    HW124332   1.169   5.240   1.799
 7811SOL    HW224333   1.316   5.255   1.868
 7812SOL     OW24334   1.062   2.379   4.305
 7812SOL    HW124335   1.158   2.353   4.319
 7812SOL    HW224336   1.027   2.333   4.224
 7813SOL     OW24337   4.182   2.006   1.197
 7813SOL    HW124338   4.217   1.922   1.239
 7813SOL    HW224339   4.192   2.000   1.097
 7814SOL     OW24340   6.640   3.306   3.230
 7814SOL    HW124341   6.574   3.276   3.298
 7814SOL    HW224342   6.662   3.230   3.168
 7815SOL     OW24343   5.627   2.062   3.944
 7815SOL    HW124344   5.539   2.099   3.973
 7815SOL    HW224345   5.681   2.039   4.026
 7816SOL     OW24346   1.313   2.187   6.461
 7816SOL    HW124347   1.313   2.090   6.486
 7816SOL    HW224348   1.311   2.243   6.544
 7817SOL     OW24349   4.471   4.469   4.451
 7817SOL    HW124350   4.481   4.567   4.472
 7817SOL    HW224351   4.414   4.426   4.521
 7818SOL     OW24352   5.180   0.424   2.710
 7818SOL    HW124353   5.224   0.466   2.789
 7818SOL    HW224354   5.223   0.335   2.692
 7819SOL     OW24355   0.431   3.574   4.120
 7819SOL    HW124356   0.433   3.477   4.144
 7819SOL    HW224357   0.380   3.587   4.035
 7820SOL     OW24358   1.619   1.421   5.738
 7820SOL    HW124359   1.700   1.364   5.755
 7820SOL    HW224360   1.573   1.389   5.655
 7821SOL     OW24361   5.682   5.420   0.008
 7821SOL    HW124362   5.609   5.490   0.004
 7821SOL    HW224363   5.701   5.398   0.104
 7822SOL     OW24364   0.888   0.848   0.003
 7822SOL    HW124365   0.932   0.890   0.082
 7822SOL    HW224366   0.958   0.818   6.959
 7823SOL     OW24367   2.881   3.514   6.130
 7823SOL    HW124368   2.804   3.512   6.066
 7823SOL    HW224369   2.885   3.603   6.175
 7824SOL     OW24370   6.118   1.019   3.592
 7824SOL    HW124371   6.023   1.004   3.620
 7824SOL    HW224372   6.147   1.110   3.621
 7825SOL     OW24373   1.279   2.935   0.803
 7825SOL    HW124374   1.225   2.959   0.883
 7825SOL    HW224375   1.359   2.881   0.830
 7826SOL     OW24376   6.207   1.448   6.688
 7826SOL    HW124377   6.291   1.499   6.673
 7826SOL    HW224378   6.186   1.448   6.786
 7827SOL     OW24379   2.767   4.392   1.044
 7827SOL    HW124380   2.797   4.303   1.080
 7827SOL    HW224381   2.692   4.426   1.100
 7828SOL     OW24382   0.698   5.130   0.885
 7828SOL    HW124383   0.778   5.176   0.925
 7828SOL    HW224384   0.690   5.155   0.789
 7829SOL     OW24385   2.207   2.834   0.381
 7829SOL    HW124386   2.221   2.835   0.282
 7829SOL    HW224387   2.117   2.874   0.403
 7830SOL     OW24388   4.201   3.543   5.723
 7830SOL    HW124389   4.136   3.561   5.798
 7830SOL    HW224390   4.179   3.601   5.645
 7831SOL     OW24391   1.197   5.379   1.122
 7831SOL    HW124392   1.134   5.309   1.153
 7831SOL    HW224393   1.205   5.450   1.192
 7832SOL     OW24394   3.454   1.152   4.325
 7832SOL    HW124395   3.457   1.078   4.393
 7832SOL    HW224396   3.422   1.115   4.237
 7833SOL     OW24397   0.740   0.499   6.944
 7833SOL    HW124398   0.721   0.582   6.997
 7833SOL    HW224399   0.696   0.505   6.855
 7834SOL     OW24400   0.206   1.060   3.697
 7834SOL    HW124401   0.127   1.116   3.721
 7834SOL    HW224402   0.188   1.012   3.611
 7835SOL     OW24403   2.337   2.155   4.606
 7835SOL    HW124404   2.296   2.246   4.605
 7835SOL    HW224405   2.420   2.155   4.662
 7836SOL     OW24406   3.484   2.813   5.251
 7836SOL    HW124407   3.439   2.726   5.274
 7836SOL    HW224408   3.439   2.887   5.301
 7837SOL     OW24409   6.834   5.406   1.245
 7837SOL    HW124410   6.811   5.313   1.272
 7837SOL    HW224411   6.866   5.407   1.150
 7838SOL     OW24412   4.191   6.226   0.774
 7838SOL    HW124413   4.198   6.193   0.680
 7838SOL    HW224414   4.113   6.182   0.819
 7839SOL     OW24415   6.046   4.427   5.212
 7839SOL    HW124416   5.978   4.499   5.199
 7839SOL    HW224417   6.103   4.449   5.291
 7840SOL     OW24418   5.015   3.261   4.369
 7840SOL    HW124419   5.045   3.285   4.461
 7840SOL    HW224420   4.951   3.185   4.373
 7841SOL     OW24421   4.659   1.442   6.907
 7841SOL    HW124422   4.705   1.354   6.906
 7841SOL    HW224423   4.655   1.476   7.002
 7842SOL     OW24424   1.963   1.571   2.675
 7842SOL    HW124425   1.982   1.572   2.773
 7842SOL    HW224426   2.031   1.625   2.627
 7843SOL     OW24427   4.812   4.581   2.060
 7843SOL    HW124428   4.899   4.566   2.107
 7843SOL    HW224429   4.738   4.542   2.115
 7844SOL     OW24430   4.472   6.729   3.491
 7844SOL    HW124431   4.498   6.712   3.586
 7844SOL    HW224432   4.375   6.709   3.479
 7845SOL     OW24433   5.633   1.319   4.198
 7845SOL    HW124434   5.669   1.232   4.163
 7845SOL    HW224435   5.579   1.363   4.127
 7846SOL     OW24436   1.022   1.493   2.069
 7846SOL    HW124437   0.994   1.398   2.061
 7846SOL    HW224438   1.109   1.507   2.022
 7847SOL     OW24439   6.573   1.950   2.240
 7847SOL    HW124440   6.580   1.916   2.334
 7847SOL    HW224441   6.645   2.018   2.224
 7848SOL     OW24442   3.263   3.256   0.989
 7848SOL    HW124443   3.219   3.322   1.049
 7848SOL    HW224444   3.198   3.224   0.919
 7849SOL     OW24445   4.858   3.926   3.030
 7849SOL    HW124446   4.803   3.895   3.108
 7849SOL    HW224447   4.954   3.904   3.045
 7850SOL     OW24448   0.735   1.573   3.924
 7850SOL    HW124449   0.739   1.625   3.840
 7850SOL    HW224450   0.662   1.505   3.918
 7851SOL     OW24451   6.643   6.737   1.259
 7851SOL    HW124452   6.671   6.742   1.163
 7851SOL    HW224453   6.613   6.827   1.290
 7852SOL     OW24454   2.602   0.281   5.286
 7852SOL    HW124455   2.613   0.372   5.245
 7852SOL    HW224456   2.591   0.290   5.385
 7853SOL     OW24457   3.899   1.269   1.915
 7853SOL    HW124458   3.844   1.193   1.950
 7853SOL    HW224459   3.971   1.291   1.981
 7854SOL     OW24460   2.605   3.170   0.294
 7854SOL    HW124461   2.555   3.246   0.251
 7854SOL    HW224462   2.584   3.085   0.246
 7855SOL     OW24463   2.801   5.462   5.708
 7855SOL    HW124464   2.794   5.523   5.787
 7855SOL    HW224465   2.712   5.457   5.662
 7856SOL     OW24466   5.703   5.079   4.962
 7856SOL    HW124467   5.617   5.121   4.932
 7856SOL    HW224468   5.707   4.984   4.931
 7857SOL     OW24469   6.187   2.717   5.333
 7857SOL    HW124470   6.128   2.712   5.253
 7857SOL    HW224471   6.274   2.760   5.308
 7858SOL     OW24472   5.128   4.883   3.398
 7858SOL    HW124473   5.227   4.882   3.392
 7858SOL    HW224474   5.095   4.976   3.380
 7859SOL     OW24475   6.037   3.472   5.434
 7859SOL    HW124476   6.112   3.492   5.371
 7859SOL    HW224477   6.037   3.374   5.456
 7860SOL     OW24478   4.438   0.074   2.779
 7860SOL    HW124479   4.419   0.016   2.700
 7860SOL    HW224480   4.537   0.078   2.795
 7861SOL     OW24481   4.159   5.097   1.641
 7861SOL    HW124482   4.188   5.123   1.549
 7861SOL    HW224483   4.185   5.169   1.706
 7862SOL     OW24484   2.997   4.640   1.608
 7862SOL    HW124485   2.976   4.592   1.693
 7862SOL    HW224486   2.918   4.633   1.546
 7863SOL     OW24487   6.760   5.973   4.079
 7863SOL    HW124488   6.725   5.886   4.044
 7863SOL    HW224489   6.847   5.993   4.036
 7864SOL     OW24490   0.085   6.715   5.427
 7864SOL    HW124491   0.013   6.784   5.420
 7864SOL    HW224492   0.089   6.662   5.342
 7865SOL     OW24493   5.334   6.843   4.644
 7865SOL    HW124494   5.414   6.825   4.586
 7865SOL    HW224495   5.304   6.938   4.630
 7866SOL     OW24496   1.939   2.604   0.205
 7866SOL    HW124497   1.924   2.526   0.266
 7866SOL    HW224498   1.896   2.586   0.117
 7867SOL     OW24499   5.534   6.637   2.636
 7867SOL    HW124500   5.535   6.703   2.711
 7867SOL    HW224501   5.453   6.579   2.645
 7868SOL     OW24502   5.706   6.293   2.167
 7868SOL    HW124503   5.678   6.233   2.093
 7868SOL    HW224504   5.754   6.241   2.237
 7869SOL     OW24505   5.297   3.224   6.694
 7869SOL    HW124506   5.302   3.177   6.606
 7869SOL    HW224507   5.205   3.264   6.705
 7870SOL     OW24508   4.436   4.993   4.486
 7870SOL    HW124509   4.516   5.033   4.531
 7870SOL    HW224510   4.354   5.045   4.511
 7871SOL     OW24511   5.502   3.829   2.546
 7871SOL    HW124512   5.528   3.897   2.478
 7871SOL    HW224513   5.437   3.764   2.506
 7872SOL     OW24514   2.226   4.197   2.878
 7872SOL    HW124515   2.294   4.264   2.847
 7872SOL    HW224516   2.213   4.206   2.976
 7873SOL     OW24517   5.580   0.702   5.468
 7873SOL    HW124518   5.575   0.789   5.419
 7873SOL    HW224519   5.673   0.665   5.462
 7874SOL     OW24520   5.152   1.541   0.884
 7874SOL    HW124521   5.117   1.574   0.972
 7874SOL    HW224522   5.134   1.609   0.814
 7875SOL     OW24523   4.553   2.354   6.511
 7875SOL    HW124524   4.502   2.268   6.514
 7875SOL    HW224525   4.530   2.403   6.427
 7876SOL     OW24526   6.920   6.917   5.415
 7876SOL    HW124527   6.827   6.883   5.398
 7876SOL    HW224528   6.949   6.973   5.337
 7877SOL     OW24529   6.742   3.065   2.673
 7877SOL    HW124530   6.714   2.987   2.730
 7877SOL    HW224531   6.693   3.062   2.586
 7878SOL     OW24532   5.045   4.986   3.952
 7878SOL    HW124533   5.085   4.894   3.951
 7878SOL    HW224534   4.955   4.981   3.996
 7879SOL     OW24535   4.644   5.507   3.448
 7879SOL    HW124536   4.601   5.549   3.368
 7879SOL    HW224537   4.740   5.488   3.427
 7880SOL     OW24538   1.694   5.422   1.126
 7880SOL    HW124539   1.671   5.410   1.223
 7880SOL    HW224540   1.734   5.337   1.091
 7881SOL     OW24541   5.615   3.827   4.803
 7881SOL    HW124542   5.668   3.874   4.732
 7881SOL    HW224543   5.623   3.728   4.791
 7882SOL     OW24544   1.543   3.695   2.652
 7882SOL    HW124545   1.486   3.675   2.572
 7882SOL    HW224546   1.510   3.644   2.731
 7883SOL     OW24547   1.299   6.868   0.887
 7883SOL    HW124548   1.228   6.819   0.836
 7883SOL    HW224549   1.301   6.834   0.981
 7884SOL     OW24550   2.113   3.642   4.038
 7884SOL    HW124551   2.147   3.710   4.102
 7884SOL    HW224552   2.094   3.685   3.949
 7885SOL     OW24553   6.022   6.514   1.504
 7885SOL    HW124554   6.005   6.476   1.413
 7885SOL    HW224555   5.941   6.502   1.561
 7886SOL     OW24556   4.134   5.160   0.763
 7886SOL    HW124557   4.147   5.131   0.858
 7886SOL    HW224558   4.093   5.251   0.760
 7887SOL     OW24559   3.278   2.620   5.301
 7887SOL    HW124560   3.270   2.579   5.392
 7887SOL    HW224561   3.262   2.550   5.232
 7888SOL     OW24562   6.844   0.389   4.963
 7888SOL    HW124563   6.927   0.343   4.996
 7888SOL    HW224564   6.814   0.457   5.029
 7889SOL     OW24565   0.776   4.763   0.076
 7889SOL    HW124566   0.698   4.718   0.119
 7889SOL    HW224567   0.861   4.719   0.106
 7890SOL     OW24568   0.469   3.071   3.620
 7890SOL    HW124569   0.394   3.059   3.684
 7890SOL    HW224570   0.533   2.995   3.627
 7891SOL     OW24571   1.921   4.123   4.983
 7891SOL    HW124572   1.866   4.067   5.044
 7891SOL    HW224573   1.864   4.157   4.908
 7892SOL     OW24574   1.845   1.751   3.912
 7892SOL    HW124575   1.841   1.850   3.905
 7892SOL    HW224576   1.912   1.725   3.982
 7893SOL     OW24577   6.230   6.838   1.746
 7893SOL    HW124578   6.160   6.780   1.787
 7893SOL    HW224579   6.311   6.782   1.725
 7894SOL     OW24580   3.411   0.663   0.903
 7894SOL    HW124581   3.448   0.634   0.991
 7894SOL    HW224582   3.451   0.751   0.877
 7895SOL     OW24583   4.988   0.413   4.251
 7895SOL    HW124584   5.041   0.489   4.290
 7895SOL    HW224585   4.921   0.382   4.318
 7896SOL     OW24586   4.421   2.645   1.222
 7896SOL    HW124587   4.396   2.660   1.126
 7896SOL    HW224588   4.516   2.612   1.227
 7897SOL     OW24589   3.180   2.130   1.491
 7897SOL    HW124590   3.250   2.158   1.557
 7897SOL    HW224591   3.090   2.142   1.532
 7898SOL     OW24592   3.967   0.231   3.758
 7898SOL    HW124593   4.016   0.312   3.791
 7898SOL    HW224594   3.929   0.250   3.668
 7899SOL     OW24595   5.528   6.687   1.213
 7899SOL    HW124596   5.510   6.589   1.218
 7899SOL    HW224597   5.590   6.705   1.137
 7900SOL     OW24598   0.980   5.429   1.504
 7900SOL    HW124599   0.936   5.343   1.528
 7900SOL    HW224600   0.937   5.504   1.555
 7901SOL     OW24601   4.280   0.827   6.896
 7901SOL    HW124602   4.206   0.879   6.939
 7901SOL    HW224603   4.367   0.872   6.915
 7902SOL     OW24604   6.496   6.290   1.956
 7902SOL    HW124605   6.580   6.305   2.008
 7902SOL    HW224606   6.466   6.376   1.915
 7903SOL     OW24607   4.891   1.452   2.744
 7903SOL    HW124608   4.983   1.475   2.776
 7903SOL    HW224609   4.842   1.536   2.718
 7904SOL     OW24610   5.793   6.601   2.574
 7904SOL    HW124611   5.756   6.623   2.483
 7904SOL    HW224612   5.718   6.575   2.634
 7905SOL     OW24613   5.929   2.607   0.674
 7905SOL    HW124614   5.963   2.568   0.588
 7905SOL    HW224615   5.846   2.558   0.701
 7906SOL     OW24616   0.684   4.859   0.958
 7906SOL    HW124617   0.719   4.805   0.881
 7906SOL    HW224618   0.692   4.956   0.937
 7907SOL     OW24619   5.912   2.065   3.395
 7907SOL    HW124620   5.936   1.969   3.380
 7907SOL    HW224621   5.989   2.124   3.368
 7908SOL     OW24622   1.910   0.393   5.746
 7908SOL    HW124623   1.870   0.334   5.676
 7908SOL    HW224624   1.841   0.415   5.814
 7909SOL     OW24625   5.108   4.184   3.922
 7909SOL    HW124626   5.107   4.108   3.987
 7909SOL    HW224627   5.059   4.262   3.960
 7910SOL     OW24628   2.397   2.955   0.546
 7910SOL    HW124629   2.474   2.902   0.511
 7910SOL    HW224630   2.324   2.955   0.478
 7911SOL     OW24631   0.917   4.625   0.509
 7911SOL    HW124632   0.923   4.546   0.570
 7911SOL    HW224633   0.998   4.683   0.522
 7912SOL     OW24634   5.804   4.336   1.283
 7912SOL    HW124635   5.845   4.322   1.194
 7912SOL    HW224636   5.865   4.390   1.340
 7913SOL     OW24637   1.324   4.185   1.774
 7913SOL    HW124638   1.294   4.143   1.860
 7913SOL    HW224639   1.291   4.131   1.697
 7914SOL     OW24640   0.137   4.533   0.404
 7914SOL    HW124641   0.152   4.488   0.492
 7914SOL    HW224642   0.062   4.598   0.411
 7915SOL     OW24643   5.180   2.480   1.988
 7915SOL    HW124644   5.179   2.580   1.990
 7915SOL    HW224645   5.124   2.445   2.063
 7916SOL     OW24646   6.902   6.564   5.657
 7916SOL    HW124647   6.978   6.502   5.642
 7916SOL    HW224648   6.831   6.519   5.711
 7917SOL     OW24649   3.577   3.155   5.052
 7917SOL    HW124650   3.481   3.168   5.025
 7917SOL    HW224651   3.607   3.064   5.023
 7918SOL     OW24652   6.583   1.232   4.567
 7918SOL    HW124653   6.619   1.245   4.474
 7918SOL    HW224654   6.658   1.215   4.630
 7919SOL     OW24655   1.593   4.825   3.340
 7919SOL    HW124656   1.570   4.820   3.437
 7919SOL    HW224657   1.685   4.861   3.329
 7920SOL     OW24658   6.459   0.421   0.474
 7920SOL    HW124659   6.503   0.342   0.516
 7920SOL    HW224660   6.400   0.466   0.542
 7921SOL     OW24661   5.981   6.169   2.058
 7921SOL    HW124662   5.962   6.077   2.023
 7921SOL    HW224663   6.077   6.176   2.084
 7922SOL     OW24664   0.611   5.821   0.549
 7922SOL    HW124665   0.527   5.875   0.558
 7922SOL    HW224666   0.653   5.809   0.639
 7923SOL     OW24667   4.050   0.755   6.407
 7923SOL    HW124668   4.012   0.719   6.492
 7923SOL    HW224669   4.041   0.687   6.335
 7924SOL     OW24670   5.142   0.217   2.177
 7924SOL    HW124671   5.067   0.165   2.218
 7924SOL    HW224672   5.113   0.312   2.164
 7925SOL     OW24673   0.822   0.033   0.312
 7925SOL    HW124674   0.782   0.013   0.222
 7925SOL    HW224675   0.769   0.104   0.357
 7926SOL     OW24676   4.075   1.884   6.551
 7926SOL    HW124677   4.000   1.822   6.528
 7926SOL    HW224678   4.078   1.959   6.485
 7927SOL     OW24679   4.383   5.987   2.568
 7927SOL    HW124680   4.351   5.939   2.649
 7927SOL    HW224681   4.397   6.084   2.589
 7928SOL     OW24682   1.368   1.561   3.889
 7928SOL    HW124683   1.310   1.570   3.970
 7928SOL    HW224684   1.310   1.560   3.807
 7929SOL     OW24685   3.996   3.780   5.331
 7929SOL    HW124686   4.080   3.732   5.304
 7929SOL    HW224687   3.917   3.721   5.312
 7930SOL     OW24688   4.145   5.207   5.537
 7930SOL    HW124689   4.151   5.284   5.601
 7930SOL    HW224690   4.237   5.172   5.519
 7931SOL     OW24691   2.980   3.152   0.033
 7931SOL    HW124692   2.924   3.105   6.987
 7931SOL    HW224693   3.071   3.112   0.036
 7932SOL     OW24694   1.055   6.462   6.588
 7932SOL    HW124695   1.074   6.376   6.635
 7932SOL    HW224696   1.135   6.522   6.596
 7933SOL     OW24697   6.664   6.907   6.142
 7933SOL    HW124698   6.682   6.919   6.044
 7933SOL    HW224699   6.749   6.918   6.193
 7934SOL     OW24700   1.337   4.967   6.328
 7934SOL    HW124701   1.408   4.940   6.263
 7934SOL    HW224702   1.288   5.047   6.293
 7935SOL     OW24703   5.905   5.983   0.904
 7935SOL    HW124704   5.824   6.032   0.872
 7935SOL    HW224705   5.940   6.026   0.987
 7936SOL     OW24706   2.998   5.921   2.151
 7936SOL    HW124707   2.955   5.894   2.065
 7936SOL    HW224708   3.022   5.839   2.203
 7937SOL     OW24709   6.706   5.697   4.051
 7937SOL    HW124710   6.722   5.680   4.148
 7937SOL    HW224711   6.665   5.616   4.009
 7938SOL     OW24712   6.300   6.225   4.143
 7938SOL    HW124713   6.317   6.137   4.099
 7938SOL    HW224714   6.306   6.214   4.243
 7939SOL     OW24715   1.680   2.158   4.684
 7939SOL    HW124716   1.639   2.235   4.732
 7939SOL    HW224717   1.772   2.183   4.654
 7940SOL     OW24718   1.718   3.388   1.925
 7940SOL    HW124719   1.754   3.391   2.018
 7940SOL    HW224720   1.787   3.424   1.861
 7941SOL     OW24721   6.160   6.237   1.322
 7941SOL    HW124722   6.204   6.279   1.242
 7941SOL    HW224723   6.229   6.198   1.382
 7942SOL     OW24724   0.043   5.159   2.584
 7942SOL    HW124725   0.070   5.196   2.672
 7942SOL    HW224726   0.061   5.061   2.582
 7943SOL     OW24727   0.717   4.147   6.498
 7943SOL    HW124728   0.621   4.171   6.516
 7943SOL    HW224729   0.770   4.231   6.486
 7944SOL     OW24730   0.638   2.454   0.713
 7944SOL    HW124731   0.566   2.523   0.705
 7944SOL    HW224732   0.605   2.378   0.770
 7945SOL     OW24733   6.636   5.581   1.216
 7945SOL    HW124734   6.557   5.539   1.260
 7945SOL    HW224735   6.715   5.521   1.225
 7946SOL     OW24736   3.726   0.169   5.403
 7946SOL    HW124737   3.813   0.213   5.423
 7946SOL    HW224738   3.655   0.239   5.391
 7947SOL     OW24739   3.174   1.566   5.682
 7947SOL    HW124740   3.253   1.523   5.639
 7947SOL    HW224741   3.189   1.571   5.781
 7948SOL     OW24742   1.186   6.145   1.107
 7948SOL    HW124743   1.255   6.102   1.049
 7948SOL    HW224744   1.095   6.119   1.075
 7949SOL     OW24745   4.770   4.010   5.435
 7949SOL    HW124746   4.824   3.933   5.401
 7949SOL    HW224747   4.762   4.003   5.535
 7950SOL     OW24748   4.831   5.370   4.195
 7950SOL    HW124749   4.735   5.371   4.221
 7950SOL    HW224750   4.841   5.327   4.105
 7951SOL     OW24751   2.165   5.063   2.464
 7951SOL    HW124752   2.216   5.128   2.407
 7951SOL    HW224753   2.229   5.009   2.518
 7952SOL     OW24754   6.909   3.334   6.661
 7952SOL    HW124755   6.832   3.286   6.619
 7952SOL    HW224756   6.961   3.382   6.591
 7953SOL     OW24757   3.637   2.004   2.963
 7953SOL    HW124758   3.622   1.992   2.864
 7953SOL    HW224759   3.736   2.014   2.979
 7954SOL     OW24760   3.154   4.717   5.898
 7954SOL    HW124761   3.094   4.733   5.976
 7954SOL    HW224762   3.140   4.789   5.831
 7955SOL     OW24763   2.941   0.626   6.724
 7955SOL    HW124764   2.966   0.549   6.665
 7955SOL    HW224765   3.023   0.673   6.755
 7956SOL     OW24766   4.623   6.423   2.043
 7956SOL    HW124767   4.532   6.431   2.084
 7956SOL    HW224768   4.683   6.493   2.081
 7957SOL     OW24769   0.821   0.587   1.363
 7957SOL    HW124770   0.783   0.603   1.454
 7957SOL    HW224771   0.782   0.652   1.299
 7958SOL     OW24772   3.891   5.127   5.426
 7958SOL    HW124773   3.985   5.151   5.451
 7958SOL    HW224774   3.889   5.032   5.395
 7959SOL     OW24775   5.274   5.681   0.958
 7959SOL    HW124776   5.306   5.647   0.870
 7959SOL    HW224777   5.319   5.629   1.031
 7960SOL     OW24778   2.253   1.279   5.881
 7960SOL    HW124779   2.260   1.329   5.968
 7960SOL    HW224780   2.197   1.331   5.817
 7961SOL     OW24781   7.011   1.019   0.371
 7961SOL    HW124782   0.006   1.097   0.432
 7961SOL    HW224783   0.050   0.944   0.395
 7962SOL     OW24784   1.412   0.588   5.819
 7962SOL    HW124785   1.395   0.578   5.721
 7962SOL    HW224786   1.350   0.656   5.857
 7963SOL     OW24787   6.410   6.678   4.647
 7963SOL    HW124788   6.493   6.662   4.594
 7963SOL    HW224789   6.389   6.776   4.647
 7964SOL     OW24790   7.001   4.121   2.986
 7964SOL    HW124791   6.990   4.207   3.035
 7964SOL    HW224792   0.016   4.140   2.894
 7965SOL     OW24793   4.521   2.556   6.243
 7965SOL    HW124794   4.524   2.621   6.167
 7965SOL    HW224795   4.583   2.587   6.315
 7966SOL     OW24796   2.262   2.549   5.830
 7966SOL    HW124797   2.290   2.531   5.735
 7966SOL    HW224798   2.325   2.614   5.872
 7967SOL     OW24799   3.540   6.425   2.355
 7967SOL    HW124800   3.602   6.501   2.372
 7967SOL    HW224801   3.533   6.408   2.257
 7968SOL     OW24802   1.158   2.364   3.666
 7968SOL    HW124803   1.231   2.306   3.701
 7968SOL    HW224804   1.160   2.364   3.566
 7969SOL     OW24805   4.936   5.900   0.634
 7969SOL    HW124806   4.912   5.818   0.583
 7969SOL    HW224807   5.034   5.916   0.627
 7970SOL     OW24808   6.955   2.901   2.184
 7970SOL    HW124809   6.861   2.889   2.216
 7970SOL    HW224810   6.986   2.994   2.205
 7971SOL     OW24811   3.253   2.173   0.901
 7971SOL    HW124812   3.310   2.145   0.978
 7971SOL    HW224813   3.226   2.092   0.848
 7972SOL     OW24814   2.143   2.745   0.087
 7972SOL    HW124815   2.078   2.681   0.130
 7972SOL    HW224816   2.093   2.807   0.028
 7973SOL     OW24817   4.153   4.847   4.606
 7973SOL    HW124818   4.204   4.788   4.668
 7973SOL    HW224819   4.172   4.942   4.628
 7974SOL     OW24820   5.939   0.735   5.235
 7974SOL    HW124821   5.990   0.679   5.170
 7974SOL    HW224822   5.908   0.678   5.311
 7975SOL     OW24823   6.555   1.095   1.881
 7975SOL    HW124824   6.638   1.040   1.889
 7975SOL    HW224825   6.563   1.157   1.803
 7976SOL     OW24826   0.741   0.311   6.051
 7976SOL    HW124827   0.697   0.227   6.017
 7976SOL    HW224828   0.810   0.341   5.985
 7977SOL     OW24829   4.681   5.697   2.843
 7977SOL    HW124830   4.584   5.719   2.840
 7977SOL    HW224831   4.696   5.608   2.799
 7978SOL     OW24832   6.180   2.651   6.330
 7978SOL    HW124833   6.279   2.661   6.333
 7978SOL    HW224834   6.137   2.737   6.360
 7979SOL     OW24835   3.962   5.898   5.927
 7979SOL    HW124836   3.886   5.956   5.898
 7979SOL    HW224837   4.032   5.897   5.854
 7980SOL     OW24838   3.178   5.796   0.006
 7980SOL    HW124839   3.123   5.719   0.038
 7980SOL    HW224840   3.261   5.762   6.983
 7981SOL     OW24841   0.766   4.944   2.083
 7981SOL    HW124842   0.768   5.036   2.044
 7981SOL    HW224843   0.850   4.895   2.058
 7982SOL     OW24844   2.057   1.514   0.282
 7982SOL    HW124845   2.019   1.606   0.292
 7982SOL    HW224846   1.991   1.455   0.234
 7983SOL     OW24847   6.702   2.109   1.263
 7983SOL    HW124848   6.644   2.072   1.190
 7983SOL    HW224849   6.791   2.132   1.225
 7984SOL     OW24850   1.047   1.135   1.080
 7984SOL    HW124851   0.972   1.119   1.016
 7984SOL    HW224852   1.124   1.076   1.056
 7985SOL     OW24853   2.899   0.680   4.427
 7985SOL    HW124854   2.866   0.774   4.435
 7985SOL    HW224855   2.974   0.676   4.361
 7986SOL     OW24856   2.985   1.054   6.210
 7986SOL    HW124857   2.983   1.067   6.310
 7986SOL    HW224858   2.934   1.128   6.166
 7987SOL     OW24859   2.038   2.206   6.820
 7987SOL    HW124860   2.119   2.156   6.851
 7987SOL    HW224861   2.054   2.240   6.728
 7988SOL     OW24862   0.531   2.160   3.269
 7988SOL    HW124863   0.629   2.173   3.287
 7988SOL    HW224864   0.487   2.123   3.350
 7989SOL     OW24865   3.131   3.309   6.788
 7989SOL    HW124866   3.122   3.385   6.725
 7989SOL    HW224867   3.041   3.268   6.806
 7990SOL     OW24868   1.132   4.537   4.030
 7990SOL    HW124869   1.075   4.588   4.094
 7990SOL    HW224870   1.083   4.455   3.999
 7991SOL     OW24871   5.467   0.149   2.996
 7991SOL    HW124872   5.398   0.080   3.018
 7991SOL    HW224873   5.507   0.184   3.081
 7992SOL     OW24874   1.011   0.313   0.920
 7992SOL    HW124875   0.984   0.284   0.828
 7992SOL    HW224876   1.046   0.235   0.971
 7993SOL     OW24877   0.290   6.726   0.698
 7993SOL    HW124878   0.363   6.674   0.653
 7993SOL    HW224879   0.325   6.815   0.727
 7994SOL     OW24880   4.150   6.954   3.501
 7994SOL    HW124881   4.209   7.011   3.443
 7994SOL    HW224882   4.058   6.992   3.502
 7995SOL     OW24883   5.701   5.994   3.495
 7995SOL    HW124884   5.670   6.002   3.401
 7995SOL    HW224885   5.625   5.964   3.553
 7996SOL     OW24886   2.783   0.346   4.895
 7996SOL    HW124887   2.683   0.349   4.891
 7996SOL    HW224888   2.812   0.317   4.986
 7997SOL     OW24889   0.091   1.254   1.410
 7997SOL    HW124890   0.131   1.287   1.495
 7997SOL    HW224891   0.015   1.191   1.431
 7998SOL     OW24892   2.751   0.199   0.209
 7998SOL    HW124893   2.675   0.220   0.270
 7998SOL    HW224894   2.729   0.231   0.117
 7999SOL     OW24895   1.080   0.630   6.044
 7999SOL    HW124896   1.062   0.607   6.140
 7999SOL    HW224897   1.032   0.565   5.985
 8000SOL     OW24898   5.005   6.960   6.988
 8000SOL    HW124899   5.034   6.865   6.999
 8000SOL    HW224900   4.969   6.973   6.896
 8001SOL     OW24901   4.465   6.185   1.653
 8001SOL    HW124902   4.370   6.193   1.683
 8001SOL    HW224903   4.507   6.106   1.696
 8002SOL     OW24904   2.204   0.870   6.286
 8002SOL    HW124905   2.260   0.849   6.366
 8002SOL    HW224906   2.209   0.794   6.221
 8003SOL     OW24907   2.765   5.435   2.014
 8003SOL    HW124908   2.743   5.350   1.966
 8003SOL    HW224909   2.688   5.461   2.072
 8004SOL     OW24910   2.203   2.944   2.646
 8004SOL    HW124911   2.105   2.929   2.659
 8004SOL    HW224912   2.223   2.954   2.549
 8005SOL     OW24913   3.098   1.468   3.082
 8005SOL    HW124914   3.039   1.535   3.127
 8005SOL    HW224915   3.151   1.513   3.011
 8006SOL     OW24916   2.048   6.437   5.873
 8006SOL    HW124917   2.119   6.506   5.864
 8006SOL    HW224918   2.090   6.347   5.882
 8007SOL     OW24919   6.523   1.041   5.593
 8007SOL    HW124920   6.547   0.999   5.506
 8007SOL    HW224921   6.466   1.122   5.577
 8008SOL     OW24922   4.454   6.159   6.580
 8008SOL    HW124923   4.498   6.236   6.626
 8008SOL    HW224924   4.376   6.192   6.528
 8009SOL     OW24925   5.589   0.597   1.598
 8009SOL    HW124926   5.677   0.627   1.561
 8009SOL    HW224927   5.571   0.503   1.569
 8010SOL     OW24928   1.909   1.249   5.274
 8010SOL    HW124929   1.959   1.162   5.277
 8010SOL    HW224930   1.835   1.247   5.342
 8011SOL     OW24931   3.577   2.290   0.849
 8011SOL    HW124932   3.492   2.321   0.808
 8011SOL    HW224933   3.628   2.235   0.783
 8012SOL     OW24934   2.243   3.832   0.069
 8012SOL    HW124935   2.214   3.749   0.023
 8012SOL    HW224936   2.218   3.827   0.166
 8013SOL     OW24937   1.822   5.235   3.322
 8013SOL    HW124938   1.867   5.147   3.333
 8013SOL    HW224939   1.724   5.225   3.337
 8014SOL     OW24940   1.336   6.454   5.032
 8014SOL    HW124941   1.428   6.473   4.999
 8014SOL    HW224942   1.305   6.529   5.091
 8015SOL     OW24943   3.472   0.786   5.959
 8015SOL    HW124944   3.401   0.734   5.913
 8015SOL    HW224945   3.450   0.793   6.056
 8016SOL     OW24946   4.853   0.407   5.537
 8016SOL    HW124947   4.938   0.426   5.585
 8016SOL    HW224948   4.873   0.365   5.448
 8017SOL     OW24949   5.936   6.946   0.910
 8017SOL    HW124950   5.937   6.854   0.871
 8017SOL    HW224951   5.878   7.005   0.854
 8018SOL     OW24952   3.332   1.992   6.648
 8018SOL    HW124953   3.352   1.973   6.552
 8018SOL    HW224954   3.310   1.907   6.695
 8019SOL     OW24955   2.420   4.873   0.578
 8019SOL    HW124956   2.470   4.806   0.633
 8019SOL    HW224957   2.470   4.890   0.493
 8020SOL     OW24958   5.933   0.385   0.302
 8020SOL    HW124959   5.882   0.331   0.234
 8020SOL    HW224960   6.017   0.420   0.260
 8021SOL     OW24961   1.364   2.539   0.714
 8021SOL    HW124962   1.436   2.546   0.783
 8021SOL    HW224963   1.387   2.598   0.636
 8022SOL     OW24964   5.974   0.001   2.803
 8022SOL    HW124965   5.966   0.049   2.716
 8022SOL    HW224966   5.884   6.988   2.830
 8023SOL     OW24967   5.352   5.467   2.794
 8023SOL    HW124968   5.444   5.503   2.808
 8023SOL    HW224969   5.289   5.542   2.772
 8024SOL     OW24970   1.125   4.600   5.801
 8024SOL    HW124971   1.176   4.540   5.740
 8024SOL    HW224972   1.138   4.570   5.896
 8025SOL     OW24973   2.265   5.666   0.006
 8025SOL    HW124974   2.332   5.717   6.975
 8025SOL    HW224975   2.297   5.655   0.100
 8026SOL     OW24976   6.873   4.273   6.996
 8026SOL    HW124977   6.865   4.367   6.961
 8026SOL    HW224978   6.965   4.239   6.980
 8027SOL     OW24979   4.728   0.363   4.754
 8027SOL    HW124980   4.774   0.447   4.785
 8027SOL    HW224981   4.629   0.380   4.749
 8028SOL     OW24982   3.946   6.041   5.523
 8028SOL    HW124983   4.011   6.114   5.499
 8028SOL    HW224984   3.856   6.082   5.543
 8029SOL     OW24985   4.821   3.150   1.010
 8029SOL    HW124986   4.907   3.110   1.041
 8029SOL    HW224987   4.753   3.077   1.000
 8030SOL     OW24988   4.498   4.594   0.189
 8030SOL    HW124989   4.478   4.656   0.114
 8030SOL    HW224990   4.444   4.621   0.270
 8031SOL     OW24991   6.639   6.331   2.254
 8031SOL    HW124992   6.558   6.314   2.310
 8031SOL    HW224993   6.675   6.422   2.274
 8032SOL     OW24994   6.283   3.937   1.704
 8032SOL    HW124995   6.192   3.946   1.745
 8032SOL    HW224996   6.332   4.024   1.710
 8033SOL     OW24997   5.044   1.792   6.285
 8033SOL    HW124998   5.131   1.840   6.288
 8033SOL    HW224999   5.001   1.797   6.376
 8034SOL     OW25000   4.706   1.028   4.839
 8034SOL    HW125001   4.665   1.099   4.783
 8034SOL    HW225002   4.672   0.938   4.809
 8035SOL     OW25003   5.147   1.607   4.241
 8035SOL    HW125004   5.115   1.700   4.258
 8035SOL    HW225005   5.165   1.562   4.328
 8036SOL     OW25006   6.536   3.874   3.928
 8036SOL    HW125007   6.627   3.916   3.921
 8036SOL    HW225008   6.521   3.814   3.850
 8037SOL     OW25009   1.521   3.255   7.014
 8037SOL    HW125010   1.586   3.184   0.020
 8037SOL    HW225011   1.491   3.237   6.920
 8038SOL     OW25012   4.657   0.137   2.490
 8038SOL    HW125013   4.602   0.056   2.466
 8038SOL    HW225014   4.598   0.217   2.492
 8039SOL     OW25015   1.043   2.028   5.533
 8039SOL    HW125016   1.028   1.932   5.555
 8039SOL    HW225017   0.997   2.050   5.447
 8040SOL     OW25018   1.223   5.542   0.034
 8040SOL    HW125019   1.258   5.627   0.074
 8040SOL    HW225020   1.271   5.464   0.074
 8041SOL     OW25021   2.861   1.229   2.576
 8041SOL    HW125022   2.791   1.181   2.523
 8041SOL    HW225023   2.903   1.166   2.640
 8042SOL     OW25024   3.310   3.032   4.294
 8042SOL    HW125025   3.338   2.957   4.355
 8042SOL    HW225026   3.213   3.053   4.310
 8043SOL     OW25027   3.479   6.398   0.922
 8043SOL    HW125028   3.400   6.458   0.934
 8043SOL    HW225029   3.520   6.380   1.012
 8044SOL     OW25030   4.372   2.547   1.723
 8044SOL    HW125031   4.303   2.484   1.758
 8044SOL    HW225032   4.360   2.557   1.624
 8045SOL     OW25033   5.531   2.492   2.736
 8045SOL    HW125034   5.496   2.520   2.647
 8045SOL    HW225035   5.466   2.431   2.780
 8046SOL     OW25036   1.039   4.395   1.861
 8046SOL    HW125037   1.033   4.477   1.919
 8046SOL    HW225038   1.079   4.321   1.914
 8047SOL     OW25039   4.046   5.632   5.296
 8047SOL    HW125040   4.011   5.623   5.202
 8047SOL    HW225041   4.014   5.718   5.336
 8048SOL     OW25042   4.762   1.995   6.293
 8048SOL    HW125043   4.769   1.901   6.259
 8048SOL    HW225044   4.851   2.024   6.329
 8049SOL     OW25045   0.507   0.269   0.268
 8049SOL    HW125046   0.534   0.363   0.246
 8049SOL    HW225047   0.505   0.214   0.185
 8050SOL     OW25048   1.851   3.347   3.517
 8050SOL    HW125049   1.949   3.352   3.497
 8050SOL    HW225050   1.811   3.270   3.469
 8051SOL     OW25051   4.316   5.856   4.337
 8051SOL    HW125052   4.314   5.768   4.383
 8051SOL    HW225053   4.241   5.914   4.369
 8052SOL     OW25054   3.307   1.438   0.542
 8052SOL    HW125055   3.393   1.388   0.555
 8052SOL    HW225056   3.322   1.513   0.477
 8053SOL     OW25057   3.095   3.025   4.026
 8053SOL    HW125058   3.085   3.003   3.929
 8053SOL    HW225059   3.133   3.117   4.036
 8054SOL     OW25060   6.363   4.934   5.071
 8054SOL    HW125061   6.333   4.881   5.150
 8054SOL    HW225062   6.306   5.016   5.063
 8055SOL     OW25063   0.598   0.111   5.162
 8055SOL    HW125064   0.559   0.019   5.154
 8055SOL    HW225065   0.537   0.169   5.215
 8056SOL     OW25066   2.144   1.059   3.560
 8056SOL    HW125067   2.102   1.124   3.624
 8056SOL    HW225068   2.128   1.089   3.467
 8057SOL     OW25069   3.184   2.153   2.816
 8057SOL    HW125070   3.087   2.153   2.840
 8057SOL    HW225071   3.229   2.232   2.857
 8058SOL     OW25072   3.882   0.115   3.242
 8058SOL    HW125073   3.932   0.034   3.209
 8058SOL    HW225074   3.790   0.114   3.204
 8059SOL     OW25075   2.820   2.045   4.611
 8059SOL    HW125076   2.770   1.978   4.557
 8059SOL    HW225077   2.844   2.006   4.700
 8060SOL     OW25078   6.595   2.222   6.058
 8060SOL    HW125079   6.667   2.156   6.080
 8060SOL    HW225080   6.572   2.215   5.960
 8061SOL     OW25081   6.894   0.354   2.704
 8061SOL    HW125082   6.958   0.308   2.643
 8061SOL    HW225083   6.908   0.321   2.798
 8062SOL     OW25084   3.488   4.993   4.645
 8062SOL    HW125085   3.490   4.966   4.548
 8062SOL    HW225086   3.395   5.020   4.670
 8063SOL     OW25087   1.929   2.222   2.448
 8063SOL    HW125088   1.968   2.130   2.439
 8063SOL    HW225089   1.850   2.230   2.387
 8064SOL     OW25090   6.369   2.580   1.233
 8064SOL    HW125091   6.447   2.608   1.177
 8064SOL    HW225092   6.346   2.485   1.212
 8065SOL     OW25093   2.529   5.873   4.272
 8065SOL    HW125094   2.491   5.780   4.278
 8065SOL    HW225095   2.460   5.939   4.303
 8066SOL     OW25096   0.721   1.713   5.221
 8066SOL    HW125097   0.737   1.798   5.170
 8066SOL    HW225098   0.642   1.724   5.281
 8067SOL     OW25099   5.091   2.579   2.712
 8067SOL    HW125100   5.009   2.585   2.656
 8067SOL    HW225101   5.167   2.543   2.658
 8068SOL     OW25102   6.957   4.407   1.683
 8068SOL    HW125103   6.870   4.395   1.636
 8068SOL    HW225104   0.010   4.401   1.616
 8069SOL     OW25105   2.539   5.993   0.901
 8069SOL    HW125106   2.566   6.080   0.942
 8069SOL    HW225107   2.540   6.001   0.802
 8070SOL     OW25108   3.836   3.528   1.093
 8070SOL    HW125109   3.796   3.457   1.035
 8070SOL    HW225110   3.782   3.612   1.086
 8071SOL     OW25111   3.460   6.368   4.600
 8071SOL    HW125112   3.440   6.409   4.689
 8071SOL    HW225113   3.518   6.429   4.547
 8072SOL     OW25114   4.394   1.625   0.992
 8072SOL    HW125115   4.357   1.540   1.027
 8072SOL    HW225116   4.346   1.651   0.908
 8073SOL     OW25117   3.065   5.058   5.259
 8073SOL    HW125118   3.147   5.072   5.205
 8073SOL    HW225119   3.007   4.989   5.216
 8074SOL     OW25120   3.177   2.613   0.757
 8074SOL    HW125121   3.193   2.675   0.680
 8074SOL    HW225122   3.125   2.533   0.726
 8075SOL     OW25123   6.814   6.622   0.439
 8075SOL    HW125124   6.742   6.658   0.497
 8075SOL    HW225125   6.901   6.666   0.461
 8076SOL     OW25126   6.324   0.725   5.254
 8076SOL    HW125127   6.297   0.818   5.228
 8076SOL    HW225128   6.339   0.671   5.171
 8077SOL     OW25129   3.381   6.276   2.574
 8077SOL    HW125130   3.418   6.342   2.508
 8077SOL    HW225131   3.453   6.211   2.598
 8078SOL     OW25132   6.983   2.107   0.428
 8078SOL    HW125133   7.019   2.182   0.484
 8078SOL    HW225134   6.900   2.138   0.382
 8079SOL     OW25135   5.877   1.788   3.520
 8079SOL    HW125136   5.873   1.702   3.469
 8079SOL    HW225137   5.902   1.770   3.615
 8080SOL     OW25138   1.012   3.151   1.829
 8080SOL    HW125139   1.077   3.202   1.885
 8080SOL    HW225140   1.018   3.182   1.734
 8081SOL     OW25141   6.190   5.719   5.706
 8081SOL    HW125142   6.249   5.639   5.717
 8081SOL    HW225143   6.219   5.770   5.625
 8082SOL     OW25144   4.146   6.777   2.452
 8082SOL    HW125145   4.063   6.792   2.505
 8082SOL    HW225146   4.225   6.772   2.514
 8083SOL     OW25147   4.935   2.720   3.161
 8083SOL    HW125148   4.993   2.765   3.093
 8083SOL    HW225149   4.944   2.621   3.152
 8084SOL     OW25150   3.882   6.477   0.511
 8084SOL    HW125151   3.975   6.508   0.527
 8084SOL    HW225152   3.839   6.534   0.441
 8085SOL     OW25153   6.781   6.451   2.005
 8085SOL    HW125154   6.755   6.376   2.065
 8085SOL    HW225155   6.880   6.450   1.991
 8086SOL     OW25156   6.217   0.926   2.502
 8086SOL    HW125157   6.277   0.933   2.422
 8086SOL    HW225158   6.126   0.899   2.473
 8087SOL     OW25159   2.379   0.744   6.987
 8087SOL    HW125160   2.440   0.693   0.027
 8087SOL    HW225161   2.314   0.796   0.021
 8088SOL     OW25162   5.781   1.549   1.480
 8088SOL    HW125163   5.853   1.506   1.426
 8088SOL    HW225164   5.738   1.621   1.425
 8089SOL     OW25165   5.975   2.862   0.809
 8089SOL    HW125166   5.952   2.924   0.734
 8089SOL    HW225167   5.971   2.768   0.777
 8090SOL     OW25168   4.578   2.100   0.117
 8090SOL    HW125169   4.621   2.168   0.177
 8090SOL    HW225170   4.621   2.102   0.027
 8091SOL     OW25171   2.126   4.077   4.767
 8091SOL    HW125172   2.063   4.097   4.842
 8091SOL    HW225173   2.217   4.059   4.805
 8092SOL     OW25174   5.427   2.212   5.132
 8092SOL    HW125175   5.506   2.252   5.177
 8092SOL    HW225176   5.389   2.140   5.191
 8093SOL     OW25177   4.281   4.702   2.931
 8093SOL    HW125178   4.331   4.692   3.017
 8093SOL    HW225179   4.209   4.770   2.943
 8094SOL     OW25180   0.964   3.438   4.793
 8094SOL    HW125181   0.998   3.412   4.702
 8094SOL    HW225182   0.890   3.376   4.819
 8095SOL     OW25183   0.537   4.845   4.365
 8095SOL    HW125184   0.603   4.878   4.432
 8095SOL    HW225185   0.498   4.923   4.315
 8096SOL     OW25186   1.731   6.839   3.275
 8096SOL    HW125187   1.751   6.930   3.313
 8096SOL    HW225188   1.746   6.840   3.177
 8097SOL     OW25189   4.162   0.004   4.136
 8097SOL    HW125190   4.118   0.065   4.203
 8097SOL    HW225191   4.096   6.999   4.066
 8098SOL     OW25192   1.982   6.286   3.160
 8098SOL    HW125193   1.946   6.216   3.223
 8098SOL    HW225194   1.984   6.375   3.206
 8099SOL     OW25195   3.881   6.300   4.908
 8099SOL    HW125196   3.929   6.276   4.824
 8099SOL    HW225197   3.802   6.358   4.887
 8100SOL     OW25198   6.993   0.693   0.344
 8100SOL    HW125199   6.922   0.741   0.394
 8100SOL    HW225200   0.020   0.631   0.405
 8101SOL     OW25201   2.104   6.203   2.347
 8101SOL    HW125202   2.029   6.143   2.376
 8101SOL    HW225203   2.153   6.237   2.428
 8102SOL     OW25204   0.792   4.415   3.774
 8102SOL    HW125205   0.775   4.492   3.835
 8102SOL    HW225206   0.867   4.437   3.711
 8103SOL     OW25207   2.886   6.930   1.341
 8103SOL    HW125208   2.821   6.928   1.417
 8103SOL    HW225209   2.855   6.996   1.273
 8104SOL     OW25210   2.605   0.704   5.752
 8104SOL    HW125211   2.694   0.691   5.709
 8104SOL    HW225212   2.539   0.640   5.713
 8105SOL     OW25213   0.883   2.763   3.251
 8105SOL    HW125214   0.841   2.747   3.340
 8105SOL    HW225215   0.839   2.841   3.206
 8106SOL     OW25216   2.884   6.211   3.021
 8106SOL    HW125217   2.943   6.147   2.972
 8106SOL    HW225218   2.894   6.196   3.119
 8107SOL     OW25219   1.046   5.029   4.286
 8107SOL    HW125220   0.971   4.964   4.273
 8107SOL    HW225221   1.019   5.098   4.353
 8108SOL     OW25222   6.123   3.174   5.888
 8108SOL    HW125223   6.095   3.206   5.797
 8108SOL    HW225224   6.082   3.085   5.906
 8109SOL     OW25225   0.754   3.768   4.571
 8109SOL    HW125226   0.773   3.862   4.601
 8109SOL    HW225227   0.693   3.770   4.492
 8110SOL     OW25228   3.846   5.875   1.511
 8110SOL    HW125229   3.849   5.803   1.442
 8110SOL    HW225230   3.938   5.892   1.545
 8111SOL     OW25231   5.441   1.267   5.057
 8111SOL    HW125232   5.351   1.268   5.102
 8111SOL    HW225233   5.434   1.217   4.971
 8112SOL     OW25234   2.613   2.038   3.995
 8112SOL    HW125235   2.653   2.071   4.080
 8112SOL    HW225236   2.660   1.955   3.966
 8113SOL     OW25237   1.716   3.613   0.339
 8113SOL    HW125238   1.683   3.522   0.317
 8113SOL    HW225239   1.696   3.633   0.435
 8114SOL     OW25240   1.541   4.201   3.164
 8114SOL    HW125241   1.559   4.207   3.066
 8114SOL    HW225242   1.457   4.149   3.179
 8115SOL     OW25243   3.879   0.306   0.159
 8115SOL    HW125244   3.879   0.323   0.060
 8115SOL    HW225245   3.822   0.375   0.204
 8116SOL     OW25246   4.231   4.885   6.109
 8116SOL    HW125247   4.189   4.820   6.045
 8116SOL    HW225248   4.323   4.909   6.077
 8117SOL     OW25249   1.851   0.086   3.305
 8117SOL    HW125250   1.837   0.172   3.256
 8117SOL    HW225251   1.943   0.051   3.285
 8118SOL     OW25252   5.268   4.850   6.100
 8118SOL    HW125253   5.207   4.927   6.082
 8118SOL    HW225254   5.268   4.789   6.020
 8119SOL     OW25255   4.769   5.763   6.249
 8119SOL    HW125256   4.801   5.748   6.343
 8119SOL    HW225257   4.728   5.854   6.243
 8120SOL     OW25258   3.408   4.936   0.450
 8120SOL    HW125259   3.449   4.997   0.518
 8120SOL    HW225260   3.360   4.990   0.381
 8121SOL     OW25261   0.158   5.155   2.181
 8121SOL    HW125262   0.164   5.249   2.216
 8121SOL    HW225263   0.179   5.091   2.255
 8122SOL     OW25264   0.498   5.594   3.345
 8122SOL    HW125265   0.532   5.513   3.298
 8122SOL    HW225266   0.468   5.661   3.278
 8123SOL     OW25267   0.099   1.535   6.625
 8123SOL    HW125268   0.100   1.452   6.681
 8123SOL    HW225269   0.054   1.517   6.538
 8124SOL     OW25270   5.919   6.342   1.206
 8124SOL    HW125271   5.954   6.348   1.113
 8124SOL    HW225272   5.984   6.290   1.262
 8125SOL     OW25273   1.597   1.284   3.002
 8125SOL    HW125274   1.668   1.344   3.037
 8125SOL    HW225275   1.552   1.326   2.923
 8126SOL     OW25276   4.410   4.554   2.379
 8126SOL    HW125277   4.486   4.527   2.318
 8126SOL    HW225278   4.419   4.505   2.466
 8127SOL     OW25279   2.786   4.250   6.446
 8127SOL    HW125280   2.753   4.190   6.519
 8127SOL    HW225281   2.874   4.290   6.473
 8128SOL     OW25282   2.433   1.435   1.680
 8128SOL    HW125283   2.362   1.493   1.720
 8128SOL    HW225284   2.513   1.434   1.740
 8129SOL     OW25285   4.341   0.049   6.452
 8129SOL    HW125286   4.306   0.111   6.522
 8129SOL    HW225287   4.288   0.058   6.368
 8130SOL     OW25288   0.259   3.321   6.421
 8130SOL    HW125289   0.242   3.249   6.487
 8130SOL    HW225290   0.352   3.313   6.385
 8131SOL     OW25291   3.071   1.816   0.869
 8131SOL    HW125292   3.082   1.866   0.783
 8131SOL    HW225293   2.996   1.751   0.860
 8132SOL     OW25294   6.061   6.633   6.180
 8132SOL    HW125295   6.099   6.581   6.103
 8132SOL    HW225296   6.110   6.720   6.189
 8133SOL     OW25297   3.109   5.260   1.763
 8133SOL    HW125298   3.203   5.271   1.794
 8133SOL    HW225299   3.066   5.351   1.753
 8134SOL     OW25300   6.646   2.762   5.794
 8134SOL    HW125301   6.693   2.840   5.752
 8134SOL    HW225302   6.625   2.694   5.724
 8135SOL     OW25303   2.872   6.609   1.270
 8135SOL    HW125304   2.869   6.559   1.184
 8135SOL    HW225305   2.967   6.623   1.298
 8136SOL     OW25306   4.292   5.534   3.523
 8136SOL    HW125307   4.336   5.445   3.534
 8136SOL    HW225308   4.236   5.553   3.604
 8137SOL     OW25309   3.168   2.110   5.247
 8137SOL    HW125310   3.213   2.068   5.169
 8137SOL    HW225311   3.171   2.209   5.237
 8138SOL     OW25312   5.788   1.358   0.276
 8138SOL    HW125313   5.788   1.296   0.198
 8138SOL    HW225314   5.829   1.445   0.248
 8139SOL     OW25315   0.019   1.495   2.297
 8139SOL    HW125316   0.028   1.463   2.203
 8139SOL    HW225317   0.003   1.417   2.357
 8140SOL     OW25318   4.931   0.467   0.737
 8140SOL    HW125319   4.979   0.552   0.718
 8140SOL    HW225320   4.996   0.391   0.737
 8141SOL     OW25321   4.829   5.858   5.035
 8141SOL    HW125322   4.884   5.801   5.096
 8141SOL    HW225323   4.886   5.888   4.958
 8142SOL     OW25324   1.064   5.376   6.834
 8142SOL    HW125325   1.114   5.418   6.909
 8142SOL    HW225326   1.075   5.432   6.751
 8143SOL     OW25327   6.125   4.135   1.367
 8143SOL    HW125328   6.166   4.045   1.352
 8143SOL    HW225329   6.157   4.172   1.455
 8144SOL     OW25330   6.066   6.282   6.253
 8144SOL    HW125331   6.138   6.252   6.191
 8144SOL    HW225332   6.107   6.336   6.327
 8145SOL     OW25333   5.676   5.732   1.503
 8145SOL    HW125334   5.680   5.774   1.594
 8145SOL    HW225335   5.645   5.637   1.512
 8146SOL     OW25336   4.837   0.386   4.495
 8146SOL    HW125337   4.762   0.342   4.444
 8146SOL    HW225338   4.813   0.391   4.592
 8147SOL     OW25339   6.318   1.785   1.173
 8147SOL    HW125340   6.258   1.767   1.095
 8147SOL    HW225341   6.267   1.836   1.243
 8148SOL     OW25342   4.993   4.117   1.170
 8148SOL    HW125343   4.943   4.088   1.089
 8148SOL    HW225344   5.023   4.212   1.159
 8149SOL     OW25345   3.408   6.397   2.090
 8149SOL    HW125346   3.357   6.327   2.140
 8149SOL    HW225347   3.369   6.487   2.109
 8150SOL     OW25348   1.653   3.997   0.766
 8150SOL    HW125349   1.608   3.908   0.769
 8150SOL    HW225350   1.693   4.011   0.676
 8151SOL     OW25351   5.857   2.809   1.447
 8151SOL    HW125352   5.882   2.846   1.537
 8151SOL    HW225353   5.902   2.721   1.434
 8152SOL     OW25354   6.918   2.317   2.351
 8152SOL    HW125355   6.915   2.410   2.389
 8152SOL    HW225356   6.984   2.313   2.277
 8153SOL     OW25357   2.348   0.292   3.437
 8153SOL    HW125358   2.404   0.275   3.356
 8153SOL    HW225359   2.331   0.206   3.486
 8154SOL     OW25360   3.453   5.166   2.172
 8154SOL    HW125361   3.485   5.256   2.141
 8154SOL    HW225362   3.430   5.110   2.092
 8155SOL     OW25363   1.635   3.765   1.976
 8155SOL    HW125364   1.604   3.758   1.881
 8155SOL    HW225365   1.734   3.773   1.979
 8156SOL     OW25366   5.078   0.094   1.303
 8156SOL    HW125367   5.060   0.073   1.207
 8156SOL    HW225368   5.114   0.187   1.311
 8157SOL     OW25369   0.151   5.357   6.350
 8157SOL    HW125370   0.068   5.310   6.317
 8157SOL    HW225371   0.133   5.455   6.358
 8158SOL     OW25372   4.624   5.097   0.632
 8158SOL    HW125373   4.576   5.051   0.707
 8158SOL    HW225374   4.574   5.083   0.547
 8159SOL     OW25375   2.916   5.844   2.513
 8159SOL    HW125376   2.850   5.899   2.462
 8159SOL    HW225377   2.989   5.814   2.451
 8160SOL     OW25378   5.393   0.730   3.765
 8160SOL    HW125379   5.376   0.661   3.695
 8160SOL    HW225380   5.318   0.797   3.764
 8161SOL     OW25381   5.415   1.637   6.739
 8161SOL    HW125382   5.319   1.664   6.732
 8161SOL    HW225383   5.473   1.715   6.715
 8162SOL     OW25384   5.952   5.947   6.011
 8162SOL    HW125385   6.016   5.962   5.936
 8162SOL    HW225386   6.002   5.926   6.095
 8163SOL     OW25387   2.615   3.908   5.314
 8163SOL    HW125388   2.683   3.859   5.259
 8163SOL    HW225389   2.529   3.912   5.265
 8164SOL     OW25390   4.985   3.136   0.393
 8164SOL    HW125391   5.030   3.046   0.386
 8164SOL    HW225392   5.020   3.196   0.322
 8165SOL     OW25393   0.887   3.930   6.451
 8165SOL    HW125394   0.821   4.004   6.454
 8165SOL    HW225395   0.909   3.901   6.544
 8166SOL     OW25396   1.441   0.129   2.658
 8166SOL    HW125397   1.388   0.059   2.707
 8166SOL    HW225398   1.378   0.190   2.610
 8167SOL     OW25399   6.061   6.926   4.955
 8167SOL    HW125400   6.028   6.988   4.884
 8167SOL    HW225401   6.104   6.846   4.912
 8168SOL     OW25402   2.360   1.460   3.630
 8168SOL    HW125403   2.384   1.503   3.543
 8168SOL    HW225404   2.265   1.480   3.651
 8169SOL     OW25405   5.226   2.162   1.041
 8169SOL    HW125406   5.236   2.168   1.140
 8169SOL    HW225407   5.131   2.142   1.018
 8170SOL     OW25408   1.255   5.478   2.856
 8170SOL    HW125409   1.294   5.392   2.823
 8170SOL    HW225410   1.175   5.501   2.801
 8171SOL     OW25411   1.452   1.616   6.735
 8171SOL    HW125412   1.512   1.688   6.701
 8171SOL    HW225413   1.471   1.531   6.686
 8172SOL     OW25414   0.838   2.077   1.840
 8172SOL    HW125415   0.841   2.048   1.936
 8172SOL    HW225416   0.855   1.998   1.781
 8173SOL     OW25417   5.116   1.111   2.446
 8173SOL    HW125418   5.113   1.039   2.376
 8173SOL    HW225419   5.050   1.089   2.518
 8174SOL     OW25420   6.124   3.455   0.970
 8174SOL    HW125421   6.114   3.357   0.958
 8174SOL    HW225422   6.089   3.502   0.889
 8175SOL     OW25423   0.070   3.012   6.208
 8175SOL    HW125424   0.048   3.104   6.242
 8175SOL    HW225425   0.008   2.945   6.249
 8176SOL     OW25426   3.157   5.324   2.108
 8176SOL    HW125427   3.187   5.328   2.013
 8176SOL    HW225428   3.118   5.233   2.126
 8177SOL     OW25429   2.874   6.228   3.919
 8177SOL    HW125430   2.836   6.320   3.917
 8177SOL    HW225431   2.816   6.169   3.975
 8178SOL     OW25432   2.951   5.757   6.776
 8178SOL    HW125433   2.936   5.664   6.744
 8178SOL    HW225434   3.049   5.776   6.780
 8179SOL     OW25435   4.668   2.053   5.629
 8179SOL    HW125436   4.613   1.976   5.661
 8179SOL    HW225437   4.610   2.119   5.582
 8180SOL     OW25438   6.258   0.093   5.039
 8180SOL    HW125439   6.192   0.022   5.014
 8180SOL    HW225440   6.212   0.165   5.091
 8181SOL     OW25441   2.063   1.517   1.462
 8181SOL    HW125442   2.103   1.608   1.468
 8181SOL    HW225443   2.132   1.448   1.485
 8182SOL     OW25444   4.059   3.054   6.174
 8182SOL    HW125445   4.059   3.011   6.264
 8182SOL    HW225446   3.966   3.051   6.136
 8183SOL     OW25447   0.297   2.591   4.447
 8183SOL    HW125448   0.311   2.497   4.416
 8183SOL    HW225449   0.209   2.598   4.495
 8184SOL     OW25450   5.242   2.020   5.939
 8184SOL    HW125451   5.148   2.046   5.958
 8184SOL    HW225452   5.256   1.924   5.966
 8185SOL     OW25453   2.351   6.469   0.485
 8185SOL    HW125454   2.344   6.436   0.579
 8185SOL    HW225455   2.262   6.507   0.456
 8186SOL     OW25456   3.491   5.938   6.133
 8186SOL    HW125457   3.525   5.978   6.218
 8186SOL    HW225458   3.461   5.844   6.150
 8187SOL     OW25459   1.557   2.438   5.433
 8187SOL    HW125460   1.643   2.411   5.475
 8187SOL    HW225461   1.574   2.511   5.367
 8188SOL     OW25462   5.646   2.848   2.161
 8188SOL    HW125463   5.634   2.915   2.087
 8188SOL    HW225464   5.558   2.834   2.207
 8189SOL     OW25465   4.507   4.947   2.824
 8189SOL    HW125466   4.463   4.951   2.735
 8189SOL    HW225467   4.503   5.036   2.868
 8190SOL     OW25468   3.932   5.383   3.748
 8190SOL    HW125469   3.836   5.362   3.768
 8190SOL    HW225470   3.974   5.305   3.701
 8191SOL     OW25471   3.524   6.492   2.960
 8191SOL    HW125472   3.620   6.492   2.934
 8191SOL    HW225473   3.475   6.420   2.912
 8192SOL     OW25474   3.668   5.517   1.091
 8192SOL    HW125475   3.592   5.582   1.096
 8192SOL    HW225476   3.744   5.558   1.041
 8193SOL     OW25477   6.603   6.605   4.449
 8193SOL    HW125478   6.665   6.655   4.388
 8193SOL    HW225479   6.606   6.507   4.426
 8194SOL     OW25480   5.956   2.360   1.056
 8194SOL    HW125481   5.947   2.443   1.001
 8194SOL    HW225482   5.929   2.379   1.150
 8195SOL     OW25483   1.146   0.439   1.235
 8195SOL    HW125484   1.122   0.508   1.303
 8195SOL    HW225485   1.132   0.348   1.273
 8196SOL     OW25486   3.589   0.438   5.566
 8196SOL    HW125487   3.584   0.431   5.467
 8196SOL    HW225488   3.647   0.516   5.591
 8197SOL     OW25489   4.325   1.288   6.334
 8197SOL    HW125490   4.310   1.308   6.237
 8197SOL    HW225491   4.412   1.240   6.345
 8198SOL     OW25492   3.460   6.033   3.457
 8198SOL    HW125493   3.555   6.049   3.430
 8198SOL    HW225494   3.456   5.958   3.522
 8199SOL     OW25495   6.106   3.207   6.322
 8199SOL    HW125496   6.154   3.233   6.238
 8199SOL    HW225497   6.171   3.200   6.397
 8200SOL     OW25498   4.449   3.807   1.726
 8200SOL    HW125499   4.405   3.892   1.698
 8200SOL    HW225500   4.386   3.753   1.782
 8201SOL     OW25501   5.954   0.814   4.077
 8201SOL    HW125502   5.904   0.900   4.069
 8201SOL    HW225503   5.947   0.780   4.171
 8202SOL     OW25504   0.392   5.503   4.404
 8202SOL    HW125505   0.434   5.526   4.316
 8202SOL    HW225506   0.293   5.510   4.397
 8203SOL     OW25507   4.760   2.589   1.162
 8203SOL    HW125508   4.828   2.520   1.138
 8203SOL    HW225509   4.718   2.624   1.078
 8204SOL     OW25510   3.441   5.316   0.766
 8204SOL    HW125511   3.510   5.374   0.722
 8204SOL    HW225512   3.470   5.294   0.859
 8205SOL     OW25513   0.473   4.786   1.125
 8205SOL    HW125514   0.523   4.799   1.039
 8205SOL    HW225515   0.474   4.871   1.177
 8206SOL     OW25516   4.556   2.598   5.907
 8206SOL    HW125517   4.547   2.624   5.811
 8206SOL    HW225518   4.642   2.635   5.944
 8207SOL     OW25519   4.007   4.005   5.180
 8207SOL    HW125520   3.911   4.033   5.179
 8207SOL    HW225521   4.019   3.932   5.247
 8208SOL     OW25522   2.053   6.843   1.447
 8208SOL    HW125523   2.022   6.899   1.524
 8208SOL    HW225524   2.150   6.859   1.430
 8209SOL     OW25525   1.190   1.335   5.985
 8209SOL    HW125526   1.094   1.347   5.962
 8209SOL    HW225527   1.237   1.423   5.977
 8210SOL     OW25528   2.743   0.790   1.306
 8210SOL    HW125529   2.719   0.777   1.402
 8210SOL    HW225530   2.660   0.805   1.252
 8211SOL     OW25531   3.393   3.833   3.156
 8211SOL    HW125532   3.481   3.841   3.202
 8211SOL    HW225533   3.367   3.922   3.119
 8212SOL     OW25534   3.224   1.509   0.937
 8212SOL    HW125535   3.222   1.586   1.001
 8212SOL    HW225536   3.319   1.484   0.919
 8213SOL     OW25537   5.077   4.760   2.264
 8213SOL    HW125538   5.098   4.721   2.175
 8213SOL    HW225539   5.031   4.692   2.320
 8214SOL     OW25540   1.205   5.532   4.235
 8214SOL    HW125541   1.225   5.613   4.290
 8214SOL    HW225542   1.108   5.533   4.211
 8215SOL     OW25543   3.647   5.797   6.594
 8215SOL    HW125544   3.652   5.863   6.669
 8215SOL    HW225545   3.688   5.711   6.623
 8216SOL     OW25546   5.147   6.481   3.392
 8216SOL    HW125547   5.148   6.520   3.484
 8216SOL    HW225548   5.074   6.524   3.338
 8217SOL     OW25549   2.218   3.935   2.485
 8217SOL    HW125550   2.175   3.929   2.395
 8217SOL    HW225551   2.179   3.865   2.545
 8218SOL     OW25552   1.250   6.780   4.386
 8218SOL    HW125553   1.259   6.703   4.449
 8218SOL    HW225554   1.155   6.812   4.387
 8219SOL     OW25555   3.605   3.574   1.584
 8219SOL    HW125556   3.669   3.611   1.517
 8219SOL    HW225557   3.550   3.502   1.542
 8220SOL     OW25558   3.262   4.076   5.363
 8220SOL    HW125559   3.198   4.129   5.418
 8220SOL    HW225560   3.219   4.053   5.275
 8221SOL     OW25561   6.075   5.438   3.451
 8221SOL    HW125562   6.051   5.491   3.532
 8221SOL    HW225563   6.174   5.444   3.436
 8222SOL     OW25564   5.139   2.126   1.591
 8222SOL    HW125565   5.121   2.211   1.640
 8222SOL    HW225566   5.187   2.062   1.650
 8223SOL     OW25567   0.518   4.468   5.846
 8223SOL    HW125568   0.564   4.432   5.765
 8223SOL    HW225569   0.512   4.396   5.915
 8224SOL     OW25570   5.442   2.399   1.591
 8224SOL    HW125571   5.347   2.408   1.622
 8224SOL    HW225572   5.496   2.475   1.626
 8225SOL     OW25573   3.397   1.306   1.474
 8225SOL    HW125574   3.433   1.264   1.391
 8225SOL    HW225575   3.422   1.251   1.553
 8226SOL     OW25576   3.493   0.342   0.573
 8226SOL    HW125577   3.546   0.422   0.601
 8226SOL    HW225578   3.396   0.366   0.567
 8227SOL     OW25579   0.290   1.627   2.294
 8227SOL    HW125580   0.317   1.722   2.278
 8227SOL    HW225581   0.194   1.624   2.321
 8228SOL     OW25582   1.118   1.546   5.670
 8228SOL    HW125583   1.050   1.480   5.704
 8228SOL    HW225584   1.155   1.598   5.748
 8229SOL     OW25585   3.871   4.437   1.037
 8229SOL    HW125586   3.937   4.492   0.986
 8229SOL    HW225587   3.778   4.466   1.014
 8230SOL     OW25588   3.951   0.088   5.851
 8230SOL    HW125589   3.904   0.170   5.818
 8230SOL    HW225590   4.046   0.090   5.823
 8231SOL     OW25591   3.401   2.482   1.572
 8231SOL    HW125592   3.500   2.495   1.581
 8231SOL    HW225593   3.375   2.394   1.612
 8232SOL     OW25594   5.823   2.044   1.942
 8232SOL    HW125595   5.919   2.028   1.919
 8232SOL    HW225596   5.783   1.961   1.981
 8233SOL     OW25597   1.359   6.852   6.375
 8233SOL    HW125598   1.443   6.843   6.321
 8233SOL    HW225599   1.303   6.925   6.336
 8234SOL     OW25600   2.889   3.866   0.290
 8234SOL    HW125601   2.953   3.839   0.362
 8234SOL    HW225602   2.940   3.887   0.207
 8235SOL     OW25603   0.205   3.595   6.951
 8235SOL    HW125604   0.261   3.566   6.873
 8235SOL    HW225605   0.117   3.549   6.948
 8236SOL     OW25606   7.009   4.949   6.259
 8236SOL    HW125607   6.927   5.003   6.240
 8236SOL    HW225608   0.027   4.917   6.174
 8237SOL     OW25609   4.823   6.357   6.558
 8237SOL    HW125610   4.872   6.270   6.552
 8237SOL    HW225611   4.813   6.395   6.466
 8238SOL     OW25612   0.403   6.244   6.928
 8238SOL    HW125613   0.400   6.145   6.917
 8238SOL    HW225614   0.395   6.288   6.839
 8239SOL     OW25615   1.231   0.725   4.729
 8239SOL    HW125616   1.199   0.633   4.754
 8239SOL    HW225617   1.326   0.736   4.759
 8240SOL     OW25618   3.043   3.958   3.432
 8240SOL    HW125619   3.125   3.931   3.482
 8240SOL    HW225620   3.039   4.058   3.425
 8241SOL     OW25621   2.590   4.460   6.130
 8241SOL    HW125622   2.542   4.483   6.046
 8241SOL    HW225623   2.554   4.515   6.205
 8242SOL     OW25624   0.483   3.540   4.761
 8242SOL    HW125625   0.579   3.558   4.783
 8242SOL    HW225626   0.451   3.461   4.813
 8243SOL     OW25627   6.815   3.508   1.262
 8243SOL    HW125628   6.766   3.551   1.186
 8243SOL    HW225629   6.791   3.411   1.267
 8244SOL     OW25630   0.653   0.434   4.301
 8244SOL    HW125631   0.654   0.471   4.394
 8244SOL    HW225632   0.580   0.478   4.249
 8245SOL     OW25633   3.788   1.588   2.820
 8245SOL    HW125634   3.794   1.665   2.884
 8245SOL    HW225635   3.777   1.503   2.872
 8246SOL     OW25636   0.384   4.664   6.366
 8246SOL    HW125637   0.324   4.627   6.295
 8246SOL    HW225638   0.412   4.756   6.341
 8247SOL     OW25639   2.003   6.412   3.507
 8247SOL    HW125640   1.981   6.488   3.447
 8247SOL    HW225641   2.075   6.439   3.572
 8248SOL     OW25642   0.544   4.804   4.928
 8248SOL    HW125643   0.535   4.705   4.914
 8248SOL    HW225644   0.637   4.832   4.904
 8249SOL     OW25645   2.029   1.419   5.694
 8249SOL    HW125646   2.073   1.392   5.608
 8249SOL    HW225647   2.038   1.518   5.706
 8250SOL     OW25648   2.989   2.325   0.910
 8250SOL    HW125649   3.076   2.276   0.907
 8250SOL    HW225650   2.924   2.274   0.966
 8251SOL     OW25651   5.278   1.136   4.864
 8251SOL    HW125652   5.261   1.157   4.767
 8251SOL    HW225653   5.265   1.039   4.879
 8252SOL     OW25654   3.889   1.927   0.116
 8252SOL    HW125655   3.809   1.951   0.061
 8252SOL    HW225656   3.860   1.881   0.200
 8253SOL     OW25657   3.777   5.717   6.942
 8253SOL    HW125658   3.738   5.778   6.873
 8253SOL    HW225659   3.866   5.683   6.910
 8254SOL     OW25660   4.904   4.457   5.382
 8254SOL    HW125661   4.919   4.359   5.397
 8254SOL    HW225662   4.991   4.505   5.385
 8255SOL     OW25663   1.266   0.049   5.569
 8255SOL    HW125664   1.253   0.147   5.587
 8255SOL    HW225665   1.294   0.003   5.653
 8256SOL     OW25666   0.030   6.519   2.934
 8256SOL    HW125667   0.076   6.563   3.011
 8256SOL    HW225668   6.974   6.465   2.968
 8257SOL     OW25669   5.437   3.975   4.043
 8257SOL    HW125670   5.503   4.015   3.980
 8257SOL    HW225671   5.419   3.880   4.016
 8258SOL     OW25672   4.881   3.176   1.770
 8258SOL    HW125673   4.810   3.144   1.832
 8258SOL    HW225674   4.966   3.127   1.789
 8259SOL     OW25675   3.683   2.424   5.328
 8259SOL    HW125676   3.606   2.371   5.292
 8259SOL    HW225677   3.650   2.512   5.364
 8260SOL     OW25678   1.906   6.217   1.851
 8260SOL    HW125679   1.885   6.127   1.811
 8260SOL    HW225680   1.832   6.245   1.911
 8261SOL     OW25681   5.585   6.249   3.513
 8261SOL    HW125682   5.542   6.322   3.459
 8261SOL    HW225683   5.550   6.160   3.483
 8262SOL     OW25684   0.717   4.734   0.692
 8262SOL    HW125685   0.804   4.751   0.645
 8262SOL    HW225686   0.678   4.648   0.658
 8263SOL     OW25687   6.672   2.958   6.655
 8263SOL    HW125688   6.714   2.972   6.745
 8263SOL    HW225689   6.716   2.881   6.610
 8264SOL     OW25690   0.927   6.792   1.547
 8264SOL    HW125691   0.975   6.768   1.463
 8264SOL    HW225692   0.943   6.722   1.616
 8265SOL     OW25693   5.045   0.468   2.066
 8265SOL    HW125694   5.044   0.550   2.123
 8265SOL    HW225695   5.128   0.467   2.010
 8266SOL     OW25696   2.654   0.927   4.587
 8266SOL    HW125697   2.600   0.843   4.588
 8266SOL    HW225698   2.684   0.946   4.494
 8267SOL     OW25699   1.654   4.488   1.478
 8267SOL    HW125700   1.562   4.520   1.457
 8267SOL    HW225701   1.700   4.554   1.538
 8268SOL     OW25702   3.420   5.687   6.237
 8268SOL    HW125703   3.342   5.682   6.174
 8268SOL    HW225704   3.389   5.720   6.326
 8269SOL     OW25705   4.349   2.336   2.592
 8269SOL    HW125706   4.310   2.387   2.669
 8269SOL    HW225707   4.275   2.289   2.543
 8270SOL     OW25708   2.964   5.558   5.472
 8270SOL    HW125709   2.957   5.657   5.460
 8270SOL    HW225710   2.891   5.526   5.533
 8271SOL     OW25711   6.399   6.402   3.569
 8271SOL    HW125712   6.407   6.324   3.632
 8271SOL    HW225713   6.389   6.486   3.622
 8272SOL     OW25714   6.750   1.336   2.543
 8272SOL    HW125715   6.845   1.315   2.519
 8272SOL    HW225716   6.743   1.348   2.642
 8273SOL     OW25717   2.869   0.921   0.173
 8273SOL    HW125718   2.837   0.964   0.089
 8273SOL    HW225719   2.938   0.852   0.151
 8274SOL     OW25720   4.045   4.808   5.618
 8274SOL    HW125721   4.124   4.857   5.581
 8274SOL    HW225722   3.962   4.863   5.604
 8275SOL     OW25723   5.994   0.326   4.418
 8275SOL    HW125724   6.030   0.405   4.370
 8275SOL    HW225725   5.988   0.248   4.355
 8276SOL     OW25726   6.635   1.993   5.517
 8276SOL    HW125727   6.699   1.919   5.534
 8276SOL    HW225728   6.549   1.955   5.483
 8277SOL     OW25729   1.771   5.953   5.471
 8277SOL    HW125730   1.728   6.034   5.432
 8277SOL    HW225731   1.718   5.871   5.447
 8278SOL     OW25732   3.264   1.744   6.837
 8278SOL    HW125733   3.225   1.812   6.899
 8278SOL    HW225734   3.336   1.693   6.885
 8279SOL     OW25735   6.480   6.309   4.986
 8279SOL    HW125736   6.501   6.319   4.889
 8279SOL    HW225737   6.518   6.387   5.037
 8280SOL     OW25738   3.892   2.721   0.691
 8280SOL    HW125739   3.818   2.786   0.671
 8280SOL    HW225740   3.952   2.760   0.760
 8281SOL     OW25741   2.236   4.313   2.079
 8281SOL    HW125742   2.241   4.272   2.170
 8281SOL    HW225743   2.213   4.410   2.087
 8282SOL     OW25744   2.702   3.690   6.617
 8282SOL    HW125745   2.630   3.758   6.629
 8282SOL    HW225746   2.786   3.736   6.587
 8283SOL     OW25747   1.489   4.994   4.335
 8283SOL    HW125748   1.557   4.941   4.283
 8283SOL    HW225749   1.411   4.936   4.357
 8284SOL     OW25750   1.672   4.076   2.350
 8284SOL    HW125751   1.603   4.148   2.360
 8284SOL    HW225752   1.754   4.114   2.309
 8285SOL     OW25753   4.023   3.424   5.475
 8285SOL    HW125754   4.121   3.426   5.492
 8285SOL    HW225755   4.007   3.425   5.376
 8286SOL     OW25756   5.553   1.870   4.703
 8286SOL    HW125757   5.499   1.929   4.763
 8286SOL    HW225758   5.515   1.873   4.611
 8287SOL     OW25759   1.134   6.107   3.704
 8287SOL    HW125760   1.155   6.110   3.606
 8287SOL    HW225761   1.035   6.107   3.716
 8288SOL     OW25762   0.883   2.668   2.611
 8288SOL    HW125763   0.927   2.580   2.626
 8288SOL    HW225764   0.868   2.682   2.513
 8289SOL     OW25765   5.807   0.549   6.676
 8289SOL    HW125766   5.874   0.582   6.742
 8289SOL    HW225767   5.765   0.465   6.711
 8290SOL     OW25768   4.722   1.906   1.492
 8290SOL    HW125769   4.781   1.982   1.464
 8290SOL    HW225770   4.641   1.904   1.435
 8291SOL     OW25771   6.024   5.694   6.351
 8291SOL    HW125772   5.944   5.656   6.305
 8291SOL    HW225773   6.054   5.776   6.302
 8292SOL     OW25774   2.863   5.735   6.427
 8292SOL    HW125775   2.810   5.667   6.478
 8292SOL    HW225776   2.960   5.719   6.441
 8293SOL     OW25777   1.590   4.033   1.619
 8293SOL    HW125778   1.497   4.052   1.651
 8293SOL    HW225779   1.608   4.084   1.535
 8294SOL     OW25780   6.149   3.355   4.605
 8294SOL    HW125781   6.119   3.450   4.601
 8294SOL    HW225782   6.111   3.304   4.527
 8295SOL     OW25783   5.211   3.233   2.970
 8295SOL    HW125784   5.129   3.288   2.952
 8295SOL    HW225785   5.216   3.158   2.903
 8296SOL     OW25786   3.502   5.322   6.943
 8296SOL    HW125787   3.488   5.347   0.018
 8296SOL    HW225788   3.465   5.230   6.927
 8297SOL     OW25789   6.449   3.073   2.550
 8297SOL    HW125790   6.378   3.020   2.597
 8297SOL    HW225791   6.446   3.052   2.452
 8298SOL     OW25792   6.839   0.123   0.468
 8298SOL    HW125793   6.923   0.144   0.419
 8298SOL    HW225794   6.769   0.092   0.404
 8299SOL     OW25795   0.382   2.646   0.942
 8299SOL    HW125796   0.445   2.640   1.019
 8299SOL    HW225797   0.289   2.664   0.976
 8300SOL     OW25798   6.814   6.997   4.831
 8300SOL    HW125799   6.789   0.069   4.803
 8300SOL    HW225800   6.733   6.939   4.832
 8301SOL     OW25801   4.822   0.560   6.792
 8301SOL    HW125802   4.847   0.488   6.857
 8301SOL    HW225803   4.779   0.518   6.711
 8302SOL     OW25804   4.808   0.053   5.767
 8302SOL    HW125805   4.761   0.008   5.843
 8302SOL    HW225806   4.899   0.081   5.795
 8303SOL     OW25807   6.833   0.626   3.128
 8303SOL    HW125808   6.902   0.556   3.110
 8303SOL    HW225809   6.854   0.708   3.074
 8304SOL     OW25810   5.494   4.707   1.796
 8304SOL    HW125811   5.460   4.763   1.721
 8304SOL    HW225812   5.554   4.761   1.854
 8305SOL     OW25813   3.969   4.889   4.393
 8305SOL    HW125814   3.942   4.972   4.441
 8305SOL    HW225815   4.042   4.843   4.445
 8306SOL     OW25816   6.677   1.185   3.130
 8306SOL    HW125817   6.746   1.239   3.180
 8306SOL    HW225818   6.667   1.095   3.174
 8307SOL     OW25819   3.406   5.486   1.591
 8307SOL    HW125820   3.422   5.547   1.669
 8307SOL    HW225821   3.309   5.489   1.565
 8308SOL     OW25822   1.980   4.728   0.339
 8308SOL    HW125823   2.001   4.660   0.270
 8308SOL    HW225824   2.062   4.747   0.393
 8309SOL     OW25825   5.596   5.210   2.749
 8309SOL    HW125826   5.597   5.176   2.843
 8309SOL    HW225827   5.610   5.309   2.749
 8310SOL     OW25828   1.198   5.318   0.798
 8310SOL    HW125829   1.257   5.284   0.725
 8310SOL    HW225830   1.252   5.341   0.878
 8311SOL     OW25831   5.674   0.644   4.555
 8311SOL    HW125832   5.759   0.622   4.603
 8311SOL    HW225833   5.644   0.735   4.581
 8312SOL     OW25834   5.525   1.275   6.742
 8312SOL    HW125835   5.458   1.320   6.683
 8312SOL    HW225836   5.515   1.176   6.735
 8313SOL     OW25837   5.025   0.490   5.780
 8313SOL    HW125838   5.026   0.512   5.877
 8313SOL    HW225839   5.093   0.545   5.732
 8314SOL     OW25840   6.048   6.535   6.440
 8314SOL    HW125841   6.041   6.562   6.344
 8314SOL    HW225842   5.968   6.568   6.490
 8315SOL     OW25843   3.980   3.039   2.928
 8315SOL    HW125844   4.021   3.127   2.953
 8315SOL    HW225845   3.917   3.010   3.000
 8316SOL     OW25846   1.883   3.371   0.873
 8316SOL    HW125847   1.856   3.324   0.958
 8316SOL    HW225848   1.983   3.382   0.872
 8317SOL     OW25849   2.159   1.944   3.156
 8317SOL    HW125850   2.205   2.023   3.197
 8317SOL    HW225851   2.060   1.950   3.173
 8318SOL     OW25852   4.095   1.606   5.781
 8318SOL    HW125853   4.054   1.593   5.871
 8318SOL    HW225854   4.114   1.703   5.767
 8319SOL     OW25855   1.681   0.236   0.206
 8319SOL    HW125856   1.675   0.248   0.107
 8319SOL    HW225857   1.601   0.276   0.249
 8320SOL     OW25858   3.461   4.039   3.405
 8320SOL    HW125859   3.419   3.967   3.460
 8320SOL    HW225860   3.551   4.008   3.373
 8321SOL     OW25861   6.941   0.219   6.412
 8321SOL    HW125862   7.000   0.176   6.480
 8321SOL    HW225863   6.997   0.260   6.340
 8322SOL     OW25864   6.982   1.849   0.152
 8322SOL    HW125865   6.887   1.878   0.145
 8322SOL    HW225866   0.019   1.911   0.100
 8323SOL     OW25867   3.406   4.989   1.380
 8323SOL    HW125868   3.484   4.935   1.412
 8323SOL    HW225869   3.322   4.935   1.388
 8324SOL     OW25870   5.124   0.250   0.417
 8324SOL    HW125871   5.046   0.190   0.435
 8324SOL    HW225872   5.091   0.338   0.383
 8325SOL     OW25873   0.565   4.043   5.457
 8325SOL    HW125874   0.622   4.036   5.539
 8325SOL    HW225875   0.618   4.015   5.377
 8326SOL     OW25876   4.051   4.097   6.519
 8326SOL    HW125877   4.019   4.045   6.440
 8326SOL    HW225878   4.136   4.145   6.496
 8327SOL     OW25879   0.913   0.675   5.754
 8327SOL    HW125880   0.847   0.615   5.708
 8327SOL    HW225881   0.865   0.754   5.792
 8328SOL     OW25882   2.528   6.747   6.218
 8328SOL    HW125883   2.438   6.765   6.177
 8328SOL    HW225884   2.518   6.684   6.295
 8329SOL     OW25885   0.266   2.097   5.182
 8329SOL    HW125886   0.326   2.019   5.200
 8329SOL    HW225887   0.283   2.131   5.089
 8330SOL     OW25888   3.582   1.521   6.792
 8330SOL    HW125889   3.543   1.586   6.726
 8330SOL    HW225890   3.561   1.551   6.885
 8331SOL     OW25891   3.655   0.850   0.686
 8331SOL    HW125892   3.745   0.892   0.675
 8331SOL    HW225893   3.603   0.899   0.756
 8332SOL     OW25894   5.726   5.263   1.935
 8332SOL    HW125895   5.780   5.179   1.927
 8332SOL    HW225896   5.746   5.308   2.021
 8333SOL     OW25897   1.688   4.638   6.555
 8333SOL    HW125898   1.709   4.637   6.458
 8333SOL    HW225899   1.593   4.665   6.569
 8334SOL     OW25900   2.615   2.550   5.757
 8334SOL    HW125901   2.714   2.565   5.757
 8334SOL    HW225902   2.571   2.618   5.700
 8335SOL     OW25903   3.692   2.112   6.996
 8335SOL    HW125904   3.741   2.187   0.019
 8335SOL    HW225905   3.639   2.148   6.919
 8336SOL     OW25906   0.729   4.048   2.827
 8336SOL    HW125907   0.725   3.993   2.911
 8336SOL    HW225908   0.749   3.988   2.750
 8337SOL     OW25909   0.078   0.116   4.092
 8337SOL    HW125910   7.021   0.061   4.122
 8337SOL    HW225911   0.045   0.200   4.049
 8338SOL     OW25912   3.725   5.641   1.954
 8338SOL    HW125913   3.768   5.559   1.915
 8338SOL    HW225914   3.760   5.722   1.907
 8339SOL     OW25915   0.342   0.779   1.496
 8339SOL    HW125916   0.266   0.782   1.560
 8339SOL    HW225917   0.393   0.694   1.508
 8340SOL     OW25918   5.376   3.912   0.723
 8340SOL    HW125919   5.343   3.935   0.814
 8340SOL    HW225920   5.320   3.958   0.654
 8341SOL     OW25921   3.981   0.283   6.884
 8341SOL    HW125922   4.074   0.262   6.915
 8341SOL    HW225923   3.932   0.198   6.867
 8342SOL     OW25924   4.241   6.747   0.770
 8342SOL    HW125925   4.258   6.675   0.838
 8342SOL    HW225926   4.146   6.741   0.738
 8343SOL     OW25927   6.677   5.442   3.669
 8343SOL    HW125928   6.714   5.368   3.614
 8343SOL    HW225929   6.670   5.525   3.614
 8344SOL     OW25930   6.565   4.514   4.865
 8344SOL    HW125931   6.608   4.431   4.830
 8344SOL    HW225932   6.484   4.535   4.810
 8345SOL     OW25933   4.348   2.341   3.525
 8345SOL    HW125934   4.336   2.341   3.426
 8345SOL    HW225935   4.274   2.289   3.568
 8346SOL     OW25936   3.861   3.848   6.512
 8346SOL    HW125937   3.911   3.861   6.597
 8346SOL    HW225938   3.877   3.756   6.477
 8347SOL     OW25939   3.436   6.735   6.068
 8347SOL    HW125940   3.400   6.699   5.982
 8347SOL    HW225941   3.534   6.715   6.075
 8348SOL     OW25942   2.097   0.867   1.491
 8348SOL    HW125943   2.043   0.853   1.574
 8348SOL    HW225944   2.074   0.957   1.452
 8349SOL     OW25945   1.282   6.587   2.037
 8349SOL    HW125946   1.258   6.647   2.114
 8349SOL    HW225947   1.270   6.637   1.952
 8350SOL     OW25948   2.907   6.879   6.284
 8350SOL    HW125949   2.924   6.975   6.261
 8350SOL    HW225950   2.961   6.821   6.223
 8351SOL     OW25951   5.787   5.375   4.661
 8351SOL    HW125952   5.710   5.332   4.614
 8351SOL    HW225953   5.795   5.470   4.630
 8352SOL     OW25954   1.518   6.853   2.966
 8352SOL    HW125955   1.616   6.870   2.972
 8352SOL    HW225956   1.469   6.939   2.960
 8353SOL     OW25957   0.473   3.662   0.844
 8353SOL    HW125958   0.567   3.646   0.813
 8353SOL    HW225959   0.465   3.757   0.877
 8354SOL     OW25960   3.492   0.129   4.189
 8354SOL    HW125961   3.514   0.116   4.093
 8354SOL    HW225962   3.397   0.159   4.198
 8355SOL     OW25963   1.748   1.263   4.621
 8355SOL    HW125964   1.676   1.323   4.587
 8355SOL    HW225965   1.790   1.304   4.702
 8356SOL     OW25966   1.331   5.805   1.365
 8356SOL    HW125967   1.387   5.884   1.390
 8356SOL    HW225968   1.249   5.803   1.422
 8357SOL     OW25969   3.896   6.993   5.515
 8357SOL    HW125970   3.956   6.917   5.540
 8357SOL    HW225971   3.911   0.048   5.577
 8358SOL     OW25972   1.211   2.881   4.564
 8358SOL    HW125973   1.180   2.860   4.471
 8358SOL    HW225974   1.234   2.978   4.570
 8359SOL     OW25975   2.781   1.836   5.152
 8359SOL    HW125976   2.740   1.763   5.208
 8359SOL    HW225977   2.820   1.796   5.070
 8360SOL     OW25978   4.768   0.248   1.151
 8360SOL    HW125979   4.830   0.182   1.108
 8360SOL    HW225980   4.758   0.327   1.091
 8361SOL     OW25981   3.720   0.509   0.254
 8361SOL    HW125982   3.788   0.559   0.308
 8361SOL    HW225983   3.651   0.470   0.315
 8362SOL     OW25984   5.715   2.013   0.824
 8362SOL    HW125985   5.677   2.031   0.733
 8362SOL    HW225986   5.641   2.006   0.891
 8363SOL     OW25987   5.017   2.134   0.603
 8363SOL    HW125988   4.949   2.068   0.572
 8363SOL    HW225989   5.104   2.116   0.558
 8364SOL     OW25990   0.108   2.827   4.052
 8364SOL    HW125991   0.116   2.774   3.967
 8364SOL    HW225992   0.016   2.866   4.058
 8365SOL     OW25993   1.803   2.286   2.726
 8365SOL    HW125994   1.842   2.231   2.652
 8365SOL    HW225995   1.704   2.293   2.714
 8366SOL     OW25996   3.383   5.649   1.115
 8366SOL    HW125997   3.335   5.595   1.185
 8366SOL    HW225998   3.337   5.638   1.027
 8367SOL     OW25999   3.372   5.551   4.858
 8367SOL    HW126000   3.459   5.521   4.897
 8367SOL    HW226001   3.330   5.620   4.917
 8368SOL     OW26002   0.988   5.883   0.264
 8368SOL    HW126003   0.890   5.901   0.258
 8368SOL    HW226004   1.020   5.842   0.179
 8369SOL     OW26005   0.886   0.614   6.657
 8369SOL    HW126006   0.936   0.566   6.730
 8369SOL    HW226007   0.789   0.588   6.661
 8370SOL     OW26008   2.572   1.244   6.008
 8370SOL    HW126009   2.573   1.326   5.950
 8370SOL    HW226010   2.486   1.240   6.059
 8371SOL     OW26011   2.731   3.660   6.917
 8371SOL    HW126012   2.736   3.632   6.821
 8371SOL    HW226013   2.765   3.586   6.975
 8372SOL     OW26014   1.642   5.909   1.637
 8372SOL    HW126015   1.603   5.920   1.728
 8372SOL    HW226016   1.736   5.944   1.636
 8373SOL     OW26017   1.889   0.079   4.686
 8373SOL    HW126018   1.835   0.010   4.734
 8373SOL    HW226019   1.921   0.147   4.752
 8374SOL     OW26020   0.314   0.177   4.978
 8374SOL    HW126021   0.372   0.259   4.978
 8374SOL    HW226022   0.296   0.150   4.883
 8375SOL     OW26023   3.374   6.574   5.862
 8375SOL    HW126024   3.356   6.618   5.775
 8375SOL    HW226025   3.466   6.534   5.862
 8376SOL     OW26026   1.462   0.985   3.781
 8376SOL    HW126027   1.517   1.061   3.747
 8376SOL    HW226028   1.451   0.916   3.709
 8377SOL     OW26029   5.656   6.012   0.185
 8377SOL    HW126030   5.668   5.932   0.243
 8377SOL    HW226031   5.745   6.054   0.168
 8378SOL     OW26032   3.923   5.056   3.561
 8378SOL    HW126033   3.863   5.129   3.528
 8378SOL    HW226034   3.871   4.996   3.622
 8379SOL     OW26035   4.920   2.815   1.955
 8379SOL    HW126036   4.994   2.818   1.888
 8379SOL    HW226037   4.878   2.905   1.962
 8380SOL     OW26038   0.224   0.042   0.273
 8380SOL    HW126039   0.276   7.004   0.335
 8380SOL    HW226040   0.287   0.103   0.225
 8381SOL     OW26041   0.060   2.470   3.453
 8381SOL    HW126042   0.033   2.494   3.360
 8381SOL    HW226043   0.153   2.501   3.470
 8382SOL     OW26044   2.097   6.546   1.476
 8382SOL    HW126045   2.011   6.522   1.522
 8382SOL    HW226046   2.155   6.598   1.539
 8383SOL     OW26047   3.005   6.741   5.810
 8383SOL    HW126048   3.040   6.808   5.744
 8383SOL    HW226049   2.971   6.661   5.761
 8384SOL     OW26050   6.814   1.898   0.841
 8384SOL    HW126051   6.864   1.898   0.928
 8384SOL    HW226052   6.761   1.813   0.833
 8385SOL     OW26053   4.452   2.260   0.693
 8385SOL    HW126054   4.363   2.281   0.652
 8385SOL    HW226055   4.446   2.271   0.792
 8386SOL     OW26056   1.965   5.823   1.106
 8386SOL    HW126057   1.939   5.746   1.165
 8386SOL    HW226058   2.036   5.793   1.043
 8387SOL     OW26059   1.660   2.142   1.424
 8387SOL    HW126060   1.578   2.089   1.447
 8387SOL    HW226061   1.639   2.204   1.349
 8388SOL     OW26062   1.418   6.489   1.278
 8388SOL    HW126063   1.500   6.460   1.229
 8388SOL    HW226064   1.443   6.554   1.350
 8389SOL     OW26065   0.134   3.111   4.305
 8389SOL    HW126066   0.180   3.053   4.237
 8389SOL    HW226067   0.061   3.163   4.260
 8390SOL     OW26068   3.866   6.662   0.025
 8390SOL    HW126069   3.885   6.603   6.967
 8390SOL    HW226070   3.772   6.648   0.055
 8391SOL     OW26071   4.678   5.003   1.045
 8391SOL    HW126072   4.625   5.006   0.960
 8391SOL    HW226073   4.753   4.937   1.036
 8392SOL     OW26074   6.640   5.392   5.456
 8392SOL    HW126075   6.588   5.322   5.505
 8392SOL    HW226076   6.585   5.428   5.382
 8393SOL     OW26077   0.494   6.939   3.829
 8393SOL    HW126078   0.581   6.891   3.844
 8393SOL    HW226079   0.511   0.015   3.825
 8394SOL     OW26080   0.071   2.886   1.778
 8394SOL    HW126081   0.027   2.819   1.838
 8394SOL    HW226082   0.074   2.850   1.684
 8395SOL     OW26083   1.394   5.812   4.115
 8395SOL    HW126084   1.400   5.719   4.081
 8395SOL    HW226085   1.461   5.870   4.069
 8396SOL     OW26086   4.257   4.651   2.118
 8396SOL    HW126087   4.261   4.584   2.192
 8396SOL    HW226088   4.182   4.715   2.135
 8397SOL     OW26089   2.616   1.053   3.134
 8397SOL    HW126090   2.535   1.093   3.176
 8397SOL    HW226091   2.678   1.019   3.205
 8398SOL     OW26092   4.073   2.466   6.407
 8398SOL    HW126093   4.133   2.388   6.424
 8398SOL    HW226094   4.121   2.534   6.353
 8399SOL     OW26095   5.843   0.189   0.148
 8399SOL    HW126096   5.776   0.124   0.184
 8399SOL    HW226097   5.934   0.147   0.149
 8400SOL     OW26098   1.235   0.343   4.096
 8400SOL    HW126099   1.174   0.422   4.107
 8400SOL    HW226100   1.323   0.373   4.062
 8401SOL     OW26101   3.380   2.020   6.377
 8401SOL    HW126102   3.361   2.051   6.283
 8401SOL    HW226103   3.478   2.026   6.395
 8402SOL     OW26104   4.075   2.042   5.502
 8402SOL    HW126105   4.049   2.000   5.415
 8402SOL    HW226106   4.162   2.004   5.532
 8403SOL     OW26107   0.929   1.710   2.767
 8403SOL    HW126108   1.014   1.661   2.785
 8403SOL    HW226109   0.877   1.720   2.852
 8404SOL     OW26110   4.362   5.805   6.641
 8404SOL    HW126111   4.385   5.897   6.609
 8404SOL    HW226112   4.425   5.779   6.714
 8405SOL     OW26113   2.489   1.199   5.730
 8405SOL    HW126114   2.458   1.197   5.635
 8405SOL    HW226115   2.417   1.235   5.788
 8406SOL     OW26116   5.002   0.132   1.037
 8406SOL    HW126117   5.049   0.051   1.001
 8406SOL    HW226118   5.004   0.205   0.968
 8407SOL     OW26119   4.732   6.298   4.166
 8407SOL    HW126120   4.740   6.318   4.263
 8407SOL    HW226121   4.822   6.272   4.130
 8408SOL     OW26122   5.039   3.058   2.355
 8408SOL    HW126123   4.957   3.047   2.412
 8408SOL    HW226124   5.097   3.129   2.395
 8409SOL     OW26125   6.212   3.185   3.280
 8409SOL    HW126126   6.117   3.177   3.250
 8409SOL    HW226127   6.272   3.198   3.201
 8410SOL     OW26128   4.811   0.887   1.477
 8410SOL    HW126129   4.899   0.841   1.480
 8410SOL    HW226130   4.810   0.952   1.401
 8411SOL     OW26131   1.087   5.365   6.023
 8411SOL    HW126132   0.991   5.341   6.011
 8411SOL    HW226133   1.095   5.459   6.054
 8412SOL     OW26134   4.055   1.929   2.293
 8412SOL    HW126135   3.964   1.942   2.254
 8412SOL    HW226136   4.075   2.004   2.357
 8413SOL     OW26137   4.396   4.802   7.019
 8413SOL    HW126138   4.401   4.871   6.947
 8413SOL    HW226139   4.375   4.713   6.977
 8414SOL     OW26140   4.446   5.323   3.546
 8414SOL    HW126141   4.530   5.375   3.531
 8414SOL    HW226142   4.445   5.286   3.639
 8415SOL     OW26143   6.369   5.480   3.720
 8415SOL    HW126144   6.403   5.573   3.737
 8415SOL    HW226145   6.295   5.459   3.783
 8416SOL     OW26146   5.405   4.236   2.936
 8416SOL    HW126147   5.382   4.149   2.980
 8416SOL    HW226148   5.422   4.220   2.839
 8417SOL     OW26149   1.489   4.961   6.088
 8417SOL    HW126150   1.581   4.929   6.067
 8417SOL    HW226151   1.424   4.886   6.072
 8418SOL     OW26152   6.165   5.263   1.281
 8418SOL    HW126153   6.225   5.210   1.220
 8418SOL    HW226154   6.169   5.224   1.373
 8419SOL     OW26155   5.559   1.223   2.685
 8419SOL    HW126156   5.511   1.243   2.771
 8419SOL    HW226157   5.616   1.142   2.696
 8420SOL     OW26158   4.339   6.982   0.931
 8420SOL    HW126159   4.352   6.962   1.028
 8420SOL    HW226160   4.350   6.898   0.878
 8421SOL     OW26161   3.186   6.005   0.625
 8421SOL    HW126162   3.098   5.959   0.607
 8421SOL    HW226163   3.260   5.939   0.612
 8422SOL     OW26164   4.135   0.982   1.225
 8422SOL    HW126165   4.104   0.888   1.234
 8422SOL    HW226166   4.200   1.003   1.298
 8423SOL     OW26167   3.525   4.884   5.806
 8423SOL    HW126168   3.478   4.845   5.886
 8423SOL    HW226169   3.477   4.857   5.723
 8424SOL     OW26170   2.435   2.465   2.757
 8424SOL    HW126171   2.471   2.542   2.811
 8424SOL    HW226172   2.349   2.491   2.715
 8425SOL     OW26173   5.717   5.913   0.636
 8425SOL    HW126174   5.663   5.925   0.719
 8425SOL    HW226175   5.771   5.995   0.618
 8426SOL     OW26176   3.008   3.138   4.311
 8426SOL    HW126177   2.945   3.082   4.256
 8426SOL    HW226178   3.000   3.234   4.283
 8427SOL     OW26179   2.812   3.516   5.453
 8427SOL    HW126180   2.816   3.576   5.373
 8427SOL    HW226181   2.895   3.527   5.507
 8428SOL     OW26182   0.247   3.948   2.026
 8428SOL    HW126183   0.245   3.956   1.926
 8428SOL    HW226184   0.154   3.956   2.062
 8429SOL     OW26185   2.117   4.138   3.610
 8429SOL    HW126186   2.194   4.149   3.547
 8429SOL    HW226187   2.149   4.155   3.703
 8430SOL     OW26188   3.616   5.865   4.445
 8430SOL    HW126189   3.588   5.960   4.465
 8430SOL    HW226190   3.689   5.839   4.507
 8431SOL     OW26191   3.110   5.185   0.921
 8431SOL    HW126192   3.089   5.096   0.879
 8431SOL    HW226193   3.041   5.251   0.894
 8432SOL     OW26194   5.533   6.785   6.356
 8432SOL    HW126195   5.616   6.765   6.407
 8432SOL    HW226196   5.483   6.700   6.339
 8433SOL     OW26197   6.411   2.360   0.612
 8433SOL    HW126198   6.471   2.286   0.644
 8433SOL    HW226199   6.391   2.422   0.688
 8434SOL     OW26200   3.186   6.794   5.286
 8434SOL    HW126201   3.253   6.759   5.222
 8434SOL    HW226202   3.113   6.727   5.299
 8435SOL     OW26203   5.547   0.810   1.052
 8435SOL    HW126204   5.491   0.830   0.971
 8435SOL    HW226205   5.612   0.738   1.030
 8436SOL     OW26206   3.305   6.960   4.376
 8436SOL    HW126207   3.251   0.008   4.330
 8436SOL    HW226208   3.351   7.000   4.455
 8437SOL     OW26209   1.359   0.060   3.416
 8437SOL    HW126210   1.340   0.072   3.514
 8437SOL    HW226211   1.379   6.986   3.397
 8438SOL     OW26212   2.725   5.048   2.219
 8438SOL    HW126213   2.710   5.076   2.314
 8438SOL    HW226214   2.637   5.046   2.171
 8439SOL     OW26215   6.528   5.262   1.732
 8439SOL    HW126216   6.561   5.176   1.772
 8439SOL    HW226217   6.468   5.242   1.654
 8440SOL     OW26218   0.864   1.586   3.346
 8440SOL    HW126219   0.765   1.596   3.333
 8440SOL    HW226220   0.908   1.675   3.337
 8441SOL     OW26221   5.691   6.389   0.169
 8441SOL    HW126222   5.787   6.411   0.180
 8441SOL    HW226223   5.668   6.387   0.071
 8442SOL     OW26224   2.887   2.594   5.683
 8442SOL    HW126225   2.888   2.605   5.584
 8442SOL    HW226226   2.930   2.674   5.726
 8443SOL     OW26227   1.612   6.170   3.750
 8443SOL    HW126228   1.696   6.221   3.730
 8443SOL    HW226229   1.571   6.139   3.664
 8444SOL     OW26230   3.647   5.919   3.944
 8444SOL    HW126231   3.583   5.902   3.869
 8444SOL    HW226232   3.641   6.015   3.971
 8445SOL     OW26233   3.665   5.455   1.532
 8445SOL    HW126234   3.696   5.413   1.617
 8445SOL    HW226235   3.568   5.481   1.541
 8446SOL     OW26236   4.364   4.988   6.841
 8446SOL    HW126237   4.442   5.049   6.829
 8446SOL    HW226238   4.361   4.923   6.764
 8447SOL     OW26239   5.461   2.485   1.950
 8447SOL    HW126240   5.369   2.482   1.991
 8447SOL    HW226241   5.498   2.393   1.943
 8448SOL     OW26242   5.552   5.236   4.318
 8448SOL    HW126243   5.550   5.164   4.249
 8448SOL    HW226244   5.521   5.199   4.405
 8449SOL     OW26245   6.392   2.883   3.997
 8449SOL    HW126246   6.471   2.893   4.058
 8449SOL    HW226247   6.334   2.964   4.005
 8450SOL     OW26248   1.265   5.663   2.087
 8450SOL    HW126249   1.254   5.749   2.136
 8450SOL    HW226250   1.177   5.614   2.086
 8451SOL     OW26251   4.754   2.926   0.690
 8451SOL    HW126252   4.707   2.916   0.777
 8451SOL    HW226253   4.736   2.846   0.632
 8452SOL     OW26254   6.529   1.177   2.437
 8452SOL    HW126255   6.467   1.171   2.515
 8452SOL    HW226256   6.586   1.258   2.447
 8453SOL     OW26257   6.885   3.900   6.587
 8453SOL    HW126258   6.966   3.929   6.637
 8453SOL    HW226259   6.818   3.975   6.587
 8454SOL     OW26260   0.378   6.232   0.915
 8454SOL    HW126261   0.429   6.246   0.830
 8454SOL    HW226262   0.386   6.313   0.973
 8455SOL     OW26263   5.645   2.206   1.658
 8455SOL    HW126264   5.739   2.233   1.637
 8455SOL    HW226265   5.582   2.278   1.628
 8456SOL     OW26266   4.511   5.139   3.017
 8456SOL    HW126267   4.610   5.132   3.029
 8456SOL    HW226268   4.468   5.153   3.106
 8457SOL     OW26269   0.089   6.487   5.227
 8457SOL    HW126270   0.158   6.524   5.164
 8457SOL    HW226271   0.077   6.390   5.209
 8458SOL     OW26272   2.470   1.159   6.918
 8458SOL    HW126273   2.387   1.170   6.864
 8458SOL    HW226274   2.465   1.216   7.000
 8459SOL     OW26275   3.370   6.300   1.811
 8459SOL    HW126276   3.400   6.296   1.906
 8459SOL    HW226277   3.413   6.378   1.766
 8460SOL     OW26278   4.832   2.761   5.535
 8460SOL    HW126279   4.754   2.704   5.508
 8460SOL    HW226280   4.909   2.744   5.473
 8461SOL     OW26281   0.310   4.206   3.270
 8461SOL    HW126282   0.332   4.154   3.187
 8461SOL    HW226283   0.222   4.175   3.306
 8462SOL     OW26284   3.800   2.344   0.521
 8462SOL    HW126285   3.818   2.365   0.617
 8462SOL    HW226286   3.730   2.272   0.516
 8463SOL     OW26287   5.926   0.137   0.408
 8463SOL    HW126288   6.020   0.105   0.410
 8463SOL    HW226289   5.924   0.236   0.392
 8464SOL     OW26290   5.699   3.235   5.842
 8464SOL    HW126291   5.668   3.259   5.935
 8464SOL    HW226292   5.793   3.201   5.846
 8465SOL     OW26293   1.941   2.670   0.984
 8465SOL    HW126294   1.968   2.599   1.049
 8465SOL    HW226295   1.938   2.759   1.030
 8466SOL     OW26296   0.249   6.871   5.084
 8466SOL    HW126297   0.251   6.885   4.985
 8466SOL    HW226298   0.174   6.925   5.123
 8467SOL     OW26299   3.754   0.355   1.435
 8467SOL    HW126300   3.773   0.279   1.497
 8467SOL    HW226301   3.815   0.351   1.356
 8468SOL     OW26302   4.741   2.670   0.566
 8468SOL    HW126303   4.741   2.593   0.629
 8468SOL    HW226304   4.809   2.654   0.494
 8469SOL     OW26305   2.982   1.537   5.502
 8469SOL    HW126306   3.043   1.553   5.579
 8469SOL    HW226307   3.025   1.570   5.418
 8470SOL     OW26308   0.486   4.756   0.132
 8470SOL    HW126309   0.456   4.710   0.216
 8470SOL    HW226310   0.441   4.844   0.125
 8471SOL     OW26311   4.275   0.612   4.522
 8471SOL    HW126312   4.279   0.628   4.621
 8471SOL    HW226313   4.224   0.528   4.505
 8472SOL     OW26314   6.572   0.521   5.400
 8472SOL    HW126315   6.552   0.616   5.426
 8472SOL    HW226316   6.493   0.463   5.420
 8473SOL     OW26317   6.711   6.059   1.002
 8473SOL    HW126318   6.724   6.004   0.920
 8473SOL    HW226319   6.678   6.002   1.077
 8474SOL     OW26320   3.457   3.611   2.417
 8474SOL    HW126321   3.496   3.526   2.381
 8474SOL    HW226322   3.516   3.648   2.489
 8475SOL     OW26323   6.993   2.506   3.195
 8475SOL    HW126324   0.001   2.601   3.185
 8475SOL    HW226325   0.032   2.446   3.143
 8476SOL     OW26326   6.529   1.852   0.681
 8476SOL    HW126327   6.456   1.917   0.699
 8476SOL    HW226328   6.601   1.896   0.626
 8477SOL     OW26329   4.662   6.670   2.557
 8477SOL    HW126330   4.658   6.748   2.495
 8477SOL    HW226331   4.577   6.664   2.609
 8478SOL     OW26332   1.777   6.979   6.086
 8478SOL    HW126333   1.778   0.050   6.123
 8478SOL    HW226334   1.780   6.983   5.986
 8479SOL     OW26335   0.905   2.474   0.839
 8479SOL    HW126336   0.940   2.568   0.829
 8479SOL    HW226337   0.820   2.465   0.787
 8480SOL     OW26338   5.196   2.713   0.093
 8480SOL    HW126339   5.130   2.648   0.055
 8480SOL    HW226340   5.154   2.804   0.096
 8481SOL     OW26341   5.339   2.964   4.844
 8481SOL    HW126342   5.405   2.889   4.844
 8481SOL    HW226343   5.287   2.964   4.930
 8482SOL     OW26344   4.673   6.394   2.591
 8482SOL    HW126345   4.576   6.391   2.569
 8482SOL    HW226346   4.708   6.486   2.577
 8483SOL     OW26347   4.014   6.425   1.835
 8483SOL    HW126348   4.015   6.344   1.895
 8483SOL    HW226349   3.976   6.503   1.885
 8484SOL     OW26350   0.099   6.051   3.673
 8484SOL    HW126351   0.104   6.095   3.583
 8484SOL    HW226352   0.189   6.055   3.716
 8485SOL     OW26353   3.474   2.542   0.339
 8485SOL    HW126354   3.420   2.459   0.355
 8485SOL    HW226355   3.415   2.611   0.297
 8486SOL     OW26356   2.381   1.812   2.140
 8486SOL    HW126357   2.322   1.827   2.061
 8486SOL    HW226358   2.444   1.736   2.121
 8487SOL     OW26359   5.779   1.354   5.477
 8487SOL    HW126360   5.732   1.280   5.429
 8487SOL    HW226361   5.712   1.414   5.521
 8488SOL     OW26362   5.108   6.364   0.943
 8488SOL    HW126363   5.065   6.274   0.950
 8488SOL    HW226364   5.052   6.432   0.991
 8489SOL     OW26365   6.293   1.688   1.667
 8489SOL    HW126366   6.196   1.712   1.669
 8489SOL    HW226367   6.316   1.647   1.578
 8490SOL     OW26368   4.249   6.754   4.994
 8490SOL    HW126369   4.174   6.776   4.931
 8490SOL    HW226370   4.281   6.660   4.975
 8491SOL     OW26371   2.378   5.491   1.499
 8491SOL    HW126372   2.396   5.499   1.401
 8491SOL    HW226373   2.440   5.424   1.540
 8492SOL     OW26374   5.605   3.773   5.310
 8492SOL    HW126375   5.662   3.703   5.354
 8492SOL    HW226376   5.559   3.733   5.230
 8493SOL     OW26377   2.079   2.187   5.994
 8493SOL    HW126378   2.024   2.268   5.974
 8493SOL    HW226379   2.166   2.215   6.033
 8494SOL     OW26380   4.183   5.181   1.388
 8494SOL    HW126381   4.100   5.209   1.340
 8494SOL    HW226382   4.246   5.258   1.393
 8495SOL     OW26383   6.946   4.673   1.949
 8495SOL    HW126384   6.901   4.761   1.966
 8495SOL    HW226385   6.896   4.600   1.994
 8496SOL     OW26386   1.424   2.204   2.348
 8496SOL    HW126387   1.326   2.198   2.365
 8496SOL    HW226388   1.442   2.185   2.251
 8497SOL     OW26389   6.776   0.735   3.615
 8497SOL    HW126390   6.750   0.715   3.520
 8497SOL    HW226391   6.874   0.756   3.618
 8498SOL     OW26392   6.174   6.174   3.110
 8498SOL    HW126393   6.222   6.250   3.066
 8498SOL    HW226394   6.239   6.120   3.163
 8499SOL     OW26395   2.221   4.103   6.636
 8499SOL    HW126396   2.145   4.166   6.650
 8499SOL    HW226397   2.199   4.039   6.562
 8500SOL     OW26398   1.404   5.871   5.588
 8500SOL    HW126399   1.322   5.892   5.536
 8500SOL    HW226400   1.390   5.788   5.641
 8501SOL     OW26401   0.523   2.519   6.863
 8501SOL    HW126402   0.447   2.582   6.878
 8501SOL    HW226403   0.609   2.569   6.865
 8502SOL     OW26404   0.539   3.663   1.179
 8502SOL    HW126405   0.569   3.623   1.091
 8502SOL    HW226406   0.443   3.641   1.194
 8503SOL     OW26407   0.330   6.311   4.129
 8503SOL    HW126408   0.409   6.255   4.103
 8503SOL    HW226409   0.251   6.284   4.075
 8504SOL     OW26410   2.628   4.711   2.748
 8504SOL    HW126411   2.664   4.685   2.838
 8504SOL    HW226412   2.588   4.803   2.755
 8505SOL     OW26413   6.245   3.425   3.443
 8505SOL    HW126414   6.343   3.446   3.450
 8505SOL    HW226415   6.233   3.337   3.396
 8506SOL     OW26416   1.004   0.489   6.883
 8506SOL    HW126417   0.907   0.466   6.892
 8506SOL    HW226418   1.055   0.452   6.960
 8507SOL     OW26419   3.876   0.496   4.538
 8507SOL    HW126420   3.917   0.407   4.520
 8507SOL    HW226421   3.945   0.559   4.574
 8508SOL     OW26422   5.240   1.851   4.655
 8508SOL    HW126423   5.256   1.882   4.749
 8508SOL    HW226424   5.213   1.930   4.599
 8509SOL     OW26425   4.425   1.044   4.328
 8509SOL    HW126426   4.348   0.991   4.361
 8509SOL    HW226427   4.492   1.057   4.401
 8510SOL     OW26428   5.831   4.754   2.348
 8510SOL    HW126429   5.737   4.744   2.315
 8510SOL    HW226430   5.834   4.730   2.445
 8511SOL     OW26431   6.287   4.654   2.376
 8511SOL    HW126432   6.285   4.575   2.438
 8511SOL    HW226433   6.204   4.653   2.319
 8512SOL     OW26434   2.718   1.483   2.585
 8512SOL    HW126435   2.776   1.403   2.593
 8512SOL    HW226436   2.764   1.554   2.531
 8513SOL     OW26437   6.521   5.258   0.848
 8513SOL    HW126438   6.546   5.345   0.806
 8513SOL    HW226439   6.603   5.211   0.880
 8514SOL     OW26440   1.910   2.296   4.232
 8514SOL    HW126441   1.933   2.203   4.203
 8514SOL    HW226442   1.933   2.360   4.158
 8515SOL     OW26443   4.915   2.125   1.421
 8515SOL    HW126444   4.922   2.217   1.381
 8515SOL    HW226445   4.989   2.113   1.488
 8516SOL     OW26446   6.864   1.739   1.998
 8516SOL    HW126447   6.822   1.788   1.922
 8516SOL    HW226448   6.811   1.657   2.018
 8517SOL     OW26449   0.566   2.739   6.103
 8517SOL    HW126450   0.574   2.671   6.176
 8517SOL    HW226451   0.641   2.804   6.110
 8518SOL     OW26452   4.199   4.358   0.109
 8518SOL    HW126453   4.116   4.413   0.121
 8518SOL    HW226454   4.185   4.295   0.033
 8519SOL     OW26455   1.827   4.644   2.354
 8519SOL    HW126456   1.778   4.724   2.320
 8519SOL    HW226457   1.835   4.649   2.453
 8520SOL     OW26458   3.668   2.132   0.638
 8520SOL    HW126459   3.717   2.046   0.651
 8520SOL    HW226460   3.598   2.120   0.568
 8521SOL     OW26461   1.563   4.929   5.776
 8521SOL    HW126462   1.622   4.911   5.855
 8521SOL    HW226463   1.616   4.919   5.692
 8522SOL     OW26464   1.237   5.424   1.571
 8522SOL    HW126465   1.252   5.351   1.637
 8522SOL    HW226466   1.139   5.431   1.550
 8523SOL     OW26467   3.177   0.202   6.325
 8523SOL    HW126468   3.088   0.167   6.354
 8523SOL    HW226469   3.191   0.293   6.363
 8524SOL     OW26470   1.208   2.072   5.133
 8524SOL    HW126471   1.156   2.153   5.158
 8524SOL    HW226472   1.302   2.080   5.167
 8525SOL     OW26473   6.350   4.518   2.924
 8525SOL    HW126474   6.439   4.473   2.919
 8525SOL    HW226475   6.285   4.459   2.972
 8526SOL     OW26476   3.451   5.038   6.996
 8526SOL    HW126477   3.472   5.009   0.068
 8526SOL    HW226478   3.535   5.037   6.941
 8527SOL     OW26479   3.216   0.408   4.915
 8527SOL    HW126480   3.163   0.353   4.850
 8527SOL    HW226481   3.190   0.504   4.907
 8528SOL     OW26482   4.967   2.616   6.142
 8528SOL    HW126483   4.901   2.677   6.096
 8528SOL    HW226484   4.932   2.523   6.141
 8529SOL     OW26485   0.543   6.760   0.546
 8529SOL    HW126486   0.486   6.769   0.465
 8529SOL    HW226487   0.522   6.834   0.611
 8530SOL     OW26488   2.291   4.073   5.396
 8530SOL    HW126489   2.318   4.019   5.316
 8530SOL    HW226490   2.192   4.088   5.394
 8531SOL     OW26491   6.711   4.288   1.557
 8531SOL    HW126492   6.691   4.299   1.459
 8531SOL    HW226493   6.625   4.291   1.609
 8532SOL     OW26494   4.161   5.113   4.581
 8532SOL    HW126495   4.069   5.088   4.550
 8532SOL    HW226496   4.164   5.211   4.602
 8533SOL     OW26497   1.894   0.065   5.849
 8533SOL    HW126498   1.956   0.130   5.893
 8533SOL    HW226499   1.851   0.107   5.769
 8534SOL     OW26500   6.632   3.397   4.072
 8534SOL    HW126501   6.691   3.475   4.047
 8534SOL    HW226502   6.570   3.425   4.145
 8535SOL     OW26503   0.556   2.241   5.256
 8535SOL    HW126504   0.549   2.242   5.156
 8535SOL    HW226505   0.548   2.335   5.290
 8536SOL     OW26506   6.207   1.906   5.074
 8536SOL    HW126507   6.243   1.873   4.987
 8536SOL    HW226508   6.267   1.977   5.110
 8537SOL     OW26509   5.749   1.343   2.485
 8537SOL    HW126510   5.668   1.289   2.508
 8537SOL    HW226511   5.812   1.288   2.430
 8538SOL     OW26512   0.946   1.438   5.891
 8538SOL    HW126513   0.889   1.439   5.809
 8538SOL    HW226514   0.890   1.457   5.971
 8539SOL     OW26515   6.622   1.448   1.572
 8539SOL    HW126516   6.613   1.354   1.604
 8539SOL    HW226517   6.626   1.510   1.651
 8540SOL     OW26518   3.814   1.789   0.337
 8540SOL    HW126519   3.889   1.724   0.349
 8540SOL    HW226520   3.730   1.738   0.318
 8541SOL     OW26521   3.190   2.195   4.486
 8541SOL    HW126522   3.106   2.249   4.479
 8541SOL    HW226523   3.197   2.135   4.406
 8542SOL     OW26524   2.391   4.340   5.649
 8542SOL    HW126525   2.396   4.263   5.712
 8542SOL    HW226526   2.475   4.345   5.595
 8543SOL     OW26527   3.181   1.222   6.962
 8543SOL    HW126528   3.195   1.141   7.019
 8543SOL    HW226529   3.240   1.217   6.882
 8544SOL     OW26530   5.487   2.846   4.514
 8544SOL    HW126531   5.500   2.886   4.423
 8544SOL    HW226532   5.391   2.854   4.540
 8545SOL     OW26533   4.632   0.138   5.306
 8545SOL    HW126534   4.624   0.094   5.396
 8545SOL    HW226535   4.718   0.109   5.263
 8546SOL     OW26536   0.793   0.129   2.554
 8546SOL    HW126537   0.859   0.140   2.479
 8546SOL    HW226538   0.830   0.064   2.621
 8547SOL     OW26539   0.686   6.919   6.613
 8547SOL    HW126540   0.691   6.819   6.622
 8547SOL    HW226541   0.750   6.962   6.676
 8548SOL     OW26542   6.509   3.142   5.985
 8548SOL    HW126543   6.452   3.133   5.903
 8548SOL    HW226544   6.606   3.141   5.959
 8549SOL     OW26545   0.749   2.222   3.979
 8549SOL    HW126546   0.722   2.313   3.948
 8549SOL    HW226547   0.807   2.180   3.910
 8550SOL     OW26548   1.327   4.929   0.512
 8550SOL    HW126549   1.301   4.844   0.558
 8550SOL    HW226550   1.246   4.971   0.470
 8551SOL     OW26551   2.551   2.580   0.112
 8551SOL    HW126552   2.624   2.516   0.090
 8551SOL    HW226553   2.472   2.562   0.054
 8552SOL     OW26554   2.172   0.596   2.581
 8552SOL    HW126555   2.115   0.575   2.661
 8552SOL    HW226556   2.173   0.518   2.519
 8553SOL     OW26557   3.920   4.548   6.584
 8553SOL    HW126558   3.878   4.635   6.558
 8553SOL    HW226559   3.861   4.473   6.554
 8554SOL     OW26560   0.670   5.546   0.500
 8554SOL    HW126561   0.700   5.641   0.492
 8554SOL    HW226562   0.739   5.493   0.549
 8555SOL     OW26563   3.530   0.994   3.548
 8555SOL    HW126564   3.553   1.084   3.514
 8555SOL    HW226565   3.496   1.001   3.642
 8556SOL     OW26566   2.168   6.232   5.182
 8556SOL    HW126567   2.075   6.254   5.151
 8556SOL    HW226568   2.167   6.208   5.279
 8557SOL     OW26569   6.388   7.008   2.099
 8557SOL    HW126570   6.352   0.076   2.073
 8557SOL    HW226571   6.313   6.941   2.100
 8558SOL     OW26572   2.378   5.757   3.521
 8558SOL    HW126573   2.306   5.736   3.587
 8558SOL    HW226574   2.340   5.812   3.447
 8559SOL     OW26575   2.012   6.816   2.633
 8559SOL    HW126576   2.002   6.741   2.699
 8559SOL    HW226577   2.100   6.807   2.587
 8560SOL     OW26578   1.499   5.587   2.248
 8560SOL    HW126579   1.557   5.667   2.233
 8560SOL    HW226580   1.443   5.571   2.167
 8561SOL     OW26581   3.364   0.059   2.797
 8561SOL    HW126582   3.309   0.036   2.717
 8561SOL    HW226583   3.395   6.997   2.842
 8562SOL     OW26584   3.706   6.472   6.666
 8562SOL    HW126585   3.687   6.535   6.590
 8562SOL    HW226586   3.643   6.490   6.741
 8563SOL     OW26587   1.134   4.945   1.881
 8563SOL    HW126588   1.117   4.854   1.920
 8563SOL    HW226589   1.232   4.957   1.867
 8564SOL     OW26590   3.080   0.038   4.884
 8564SOL    HW126591   3.153   0.061   4.948
 8564SOL    HW226592   3.037   0.122   4.851
 8565SOL     OW26593   3.702   5.045   0.914
 8565SOL    HW126594   3.724   4.954   0.879
 8565SOL    HW226595   3.606   5.049   0.940
 8566SOL     OW26596   0.763   6.986   1.577
 8566SOL    HW126597   0.672   6.960   1.547
 8566SOL    HW226598   0.826   6.910   1.564
 8567SOL     OW26599   0.165   1.965   2.195
 8567SOL    HW126600   0.080   1.977   2.246
 8567SOL    HW226601   0.231   1.915   2.251
 8568SOL     OW26602   5.161   2.158   0.170
 8568SOL    HW126603   5.068   2.193   0.159
 8568SOL    HW226604   5.180   2.091   0.099
 8569SOL     OW26605   5.108   1.397   5.558
 8569SOL    HW126606   5.108   1.485   5.511
 8569SOL    HW226607   5.197   1.382   5.601
 8570SOL     OW26608   0.945   1.374   3.904
 8570SOL    HW126609   0.987   1.366   3.814
 8570SOL    HW226610   0.881   1.450   3.904
 8571SOL     OW26611   0.401   6.180   5.925
 8571SOL    HW126612   0.340   6.115   5.972
 8571SOL    HW226613   0.488   6.186   5.974
 8572SOL     OW26614   2.011   4.168   5.863
 8572SOL    HW126615   1.981   4.113   5.942
 8572SOL    HW226616   1.956   4.144   5.783
 8573SOL     OW26617   3.226   5.924   6.366
 8573SOL    HW126618   3.323   5.943   6.379
 8573SOL    HW226619   3.172   5.994   6.414
 8574SOL     OW26620   6.135   6.890   6.625
 8574SOL    HW126621   6.090   6.893   6.536
 8574SOL    HW226622   6.093   6.819   6.681
 8575SOL     OW26623   2.122   2.213   3.346
 8575SOL    HW126624   2.036   2.165   3.329
 8575SOL    HW226625   2.142   2.211   3.444
 8576SOL     OW26626   1.331   4.632   4.590
 8576SOL    HW126627   1.256   4.684   4.630
 8576SOL    HW226628   1.331   4.539   4.627
 8577SOL     OW26629   1.403   6.959   5.354
 8577SOL    HW126630   1.423   6.861   5.357
 8577SOL    HW226631   1.353   6.986   5.436
 8578SOL     OW26632   6.288   5.695   4.997
 8578SOL    HW126633   6.381   5.702   4.961
 8578SOL    HW226634   6.229   5.761   4.950
 8579SOL     OW26635   1.889   6.558   1.993
 8579SOL    HW126636   1.827   6.568   2.071
 8579SOL    HW226637   1.932   6.646   1.973
 8580SOL     OW26638   1.617   5.646   0.669
 8580SOL    HW126639   1.645   5.561   0.714
 8580SOL    HW226640   1.653   5.724   0.719
 8581SOL     OW26641   3.264   4.249   1.478
 8581SOL    HW126642   3.192   4.258   1.547
 8581SOL    HW226643   3.262   4.329   1.418
 8582SOL     OW26644   4.705   4.266   5.029
 8582SOL    HW126645   4.739   4.173   5.016
 8582SOL    HW226646   4.629   4.264   5.094
 8583SOL     OW26647   4.028   0.174   4.303
 8583SOL    HW126648   3.954   0.134   4.356
 8583SOL    HW226649   3.995   0.257   4.257
 8584SOL     OW26650   0.636   6.185   6.086
 8584SOL    HW126651   0.652   6.258   6.153
 8584SOL    HW226652   0.689   6.203   6.003
 8585SOL     OW26653   6.188   1.432   0.118
 8585SOL    HW126654   6.262   1.377   0.079
 8585SOL    HW226655   6.148   1.489   0.046
 8586SOL     OW26656   3.397   6.560   1.724
 8586SOL    HW126657   3.317   6.569   1.664
 8586SOL    HW226658   3.396   6.634   1.791
 8587SOL     OW26659   0.795   0.729   4.642
 8587SOL    HW126660   0.817   0.633   4.660
 8587SOL    HW226661   0.850   0.788   4.701
 8588SOL     OW26662   4.325   1.280   6.937
 8588SOL    HW126663   4.409   1.227   6.928
 8588SOL    HW226664   4.345   1.377   6.932
 8589SOL     OW26665   5.843   2.551   5.547
 8589SOL    HW126666   5.800   2.480   5.603
 8589SOL    HW226667   5.891   2.509   5.470
 8590SOL     OW26668   0.365   0.253   2.672
 8590SOL    HW126669   0.330   0.177   2.618
 8590SOL    HW226670   0.459   0.273   2.645
 8591SOL     OW26671   0.332   4.194   6.714
 8591SOL    HW126672   0.321   4.289   6.745
 8591SOL    HW226673   0.396   4.146   6.776
 8592SOL     OW26674   5.730   2.021   6.621
 8592SOL    HW126675   5.791   2.013   6.700
 8592SOL    HW226676   5.751   1.949   6.555
 8593SOL     OW26677   3.206   1.000   0.089
 8593SOL    HW126678   3.117   0.958   0.105
 8593SOL    HW226679   3.278   0.938   0.119
 8594SOL     OW26680   5.207   2.264   5.528
 8594SOL    HW126681   5.180   2.175   5.491
 8594SOL    HW226682   5.133   2.329   5.515
 8595SOL     OW26683   0.365   0.906   3.841
 8595SOL    HW126684   0.302   0.972   3.798
 8595SOL    HW226685   0.312   0.837   3.890
 8596SOL     OW26686   1.332   4.876   3.239
 8596SOL    HW126687   1.426   4.861   3.269
 8596SOL    HW226688   1.329   4.957   3.179
 8597SOL     OW26689   5.060   1.787   1.882
 8597SOL    HW126690   5.009   1.839   1.814
 8597SOL    HW226691   5.001   1.768   1.960
 8598SOL     OW26692   5.863   0.012   6.885
 8598SOL    HW126693   5.896   0.105   6.901
 8598SOL    HW226694   5.936   6.968   6.906
 8599SOL     OW26695   1.575   1.889   4.364
 8599SOL    HW126696   1.529   1.824   4.303
 8599SOL    HW226697   1.510   1.920   4.434
 8600SOL     OW26698   5.283   3.772   6.388
 8600SOL    HW126699   5.375   3.790   6.424
 8600SOL    HW226700   5.237   3.860   6.370
 8601SOL     OW26701   1.024   1.457   3.634
 8601SOL    HW126702   0.989   1.415   3.550
 8601SOL    HW226703   1.102   1.515   3.611
 8602SOL     OW26704   3.326   6.634   2.783
 8602SOL    HW126705   3.351   6.601   2.692
 8602SOL    HW226706   3.336   6.559   2.849
 8603SOL     OW26707   5.017   6.088   1.377
 8603SOL    HW126708   5.024   6.107   1.279
 8603SOL    HW226709   4.974   6.165   1.423
 8604SOL     OW26710   1.026   2.481   5.388
 8604SOL    HW126711   1.047   2.550   5.318
 8604SOL    HW226712   0.944   2.431   5.362
 8605SOL     OW26713   2.518   5.364   4.385
 8605SOL    HW126714   2.452   5.291   4.366
 8605SOL    HW226715   2.610   5.330   4.367
 8606SOL     OW26716   2.020   2.708   6.764
 8606SOL    HW126717   2.117   2.683   6.763
 8606SOL    HW226718   2.008   2.793   6.815
 8607SOL     OW26719   3.043   4.688   6.152
 8607SOL    HW126720   3.012   4.593   6.162
 8607SOL    HW226721   2.963   4.748   6.145
 8608SOL     OW26722   2.724   4.791   2.508
 8608SOL    HW126723   2.712   4.709   2.452
 8608SOL    HW226724   2.692   4.774   2.601
 8609SOL     OW26725   5.083   0.625   3.217
 8609SOL    HW126726   4.997   0.584   3.248
 8609SOL    HW226727   5.070   0.665   3.126
 8610SOL     OW26728   1.149   1.482   2.785
 8610SOL    HW126729   1.154   1.422   2.865
 8610SOL    HW226730   1.064   1.464   2.735
 8611SOL     OW26731   2.943   1.769   4.354
 8611SOL    HW126732   2.926   1.758   4.452
 8611SOL    HW226733   3.040   1.752   4.335
 8612SOL     OW26734   2.549   3.005   1.170
 8612SOL    HW126735   2.566   2.976   1.264
 8612SOL    HW226736   2.574   3.101   1.159
 8613SOL     OW26737   2.800   1.659   1.851
 8613SOL    HW126738   2.897   1.639   1.835
 8613SOL    HW226739   2.781   1.754   1.825
 8614SOL     OW26740   1.044   2.838   3.958
 8614SOL    HW126741   1.061   2.759   3.900
 8614SOL    HW226742   0.950   2.833   3.995
 8615SOL     OW26743   4.307   2.103   5.199
 8615SOL    HW126744   4.407   2.106   5.198
 8615SOL    HW226745   4.274   2.023   5.149
 8616SOL     OW26746   3.092   4.761   1.911
 8616SOL    HW126747   3.122   4.780   2.004
 8616SOL    HW226748   3.019   4.693   1.912
 8617SOL     OW26749   5.889   1.335   4.885
 8617SOL    HW126750   5.967   1.395   4.897
 8617SOL    HW226751   5.895   1.259   4.950
 8618SOL     OW26752   6.499   4.758   1.036
 8618SOL    HW126753   6.452   4.789   1.119
 8618SOL    HW226754   6.545   4.672   1.055
 8619SOL     OW26755   4.106   5.070   1.995
 8619SOL    HW126756   4.175   5.135   1.963
 8619SOL    HW226757   4.124   5.048   2.091
 8620SOL     OW26758   1.928   6.570   2.974
 8620SOL    HW126759   1.981   6.553   3.057
 8620SOL    HW226760   1.988   6.597   2.900
 8621SOL     OW26761   5.778   2.074   2.368
 8621SOL    HW126762   5.824   2.002   2.419
 8621SOL    HW226763   5.754   2.149   2.430
 8622SOL     OW26764   5.102   3.638   1.385
 8622SOL    HW126765   5.026   3.694   1.351
 8622SOL    HW226766   5.104   3.642   1.485
 8623SOL     OW26767   1.065   3.804   5.054
 8623SOL    HW126768   1.155   3.820   5.096
 8623SOL    HW226769   1.047   3.706   5.051
 8624SOL     OW26770   2.203   3.897   4.476
 8624SOL    HW126771   2.224   3.974   4.415
 8624SOL    HW226772   2.220   3.925   4.571
 8625SOL     OW26773   4.472   0.958   6.016
 8625SOL    HW126774   4.560   1.005   6.021
 8625SOL    HW226775   4.485   0.867   5.977
 8626SOL     OW26776   4.040   2.477   6.670
 8626SOL    HW126777   4.084   2.388   6.676
 8626SOL    HW226778   4.033   2.505   6.574
 8627SOL     OW26779   1.292   1.723   2.253
 8627SOL    HW126780   1.277   1.780   2.333
 8627SOL    HW226781   1.217   1.657   2.245
 8628SOL     OW26782   5.962   6.473   0.246
 8628SOL    HW126783   6.024   6.413   0.195
 8628SOL    HW226784   5.973   6.567   0.215
 8629SOL     OW26785   1.972   6.451   4.950
 8629SOL    HW126786   2.055   6.456   4.895
 8629SOL    HW226787   1.916   6.533   4.932
 8630SOL     OW26788   5.250   3.249   3.927
 8630SOL    HW126789   5.235   3.299   4.012
 8630SOL    HW226790   5.278   3.313   3.855
 8631SOL     OW26791   0.682   5.262   6.493
 8631SOL    HW126792   0.770   5.254   6.540
 8631SOL    HW226793   0.615   5.304   6.554
 8632SOL     OW26794   3.976   4.888   5.291
 8632SOL    HW126795   3.989   4.948   5.212
 8632SOL    HW226796   4.028   4.804   5.278
 8633SOL     OW26797   5.885   1.956   6.101
 8633SOL    HW126798   5.815   1.969   6.030
 8633SOL    HW226799   5.903   2.043   6.146
 8634SOL     OW26800   5.292   4.156   6.902
 8634SOL    HW126801   5.371   4.214   6.883
 8634SOL    HW226802   5.320   4.061   6.904
 8635SOL     OW26803   4.967   3.214   6.377
 8635SOL    HW126804   5.032   3.160   6.430
 8635SOL    HW226805   4.985   3.311   6.391
 8636SOL     OW26806   5.631   6.079   0.893
 8636SOL    HW126807   5.650   6.094   0.990
 8636SOL    HW226808   5.553   6.135   0.865
 8637SOL     OW26809   2.763   1.096   6.989
 8637SOL    HW126810   2.810   1.138   6.912
 8637SOL    HW226811   2.703   1.023   6.956
 8638SOL     OW26812   3.441   2.121   4.984
 8638SOL    HW126813   3.405   2.032   5.013
 8638SOL    HW226814   3.370   2.190   4.992
 8639SOL     OW26815   5.530   2.745   0.286
 8639SOL    HW126816   5.524   2.836   0.245
 8639SOL    HW226817   5.594   2.747   0.363
 8640SOL     OW26818   4.164   3.462   0.300
 8640SOL    HW126819   4.127   3.435   0.389
 8640SOL    HW226820   4.210   3.550   0.309
 8641SOL     OW26821   3.975   4.902   4.126
 8641SOL    HW126822   3.990   4.895   4.224
 8641SOL    HW226823   4.053   4.947   4.083
 8642SOL     OW26824   1.215   6.270   4.857
 8642SOL    HW126825   1.287   6.279   4.926
 8642SOL    HW226826   1.193   6.360   4.820
 8643SOL     OW26827   2.466   0.896   5.940
 8643SOL    HW126828   2.539   0.963   5.942
 8643SOL    HW226829   2.494   0.817   5.885
 8644SOL     OW26830   5.676   2.278   5.936
 8644SOL    HW126831   5.599   2.214   5.929
 8644SOL    HW226832   5.737   2.265   5.858
 8645SOL     OW26833   4.390   4.276   1.077
 8645SOL    HW126834   4.354   4.187   1.104
 8645SOL    HW226835   4.329   4.348   1.109
 8646SOL     OW26836   0.370   1.743   0.282
 8646SOL    HW126837   0.296   1.700   0.229
 8646SOL    HW226838   0.361   1.717   0.378
 8647SOL     OW26839   2.284   4.539   0.060
 8647SOL    HW126840   2.345   4.536   7.001
 8647SOL    HW226841   2.330   4.588   0.134
 8648SOL     OW26842   6.880   7.004   2.574
 8648SOL    HW126843   6.924   0.061   2.532
 8648SOL    HW226844   6.781   7.014   2.569
 8649SOL     OW26845   5.614   5.886   6.790
 8649SOL    HW126846   5.555   5.818   6.746
 8649SOL    HW226847   5.704   5.847   6.806
 8650SOL     OW26848   1.136   5.441   4.931
 8650SOL    HW126849   1.131   5.355   4.981
 8650SOL    HW226850   1.220   5.489   4.955
 8651SOL     OW26851   4.314   1.423   0.512
 8651SOL    HW126852   4.280   1.435   0.418
 8651SOL    HW226853   4.243   1.381   0.568
 8652SOL     OW26854   1.961   5.012   3.334
 8652SOL    HW126855   2.017   4.929   3.332
 8652SOL    HW226856   2.012   5.085   3.381
 8653SOL     OW26857   6.757   0.900   6.317
 8653SOL    HW126858   6.856   0.883   6.309
 8653SOL    HW226859   6.740   0.998   6.303
 8654SOL     OW26860   0.935   4.847   2.438
 8654SOL    HW126861   0.835   4.850   2.427
 8654SOL    HW226862   0.958   4.826   2.533
 8655SOL     OW26863   6.167   0.340   4.129
 8655SOL    HW126864   6.097   0.411   4.134
 8655SOL    HW226865   6.129   0.252   4.159
 8656SOL     OW26866   6.168   0.688   1.955
 8656SOL    HW126867   6.193   0.746   2.032
 8656SOL    HW226868   6.236   0.696   1.883
 8657SOL     OW26869   5.179   6.111   0.047
 8657SOL    HW126870   5.239   6.033   0.033
 8657SOL    HW226871   5.163   6.125   0.144
 8658SOL     OW26872   6.090   6.253   0.144
 8658SOL    HW126873   6.131   6.217   0.060
 8658SOL    HW226874   6.054   6.178   0.199
 8659SOL     OW26875   4.994   2.485   2.237
 8659SOL    HW126876   5.052   2.549   2.287
 8659SOL    HW226877   4.921   2.534   2.190
 8660SOL     OW26878   0.105   3.569   2.053
 8660SOL    HW126879   0.080   3.473   2.063
 8660SOL    HW226880   0.027   3.621   2.018
 8661SOL     OW26881   0.083   4.024   1.516
 8661SOL    HW126882   0.005   4.026   1.579
 8661SOL    HW226883   0.068   4.089   1.442
 8662SOL     OW26884   4.509   5.555   1.813
 8662SOL    HW126885   4.596   5.531   1.772
 8662SOL    HW226886   4.474   5.639   1.772
 8663SOL     OW26887   3.002   5.311   2.405
 8663SOL    HW126888   2.924   5.365   2.375
 8663SOL    HW226889   3.086   5.365   2.396
 8664SOL     OW26890   1.917   5.633   1.323
 8664SOL    HW126891   1.990   5.605   1.384
 8664SOL    HW226892   1.833   5.646   1.375
 8665SOL     OW26893   5.404   5.413   5.147
 8665SOL    HW126894   5.460   5.375   5.074
 8665SOL    HW226895   5.325   5.354   5.164
 8666SOL     OW26896   5.644   0.822   3.674
 8666SOL    HW126897   5.562   0.784   3.716
 8666SOL    HW226898   5.624   0.914   3.638
 8667SOL     OW26899   4.086   1.963   4.173
 8667SOL    HW126900   4.091   1.927   4.267
 8667SOL    HW226901   4.005   1.928   4.128
 8668SOL     OW26902   5.117   3.880   3.019
 8668SOL    HW126903   5.162   3.799   2.982
 8668SOL    HW226904   5.180   3.928   3.080
 8669SOL     OW26905   0.739   6.760   6.318
 8669SOL    HW126906   0.724   6.846   6.269
 8669SOL    HW226907   0.837   6.737   6.317
 8670SOL     OW26908   3.843   5.309   5.882
 8670SOL    HW126909   3.763   5.287   5.937
 8670SOL    HW226910   3.831   5.271   5.790
 8671SOL     OW26911   6.042   1.832   3.291
 8671SOL    HW126912   5.975   1.783   3.347
 8671SOL    HW226913   6.099   1.767   3.242
 8672SOL     OW26914   0.651   5.564   3.743
 8672SOL    HW126915   0.654   5.630   3.668
 8672SOL    HW226916   0.584   5.595   3.811
 8673SOL     OW26917   5.679   2.285   0.093
 8673SOL    HW126918   5.651   2.376   0.123
 8673SOL    HW226919   5.779   2.279   0.092
 8674SOL     OW26920   5.629   5.947   2.509
 8674SOL    HW126921   5.705   5.968   2.449
 8674SOL    HW226922   5.657   5.878   2.576
 8675SOL     OW26923   4.412   1.876   4.803
 8675SOL    HW126924   4.500   1.888   4.849
 8675SOL    HW226925   4.372   1.788   4.829
 8676SOL     OW26926   5.719   6.583   3.357
 8676SOL    HW126927   5.766   6.672   3.358
 8676SOL    HW226928   5.636   6.588   3.413
 8677SOL     OW26929   2.279   5.259   6.623
 8677SOL    HW126930   2.322   5.170   6.609
 8677SOL    HW226931   2.250   5.296   6.534
 8678SOL     OW26932   0.745   0.377   0.966
 8678SOL    HW126933   0.842   0.374   0.989
 8678SOL    HW226934   0.733   0.357   0.869
 8679SOL     OW26935   1.012   1.104   3.470
 8679SOL    HW126936   1.101   1.088   3.427
 8679SOL    HW226937   0.997   1.203   3.478
 8680SOL     OW26938   6.338   3.758   0.228
 8680SOL    HW126939   6.271   3.763   0.154
 8680SOL    HW226940   6.294   3.783   0.315
 8681SOL     OW26941   4.906   5.398   1.382
 8681SOL    HW126942   5.003   5.399   1.406
 8681SOL    HW226943   4.863   5.315   1.419
 8682SOL     OW26944   5.990   0.140   2.564
 8682SOL    HW126945   6.048   0.204   2.615
 8682SOL    HW226946   6.027   0.126   2.473
 8683SOL     OW26947   1.644   2.627   5.264
 8683SOL    HW126948   1.587   2.663   5.190
 8683SOL    HW226949   1.730   2.678   5.267
 8684SOL     OW26950   6.168   2.650   4.211
 8684SOL    HW126951   6.235   2.610   4.149
 8684SOL    HW226952   6.076   2.632   4.178
 8685SOL     OW26953   6.045   1.815   5.935
 8685SOL    HW126954   5.996   1.881   5.993
 8685SOL    HW226955   6.130   1.788   5.981
 8686SOL     OW26956   6.619   0.619   2.157
 8686SOL    HW126957   6.712   0.604   2.192
 8686SOL    HW226958   6.623   0.663   2.068
 8687SOL     OW26959   4.918   5.334   2.410
 8687SOL    HW126960   4.973   5.291   2.482
 8687SOL    HW226961   4.848   5.271   2.379
 8688SOL     OW26962   1.212   5.200   6.221
 8688SOL    HW126963   1.167   5.242   6.142
 8688SOL    HW226964   1.169   5.232   6.305
 8689SOL     OW26965   4.029   2.248   1.175
 8689SOL    HW126966   4.083   2.177   1.220
 8689SOL    HW226967   4.000   2.315   1.243
 8690SOL     OW26968   1.101   3.758   3.984
 8690SOL    HW126969   1.177   3.762   3.920
 8690SOL    HW226970   1.015   3.765   3.934
 8691SOL     OW26971   3.920   1.611   6.603
 8691SOL    HW126972   3.896   1.673   6.678
 8691SOL    HW226973   3.862   1.630   6.524
 8692SOL     OW26974   3.378   1.639   4.493
 8692SOL    HW126975   3.385   1.720   4.551
 8692SOL    HW226976   3.423   1.562   4.538
 8693SOL     OW26977   5.675   0.051   0.366
 8693SOL    HW126978   5.618   0.131   0.352
 8693SOL    HW226979   5.771   0.079   0.369
 8694SOL     OW26980   5.169   1.505   4.890
 8694SOL    HW126981   5.143   1.410   4.879
 8694SOL    HW226982   5.267   1.516   4.871
 8695SOL     OW26983   4.620   3.527   6.023
 8695SOL    HW126984   4.658   3.435   6.006
 8695SOL    HW226985   4.524   3.529   5.995
 8696SOL     OW26986   2.664   5.110   5.206
 8696SOL    HW126987   2.748   5.164   5.200
 8696SOL    HW226988   2.683   5.015   5.185
 8697SOL     OW26989   0.555   4.235   6.224
 8697SOL    HW126990   0.488   4.194   6.286
 8697SOL    HW226991   0.591   4.319   6.265
 8698SOL     OW26992   5.274   6.027   4.851
 8698SOL    HW126993   5.359   6.020   4.799
 8698SOL    HW226994   5.292   6.008   4.948
 8699SOL     OW26995   1.295   3.262   4.335
 8699SOL    HW126996   1.343   3.175   4.323
 8699SOL    HW226997   1.199   3.245   4.357
 8700SOL     OW26998   1.057   0.393   5.086
 8700SOL    HW126999   1.086   0.309   5.039
 8700SOL    HW227000   1.117   0.409   5.164
 8701SOL     OW27001   1.372   1.392   0.156
 8701SOL    HW127002   1.422   1.425   0.076
 8701SOL    HW227003   1.377   1.460   0.229
 8702SOL     OW27004   5.518   5.050   2.028
 8702SOL    HW127005   5.562   5.137   2.004
 8702SOL    HW227006   5.561   5.013   2.110
 8703SOL     OW27007   2.649   5.060   0.279
 8703SOL    HW127008   2.550   5.069   0.294
 8703SOL    HW227009   2.679   5.130   0.214
 8704SOL     OW27010   0.765   4.236   3.548
 8704SOL    HW127011   0.681   4.255   3.497
 8704SOL    HW227012   0.761   4.282   3.637
 8705SOL     OW27013   5.275   1.350   6.302
 8705SOL    HW127014   5.337   1.427   6.285
 8705SOL    HW227015   5.183   1.374   6.272
 8706SOL     OW27016   4.940   2.265   0.036
 8706SOL    HW127017   4.898   2.264   0.127
 8706SOL    HW227018   4.875   2.302   6.991
 8707SOL     OW27019   0.880   1.467   5.205
 8707SOL    HW127020   0.833   1.551   5.231
 8707SOL    HW227021   0.978   1.478   5.219
 8708SOL     OW27022   4.262   1.206   3.702
 8708SOL    HW127023   4.347   1.256   3.722
 8708SOL    HW227024   4.281   1.135   3.634
 8709SOL     OW27025   6.394   6.803   6.951
 8709SOL    HW127026   6.440   6.811   0.018
 8709SOL    HW227027   6.458   6.767   6.883
 8710SOL     OW27028   1.420   2.863   3.221
 8710SOL    HW127029   1.437   2.779   3.170
 8710SOL    HW227030   1.415   2.941   3.158
 8711SOL     OW27031   1.638   6.556   2.736
 8711SOL    HW127032   1.611   6.463   2.760
 8711SOL    HW227033   1.735   6.557   2.712
 8712SOL     OW27034   3.670   1.807   4.116
 8712SOL    HW127035   3.611   1.817   4.196
 8712SOL    HW227036   3.617   1.768   4.041
 8713SOL     OW27037   7.017   3.153   2.291
 8713SOL    HW127038   7.015   3.130   2.388
 8713SOL    HW227039   6.923   3.172   2.260
 8714SOL     OW27040   1.230   0.363   5.959
 8714SOL    HW127041   1.132   0.385   5.960
 8714SOL    HW227042   1.282   0.443   5.930
 8715SOL     OW27043   4.019   0.825   0.874
 8715SOL    HW127044   4.020   0.726   0.862
 8715SOL    HW227045   4.113   0.859   0.874
 8716SOL     OW27046   0.082   6.748   0.475
 8716SOL    HW127047   0.145   6.757   0.398
 8716SOL    HW227048   0.116   6.679   0.539
 8717SOL     OW27049   2.837   3.734   5.245
 8717SOL    HW127050   2.931   3.762   5.262
 8717SOL    HW227051   2.824   3.715   5.148
 8718SOL     OW27052   1.689   2.960   5.129
 8718SOL    HW127053   1.627   2.985   5.203
 8718SOL    HW227054   1.783   2.973   5.158
 8719SOL     OW27055   4.009   0.072   0.397
 8719SOL    HW127056   4.098   0.116   0.381
 8719SOL    HW227057   3.936   0.140   0.388
 8720SOL     OW27058   1.079   6.398   6.301
 8720SOL    HW127059   1.076   6.462   6.225
 8720SOL    HW227060   1.058   6.446   6.386
 8721SOL     OW27061   6.564   2.313   1.459
 8721SOL    HW127062   6.570   2.291   1.556
 8721SOL    HW227063   6.619   2.249   1.406
 8722SOL     OW27064   3.424   1.254   1.210
 8722SOL    HW127065   3.450   1.283   1.118
 8722SOL    HW227066   3.329   1.223   1.209
 8723SOL     OW27067   4.751   6.994   1.820
 8723SOL    HW127068   4.656   6.966   1.808
 8723SOL    HW227069   4.762   0.011   1.912
 8724SOL     OW27070   5.190   6.670   4.189
 8724SOL    HW127071   5.123   6.620   4.244
 8724SOL    HW227072   5.201   6.762   4.227
 8725SOL     OW27073   2.145   5.391   5.587
 8725SOL    HW127074   2.120   5.481   5.550
 8725SOL    HW227075   2.123   5.388   5.685
 8726SOL     OW27076   0.044   0.494   3.117
 8726SOL    HW127077   0.106   0.558   3.071
 8726SOL    HW227078   0.099   0.423   3.163
 8727SOL     OW27079   6.217   0.120   1.634
 8727SOL    HW127080   6.215   0.087   1.540
 8727SOL    HW227081   6.211   0.042   1.697
 8728SOL     OW27082   5.885   0.852   1.765
 8728SOL    HW127083   5.893   0.923   1.835
 8728SOL    HW227084   5.951   0.869   1.692
 8729SOL     OW27085   3.448   4.818   5.557
 8729SOL    HW127086   3.400   4.854   5.476
 8729SOL    HW227087   3.475   4.724   5.540
 8730SOL     OW27088   5.009   3.862   2.465
 8730SOL    HW127089   4.973   3.783   2.514
 8730SOL    HW227090   5.023   3.938   2.529
 8731SOL     OW27091   0.588   3.588   3.173
 8731SOL    HW127092   0.589   3.490   3.190
 8731SOL    HW227093   0.682   3.622   3.165
 8732SOL     OW27094   5.265   4.954   2.033
 8732SOL    HW127095   5.358   4.990   2.020
 8732SOL    HW227096   5.198   5.018   1.996
 8733SOL     OW27097   1.374   5.755   1.079
 8733SOL    HW127098   1.351   5.771   1.175
 8733SOL    HW227099   1.381   5.843   1.031
 8734SOL     OW27100   0.973   3.198   2.872
 8734SOL    HW127101   0.990   3.116   2.817
 8734SOL    HW227102   1.056   3.222   2.924
 8735SOL     OW27103   0.780   3.081   6.413
 8735SOL    HW127104   0.757   2.994   6.457
 8735SOL    HW227105   0.705   3.108   6.352
 8736SOL     OW27106   0.247   5.137   1.810
 8736SOL    HW127107   0.154   5.114   1.781
 8736SOL    HW227108   0.264   5.100   1.901
 8737SOL     OW27109   1.679   6.689   0.527
 8737SOL    HW127110   1.713   6.629   0.455
 8737SOL    HW227111   1.754   6.710   0.590
 8738SOL     OW27112   2.747   6.005   4.069
 8738SOL    HW127113   2.782   5.955   3.990
 8738SOL    HW227114   2.659   5.967   4.096
 8739SOL     OW27115   5.920   5.599   6.100
 8739SOL    HW127116   5.900   5.561   6.009
 8739SOL    HW227117   5.842   5.653   6.132
 8740SOL     OW27118   4.207   1.157   3.963
 8740SOL    HW127119   4.219   1.186   3.868
 8740SOL    HW227120   4.292   1.174   4.014
 8741SOL     OW27121   2.386   0.910   2.819
 8741SOL    HW127122   2.444   0.989   2.802
 8741SOL    HW227123   2.372   0.899   2.918
 8742SOL     OW27124   4.776   0.581   1.579
 8742SOL    HW127125   4.767   0.674   1.542
 8742SOL    HW227126   4.767   0.515   1.504
 8743SOL     OW27127   1.217   7.021   1.693
 8743SOL    HW127128   1.156   0.071   1.727
 8743SOL    HW227129   1.310   0.016   1.726
 8744SOL     OW27130   4.479   2.932   0.774
 8744SOL    HW127131   4.415   3.007   0.757
 8744SOL    HW227132   4.481   2.871   0.695
 8745SOL     OW27133   6.136   1.523   6.420
 8745SOL    HW127134   6.148   1.513   6.518
 8745SOL    HW227135   6.199   1.461   6.372
 8746SOL     OW27136   5.003   5.439   4.673
 8746SOL    HW127137   5.067   5.369   4.640
 8746SOL    HW227138   4.944   5.400   4.744
 8747SOL     OW27139   6.996   1.572   2.605
 8747SOL    HW127140   6.999   1.514   2.523
 8747SOL    HW227141   0.062   1.619   2.616
 8748SOL     OW27142   0.576   2.023   5.020
 8748SOL    HW127143   0.513   1.972   5.077
 8748SOL    HW227144   0.670   1.995   5.041
 8749SOL     OW27145   1.958   0.588   5.405
 8749SOL    HW127146   2.056   0.572   5.418
 8749SOL    HW227147   1.945   0.647   5.326
 8750SOL     OW27148   3.471   3.951   5.966
 8750SOL    HW127149   3.485   3.894   6.047
 8750SOL    HW227150   3.559   3.973   5.925
 8751SOL     OW27151   6.350   1.957   1.809
 8751SOL    HW127152   6.371   1.937   1.904
 8751SOL    HW227153   6.295   1.883   1.770
 8752SOL     OW27154   3.263   3.032   6.469
 8752SOL    HW127155   3.172   2.993   6.452
 8752SOL    HW227156   3.308   2.980   6.541
 8753SOL     OW27157   3.039   1.857   6.664
 8753SOL    HW127158   3.104   1.788   6.696
 8753SOL    HW227159   3.080   1.911   6.591
 8754SOL     OW27160   1.434   4.241   5.097
 8754SOL    HW127161   1.410   4.171   5.165
 8754SOL    HW227162   1.447   4.197   5.008
 8755SOL     OW27163   2.223   1.163   1.092
 8755SOL    HW127164   2.212   1.182   0.994
 8755SOL    HW227165   2.175   1.077   1.114
 8756SOL     OW27166   2.221   2.998   3.440
 8756SOL    HW127167   2.276   2.919   3.412
 8756SOL    HW227168   2.236   3.015   3.538
 8757SOL     OW27169   4.189   5.213   6.783
 8757SOL    HW127170   4.236   5.128   6.807
 8757SOL    HW227171   4.201   5.279   6.857
 8758SOL     OW27172   4.535   6.129   2.921
 8758SOL    HW127173   4.437   6.108   2.925
 8758SOL    HW227174   4.571   6.100   2.832
 8759SOL     OW27175   4.865   3.290   6.918
 8759SOL    HW127176   4.848   3.195   6.892
 8759SOL    HW227177   4.871   3.296   7.018
 8760SOL     OW27178   2.625   1.000   4.838
 8760SOL    HW127179   2.635   1.099   4.841
 8760SOL    HW227180   2.638   0.968   4.744
 8761SOL     OW27181   6.315   2.166   1.202
 8761SOL    HW127182   6.238   2.111   1.172
 8761SOL    HW227183   6.390   2.106   1.232
 8762SOL     OW27184   0.744   5.113   4.265
 8762SOL    HW127185   0.782   5.021   4.273
 8762SOL    HW227186   0.645   5.110   4.280
 8763SOL     OW27187   6.175   6.884   6.195
 8763SOL    HW127188   6.272   6.880   6.217
 8763SOL    HW227189   6.164   6.903   6.097
 8764SOL     OW27190   4.481   0.160   5.587
 8764SOL    HW127191   4.526   0.071   5.574
 8764SOL    HW227192   4.537   0.217   5.647
 8765SOL     OW27193   5.021   0.552   3.903
 8765SOL    HW127194   5.098   0.594   3.951
 8765SOL    HW227195   4.936   0.574   3.952
 8766SOL     OW27196   4.397   4.295   5.364
 8766SOL    HW127197   4.342   4.309   5.282
 8766SOL    HW227198   4.408   4.382   5.412
 8767SOL     OW27199   6.081   6.630   2.542
 8767SOL    HW127200   6.115   6.710   2.493
 8767SOL    HW227201   5.982   6.621   2.527
 8768SOL     OW27202   1.378   2.717   6.950
 8768SOL    HW127203   1.300   2.665   6.986
 8768SOL    HW227204   1.445   2.731   0.002
 8769SOL     OW27205   6.814   0.848   2.961
 8769SOL    HW127206   6.721   0.873   2.933
 8769SOL    HW227207   6.876   0.857   2.884
 8770SOL     OW27208   4.604   4.471   2.209
 8770SOL    HW127209   4.558   4.436   2.127
 8770SOL    HW227210   4.633   4.393   2.265
 8771SOL     OW27211   1.319   1.889   6.510
 8771SOL    HW127212   1.272   1.802   6.526
 8771SOL    HW227213   1.312   1.914   6.413
 8772SOL     OW27214   4.396   0.420   6.386
 8772SOL    HW127215   4.396   0.323   6.362
 8772SOL    HW227216   4.414   0.430   6.484
 8773SOL     OW27217   5.474   2.724   3.612
 8773SOL    HW127218   5.407   2.735   3.539
 8773SOL    HW227219   5.429   2.683   3.692
 8774SOL     OW27220   1.332   0.923   0.510
 8774SOL    HW127221   1.426   0.894   0.528
 8774SOL    HW227222   1.323   0.952   0.415
 8775SOL     OW27223   5.406   1.174   6.139
 8775SOL    HW127224   5.358   1.233   6.204
 8775SOL    HW227225   5.402   1.079   6.171
 8776SOL     OW27226   4.413   3.663   0.732
 8776SOL    HW127227   4.430   3.726   0.808
 8776SOL    HW227228   4.388   3.573   0.767
 8777SOL     OW27229   6.036   4.599   2.993
 8777SOL    HW127230   6.069   4.512   3.029
 8777SOL    HW227231   6.017   4.589   2.895
 8778SOL     OW27232   5.184   2.819   5.873
 8778SOL    HW127233   5.129   2.879   5.816
 8778SOL    HW227234   5.247   2.873   5.929
 8779SOL     OW27235   2.597   5.596   2.174
 8779SOL    HW127236   2.678   5.614   2.229
 8779SOL    HW227237   2.585   5.668   2.106
 8780SOL     OW27238   6.803   0.284   3.192
 8780SOL    HW127239   6.867   0.303   3.266
 8780SOL    HW227240   6.829   0.199   3.147
 8781SOL     OW27241   4.922   0.766   4.047
 8781SOL    HW127242   4.863   0.771   3.967
 8781SOL    HW227243   5.009   0.812   4.029
 8782SOL     OW27244   6.916   0.514   1.601
 8782SOL    HW127245   6.941   0.418   1.617
 8782SOL    HW227246   6.825   0.517   1.559
 8783SOL     OW27247   6.545   4.304   3.322
 8783SOL    HW127248   6.550   4.212   3.283
 8783SOL    HW227249   6.473   4.356   3.276
 8784SOL     OW27250   0.235   6.872   6.405
 8784SOL    HW127251   0.271   6.835   6.320
 8784SOL    HW227252   0.303   6.932   6.447
 8785SOL     OW27253   5.814   4.946   6.893
 8785SOL    HW127254   5.869   5.018   6.850
 8785SOL    HW227255   5.735   4.987   6.938
 8786SOL     OW27256   2.743   1.025   0.621
 8786SOL    HW127257   2.743   0.960   0.697
 8786SOL    HW227258   2.820   1.087   0.629
 8787SOL     OW27259   2.908   1.355   1.978
 8787SOL    HW127260   2.901   1.303   2.063
 8787SOL    HW227261   2.927   1.451   1.999
 8788SOL     OW27262   0.260   0.735   5.171
 8788SOL    HW127263   0.171   0.774   5.195
 8788SOL    HW227264   0.320   0.739   5.251
 8789SOL     OW27265   6.560   5.148   5.577
 8789SOL    HW127266   6.462   5.165   5.583
 8789SOL    HW227267   6.592   5.104   5.661
 8790SOL     OW27268   6.115   0.612   6.614
 8790SOL    HW127269   6.157   0.635   6.701
 8790SOL    HW227270   6.186   0.589   6.547
 8791SOL     OW27271   5.569   6.811   5.394
 8791SOL    HW127272   5.577   6.870   5.474
 8791SOL    HW227273   5.646   6.748   5.391
 8792SOL     OW27274   3.483   4.951   3.107
 8792SOL    HW127275   3.504   5.046   3.132
 8792SOL    HW227276   3.556   4.891   3.140
 8793SOL     OW27277   0.825   4.612   2.637
 8793SOL    HW127278   0.812   4.676   2.713
 8793SOL    HW227279   0.906   4.556   2.655
 8794SOL     OW27280   5.357   0.431   2.917
 8794SOL    HW127281   5.350   0.444   3.016
 8794SOL    HW227282   5.443   0.385   2.895
 8795SOL     OW27283   1.081   4.703   5.387
 8795SOL    HW127284   1.053   4.781   5.442
 8795SOL    HW227285   1.035   4.620   5.420
 8796SOL     OW27286   4.985   2.132   3.438
 8796SOL    HW127287   5.003   2.087   3.351
 8796SOL    HW227288   5.017   2.073   3.513
 8797SOL     OW27289   0.023   0.356   6.188
 8797SOL    HW127290   6.991   0.313   6.116
 8797SOL    HW227291   0.110   0.390   6.150
 8798SOL     OW27292   4.582   6.321   6.749
 8798SOL    HW127293   4.557   6.377   6.828
 8798SOL    HW227294   4.643   6.374   6.690
 8799SOL     OW27295   2.341   5.050   3.925
 8799SOL    HW127296   2.298   5.117   3.864
 8799SOL    HW227297   2.430   5.085   3.954
 8800SOL     OW27298   5.634   4.645   6.132
 8800SOL    HW127299   5.721   4.630   6.085
 8800SOL    HW227300   5.592   4.557   6.154
 8801SOL     OW27301   6.698   1.632   4.443
 8801SOL    HW127302   6.732   1.557   4.500
 8801SOL    HW227303   6.692   1.715   4.499
 8802SOL     OW27304   1.717   6.044   6.307
 8802SOL    HW127305   1.684   6.130   6.347
 8802SOL    HW227306   1.643   5.998   6.259
 8803SOL     OW27307   6.715   0.107   0.006
 8803SOL    HW127308   6.623   0.109   6.986
 8803SOL    HW227309   6.711   0.055   0.092
 8804SOL     OW27310   2.187   6.338   1.334
 8804SOL    HW127311   2.098   6.303   1.307
 8804SOL    HW227312   2.176   6.428   1.376
 8805SOL     OW27313   3.712   6.326   3.301
 8805SOL    HW127314   3.747   6.292   3.388
 8805SOL    HW227315   3.749   6.269   3.227
 8806SOL     OW27316   3.017   4.670   0.843
 8806SOL    HW127317   3.026   4.590   0.903
 8806SOL    HW227318   2.920   4.689   0.828
 8807SOL     OW27319   4.853   1.664   0.608
 8807SOL    HW127320   4.776   1.616   0.651
 8807SOL    HW227321   4.914   1.698   0.680
 8808SOL     OW27322   6.412   2.415   6.209
 8808SOL    HW127323   6.508   2.424   6.234
 8808SOL    HW227324   6.403   2.420   6.110
 8809SOL     OW27325   3.219   5.053   4.100
 8809SOL    HW127326   3.275   5.101   4.168
 8809SOL    HW227327   3.135   5.020   4.143
 8810SOL     OW27328   6.092   0.312   5.167
 8810SOL    HW127329   6.012   0.322   5.227
 8810SOL    HW227330   6.119   0.403   5.134
 8811SOL     OW27331   3.666   1.102   3.197
 8811SOL    HW127332   3.669   1.004   3.217
 8811SOL    HW227333   3.739   1.124   3.132
 8812SOL     OW27334   2.035   0.496   0.615
 8812SOL    HW127335   1.993   0.408   0.596
 8812SOL    HW227336   1.985   0.568   0.568
 8813SOL     OW27337   2.044   5.898   3.655
 8813SOL    HW127338   2.073   5.972   3.594
 8813SOL    HW227339   1.970   5.846   3.612
 8814SOL     OW27340   6.312   0.087   0.218
 8814SOL    HW127341   6.392   0.031   0.242
 8814SOL    HW227342   6.302   0.161   0.285
 8815SOL     OW27343   5.166   0.058   1.574
 8815SOL    HW127344   5.258   0.019   1.562
 8815SOL    HW227345   5.118   0.056   1.487
 8816SOL     OW27346   0.867   6.912   0.068
 8816SOL    HW127347   0.928   6.986   0.040
 8816SOL    HW227348   0.913   6.855   0.137
 8817SOL     OW27349   6.978   3.972   3.689
 8817SOL    HW127350   6.920   4.037   3.738
 8817SOL    HW227351   0.029   4.021   3.642
 8818SOL     OW27352   1.082   5.664   3.773
 8818SOL    HW127353   1.167   5.717   3.776
 8818SOL    HW227354   1.028   5.693   3.694
 8819SOL     OW27355   5.654   5.242   5.397
 8819SOL    HW127356   5.575   5.300   5.416
 8819SOL    HW227357   5.627   5.146   5.407
 8820SOL     OW27358   2.619   0.966   5.660
 8820SOL    HW127359   2.598   0.878   5.702
 8820SOL    HW227360   2.575   1.040   5.711
 8821SOL     OW27361   1.957   5.822   0.765
 8821SOL    HW127362   1.872   5.853   0.807
 8821SOL    HW227363   1.936   5.755   0.694
 8822SOL     OW27364   0.908   1.004   3.704
 8822SOL    HW127365   0.999   1.005   3.745
 8822SOL    HW227366   0.916   1.011   3.604
 8823SOL     OW27367   2.635   0.685   2.269
 8823SOL    HW127368   2.718   0.721   2.226
 8823SOL    HW227369   2.559   0.746   2.250
 8824SOL     OW27370   1.497   1.195   0.285
 8824SOL    HW127371   1.437   1.263   0.242
 8824SOL    HW227372   1.465   1.177   0.378
 8825SOL     OW27373   1.301   0.970   2.060
 8825SOL    HW127374   1.326   1.027   2.138
 8825SOL    HW227375   1.362   0.989   1.983
 8826SOL     OW27376   1.004   3.871   0.503
 8826SOL    HW127377   0.919   3.921   0.517
 8826SOL    HW227378   1.064   3.923   0.442
 8827SOL     OW27379   4.352   0.057   3.099
 8827SOL    HW127380   4.426   0.121   3.078
 8827SOL    HW227381   4.283   0.062   3.026
 8828SOL     OW27382   3.865   5.091   6.402
 8828SOL    HW127383   3.943   5.122   6.457
 8828SOL    HW227384   3.782   5.135   6.434
 8829SOL     OW27385   5.481   2.013   0.976
 8829SOL    HW127386   5.408   2.066   1.018
 8829SOL    HW227387   5.442   1.935   0.927
 8830SOL     OW27388   2.299   1.910   2.389
 8830SOL    HW127389   2.355   1.869   2.461
 8830SOL    HW227390   2.325   1.871   2.300
 8831SOL     OW27391   5.233   2.698   3.446
 8831SOL    HW127392   5.207   2.621   3.504
 8831SOL    HW227393   5.155   2.760   3.436
 8832SOL     OW27394   6.799   6.345   3.419
 8832SOL    HW127395   6.886   6.361   3.373
 8832SOL    HW227396   6.737   6.422   3.403
 8833SOL     OW27397   2.876   4.733   6.704
 8833SOL    HW127398   2.842   4.804   6.642
 8833SOL    HW227399   2.802   4.671   6.728
 8834SOL     OW27400   5.765   3.431   4.361
 8834SOL    HW127401   5.771   3.505   4.428
 8834SOL    HW227402   5.668   3.411   4.343
 8835SOL     OW27403   5.287   1.038   5.867
 8835SOL    HW127404   5.203   1.079   5.903
 8835SOL    HW227405   5.267   0.945   5.835
 8836SOL     OW27406   5.426   1.779   0.843
 8836SOL    HW127407   5.371   1.810   0.766
 8836SOL    HW227408   5.517   1.754   0.811
 8837SOL     OW27409   0.121   6.826   2.849
 8837SOL    HW127410   0.107   6.798   2.754
 8837SOL    HW227411   0.060   6.902   2.871
 8838SOL     OW27412   2.065   4.666   3.591
 8838SOL    HW127413   1.978   4.654   3.639
 8838SOL    HW227414   2.140   4.630   3.647
 8839SOL     OW27415   4.378   5.806   1.893
 8839SOL    HW127416   4.441   5.882   1.908
 8839SOL    HW227417   4.399   5.732   1.956
 8840SOL     OW27418   6.716   0.745   2.421
 8840SOL    HW127419   6.619   0.723   2.435
 8840SOL    HW227420   6.766   0.661   2.401
 8841SOL     OW27421   0.029   1.537   4.777
 8841SOL    HW127422   0.102   1.518   4.843
 8841SOL    HW227423   0.059   1.609   4.714
 8842SOL     OW27424   3.347   3.173   3.345
 8842SOL    HW127425   3.447   3.173   3.348
 8842SOL    HW227426   3.316   3.185   3.250
 8843SOL     OW27427   2.156   3.162   4.303
 8843SOL    HW127428   2.132   3.254   4.273
 8843SOL    HW227429   2.207   3.167   4.389
 8844SOL     OW27430   6.840   1.807   4.676
 8844SOL    HW127431   6.935   1.781   4.694
 8844SOL    HW227432   6.835   1.906   4.662
 8845SOL     OW27433   2.481   3.779   1.394
 8845SOL    HW127434   2.580   3.761   1.387
 8845SOL    HW227435   2.462   3.873   1.367
 8846SOL     OW27436   3.692   5.193   4.632
 8846SOL    HW127437   3.646   5.105   4.625
 8846SOL    HW227438   3.655   5.245   4.709
 8847SOL     OW27439   2.576   1.110   2.777
 8847SOL    HW127440   2.653   1.081   2.835
 8847SOL    HW227441   2.606   1.113   2.681
 8848SOL     OW27442   2.828   2.273   2.244
 8848SOL    HW127443   2.787   2.345   2.300
 8848SOL    HW227444   2.836   2.305   2.150
 8849SOL     OW27445   3.717   5.658   3.525
 8849SOL    HW127446   3.791   5.711   3.484
 8849SOL    HW227447   3.677   5.597   3.457
 8850SOL     OW27448   2.228   0.901   6.565
 8850SOL    HW127449   2.259   0.806   6.558
 8850SOL    HW227450   2.189   0.916   6.655
 8851SOL     OW27451   1.062   4.789   2.206
 8851SOL    HW127452   1.162   4.797   2.206
 8851SOL    HW227453   1.029   4.794   2.301
 8852SOL     OW27454   4.266   4.079   5.861
 8852SOL    HW127455   4.167   4.091   5.861
 8852SOL    HW227456   4.311   4.167   5.846
 8853SOL     OW27457   3.741   0.737   6.377
 8853SOL    HW127458   3.786   0.648   6.388
 8853SOL    HW227459   3.734   0.781   6.467
 8854SOL     OW27460   3.002   1.765   6.322
 8854SOL    HW127461   3.029   1.853   6.360
 8854SOL    HW227462   3.083   1.708   6.308
 8855SOL     OW27463   0.083   6.090   0.218
 8855SOL    HW127464   0.064   5.999   0.254
 8855SOL    HW227465   0.002   6.123   0.168
 8856SOL     OW27466   6.036   0.745   6.388
 8856SOL    HW127467   6.081   0.707   6.307
 8856SOL    HW227468   6.064   0.693   6.469
 8857SOL     OW27469   6.651   2.242   3.954
 8857SOL    HW127470   6.734   2.282   3.992
 8857SOL    HW227471   6.604   2.190   4.025
 8858SOL     OW27472   1.414   2.673   5.114
 8858SOL    HW127473   1.369   2.735   5.050
 8858SOL    HW227474   1.368   2.678   5.203
 8859SOL     OW27475   6.258   0.874   4.214
 8859SOL    HW127476   6.246   0.801   4.281
 8859SOL    HW227477   6.182   0.871   4.148
 8860SOL     OW27478   0.965   3.482   2.876
 8860SOL    HW127479   0.926   3.521   2.793
 8860SOL    HW227480   0.952   3.383   2.876
 8861SOL     OW27481   3.958   1.584   6.307
 8861SOL    HW127482   3.991   1.577   6.213
 8861SOL    HW227483   3.925   1.495   6.338
 8862SOL     OW27484   6.196   0.459   3.123
 8862SOL    HW127485   6.135   0.380   3.121
 8862SOL    HW227486   6.146   0.539   3.157
 8863SOL     OW27487   1.421   5.518   4.055
 8863SOL    HW127488   1.324   5.518   4.081
 8863SOL    HW227489   1.440   5.438   3.998
 8864SOL     OW27490   3.059   2.944   6.133
 8864SOL    HW127491   3.149   2.973   6.164
 8864SOL    HW227492   3.046   2.972   6.037
 8865SOL     OW27493   2.969   1.911   5.828
 8865SOL    HW127494   2.939   1.871   5.741
 8865SOL    HW227495   2.916   1.870   5.902
 8866SOL     OW27496   5.525   6.928   3.403
 8866SOL    HW127497   5.602   6.958   3.346
 8866SOL    HW227498   5.541   6.834   3.433
 8867SOL     OW27499   5.244   3.679   2.170
 8867SOL    HW127500   5.271   3.773   2.148
 8867SOL    HW227501   5.161   3.656   2.118
 8868SOL     OW27502   6.504   3.063   0.179
 8868SOL    HW127503   6.555   3.044   0.095
 8868SOL    HW227504   6.541   3.146   0.222
 8869SOL     OW27505   3.960   6.457   4.422
 8869SOL    HW127506   3.948   6.409   4.335
 8869SOL    HW227507   4.042   6.515   4.418
 8870SOL     OW27508   4.490   0.076   0.062
 8870SOL    HW127509   4.435   0.072   0.146
 8870SOL    HW227510   4.430   0.085   7.004
 8871SOL     OW27511   1.185   0.202   3.859
 8871SOL    HW127512   1.223   0.243   3.942
 8871SOL    HW227513   1.122   0.267   3.816
 8872SOL     OW27514   1.410   4.874   5.129
 8872SOL    HW127515   1.467   4.821   5.192
 8872SOL    HW227516   1.455   4.880   5.040
 8873SOL     OW27517   0.821   5.724   2.488
 8873SOL    HW127518   0.906   5.776   2.498
 8873SOL    HW227519   0.783   5.740   2.397
 8874SOL     OW27520   3.118   6.163   1.581
 8874SOL    HW127521   3.089   6.259   1.578
 8874SOL    HW227522   3.200   6.151   1.525
 8875SOL     OW27523   6.084   3.648   4.591
 8875SOL    HW127524   6.019   3.660   4.516
 8875SOL    HW227525   6.163   3.707   4.577
 8876SOL     OW27526   1.666   0.239   4.690
 8876SOL    HW127527   1.623   0.273   4.606
 8876SOL    HW227528   1.731   0.166   4.666
 8877SOL     OW27529   3.191   1.113   3.839
 8877SOL    HW127530   3.140   1.056   3.775
 8877SOL    HW227531   3.289   1.105   3.819
 8878SOL     OW27532   6.992   5.279   0.035
 8878SOL    HW127533   0.026   5.311   0.112
 8878SOL    HW227534   6.987   5.351   6.987
 8879SOL     OW27535   5.023   4.255   1.787
 8879SOL    HW127536   4.967   4.192   1.733
 8879SOL    HW227537   4.964   4.310   1.846
 8880SOL     OW27538   6.029   5.477   4.766
 8880SOL    HW127539   6.004   5.574   4.773
 8880SOL    HW227540   5.947   5.423   4.745
 8881SOL     OW27541   6.617   6.996   4.335
 8881SOL    HW127542   6.597   0.045   4.402
 8881SOL    HW227543   6.688   6.935   4.370
 8882SOL     OW27544   5.546   1.088   0.761
 8882SOL    HW127545   5.636   1.128   0.747
 8882SOL    HW227546   5.487   1.153   0.809
 8883SOL     OW27547   2.300   6.597   5.835
 8883SOL    HW127548   2.289   6.693   5.861
 8883SOL    HW227549   2.313   6.590   5.736
 8884SOL     OW27550   5.867   4.208   6.786
 8884SOL    HW127551   5.889   4.223   6.690
 8884SOL    HW227552   5.769   4.223   6.801
 8885SOL     OW27553   0.600   3.283   0.692
 8885SOL    HW127554   0.506   3.254   0.708
 8885SOL    HW227555   0.629   3.344   0.766
 8886SOL     OW27556   3.328   6.213   5.066
 8886SOL    HW127557   3.295   6.215   5.160
 8886SOL    HW227558   3.425   6.187   5.065
 8887SOL     OW27559   3.302   1.740   1.558
 8887SOL    HW127560   3.352   1.674   1.502
 8887SOL    HW227561   3.261   1.810   1.499
 8888SOL     OW27562   1.499   1.586   7.010
 8888SOL    HW127563   1.585   1.635   0.005
 8888SOL    HW227564   1.479   1.585   6.912
 8889SOL     OW27565   5.834   0.412   5.257
 8889SOL    HW127566   5.818   0.505   5.290
 8889SOL    HW227567   5.750   0.358   5.268
 8890SOL     OW27568   6.726   5.507   4.303
 8890SOL    HW127569   6.760   5.460   4.222
 8890SOL    HW227570   6.795   5.503   4.375
 8891SOL     OW27571   5.111   3.148   5.667
 8891SOL    HW127572   5.196   3.174   5.713
 8891SOL    HW227573   5.067   3.074   5.718
 8892SOL     OW27574   4.044   5.815   3.379
 8892SOL    HW127575   4.017   5.900   3.334
 8892SOL    HW227576   4.067   5.834   3.474
 8893SOL     OW27577   1.012   6.349   3.737
 8893SOL    HW127578   1.022   6.390   3.646
 8893SOL    HW227579   1.081   6.278   3.749
 8894SOL     OW27580   4.450   2.711   5.674
 8894SOL    HW127581   4.400   2.796   5.660
 8894SOL    HW227582   4.456   2.661   5.587
 8895SOL     OW27583   6.769   2.145   2.199
 8895SOL    HW127584   6.794   2.212   2.269
 8895SOL    HW227585   6.832   2.068   2.203
 8896SOL     OW27586   1.734   3.299   5.463
 8896SOL    HW127587   1.781   3.212   5.475
 8896SOL    HW227588   1.777   3.351   5.389
 8897SOL     OW27589   2.087   3.243   3.338
 8897SOL    HW127590   2.163   3.185   3.366
 8897SOL    HW227591   2.004   3.187   3.329
 8898SOL     OW27592   5.338   3.865   3.438
 8898SOL    HW127593   5.407   3.922   3.483
 8898SOL    HW227594   5.318   3.902   3.347
 8899SOL     OW27595   2.205   4.872   0.822
 8899SOL    HW127596   2.205   4.785   0.871
 8899SOL    HW227597   2.291   4.920   0.839
 8900SOL     OW27598   6.004   3.098   2.155
 8900SOL    HW127599   6.036   3.153   2.233
 8900SOL    HW227600   5.949   3.021   2.189
 8901SOL     OW27601   1.798   1.170   4.365
 8901SOL    HW127602   1.885   1.213   4.342
 8901SOL    HW227603   1.782   1.178   4.464
 8902SOL     OW27604   2.240   0.032   0.951
 8902SOL    HW127605   2.282   6.991   1.017
 8902SOL    HW227606   2.311   0.068   0.890
 8903SOL     OW27607   0.957   1.127   4.517
 8903SOL    HW127608   1.043   1.078   4.526
 8903SOL    HW227609   0.881   1.062   4.513
 8904SOL     OW27610   5.852   6.028   3.747
 8904SOL    HW127611   5.826   6.042   3.651
 8904SOL    HW227612   5.773   6.045   3.806
 8905SOL     OW27613   1.854   4.605   3.760
 8905SOL    HW127614   1.856   4.520   3.813
 8905SOL    HW227615   1.848   4.682   3.823
 8906SOL     OW27616   0.031   6.531   6.902
 8906SOL    HW127617   6.994   6.489   6.832
 8906SOL    HW227618   0.076   6.460   6.955
 8907SOL     OW27619   2.912   2.294   4.648
 8907SOL    HW127620   2.939   2.319   4.556
 8907SOL    HW227621   2.875   2.202   4.648
 8908SOL     OW27622   0.880   3.643   6.626
 8908SOL    HW127623   0.971   3.611   6.600
 8908SOL    HW227624   0.821   3.565   6.647
 8909SOL     OW27625   2.267   1.090   5.165
 8909SOL    HW127626   2.294   0.994   5.167
 8909SOL    HW227627   2.167   1.096   5.162
 8910SOL     OW27628   0.242   2.904   5.741
 8910SOL    HW127629   0.167   2.947   5.791
 8910SOL    HW227630   0.246   2.807   5.763
 8911SOL     OW27631   4.389   2.449   4.845
 8911SOL    HW127632   4.425   2.357   4.837
 8911SOL    HW227633   4.299   2.446   4.889
 8912SOL     OW27634   4.128   2.967   0.562
 8912SOL    HW127635   4.127   2.987   0.464
 8912SOL    HW227636   4.132   2.868   0.576
 8913SOL     OW27637   4.724   5.304   6.000
 8913SOL    HW127638   4.713   5.249   6.083
 8913SOL    HW227639   4.682   5.394   6.014
 8914SOL     OW27640   3.752   6.976   4.084
 8914SOL    HW127641   3.755   0.052   4.063
 8914SOL    HW227642   3.769   6.963   4.181
 8915SOL     OW27643   0.538   2.745   4.067
 8915SOL    HW127644   0.528   2.674   3.997
 8915SOL    HW227645   0.618   2.801   4.046
 8916SOL     OW27646   0.024   3.597   0.602
 8916SOL    HW127647   0.102   3.534   0.596
 8916SOL    HW227648   6.986   3.583   0.524
 8917SOL     OW27649   6.790   3.675   6.713
 8917SOL    HW127650   6.813   3.762   6.669
 8917SOL    HW227651   6.815   3.679   6.810
 8918SOL     OW27652   6.622   3.948   1.596
 8918SOL    HW127653   6.567   4.031   1.605
 8918SOL    HW227654   6.565   3.875   1.556
 8919SOL     OW27655   3.885   4.260   0.363
 8919SOL    HW127656   3.895   4.358   0.379
 8919SOL    HW227657   3.967   4.213   0.396
 8920SOL     OW27658   0.518   0.107   0.056
 8920SOL    HW127659   0.601   0.116   0.001
 8920SOL    HW227660   0.492   0.011   0.062
 8921SOL     OW27661   2.108   2.095   2.681
 8921SOL    HW127662   2.132   2.185   2.643
 8921SOL    HW227663   2.181   2.065   2.743
 8922SOL     OW27664   3.400   5.255   1.295
 8922SOL    HW127665   3.499   5.264   1.281
 8922SOL    HW227666   3.376   5.158   1.304
 8923SOL     OW27667   1.364   3.133   6.493
 8923SOL    HW127668   1.453   3.173   6.469
 8923SOL    HW227669   1.333   3.074   6.418
 8924SOL     OW27670   3.018   5.856   6.122
 8924SOL    HW127671   3.013   5.801   6.206
 8924SOL    HW227672   3.071   5.808   6.054
 8925SOL     OW27673   0.647   0.903   2.769
 8925SOL    HW127674   0.599   0.821   2.738
 8925SOL    HW227675   0.722   0.924   2.705
 8926SOL     OW27676   6.056   3.742   5.849
 8926SOL    HW127677   6.013   3.651   5.851
 8926SOL    HW227678   6.142   3.739   5.900
 8927SOL     OW27679   0.821   1.561   4.397
 8927SOL    HW127680   0.806   1.464   4.379
 8927SOL    HW227681   0.791   1.615   4.319
 8928SOL     OW27682   0.041   0.536   5.941
 8928SOL    HW127683   0.100   0.520   6.021
 8928SOL    HW227684   6.967   0.531   5.969
 8929SOL     OW27685   6.238   3.342   4.206
 8929SOL    HW127686   6.205   3.427   4.165
 8929SOL    HW227687   6.322   3.360   4.257
 8930SOL     OW27688   1.410   4.213   4.258
 8930SOL    HW127689   1.407   4.220   4.158
 8930SOL    HW227690   1.493   4.165   4.286
 8931SOL     OW27691   2.888   3.017   1.243
 8931SOL    HW127692   2.917   2.933   1.197
 8931SOL    HW227693   2.924   3.017   1.337
 8932SOL     OW27694   5.544   0.246   0.762
 8932SOL    HW127695   5.630   0.266   0.714
 8932SOL    HW227696   5.499   0.331   0.789
 8933SOL     OW27697   1.905   2.936   6.101
 8933SOL    HW127698   2.004   2.926   6.111
 8933SOL    HW227699   1.865   2.957   6.190
 8934SOL     OW27700   3.219   5.039   4.533
 8934SOL    HW127701   3.207   5.111   4.465
 8934SOL    HW227702   3.142   4.975   4.528
 8935SOL     OW27703   6.113   3.630   1.440
 8935SOL    HW127704   6.055   3.708   1.463
 8935SOL    HW227705   6.190   3.661   1.385
 8936SOL     OW27706   1.135   3.271   1.395
 8936SOL    HW127707   1.203   3.335   1.429
 8936SOL    HW227708   1.104   3.300   1.304
 8937SOL     OW27709   0.271   6.887   4.805
 8937SOL    HW127710   0.221   6.898   4.720
 8937SOL    HW227711   0.365   6.920   4.794
 8938SOL     OW27712   0.153   1.416   0.396
 8938SOL    HW127713   0.119   1.508   0.376
 8938SOL    HW227714   0.076   1.356   0.419
 8939SOL     OW27715   5.771   4.117   4.353
 8939SOL    HW127716   5.674   4.141   4.346
 8939SOL    HW227717   5.784   4.023   4.321
 8940SOL     OW27718   5.563   1.048   1.347
 8940SOL    HW127719   5.546   1.055   1.445
 8940SOL    HW227720   5.512   1.119   1.299
 8941SOL     OW27721   6.244   2.556   3.215
 8941SOL    HW127722   6.172   2.489   3.198
 8941SOL    HW227723   6.262   2.562   3.313
 8942SOL     OW27724   0.646   5.260   6.092
 8942SOL    HW127725   0.581   5.184   6.084
 8942SOL    HW227726   0.596   5.345   6.105
 8943SOL     OW27727   3.821   5.596   0.246
 8943SOL    HW127728   3.774   5.579   0.160
 8943SOL    HW227729   3.754   5.599   0.321
 8944SOL     OW27730   5.124   5.829   4.402
 8944SOL    HW127731   5.059   5.904   4.415
 8944SOL    HW227732   5.119   5.766   4.480
 8945SOL     OW27733   0.223   1.849   4.168
 8945SOL    HW127734   0.271   1.789   4.104
 8945SOL    HW227735   0.177   1.921   4.117
 8946SOL     OW27736   4.041   0.647   4.244
 8946SOL    HW127737   4.113   0.670   4.179
 8946SOL    HW227738   4.017   0.729   4.297
 8947SOL     OW27739   2.227   2.965   5.964
 8947SOL    HW127740   2.191   3.058   5.971
 8947SOL    HW227741   2.164   2.908   5.911
 8948SOL     OW27742   5.960   5.982   3.348
 8948SOL    HW127743   5.977   6.080   3.339
 8948SOL    HW227744   5.880   5.967   3.406
 8949SOL     OW27745   3.910   6.142   0.844
 8949SOL    HW127746   3.873   6.235   0.841
 8949SOL    HW227747   3.870   6.089   0.769
 8950SOL     OW27748   3.666   2.962   0.857
 8950SOL    HW127749   3.728   2.912   0.918
 8950SOL    HW227750   3.666   2.918   0.767
 8951SOL     OW27751   2.192   1.326   4.874
 8951SOL    HW127752   2.154   1.392   4.809
 8951SOL    HW227753   2.139   1.327   4.958
 8952SOL     OW27754   0.629   5.310   3.647
 8952SOL    HW127755   0.643   5.398   3.693
 8952SOL    HW227756   0.555   5.260   3.692
 8953SOL     OW27757   0.491   4.162   0.985
 8953SOL    HW127758   0.538   4.239   0.944
 8953SOL    HW227759   0.401   4.192   1.018
 8954SOL     OW27760   6.883   0.357   4.471
 8954SOL    HW127761   6.823   0.283   4.502
 8954SOL    HW227762   6.933   0.394   4.549
 8955SOL     OW27763   6.648   5.099   3.297
 8955SOL    HW127764   6.748   5.100   3.303
 8955SOL    HW227765   6.620   5.119   3.203
 8956SOL     OW27766   1.856   1.256   5.818
 8956SOL    HW127767   1.915   1.322   5.773
 8956SOL    HW227768   1.907   1.172   5.837
 8957SOL     OW27769   2.038   4.380   1.071
 8957SOL    HW127770   2.106   4.451   1.055
 8957SOL    HW227771   1.977   4.407   1.145
 8958SOL     OW27772   0.793   2.448   5.568
 8958SOL    HW127773   0.794   2.536   5.614
 8958SOL    HW227774   0.803   2.462   5.469
 8959SOL     OW27775   1.854   4.247   3.190
 8959SOL    HW127776   1.772   4.298   3.217
 8959SOL    HW227777   1.931   4.273   3.249
 8960SOL     OW27778   5.564   5.541   4.280
 8960SOL    HW127779   5.610   5.543   4.192
 8960SOL    HW227780   5.552   5.446   4.310
 8961SOL     OW27781   3.749   1.360   3.629
 8961SOL    HW127782   3.784   1.335   3.720
 8961SOL    HW227783   3.776   1.290   3.563
 8962SOL     OW27784   6.442   5.278   2.174
 8962SOL    HW127785   6.483   5.236   2.255
 8962SOL    HW227786   6.416   5.372   2.194
 8963SOL     OW27787   3.977   0.006   4.896
 8963SOL    HW127788   3.921   6.946   4.886
 8963SOL    HW227789   4.014   0.010   4.989
 8964SOL     OW27790   6.022   2.693   2.818
 8964SOL    HW127791   6.047   2.744   2.900
 8964SOL    HW227792   5.950   2.627   2.839
 8965SOL     OW27793   2.690   5.511   0.174
 8965SOL    HW127794   2.724   5.550   0.259
 8965SOL    HW227795   2.720   5.568   0.097
 8966SOL     OW27796   6.581   4.152   0.349
 8966SOL    HW127797   6.633   4.100   0.281
 8966SOL    HW227798   6.643   4.182   0.422
 8967SOL     OW27799   3.747   0.681   2.041
 8967SOL    HW127800   3.757   0.781   2.039
 8967SOL    HW227801   3.747   0.646   1.948
 8968SOL     OW27802   4.394   5.779   2.388
 8968SOL    HW127803   4.305   5.738   2.410
 8968SOL    HW227804   4.413   5.855   2.450
 8969SOL     OW27805   0.284   0.376   3.998
 8969SOL    HW127806   0.300   0.293   4.052
 8969SOL    HW227807   0.346   0.378   3.920
 8970SOL     OW27808   2.325   2.453   6.515
 8970SOL    HW127809   2.329   2.510   6.432
 8970SOL    HW227810   2.320   2.512   6.595
 8971SOL     OW27811   5.418   5.391   0.916
 8971SOL    HW127812   5.389   5.423   0.827
 8971SOL    HW227813   5.502   5.438   0.943
 8972SOL     OW27814   4.507   3.851   0.938
 8972SOL    HW127815   4.598   3.817   0.912
 8972SOL    HW227816   4.516   3.942   0.977
 8973SOL     OW27817   6.446   3.506   3.168
 8973SOL    HW127818   6.421   3.561   3.248
 8973SOL    HW227819   6.527   3.451   3.189
 8974SOL     OW27820   1.432   3.160   3.995
 8974SOL    HW127821   1.356   3.133   3.935
 8974SOL    HW227822   1.405   3.240   4.049
 8975SOL     OW27823   0.728   6.505   6.856
 8975SOL    HW127824   0.685   6.444   6.789
 8975SOL    HW227825   0.685   6.595   6.852
 8976SOL     OW27826   6.620   5.292   0.327
 8976SOL    HW127827   6.624   5.193   0.340
 8976SOL    HW227828   6.535   5.328   0.365
 8977SOL     OW27829   6.405   3.425   6.672
 8977SOL    HW127830   6.345   3.498   6.705
 8977SOL    HW227831   6.473   3.464   6.609
 8978SOL     OW27832   5.561   6.756   4.488
 8978SOL    HW127833   5.618   6.834   4.465
 8978SOL    HW227834   5.618   6.675   4.503
 8979SOL     OW27835   1.351   4.732   5.991
 8979SOL    HW127836   1.280   4.662   5.981
 8979SOL    HW227837   1.439   4.694   5.964
 8980SOL     OW27838   4.628   2.676   5.392
 8980SOL    HW127839   4.699   2.671   5.322
 8980SOL    HW227840   4.557   2.609   5.373
 8981SOL     OW27841   4.760   1.936   5.234
 8981SOL    HW127842   4.690   2.005   5.217
 8981SOL    HW227843   4.840   1.980   5.276
 8982SOL     OW27844   0.619   1.473   1.310
 8982SOL    HW127845   0.602   1.542   1.381
 8982SOL    HW227846   0.560   1.394   1.326
 8983SOL     OW27847   0.491   5.642   0.332
 8983SOL    HW127848   0.544   5.669   0.251
 8983SOL    HW227849   0.544   5.577   0.386
 8984SOL     OW27850   6.039   5.997   3.942
 8984SOL    HW127851   5.960   6.004   3.881
 8984SOL    HW227852   6.045   6.078   3.999
 8985SOL     OW27853   2.145   1.639   0.719
 8985SOL    HW127854   2.135   1.687   0.631
 8985SOL    HW227855   2.184   1.703   0.786
 8986SOL     OW27856   4.083   5.216   2.537
 8986SOL    HW127857   4.139   5.286   2.582
 8986SOL    HW227858   3.988   5.224   2.568
 8987SOL     OW27859   3.125   0.391   1.241
 8987SOL    HW127860   3.118   0.330   1.319
 8987SOL    HW227861   3.127   0.486   1.272
 8988SOL     OW27862   1.929   4.558   0.637
 8988SOL    HW127863   1.897   4.646   0.601
 8988SOL    HW227864   1.909   4.486   0.572
 8989SOL     OW27865   4.826   4.051   2.143
 8989SOL    HW127866   4.773   4.136   2.145
 8989SOL    HW227867   4.909   4.065   2.090
 8990SOL     OW27868   2.252   5.316   1.806
 8990SOL    HW127869   2.321   5.338   1.737
 8990SOL    HW227870   2.242   5.394   1.868
 8991SOL     OW27871   2.369   1.263   0.552
 8991SOL    HW127872   2.430   1.297   0.481
 8991SOL    HW227873   2.418   1.199   0.611
 8992SOL     OW27874   6.922   2.451   6.427
 8992SOL    HW127875   6.956   2.377   6.485
 8992SOL    HW227876   6.961   2.538   6.458
 8993SOL     OW27877   4.621   2.576   2.728
 8993SOL    HW127878   4.658   2.504   2.669
 8993SOL    HW227879   4.606   2.659   2.674
 8994SOL     OW27880   0.872   6.086   4.533
 8994SOL    HW127881   0.871   6.173   4.582
 8994SOL    HW227882   0.893   6.012   4.597
 8995SOL     OW27883   1.083   2.606   5.752
 8995SOL    HW127884   1.065   2.560   5.838
 8995SOL    HW227885   1.171   2.576   5.716
 8996SOL     OW27886   0.183   4.596   2.317
 8996SOL    HW127887   0.269   4.552   2.343
 8996SOL    HW227888   0.126   4.531   2.267
 8997SOL     OW27889   4.406   1.575   6.334
 8997SOL    HW127890   4.349   1.496   6.354
 8997SOL    HW227891   4.348   1.655   6.315
 8998SOL     OW27892   0.703   3.010   4.255
 8998SOL    HW127893   0.657   2.933   4.299
 8998SOL    HW227894   0.692   3.092   4.311
 8999SOL     OW27895   4.673   0.166   6.789
 8999SOL    HW127896   4.731   0.122   6.721
 8999SOL    HW227897   4.730   0.219   6.852
 9000SOL     OW27898   2.503   4.200   6.352
 9000SOL    HW127899   2.489   4.176   6.448
 9000SOL    HW227900   2.596   4.235   6.340
 9001SOL     OW27901   1.310   5.411   3.114
 9001SOL    HW127902   1.272   5.458   3.034
 9001SOL    HW227903   1.272   5.450   3.198
 9002SOL     OW27904   0.130   4.983   5.117
 9002SOL    HW127905   0.198   4.933   5.062
 9002SOL    HW227906   0.043   4.987   5.067
 9003SOL     OW27907   5.388   2.508   0.925
 9003SOL    HW127908   5.417   2.574   0.855
 9003SOL    HW227909   5.441   2.523   1.008
 9004SOL     OW27910   4.456   6.917   1.821
 9004SOL    HW127911   4.421   6.833   1.779
 9004SOL    HW227912   4.419   6.927   1.913
 9005SOL     OW27913   5.819   1.667   4.491
 9005SOL    HW127914   5.811   1.676   4.590
 9005SOL    HW227915   5.740   1.712   4.447
 9006SOL     OW27916   1.845   5.670   0.540
 9006SOL    HW127917   1.752   5.652   0.572
 9006SOL    HW227918   1.888   5.584   0.513
 9007SOL     OW27919   3.810   6.210   3.949
 9007SOL    HW127920   3.775   6.238   3.860
 9007SOL    HW227921   3.733   6.194   4.011
 9008SOL     OW27922   6.366   5.250   2.756
 9008SOL    HW127923   6.398   5.340   2.785
 9008SOL    HW227924   6.391   5.181   2.824
 9009SOL     OW27925   2.417   0.150   0.720
 9009SOL    HW127926   2.510   0.164   0.753
 9009SOL    HW227927   2.419   0.103   0.632
 9010SOL     OW27928   1.158   6.987   4.735
 9010SOL    HW127929   1.257   6.979   4.718
 9010SOL    HW227930   1.114   0.010   4.657
 9011SOL     OW27931   4.244   1.836   2.099
 9011SOL    HW127932   4.173   1.889   2.145
 9011SOL    HW227933   4.202   1.779   2.028
 9012SOL     OW27934   3.026   4.465   1.009
 9012SOL    HW127935   3.082   4.386   1.035
 9012SOL    HW227936   2.929   4.440   1.013
 9013SOL     OW27937   6.598   6.296   4.477
 9013SOL    HW127938   6.632   6.203   4.494
 9013SOL    HW227939   6.498   6.293   4.470
 9014SOL     OW27940   0.910   0.813   0.379
 9014SOL    HW127941   0.940   0.833   0.473
 9014SOL    HW227942   0.989   0.810   0.318
 9015SOL     OW27943   6.317   1.247   0.733
 9015SOL    HW127944   6.275   1.338   0.734
 9015SOL    HW227945   6.279   1.193   0.658
 9016SOL     OW27946   0.305   6.314   6.668
 9016SOL    HW127947   0.296   6.407   6.631
 9016SOL    HW227948   0.370   6.263   6.613
 9017SOL     OW27949   5.045   2.752   2.253
 9017SOL    HW127950   5.076   2.774   2.160
 9017SOL    HW227951   4.982   2.823   2.284
 9018SOL     OW27952   4.174   1.231   5.184
 9018SOL    HW127953   4.087   1.273   5.159
 9018SOL    HW227954   4.220   1.287   5.253
 9019SOL     OW27955   0.337   0.395   0.918
 9019SOL    HW127956   0.375   0.350   0.999
 9019SOL    HW227957   0.409   0.446   0.872
 9020SOL     OW27958   1.192   3.716   1.454
 9020SOL    HW127959   1.113   3.700   1.395
 9020SOL    HW227960   1.263   3.765   1.402
 9021SOL     OW27961   6.214   0.783   3.695
 9021SOL    HW127962   6.174   0.717   3.632
 9021SOL    HW227963   6.191   0.876   3.665
 9022SOL     OW27964   2.841   1.066   1.410
 9022SOL    HW127965   2.921   1.085   1.467
 9022SOL    HW227966   2.811   0.971   1.424
 9023SOL     OW27967   3.239   2.981   2.746
 9023SOL    HW127968   3.182   3.007   2.823
 9023SOL    HW227969   3.183   2.979   2.662
 9024SOL     OW27970   1.008   5.729   5.786
 9024SOL    HW127971   0.967   5.682   5.708
 9024SOL    HW227972   1.003   5.828   5.772
 9025SOL     OW27973   0.367   5.671   0.630
 9025SOL    HW127974   0.404   5.668   0.538
 9025SOL    HW227975   0.301   5.746   0.637
 9026SOL     OW27976   3.540   3.321   2.304
 9026SOL    HW127977   3.490   3.264   2.368
 9026SOL    HW227978   3.507   3.305   2.211
 9027SOL     OW27979   1.914   1.828   3.082
 9027SOL    HW127980   1.916   1.874   2.993
 9027SOL    HW227981   1.825   1.784   3.094
 9028SOL     OW27982   2.667   3.122   6.325
 9028SOL    HW127983   2.588   3.153   6.377
 9028SOL    HW227984   2.675   3.175   6.241
 9029SOL     OW27985   3.333   5.787   5.341
 9029SOL    HW127986   3.403   5.762   5.275
 9029SOL    HW227987   3.245   5.747   5.314
 9030SOL     OW27988   1.923   0.976   3.133
 9030SOL    HW127989   1.926   1.066   3.176
 9030SOL    HW227990   1.898   0.986   3.037
 9031SOL     OW27991   4.770   5.459   5.236
 9031SOL    HW127992   4.785   5.421   5.327
 9031SOL    HW227993   4.708   5.537   5.243
 9032SOL     OW27994   3.516   3.201   0.794
 9032SOL    HW127995   3.582   3.132   0.821
 9032SOL    HW227996   3.453   3.220   0.870
 9033SOL     OW27997   2.317   4.252   3.454
 9033SOL    HW127998   2.363   4.319   3.512
 9033SOL    HW227999   2.325   4.281   3.358
 9034SOL     OW28000   3.284   0.371   4.474
 9034SOL    HW128001   3.336   0.343   4.554
 9034SOL    HW228002   3.275   0.470   4.472
 9035SOL     OW28003   1.428   6.407   5.686
 9035SOL    HW128004   1.419   6.368   5.778
 9035SOL    HW228005   1.523   6.437   5.672
 9036SOL     OW28006   1.708   0.806   5.009
 9036SOL    HW128007   1.622   0.793   4.960
 9036SOL    HW228008   1.715   0.901   5.039
 9037SOL     OW28009   1.592   4.023   5.711
 9037SOL    HW128010   1.524   3.967   5.758
 9037SOL    HW228011   1.653   4.064   5.778
 9038SOL     OW28012   4.337   0.783   5.358
 9038SOL    HW128013   4.246   0.823   5.362
 9038SOL    HW228014   4.364   0.751   5.448
 9039SOL     OW28015   1.932   4.350   4.623
 9039SOL    HW128016   1.872   4.366   4.544
 9039SOL    HW228017   2.027   4.348   4.594
 9040SOL     OW28018   2.995   1.900   3.101
 9040SOL    HW128019   3.085   1.915   3.061
 9040SOL    HW228020   2.987   1.805   3.130
 9041SOL     OW28021   0.671   2.537   1.938
 9041SOL    HW128022   0.724   2.457   1.967
 9041SOL    HW228023   0.574   2.522   1.959
 9042SOL     OW28024   3.327   6.917   3.891
 9042SOL    HW128025   3.259   6.904   3.819
 9042SOL    HW228026   3.316   6.845   3.960
 9043SOL     OW28027   2.305   1.377   6.143
 9043SOL    HW128028   2.300   1.444   6.217
 9043SOL    HW228029   2.322   1.286   6.181
 9044SOL     OW28030   6.229   1.487   1.844
 9044SOL    HW128031   6.245   1.546   1.765
 9044SOL    HW228032   6.143   1.514   1.888
 9045SOL     OW28033   3.563   1.654   2.684
 9045SOL    HW128034   3.485   1.608   2.727
 9045SOL    HW228035   3.646   1.636   2.737
 9046SOL     OW28036   3.212   3.607   4.172
 9046SOL    HW128037   3.154   3.687   4.187
 9046SOL    HW228038   3.201   3.543   4.249
 9047SOL     OW28039   1.609   3.308   5.186
 9047SOL    HW128040   1.708   3.325   5.191
 9047SOL    HW228041   1.570   3.304   5.278
 9048SOL     OW28042   5.839   2.413   6.323
 9048SOL    HW128043   5.911   2.457   6.270
 9048SOL    HW228044   5.781   2.359   6.262
 9049SOL     OW28045   3.725   0.180   6.775
 9049SOL    HW128046   3.708   0.197   6.678
 9049SOL    HW228047   3.749   0.083   6.789
 9050SOL     OW28048   0.305   4.785   5.664
 9050SOL    HW128049   0.260   4.734   5.737
 9050SOL    HW228050   0.402   4.760   5.661
 9051SOL     OW28051   4.486   5.935   0.876
 9051SOL    HW128052   4.580   5.906   0.895
 9051SOL    HW228053   4.452   5.886   0.796
 9052SOL     OW28054   2.014   2.950   3.262
 9052SOL    HW128055   2.089   2.930   3.325
 9052SOL    HW228056   1.952   2.871   3.258
 9053SOL     OW28057   1.782   1.428   3.179
 9053SOL    HW128058   1.772   1.500   3.248
 9053SOL    HW228059   1.879   1.407   3.167
 9054SOL     OW28060   1.731   6.918   2.188
 9054SOL    HW128061   1.678   6.939   2.105
 9054SOL    HW228062   1.668   6.905   2.265
 9055SOL     OW28063   6.540   3.728   3.574
 9055SOL    HW128064   6.536   3.628   3.565
 9055SOL    HW228065   6.631   3.760   3.547
 9056SOL     OW28066   6.191   6.889   1.398
 9056SOL    HW128067   6.261   6.824   1.367
 9056SOL    HW228068   6.114   6.838   1.437
 9057SOL     OW28069   6.207   4.967   6.302
 9057SOL    HW128070   6.107   4.968   6.294
 9057SOL    HW228071   6.248   4.971   6.211
 9058SOL     OW28072   1.804   1.933   3.397
 9058SOL    HW128073   1.704   1.936   3.409
 9058SOL    HW228074   1.829   1.978   3.312
 9059SOL     OW28075   0.831   1.289   4.340
 9059SOL    HW128076   0.782   1.234   4.272
 9059SOL    HW228077   0.874   1.228   4.407
 9060SOL     OW28078   0.338   2.939   2.187
 9060SOL    HW128079   0.261   2.879   2.164
 9060SOL    HW228080   0.326   3.028   2.143
 9061SOL     OW28081   3.380   5.711   2.312
 9061SOL    HW128082   3.437   5.630   2.322
 9061SOL    HW228083   3.404   5.777   2.383
 9062SOL     OW28084   1.945   5.496   2.089
 9062SOL    HW128085   1.962   5.436   2.167
 9062SOL    HW228086   1.866   5.463   2.038
 9063SOL     OW28087   2.077   6.571   2.752
 9063SOL    HW128088   2.073   6.494   2.688
 9063SOL    HW228089   2.173   6.595   2.769
 9064SOL     OW28090   5.715   3.644   4.532
 9064SOL    HW128091   5.621   3.664   4.502
 9064SOL    HW228092   5.763   3.730   4.550
 9065SOL     OW28093   3.381   5.982   6.811
 9065SOL    HW128094   3.301   6.041   6.820
 9065SOL    HW228095   3.351   5.888   6.793
 9066SOL     OW28096   5.794   0.626   0.215
 9066SOL    HW128097   5.724   0.651   0.281
 9066SOL    HW228098   5.849   0.551   0.252
 9067SOL     OW28099   6.331   6.941   4.734
 9067SOL    HW128100   6.330   0.002   4.790
 9067SOL    HW228101   6.276   6.956   4.652
 9068SOL     OW28102   2.871   0.689   5.074
 9068SOL    HW128103   2.863   0.782   5.038
 9068SOL    HW228104   2.938   0.688   5.148
 9069SOL     OW28105   2.933   2.501   1.605
 9069SOL    HW128106   2.949   2.482   1.702
 9069SOL    HW228107   2.851   2.453   1.575
 9070SOL     OW28108   1.057   3.812   5.524
 9070SOL    HW128109   0.998   3.796   5.445
 9070SOL    HW228110   1.062   3.728   5.579
 9071SOL     OW28111   4.955   6.693   0.680
 9071SOL    HW128112   5.042   6.693   0.729
 9071SOL    HW228113   4.920   6.600   0.673
 9072SOL     OW28114   6.080   1.253   1.707
 9072SOL    HW128115   6.023   1.335   1.709
 9072SOL    HW228116   6.168   1.273   1.748
 9073SOL     OW28117   3.563   6.305   0.614
 9073SOL    HW128118   3.537   6.338   0.705
 9073SOL    HW228119   3.526   6.366   0.545
 9074SOL     OW28120   2.063   0.608   2.176
 9074SOL    HW128121   2.062   0.656   2.088
 9074SOL    HW228122   2.093   0.671   2.248
 9075SOL     OW28123   0.707   0.582   1.629
 9075SOL    HW128124   0.704   0.682   1.639
 9075SOL    HW228125   0.616   0.548   1.605
 9076SOL     OW28126   5.647   1.451   5.040
 9076SOL    HW128127   5.577   1.381   5.053
 9076SOL    HW228128   5.703   1.429   4.960
 9077SOL     OW28129   5.968   0.835   6.820
 9077SOL    HW128130   5.906   0.836   6.742
 9077SOL    HW228131   6.050   0.887   6.798
 9078SOL     OW28132   4.827   3.780   0.162
 9078SOL    HW128133   4.911   3.833   0.172
 9078SOL    HW228134   4.757   3.818   0.224
 9079SOL     OW28135   2.092   6.282   4.365
 9079SOL    HW128136   2.056   6.344   4.435
 9079SOL    HW228137   2.027   6.208   4.349
 9080SOL     OW28138   5.824   2.393   0.504
 9080SOL    HW128139   5.803   2.304   0.463
 9080SOL    HW228140   5.756   2.414   0.574
 9081SOL     OW28141   3.711   6.787   2.749
 9081SOL    HW128142   3.719   6.886   2.756
 9081SOL    HW228143   3.636   6.755   2.808
 9082SOL     OW28144   2.576   7.004   5.576
 9082SOL    HW128145   2.484   6.969   5.556
 9082SOL    HW228146   2.578   0.081   5.558
 9083SOL     OW28147   3.978   4.370   5.989
 9083SOL    HW128148   4.062   4.343   6.036
 9083SOL    HW228149   3.951   4.298   5.925
 9084SOL     OW28150   3.070   3.345   6.016
 9084SOL    HW128151   3.012   3.406   6.070
 9084SOL    HW228152   3.012   3.277   5.970
 9085SOL     OW28153   1.196   4.726   0.612
 9085SOL    HW128154   1.137   4.704   0.689
 9085SOL    HW228155   1.277   4.667   0.614
 9086SOL     OW28156   0.236   4.637   0.833
 9086SOL    HW128157   0.149   4.665   0.794
 9086SOL    HW228158   0.311   4.679   0.783
 9087SOL     OW28159   4.780   2.631   2.110
 9087SOL    HW128160   4.846   2.691   2.065
 9087SOL    HW228161   4.704   2.613   2.047
 9088SOL     OW28162   6.396   5.870   0.883
 9088SOL    HW128163   6.458   5.911   0.817
 9088SOL    HW228164   6.431   5.780   0.910
 9089SOL     OW28165   5.012   5.913   4.810
 9089SOL    HW128166   5.015   5.851   4.732
 9089SOL    HW228167   5.103   5.952   4.825
 9090SOL     OW28168   6.456   6.184   3.759
 9090SOL    HW128169   6.432   6.096   3.800
 9090SOL    HW228170   6.421   6.258   3.817
 9091SOL     OW28171   2.711   3.530   1.199
 9091SOL    HW128172   2.745   3.581   1.278
 9091SOL    HW228173   2.768   3.549   1.119
 9092SOL     OW28174   0.005   1.768   0.684
 9092SOL    HW128175   6.959   1.834   0.716
 9092SOL    HW228176   0.039   1.796   0.594
 9093SOL     OW28177   1.529   6.323   5.957
 9093SOL    HW128178   1.456   6.364   6.013
 9093SOL    HW228179   1.618   6.350   5.994
 9094SOL     OW28180   6.063   5.218   2.539
 9094SOL    HW128181   6.057   5.232   2.637
 9094SOL    HW228182   6.042   5.123   2.517
 9095SOL     OW28183   4.526   4.001   6.609
 9095SOL    HW128184   4.614   4.007   6.656
 9095SOL    HW228185   4.536   4.027   6.513
 9096SOL     OW28186   5.744   4.236   1.932
 9096SOL    HW128187   5.749   4.334   1.911
 9096SOL    HW228188   5.728   4.185   1.848
 9097SOL     OW28189   1.284   2.270   6.726
 9097SOL    HW128190   1.248   2.353   6.770
 9097SOL    HW228191   1.216   2.197   6.733
 9098SOL     OW28192   3.448   2.636   6.632
 9098SOL    HW128193   3.372   2.608   6.574
 9098SOL    HW228194   3.469   2.563   6.697
 9099SOL     OW28195   2.714   2.988   6.941
 9099SOL    HW128196   2.703   2.939   0.005
 9099SOL    HW228197   2.658   2.944   6.870
 9100SOL     OW28198   0.813   3.939   4.212
 9100SOL    HW128199   0.895   3.882   4.216
 9100SOL    HW228200   0.732   3.881   4.204
 9101SOL     OW28201   2.500   2.036   3.047
 9101SOL    HW128202   2.450   1.978   2.983
 9101SOL    HW228203   2.585   1.990   3.073
 9102SOL     OW28204   2.965   0.343   1.928
 9102SOL    HW128205   2.969   0.321   1.831
 9102SOL    HW228206   2.881   0.305   1.968
 9103SOL     OW28207   5.852   3.369   6.443
 9103SOL    HW128208   5.780   3.313   6.403
 9103SOL    HW228209   5.940   3.344   6.402
 9104SOL     OW28210   6.341   6.568   1.975
 9104SOL    HW128211   6.435   6.602   1.981
 9104SOL    HW228212   6.297   6.608   1.894
 9105SOL     OW28213   1.808   1.570   7.015
 9105SOL    HW128214   1.778   1.573   6.920
 9105SOL    HW228215   1.887   1.630   0.005
 9106SOL     OW28216   6.965   3.914   6.958
 9106SOL    HW128217   0.014   3.948   6.895
 9106SOL    HW228218   6.878   3.959   6.937
 9107SOL     OW28219   3.384   1.159   6.217
 9107SOL    HW128220   3.340   1.183   6.130
 9107SOL    HW228221   3.462   1.098   6.199
 9108SOL     OW28222   4.489   3.728   5.373
 9108SOL    HW128223   4.481   3.828   5.367
 9108SOL    HW228224   4.546   3.694   5.298
 9109SOL     OW28225   0.632   2.754   2.654
 9109SOL    HW128226   0.640   2.840   2.604
 9109SOL    HW228227   0.718   2.703   2.647
 9110SOL     OW28228   2.036   3.510   3.708
 9110SOL    HW128229   2.022   3.521   3.610
 9110SOL    HW228230   2.048   3.600   3.751
 9111SOL     OW28231   4.648   1.736   1.054
 9111SOL    HW128232   4.576   1.675   1.022
 9111SOL    HW228233   4.664   1.808   0.987
 9112SOL     OW28234   0.251   4.927   3.750
 9112SOL    HW128235   0.302   4.871   3.816
 9112SOL    HW228236   0.155   4.931   3.777
 9113SOL     OW28237   5.304   1.254   2.844
 9113SOL    HW128238   5.254   1.176   2.881
 9113SOL    HW228239   5.314   1.244   2.745
 9114SOL     OW28240   0.778   4.429   2.265
 9114SOL    HW128241   0.702   4.494   2.261
 9114SOL    HW228242   0.753   4.346   2.216
 9115SOL     OW28243   0.077   5.230   4.887
 9115SOL    HW128244   0.011   5.155   4.902
 9115SOL    HW228245   0.027   5.316   4.875
 9116SOL     OW28246   6.758   0.887   1.871
 9116SOL    HW128247   6.795   0.849   1.956
 9116SOL    HW228248   6.678   0.834   1.842
 9117SOL     OW28249   5.968   2.875   0.366
 9117SOL    HW128250   5.966   2.973   0.385
 9117SOL    HW228251   6.038   2.832   0.423
 9118SOL     OW28252   6.591   3.839   0.469
 9118SOL    HW128253   6.544   3.927   0.471
 9118SOL    HW228254   6.567   3.787   0.551
 9119SOL     OW28255   4.543   0.397   2.204
 9119SOL    HW128256   4.534   0.494   2.183
 9119SOL    HW228257   4.542   0.385   2.304
 9120SOL     OW28258   6.522   1.813   5.746
 9120SOL    HW128259   6.502   1.867   5.665
 9120SOL    HW228260   6.436   1.779   5.786
 9121SOL     OW28261   3.689   0.923   4.970
 9121SOL    HW128262   3.604   0.887   4.931
 9121SOL    HW228263   3.692   1.022   4.959
 9122SOL     OW28264   1.967   4.133   2.305
 9122SOL    HW128265   1.996   4.044   2.269
 9122SOL    HW228266   2.001   4.205   2.245
 9123SOL     OW28267   2.834   1.028   3.673
 9123SOL    HW128268   2.804   0.990   3.761
 9123SOL    HW228269   2.934   1.039   3.675
 9124SOL     OW28270   5.439   6.139   0.323
 9124SOL    HW128271   5.516   6.118   0.262
 9124SOL    HW228272   5.428   6.066   0.390
 9125SOL     OW28273   4.752   3.752   0.845
 9125SOL    HW128274   4.760   3.794   0.755
 9125SOL    HW228275   4.790   3.659   0.842
 9126SOL     OW28276   6.141   3.432   1.252
 9126SOL    HW128277   6.146   3.455   1.155
 9126SOL    HW228278   6.152   3.515   1.307
 9127SOL     OW28279   6.836   2.060   6.108
 9127SOL    HW128280   6.916   2.008   6.138
 9127SOL    HW228281   6.858   2.108   6.023
 9128SOL     OW28282   5.620   1.759   5.370
 9128SOL    HW128283   5.539   1.747   5.313
 9128SOL    HW228284   5.699   1.717   5.326
 9129SOL     OW28285   0.318   2.369   0.334
 9129SOL    HW128286   0.368   2.348   0.250
 9129SOL    HW228287   0.357   2.317   0.410
 9130SOL     OW28288   0.383   3.223   5.960
 9130SOL    HW128289   0.284   3.232   5.964
 9130SOL    HW228290   0.424   3.313   5.944
 9131SOL     OW28291   6.083   3.070   5.268
 9131SOL    HW128292   6.099   2.992   5.208
 9131SOL    HW228293   6.144   3.064   5.347
 9132SOL     OW28294   0.639   6.145   4.402
 9132SOL    HW128295   0.650   6.171   4.307
 9132SOL    HW228296   0.720   6.094   4.433
 9133SOL     OW28297   3.614   6.529   1.542
 9133SOL    HW128298   3.537   6.543   1.603
 9133SOL    HW228299   3.585   6.546   1.447
 9134SOL     OW28300   4.428   5.581   1.155
 9134SOL    HW128301   4.395   5.520   1.083
 9134SOL    HW228302   4.526   5.594   1.146
 9135SOL     OW28303   6.648   6.875   1.693
 9135SOL    HW128304   6.574   6.807   1.698
 9135SOL    HW228305   6.735   6.828   1.678
 9136SOL     OW28306   5.011   6.676   6.970
 9136SOL    HW128307   4.997   6.635   6.880
 9136SOL    HW228308   4.925   6.680   7.020
 9137SOL     OW28309   5.435   0.898   0.323
 9137SOL    HW128310   5.399   0.810   0.290
 9137SOL    HW228311   5.395   0.972   0.270
 9138SOL     OW28312   6.946   5.972   6.715
 9138SOL    HW128313   0.023   5.955   6.724
 9138SOL    HW228314   6.900   5.949   6.801
 9139SOL     OW28315   2.117   1.746   3.368
 9139SOL    HW128316   2.203   1.714   3.327
 9139SOL    HW228317   2.046   1.750   3.297
 9140SOL     OW28318   0.015   3.326   2.752
 9140SOL    HW128319   6.978   3.389   2.802
 9140SOL    HW228320   7.014   3.329   2.655
 9141SOL     OW28321   5.165   0.687   0.816
 9141SOL    HW128322   5.253   0.706   0.774
 9141SOL    HW228323   5.179   0.654   0.910
 9142SOL     OW28324   0.834   2.865   0.944
 9142SOL    HW128325   0.785   2.950   0.923
 9142SOL    HW228326   0.774   2.803   0.995
 9143SOL     OW28327   6.460   3.530   0.190
 9143SOL    HW128328   6.388   3.509   0.124
 9143SOL    HW228329   6.433   3.610   0.244
 9144SOL     OW28330   2.296   4.932   4.670
 9144SOL    HW128331   2.348   4.918   4.586
 9144SOL    HW228332   2.346   4.994   4.731
 9145SOL     OW28333   0.645   5.953   6.763
 9145SOL    HW128334   0.645   5.934   6.665
 9145SOL    HW228335   0.736   5.934   6.800
 9146SOL     OW28336   5.648   3.108   3.839
 9146SOL    HW128337   5.689   3.043   3.776
 9146SOL    HW228338   5.557   3.134   3.807
 9147SOL     OW28339   5.831   0.009   5.705
 9147SOL    HW128340   5.902   6.994   5.645
 9147SOL    HW228341   5.848   0.107   5.719
 9148SOL     OW28342   5.716   6.182   1.535
 9148SOL    HW128343   5.734   6.085   1.549
 9148SOL    HW228344   5.718   6.202   1.437
 9149SOL     OW28345   5.263   4.077   2.567
 9149SOL    HW128346   5.278   4.029   2.480
 9149SOL    HW228347   5.351   4.104   2.606
 9150SOL     OW28348   3.658   5.321   1.313
 9150SOL    HW128349   3.645   5.360   1.404
 9150SOL    HW228350   3.674   5.394   1.247
 9151SOL     OW28351   2.420   4.818   3.348
 9151SOL    HW128352   2.420   4.903   3.402
 9151SOL    HW228353   2.508   4.771   3.360
 9152SOL     OW28354   2.212   4.294   5.043
 9152SOL    HW128355   2.237   4.198   5.030
 9152SOL    HW228356   2.229   4.320   5.138
 9153SOL     OW28357   0.078   2.858   6.892
 9153SOL    HW128358   0.073   2.853   6.991
 9153SOL    HW228359   0.046   2.947   6.861
 9154SOL     OW28360   5.201   4.743   6.388
 9154SOL    HW128361   5.136   4.688   6.335
 9154SOL    HW228362   5.201   4.837   6.353
 9155SOL     OW28363   1.511   3.846   2.362
 9155SOL    HW128364   1.587   3.889   2.412
 9155SOL    HW228365   1.534   3.751   2.341
 9156SOL     OW28366   1.030   2.309   0.353
 9156SOL    HW128367   0.975   2.269   0.427
 9156SOL    HW228368   0.997   2.402   0.335
 9157SOL     OW28369   1.708   3.813   6.649
 9157SOL    HW128370   1.736   3.727   6.605
 9157SOL    HW228371   1.789   3.862   6.680
 9158SOL     OW28372   5.966   3.431   4.026
 9158SOL    HW128373   5.890   3.371   4.048
 9158SOL    HW228374   5.942   3.525   4.051
 9159SOL     OW28375   1.358   1.098   2.297
 9159SOL    HW128376   1.438   1.038   2.305
 9159SOL    HW228377   1.381   1.189   2.331
 9160SOL     OW28378   6.915   6.654   6.066
 9160SOL    HW128379   6.834   6.702   6.033
 9160SOL    HW228380   6.997   6.698   6.030
 9161SOL     OW28381   5.402   5.128   4.111
 9161SOL    HW128382   5.382   5.105   4.015
 9161SOL    HW228383   5.394   5.227   4.123
 9162SOL     OW28384   4.329   0.992   3.535
 9162SOL    HW128385   4.354   0.981   3.439
 9162SOL    HW228386   4.396   0.945   3.593
 9163SOL     OW28387   0.772   2.426   4.620
 9163SOL    HW128388   0.871   2.438   4.611
 9163SOL    HW228389   0.747   2.429   4.717
 9164SOL     OW28390   2.467   0.583   0.154
 9164SOL    HW128391   2.446   0.485   0.144
 9164SOL    HW228392   2.564   0.598   0.135
 9165SOL     OW28393   6.353   1.250   5.492
 9165SOL    HW128394   6.332   1.346   5.509
 9165SOL    HW228395   6.372   1.237   5.394
 9166SOL     OW28396   4.363   5.911   1.120
 9166SOL    HW128397   4.324   5.822   1.141
 9166SOL    HW228398   4.401   5.910   1.027
 9167SOL     OW28399   2.008   1.754   6.174
 9167SOL    HW128400   1.986   1.835   6.119
 9167SOL    HW228401   2.092   1.770   6.224
 9168SOL     OW28402   6.488   5.974   5.970
 9168SOL    HW128403   6.535   5.901   6.020
 9168SOL    HW228404   6.489   5.953   5.872
 9169SOL     OW28405   6.600   0.186   6.226
 9169SOL    HW128406   6.548   0.172   6.310
 9169SOL    HW228407   6.616   0.097   6.182
 9170SOL     OW28408   1.724   0.223   6.826
 9170SOL    HW128409   1.726   0.321   6.844
 9170SOL    HW228410   1.666   0.178   6.893
 9171SOL     OW28411   3.715   5.819   0.554
 9171SOL    HW128412   3.805   5.781   0.534
 9171SOL    HW228413   3.645   5.753   0.527
 9172SOL     OW28414   5.164   1.171   3.142
 9172SOL    HW128415   5.169   1.270   3.134
 9172SOL    HW228416   5.156   1.146   3.239
 9173SOL     OW28417   5.710   4.334   6.126
 9173SOL    HW128418   5.613   4.336   6.151
 9173SOL    HW228419   5.765   4.359   6.206
 9174SOL     OW28420   6.734   4.327   0.506
 9174SOL    HW128421   6.795   4.280   0.570
 9174SOL    HW228422   6.676   4.391   0.557
 9175SOL     OW28423   1.459   6.166   6.474
 9175SOL    HW128424   1.362   6.146   6.486
 9175SOL    HW228425   1.474   6.264   6.483
 9176SOL     OW28426   2.407   1.424   2.841
 9176SOL    HW128427   2.469   1.380   2.906
 9176SOL    HW228428   2.417   1.380   2.751
 9177SOL     OW28429   0.696   4.627   3.905
 9177SOL    HW128430   0.609   4.621   3.856
 9177SOL    HW228431   0.745   4.710   3.876
 9178SOL     OW28432   2.072   5.490   0.823
 9178SOL    HW128433   2.018   5.453   0.748
 9178SOL    HW228434   2.012   5.526   0.894
 9179SOL     OW28435   2.113   5.396   4.088
 9179SOL    HW128436   2.190   5.361   4.034
 9179SOL    HW228437   2.144   5.473   4.144
 9180SOL     OW28438   6.535   2.396   3.260
 9180SOL    HW128439   6.608   2.464   3.256
 9180SOL    HW228440   6.462   2.430   3.320
 9181SOL     OW28441   5.745   2.061   4.339
 9181SOL    HW128442   5.789   2.044   4.427
 9181SOL    HW228443   5.725   2.158   4.330
 9182SOL     OW28444   3.098   7.007   3.294
 9182SOL    HW128445   3.100   0.082   3.318
 9182SOL    HW228446   3.110   6.996   3.195
 9183SOL     OW28447   4.485   4.296   6.936
 9183SOL    HW128448   4.568   4.241   6.922
 9183SOL    HW228449   4.430   4.255   7.008
 9184SOL     OW28450   4.641   2.165   1.312
 9184SOL    HW128451   4.698   2.164   1.230
 9184SOL    HW228452   4.695   2.196   1.390
 9185SOL     OW28453   6.077   6.336   5.238
 9185SOL    HW128454   6.043   6.378   5.154
 9185SOL    HW228455   6.133   6.256   5.215
 9186SOL     OW28456   5.664   0.009   4.495
 9186SOL    HW128457   5.575   0.055   4.481
 9186SOL    HW228458   5.681   0.000   4.593
 9187SOL     OW28459   3.218   2.009   0.224
 9187SOL    HW128460   3.305   2.058   0.219
 9187SOL    HW228461   3.206   1.953   0.142
 9188SOL     OW28462   2.346   0.254   1.877
 9188SOL    HW128463   2.431   0.201   1.875
 9188SOL    HW228464   2.367   0.351   1.871
 9189SOL     OW28465   3.083   5.728   2.302
 9189SOL    HW128466   3.183   5.720   2.307
 9189SOL    HW228467   3.045   5.647   2.258
 9190SOL     OW28468   1.244   3.254   5.554
 9190SOL    HW128469   1.282   3.333   5.602
 9190SOL    HW228470   1.295   3.240   5.469
 9191SOL     OW28471   5.706   0.814   0.049
 9191SOL    HW128472   5.726   0.773   0.138
 9191SOL    HW228473   5.779   0.877   0.024
 9192SOL     OW28474   0.083   2.456   6.165
 9192SOL    HW128475   0.044   2.478   6.255
 9192SOL    HW228476   0.125   2.537   6.126
 9193SOL     OW28477   3.999   3.545   4.905
 9193SOL    HW128478   4.040   3.627   4.944
 9193SOL    HW228479   4.027   3.536   4.809
 9194SOL     OW28480   3.387   0.827   2.465
 9194SOL    HW128481   3.363   0.734   2.495
 9194SOL    HW228482   3.483   0.845   2.488
 9195SOL     OW28483   1.195   3.536   2.998
 9195SOL    HW128484   1.112   3.509   2.948
 9195SOL    HW228485   1.174   3.613   3.057
 9196SOL     OW28486   5.765   6.316   3.722
 9196SOL    HW128487   5.693   6.287   3.658
 9196SOL    HW228488   5.853   6.279   3.692
 9197SOL     OW28489   3.051   4.938   0.855
 9197SOL    HW128490   2.958   4.974   0.853
 9197SOL    HW228491   3.048   4.839   0.865
 9198SOL     OW28492   6.536   4.279   6.274
 9198SOL    HW128493   6.607   4.236   6.330
 9198SOL    HW228494   6.554   4.259   6.177
 9199SOL     OW28495   6.632   2.873   5.497
 9199SOL    HW128496   6.652   2.800   5.430
 9199SOL    HW228497   6.582   2.947   5.451
 9200SOL     OW28498   3.080   5.954   5.680
 9200SOL    HW128499   3.025   6.037   5.688
 9200SOL    HW228500   3.058   5.908   5.594
 9201SOL     OW28501   6.742   3.481   0.122
 9201SOL    HW128502   6.646   3.501   0.138
 9201SOL    HW228503   6.782   3.551   0.063
 9202SOL     OW28504   0.855   6.159   3.557
 9202SOL    HW128505   0.770   6.203   3.528
 9202SOL    HW228506   0.933   6.216   3.530
 9203SOL     OW28507   6.373   3.435   5.783
 9203SOL    HW128508   6.274   3.426   5.780
 9203SOL    HW228509   6.415   3.346   5.763
 9204SOL     OW28510   4.869   3.704   4.466
 9204SOL    HW128511   4.906   3.749   4.548
 9204SOL    HW228512   4.826   3.773   4.407
 9205SOL     OW28513   5.123   5.708   3.441
 9205SOL    HW128514   5.087   5.662   3.360
 9205SOL    HW228515   5.049   5.756   3.487
 9206SOL     OW28516   3.583   6.068   3.081
 9206SOL    HW128517   3.649   6.055   3.155
 9206SOL    HW228518   3.614   6.020   3.000
 9207SOL     OW28519   4.544   4.150   0.397
 9207SOL    HW128520   4.479   4.201   0.340
 9207SOL    HW228521   4.616   4.212   0.428
 9208SOL     OW28522   5.553   4.510   2.601
 9208SOL    HW128523   5.613   4.585   2.631
 9208SOL    HW228524   5.460   4.526   2.632
 9209SOL     OW28525   4.561   1.292   0.639
 9209SOL    HW128526   4.525   1.251   0.723
 9209SOL    HW228527   4.530   1.239   0.560
 9210SOL     OW28528   1.066   1.769   1.028
 9210SOL    HW128529   1.103   1.862   1.016
 9210SOL    HW228530   1.141   1.706   1.047
 9211SOL     OW28531   5.997   2.551   6.153
 9211SOL    HW128532   6.034   2.513   6.068
 9211SOL    HW228533   6.070   2.596   6.204
 9212SOL     OW28534   5.227   4.445   4.020
 9212SOL    HW128535   5.128   4.460   4.019
 9212SOL    HW228536   5.254   4.397   3.937
 9213SOL     OW28537   4.831   5.008   4.539
 9213SOL    HW128538   4.772   5.030   4.617
 9213SOL    HW228539   4.777   4.962   4.469
 9214SOL     OW28540   6.973   2.715   5.032
 9214SOL    HW128541   6.981   2.694   5.129
 9214SOL    HW228542   6.946   2.811   5.021
 9215SOL     OW28543   1.515   4.241   2.092
 9215SOL    HW128544   1.476   4.249   2.183
 9215SOL    HW228545   1.553   4.149   2.079
 9216SOL     OW28546   2.353   7.007   3.168
 9216SOL    HW128547   2.380   6.942   3.097
 9216SOL    HW228548   2.424   0.055   3.178
 9217SOL     OW28549   6.118   3.351   6.731
 9217SOL    HW128550   6.130   3.381   6.826
 9217SOL    HW228551   6.047   3.281   6.727
 9218SOL     OW28552   3.737   0.877   0.032
 9218SOL    HW128553   3.705   0.923   6.970
 9218SOL    HW228554   3.762   0.946   0.100
 9219SOL     OW28555   4.797   3.832   6.239
 9219SOL    HW128556   4.738   3.755   6.266
 9219SOL    HW228557   4.883   3.827   6.289
 9220SOL     OW28558   1.330   6.097   1.885
 9220SOL    HW128559   1.252   6.075   1.826
 9220SOL    HW228560   1.382   6.171   1.844
 9221SOL     OW28561   1.755   0.347   3.240
 9221SOL    HW128562   1.775   0.445   3.247
 9221SOL    HW228563   1.673   0.325   3.293
 9222SOL     OW28564   2.510   5.564   5.527
 9222SOL    HW128565   2.442   5.499   5.560
 9222SOL    HW228566   2.502   5.573   5.428
 9223SOL     OW28567   1.357   2.169   4.318
 9223SOL    HW128568   1.368   2.224   4.401
 9223SOL    HW228569   1.440   2.115   4.302
 9224SOL     OW28570   0.742   5.405   3.947
 9224SOL    HW128571   0.839   5.383   3.936
 9224SOL    HW228572   0.714   5.470   3.876
 9225SOL     OW28573   2.890   6.032   5.964
 9225SOL    HW128574   2.924   5.961   6.025
 9225SOL    HW228575   2.962   6.098   5.946
 9226SOL     OW28576   0.315   0.009   1.363
 9226SOL    HW128577   0.269   6.956   1.314
 9226SOL    HW228578   0.359   6.993   1.445
 9227SOL     OW28579   2.272   5.651   0.747
 9227SOL    HW128580   2.186   5.604   0.767
 9227SOL    HW228581   2.260   5.708   0.666
 9228SOL     OW28582   2.581   1.405   6.722
 9228SOL    HW128583   2.675   1.380   6.696
 9228SOL    HW228584   2.556   1.355   6.806
 9229SOL     OW28585   0.467   5.131   5.233
 9229SOL    HW128586   0.414   5.069   5.291
 9229SOL    HW228587   0.562   5.099   5.228
 9230SOL     OW28588   4.975   3.364   3.476
 9230SOL    HW128589   4.959   3.402   3.385
 9230SOL    HW228590   5.072   3.365   3.497
 9231SOL     OW28591   1.470   3.544   5.331
 9231SOL    HW128592   1.525   3.540   5.248
 9231SOL    HW228593   1.379   3.579   5.309
 9232SOL     OW28594   3.304   5.342   6.529
 9232SOL    HW128595   3.273   5.351   6.624
 9232SOL    HW228596   3.376   5.409   6.511
 9233SOL     OW28597   6.075   6.004   1.197
 9233SOL    HW128598   6.009   5.967   1.262
 9233SOL    HW228599   6.113   6.089   1.234
 9234SOL     OW28600   3.354   5.726   0.434
 9234SOL    HW128601   3.256   5.738   0.450
 9234SOL    HW228602   3.405   5.776   0.504
 9235SOL     OW28603   2.164   2.575   3.340
 9235SOL    HW128604   2.189   2.536   3.429
 9235SOL    HW228605   2.158   2.501   3.273
 9236SOL     OW28606   2.332   4.404   6.792
 9236SOL    HW128607   2.348   4.310   6.820
 9236SOL    HW228608   2.238   4.431   6.816
 9237SOL     OW28609   0.662   5.777   2.994
 9237SOL    HW128610   0.580   5.819   3.033
 9237SOL    HW228611   0.734   5.773   3.063
 9238SOL     OW28612   2.136   2.816   6.195
 9238SOL    HW128613   2.100   2.738   6.245
 9238SOL    HW228614   2.174   2.785   6.108
 9239SOL     OW28615   0.451   3.484   5.916
 9239SOL    HW128616   0.395   3.546   5.971
 9239SOL    HW228617   0.534   3.532   5.887
 9240SOL     OW28618   5.412   2.832   2.293
 9240SOL    HW128619   5.386   2.736   2.289
 9240SOL    HW228620   5.368   2.875   2.371
 9241SOL     OW28621   0.546   4.785   6.675
 9241SOL    HW128622   0.537   4.690   6.647
 9241SOL    HW228623   0.556   4.843   6.594
 9242SOL     OW28624   1.141   4.393   0.482
 9242SOL    HW128625   1.234   4.398   0.446
 9242SOL    HW228626   1.121   4.299   0.512
 9243SOL     OW28627   0.576   0.243   1.444
 9243SOL    HW128628   0.673   0.268   1.438
 9243SOL    HW228629   0.534   0.252   1.354
 9244SOL     OW28630   3.496   5.465   6.032
 9244SOL    HW128631   3.531   5.557   6.014
 9244SOL    HW228632   3.449   5.431   5.951
 9245SOL     OW28633   1.043   6.031   4.089
 9245SOL    HW128634   1.035   5.933   4.072
 9245SOL    HW228635   1.007   6.082   4.011
 9246SOL     OW28636   6.590   0.051   2.799
 9246SOL    HW128637   6.589   0.140   2.752
 9246SOL    HW228638   6.602   7.000   2.731
 9247SOL     OW28639   2.548   5.916   3.338
 9247SOL    HW128640   2.483   5.956   3.403
 9247SOL    HW228641   2.499   5.891   3.254
 9248SOL     OW28642   3.224   2.005   4.276
 9248SOL    HW128643   3.222   1.906   4.259
 9248SOL    HW228644   3.167   2.052   4.209
 9249SOL     OW28645   3.670   4.957   1.457
 9249SOL    HW128646   3.653   4.924   1.550
 9249SOL    HW228647   3.765   4.938   1.432
 9250SOL     OW28648   5.763   2.317   4.246
 9250SOL    HW128649   5.743   2.350   4.338
 9250SOL    HW228650   5.694   2.353   4.182
 9251SOL     OW28651   3.832   1.780   2.998
 9251SOL    HW128652   3.778   1.765   3.081
 9251SOL    HW228653   3.899   1.853   3.015
 9252SOL     OW28654   5.030   0.934   4.326
 9252SOL    HW128655   5.098   0.982   4.381
 9252SOL    HW228656   4.948   0.990   4.319
 9253SOL     OW28657   5.480   5.543   5.389
 9253SOL    HW128658   5.578   5.557   5.392
 9253SOL    HW228659   5.451   5.524   5.295
 9254SOL     OW28660   5.825   5.125   3.175
 9254SOL    HW128661   5.844   5.197   3.242
 9254SOL    HW228662   5.867   5.040   3.206
 9255SOL     OW28663   4.403   4.023   0.637
 9255SOL    HW128664   4.353   3.937   0.629
 9255SOL    HW228665   4.480   4.023   0.573
 9256SOL     OW28666   3.134   0.041   2.979
 9256SOL    HW128667   3.080   0.044   2.895
 9256SOL    HW228668   3.216   7.008   2.963
 9257SOL     OW28669   0.012   4.662   3.569
 9257SOL    HW128670   0.096   4.608   3.561
 9257SOL    HW228671   7.014   4.681   3.665
 9258SOL     OW28672   3.606   4.022   2.797
 9258SOL    HW128673   3.694   4.002   2.754
 9258SOL    HW228674   3.540   3.951   2.771
 9259SOL     OW28675   0.318   2.003   0.216
 9259SOL    HW128676   0.370   2.068   0.271
 9259SOL    HW228677   0.337   1.910   0.248
 9260SOL     OW28678   6.351   1.534   5.438
 9260SOL    HW128679   6.409   1.578   5.369
 9260SOL    HW228680   6.277   1.595   5.463
 9261SOL     OW28681   2.980   1.166   0.606
 9261SOL    HW128682   3.018   1.251   0.642
 9261SOL    HW228683   3.004   1.156   0.510
 9262SOL     OW28684   6.673   4.754   4.843
 9262SOL    HW128685   6.624   4.667   4.845
 9262SOL    HW228686   6.656   4.804   4.928
 9263SOL     OW28687   4.788   0.582   1.984
 9263SOL    HW128688   4.838   0.587   2.070
 9263SOL    HW228689   4.840   0.528   1.918
 9264SOL     OW28690   5.063   4.383   0.608
 9264SOL    HW128691   5.092   4.312   0.672
 9264SOL    HW228692   5.079   4.473   0.648
 9265SOL     OW28693   4.198   2.318   0.170
 9265SOL    HW128694   4.171   2.390   0.233
 9265SOL    HW228695   4.236   2.358   0.086
 9266SOL     OW28696   1.055   6.205   0.541
 9266SOL    HW128697   1.052   6.281   0.606
 9266SOL    HW228698   0.966   6.158   0.540
 9267SOL     OW28699   0.444   2.162   4.504
 9267SOL    HW128700   0.448   2.079   4.447
 9267SOL    HW228701   0.508   2.230   4.469
 9268SOL     OW28702   1.062   5.581   2.713
 9268SOL    HW128703   1.010   5.665   2.729
 9268SOL    HW228704   1.121   5.593   2.633
 9269SOL     OW28705   4.045   0.992   6.268
 9269SOL    HW128706   4.010   1.050   6.341
 9269SOL    HW228707   4.054   0.898   6.301
 9270SOL     OW28708   4.340   6.325   6.089
 9270SOL    HW128709   4.314   6.283   6.176
 9270SOL    HW228710   4.261   6.370   6.049
 9271SOL     OW28711   6.282   0.422   1.437
 9271SOL    HW128712   6.270   0.323   1.434
 9271SOL    HW228713   6.323   0.454   1.352
 9272SOL     OW28714   0.696   5.881   5.451
 9272SOL    HW128715   0.660   5.943   5.381
 9272SOL    HW228716   0.620   5.851   5.509
 9273SOL     OW28717   6.242   6.852   2.430
 9273SOL    HW128718   6.330   6.808   2.449
 9273SOL    HW228719   6.213   6.830   2.337
 9274SOL     OW28720   6.626   1.227   0.344
 9274SOL    HW128721   6.719   1.247   0.312
 9274SOL    HW228722   6.561   1.286   0.296
 9275SOL     OW28723   6.219   1.079   0.552
 9275SOL    HW128724   6.286   1.021   0.507
 9275SOL    HW228725   6.164   1.126   0.483
 9276SOL     OW28726   1.442   3.839   1.428
 9276SOL    HW128727   1.483   3.818   1.339
 9276SOL    HW228728   1.513   3.870   1.491
 9277SOL     OW28729   4.348   4.461   0.454
 9277SOL    HW128730   4.373   4.413   0.371
 9277SOL    HW228731   4.351   4.398   0.532
 9278SOL     OW28732   2.046   0.188   6.020
 9278SOL    HW128733   2.118   0.222   6.081
 9278SOL    HW228734   1.958   0.227   6.047
 9279SOL     OW28735   3.473   0.382   2.286
 9279SOL    HW128736   3.456   0.352   2.192
 9279SOL    HW228737   3.398   0.350   2.345
 9280SOL     OW28738   2.281   1.943   2.861
 9280SOL    HW128739   2.300   1.849   2.832
 9280SOL    HW228740   2.237   1.942   2.951
 9281SOL     OW28741   2.371   3.623   6.599
 9281SOL    HW128742   2.422   3.704   6.572
 9281SOL    HW228743   2.358   3.563   6.520
 9282SOL     OW28744   5.975   0.567   3.368
 9282SOL    HW128745   5.885   0.557   3.409
 9282SOL    HW228746   6.045   0.557   3.439
 9283SOL     OW28747   5.263   0.652   4.004
 9283SOL    HW128748   5.305   0.690   3.922
 9283SOL    HW228749   5.213   0.725   4.053
 9284SOL     OW28750   2.883   3.190   5.888
 9284SOL    HW128751   2.848   3.213   5.798
 9284SOL    HW228752   2.807   3.187   5.953
 9285SOL     OW28753   5.068   2.781   1.230
 9285SOL    HW128754   5.014   2.716   1.177
 9285SOL    HW228755   5.094   2.739   1.317
 9286SOL     OW28756   5.643   5.543   0.979
 9286SOL    HW128757   5.592   5.611   1.031
 9286SOL    HW228758   5.688   5.588   0.901
 9287SOL     OW28759   3.073   5.157   0.240
 9287SOL    HW128760   3.159   5.205   0.257
 9287SOL    HW228761   3.039   5.182   0.149
 9288SOL     OW28762   4.413   1.588   2.953
 9288SOL    HW128763   4.401   1.682   2.920
 9288SOL    HW228764   4.406   1.586   3.052
 9289SOL     OW28765   3.839   0.607   1.782
 9289SOL    HW128766   3.830   0.510   1.763
 9289SOL    HW228767   3.840   0.658   1.696
 9290SOL     OW28768   5.678   0.982   3.063
 9290SOL    HW128769   5.686   0.959   3.160
 9290SOL    HW228770   5.625   0.911   3.016
 9291SOL     OW28771   0.838   5.617   5.261
 9291SOL    HW128772   0.927   5.661   5.276
 9291SOL    HW228773   0.838   5.527   5.304
 9292SOL     OW28774   1.963   3.420   6.574
 9292SOL    HW128775   2.001   3.364   6.500
 9292SOL    HW228776   1.940   3.361   6.652
 9293SOL     OW28777   5.756   2.939   6.330
 9293SOL    HW128778   5.847   2.900   6.322
 9293SOL    HW228779   5.689   2.866   6.347
 9294SOL     OW28780   4.485   6.672   6.164
 9294SOL    HW128781   4.537   6.687   6.080
 9294SOL    HW228782   4.531   6.717   6.241
 9295SOL     OW28783   6.167   1.136   4.922
 9295SOL    HW128784   6.264   1.155   4.904
 9295SOL    HW228785   6.118   1.127   4.835
 9296SOL     OW28786   1.366   5.802   6.390
 9296SOL    HW128787   1.302   5.728   6.411
 9296SOL    HW228788   1.317   5.889   6.392
 9297SOL     OW28789   0.800   6.749   2.953
 9297SOL    HW128790   0.720   6.769   3.010
 9297SOL    HW228791   0.838   6.660   2.980
 9298SOL     OW28792   0.811   6.356   6.508
 9298SOL    HW128793   0.747   6.332   6.582
 9298SOL    HW228794   0.886   6.409   6.546
 9299SOL     OW28795   0.652   2.385   4.954
 9299SOL    HW128796   0.579   2.364   4.889
 9299SOL    HW228797   0.716   2.308   4.959
 9300SOL     OW28798   0.427   4.222   5.985
 9300SOL    HW128799   0.474   4.213   6.072
 9300SOL    HW228800   0.436   4.136   5.933
 9301SOL     OW28801   5.499   5.304   4.900
 9301SOL    HW128802   5.404   5.272   4.902
 9301SOL    HW228803   5.521   5.341   4.810
 9302SOL     OW28804   2.326   2.546   4.031
 9302SOL    HW128805   2.233   2.518   4.007
 9302SOL    HW228806   2.374   2.576   3.948
 9303SOL     OW28807   2.791   3.888   1.219
 9303SOL    HW128808   2.840   3.805   1.244
 9303SOL    HW228809   2.793   3.953   1.294
 9304SOL     OW28810   3.868   4.591   1.489
 9304SOL    HW128811   3.882   4.500   1.451
 9304SOL    HW228812   3.807   4.586   1.568
 9305SOL     OW28813   3.527   1.084   0.451
 9305SOL    HW128814   3.555   0.995   0.415
 9305SOL    HW228815   3.428   1.094   0.442
 9306SOL     OW28816   0.701   4.662   5.453
 9306SOL    HW128817   0.617   4.659   5.400
 9306SOL    HW228818   0.742   4.753   5.445
 9307SOL     OW28819   0.861   3.909   0.965
 9307SOL    HW128820   0.904   3.857   1.039
 9307SOL    HW228821   0.784   3.961   1.002
 9308SOL     OW28822   1.542   3.396   0.593
 9308SOL    HW128823   1.454   3.439   0.569
 9308SOL    HW228824   1.531   3.297   0.596
 9309SOL     OW28825   3.645   5.234   6.067
 9309SOL    HW128826   3.590   5.163   6.110
 9309SOL    HW228827   3.600   5.323   6.079
 9310SOL     OW28828   5.905   5.664   5.677
 9310SOL    HW128829   5.891   5.625   5.587
 9310SOL    HW228830   5.997   5.702   5.683
 9311SOL     OW28831   4.750   4.459   1.651
 9311SOL    HW128832   4.737   4.380   1.712
 9311SOL    HW228833   4.721   4.542   1.699
 9312SOL     OW28834   1.267   3.678   1.083
 9312SOL    HW128835   1.240   3.585   1.056
 9312SOL    HW228836   1.186   3.728   1.115
 9313SOL     OW28837   6.897   0.080   1.327
 9313SOL    HW128838   6.862   0.155   1.271
 9313SOL    HW228839   6.970   0.114   1.386
 9314SOL     OW28840   6.230   4.374   6.900
 9314SOL    HW128841   6.264   4.298   6.955
 9314SOL    HW228842   6.279   4.458   6.926
 9315SOL     OW28843   6.957   6.850   5.689
 9315SOL    HW128844   6.939   6.752   5.691
 9315SOL    HW228845   6.937   6.886   5.598
 9316SOL     OW28846   5.360   6.406   6.015
 9316SOL    HW128847   5.430   6.335   6.021
 9316SOL    HW228848   5.300   6.386   5.937
 9317SOL     OW28849   5.312   5.854   3.985
 9317SOL    HW128850   5.276   5.811   3.902
 9317SOL    HW228851   5.264   5.819   4.064
 9318SOL     OW28852   6.169   1.155   6.254
 9318SOL    HW128853   6.197   1.082   6.191
 9318SOL    HW228854   6.071   1.148   6.271
 9319SOL     OW28855   2.321   2.669   6.748
 9319SOL    HW128856   2.322   2.643   6.845
 9319SOL    HW228857   2.404   2.721   6.726
 9320SOL     OW28858   3.499   0.614   4.927
 9320SOL    HW128859   3.479   0.684   4.858
 9320SOL    HW228860   3.447   0.634   5.010
 9321SOL     OW28861   0.738   0.314   5.028
 9321SOL    HW128862   0.698   0.239   5.081
 9321SOL    HW228863   0.825   0.283   4.988
 9322SOL     OW28864   6.811   3.456   5.982
 9322SOL    HW128865   6.845   3.480   6.074
 9322SOL    HW228866   6.733   3.514   5.960
 9323SOL     OW28867   1.268   1.103   5.589
 9323SOL    HW128868   1.321   1.138   5.665
 9323SOL    HW228869   1.298   1.145   5.504
 9324SOL     OW28870   1.279   4.669   1.952
 9324SOL    HW128871   1.286   4.715   2.040
 9324SOL    HW228872   1.352   4.601   1.944
 9325SOL     OW28873   6.062   1.233   0.390
 9325SOL    HW128874   6.100   1.300   0.327
 9325SOL    HW228875   5.979   1.194   0.351
 9326SOL     OW28876   2.606   4.796   0.406
 9326SOL    HW128877   2.681   4.730   0.401
 9326SOL    HW228878   2.632   4.879   0.357
 9327SOL     OW28879   4.526   0.393   2.478
 9327SOL    HW128880   4.603   0.453   2.498
 9327SOL    HW228881   4.447   0.419   2.534
 9328SOL     OW28882   2.476   1.168   4.535
 9328SOL    HW128883   2.560   1.121   4.508
 9328SOL    HW228884   2.494   1.222   4.617
 9329SOL     OW28885   5.721   3.658   0.993
 9329SOL    HW128886   5.635   3.613   1.017
 9329SOL    HW228887   5.790   3.634   1.061
 9330SOL     OW28888   6.631   0.060   5.551
 9330SOL    HW128889   6.640   0.113   5.467
 9330SOL    HW228890   6.689   0.100   5.622
 9331SOL     OW28891   2.536   0.808   6.440
 9331SOL    HW128892   2.623   0.771   6.473
 9331SOL    HW228893   2.465   0.738   6.448
 9332SOL     OW28894   4.116   4.626   0.439
 9332SOL    HW128895   4.189   4.560   0.455
 9332SOL    HW228896   4.056   4.593   0.366
 9333SOL     OW28897   3.554   4.884   6.643
 9333SOL    HW128898   3.549   4.811   6.712
 9333SOL    HW228899   3.464   4.926   6.633
 9334SOL     OW28900   5.025   6.549   4.381
 9334SOL    HW128901   5.089   6.566   4.456
 9334SOL    HW228902   4.979   6.462   4.396
 9335SOL     OW28903   1.446   1.207   6.677
 9335SOL    HW128904   1.447   1.154   6.592
 9335SOL    HW228905   1.540   1.228   6.704
 9336SOL     OW28906   3.899   0.068   5.179
 9336SOL    HW128907   3.881   0.155   5.132
 9336SOL    HW228908   3.987   0.032   5.149
 9337SOL     OW28909   3.937   0.699   5.025
 9337SOL    HW128910   3.966   0.734   5.114
 9337SOL    HW228911   3.863   0.757   4.989
 9338SOL     OW28912   6.186   6.633   1.090
 9338SOL    HW128913   6.093   6.628   1.126
 9338SOL    HW228914   6.249   6.661   1.163
 9339SOL     OW28915   5.725   6.691   0.438
 9339SOL    HW128916   5.684   6.685   0.348
 9339SOL    HW228917   5.815   6.647   0.437
 9340SOL     OW28918   3.949   4.840   3.847
 9340SOL    HW128919   4.043   4.815   3.824
 9340SOL    HW228920   3.943   4.859   3.945
 9341SOL     OW28921   6.214   5.115   1.042
 9341SOL    HW128922   6.238   5.210   1.022
 9341SOL    HW228923   6.115   5.108   1.055
 9342SOL     OW28924   3.206   6.746   4.071
 9342SOL    HW128925   3.208   6.647   4.082
 9342SOL    HW228926   3.258   6.789   4.146
 9343SOL     OW28927   5.005   3.976   1.709
 9343SOL    HW128928   5.055   3.985   1.622
 9343SOL    HW228929   4.920   3.926   1.693
 9344SOL     OW28930   5.565   6.284   1.790
 9344SOL    HW128931   5.595   6.246   1.703
 9344SOL    HW228932   5.467   6.270   1.801
 9345SOL     OW28933   0.009   5.223   1.366
 9345SOL    HW128934   0.030   5.268   1.452
 9345SOL    HW228935   0.044   5.129   1.368
 9346SOL     OW28936   5.089   0.924   1.966
 9346SOL    HW128937   5.079   1.023   1.957
 9346SOL    HW228938   5.001   0.884   1.990
 9347SOL     OW28939   3.699   4.262   0.555
 9347SOL    HW128940   3.751   4.252   0.471
 9347SOL    HW228941   3.717   4.351   0.596
 9348SOL     OW28942   2.451   6.194   1.998
 9348SOL    HW128943   2.372   6.171   2.055
 9348SOL    HW228944   2.527   6.133   2.019
 9349SOL     OW28945   5.828   5.018   1.883
 9349SOL    HW128946   5.807   4.948   1.815
 9349SOL    HW228947   5.892   4.981   1.951
 9350SOL     OW28948   6.742   2.508   5.528
 9350SOL    HW128949   6.754   2.410   5.511
 9350SOL    HW228950   6.799   2.536   5.605
 9351SOL     OW28951   3.213   0.468   6.389
 9351SOL    HW128952   3.312   0.476   6.386
 9351SOL    HW228953   3.172   0.558   6.375
 9352SOL     OW28954   3.143   1.305   6.424
 9352SOL    HW128955   3.225   1.273   6.471
 9352SOL    HW228956   3.062   1.261   6.464
 9353SOL     OW28957   0.142   4.419   0.682
 9353SOL    HW128958   0.227   4.370   0.661
 9353SOL    HW228959   0.160   4.490   0.751
 9354SOL     OW28960   0.266   1.896   6.184
 9354SOL    HW128961   0.176   1.922   6.219
 9354SOL    HW228962   0.325   1.870   6.260
 9355SOL     OW28963   0.111   1.743   4.621
 9355SOL    HW128964   0.117   1.689   4.537
 9355SOL    HW228965   0.121   1.840   4.600
 9356SOL     OW28966   4.844   6.262   2.021
 9356SOL    HW128967   4.854   6.230   1.927
 9356SOL    HW228968   4.755   6.306   2.032
 9357SOL     OW28969   1.665   3.308   6.595
 9357SOL    HW128970   1.683   3.406   6.585
 9357SOL    HW228971   1.619   3.274   6.512
 9358SOL     OW28972   7.021   3.084   2.565
 9358SOL    HW128973   0.058   3.058   2.642
 9358SOL    HW228974   6.925   3.083   2.593
 9359SOL     OW28975   1.709   3.748   5.261
 9359SOL    HW128976   1.631   3.769   5.320
 9359SOL    HW228977   1.771   3.684   5.307
 9360SOL     OW28978   1.304   5.566   6.804
 9360SOL    HW128979   1.351   5.654   6.810
 9360SOL    HW228980   1.262   5.544   6.892
 9361SOL     OW28981   1.876   5.783   2.406
 9361SOL    HW128982   1.946   5.724   2.364
 9361SOL    HW228983   1.817   5.728   2.465
 9362SOL     OW28984   2.161   3.569   2.867
 9362SOL    HW128985   2.189   3.488   2.815
 9362SOL    HW228986   2.075   3.550   2.915
 9363SOL     OW28987   3.760   6.795   2.083
 9363SOL    HW128988   3.800   6.840   2.163
 9363SOL    HW228989   3.703   6.860   2.033
 9364SOL     OW28990   3.841   3.268   6.355
 9364SOL    HW128991   3.882   3.335   6.292
 9364SOL    HW228992   3.749   3.245   6.323
 9365SOL     OW28993   2.386   2.016   4.322
 9365SOL    HW128994   2.377   2.082   4.248
 9365SOL    HW228995   2.383   2.064   4.410
 9366SOL     OW28996   3.610   6.660   6.490
 9366SOL    HW128997   3.615   6.759   6.498
 9366SOL    HW228998   3.515   6.631   6.496
 9367SOL     OW28999   0.462   6.867   2.799
 9367SOL    HW129000   0.414   6.802   2.858
 9367SOL    HW229001   0.474   6.954   2.848
 9368SOL     OW29002   2.888   1.104   2.796
 9368SOL    HW129003   2.885   1.153   2.883
 9368SOL    HW229004   2.968   1.044   2.795
 9369SOL     OW29005   7.011   6.070   4.598
 9369SOL    HW129006   0.083   6.039   4.614
 9369SOL    HW229007   6.946   6.005   4.638
 9370SOL     OW29008   5.214   0.245   3.952
 9370SOL    HW129009   5.123   0.286   3.939
 9370SOL    HW229010   5.268   0.261   3.870
 9371SOL     OW29011   2.928   5.375   0.807
 9371SOL    HW129012   2.831   5.376   0.831
 9371SOL    HW229013   2.938   5.373   0.707
 9372SOL     OW29014   5.454   0.104   2.579
 9372SOL    HW129015   5.472   0.057   2.493
 9372SOL    HW229016   5.540   0.123   2.626
 9373SOL     OW29017   4.964   1.913   2.620
 9373SOL    HW129018   5.054   1.905   2.577
 9373SOL    HW229019   4.899   1.955   2.555
 9374SOL     OW29020   0.704   3.763   0.286
 9374SOL    HW129021   0.728   3.728   0.376
 9374SOL    HW229022   0.702   3.687   0.220
 9375SOL     OW29023   0.540   0.958   1.579
 9375SOL    HW129024   0.462   0.896   1.578
 9375SOL    HW229025   0.545   1.004   1.668
 9376SOL     OW29026   2.491   4.098   1.302
 9376SOL    HW129027   2.406   4.067   1.345
 9376SOL    HW229028   2.481   4.095   1.202
 9377SOL     OW29029   1.911   5.737   4.067
 9377SOL    HW129030   1.988   5.733   4.131
 9377SOL    HW229031   1.917   5.821   4.013
 9378SOL     OW29032   1.590   1.231   3.704
 9378SOL    HW129033   1.676   1.186   3.728
 9378SOL    HW229034   1.604   1.288   3.623
 9379SOL     OW29035   4.651   6.286   5.826
 9379SOL    HW129036   4.728   6.237   5.787
 9379SOL    HW229037   4.603   6.227   5.891
 9380SOL     OW29038   4.659   5.679   4.918
 9380SOL    HW129039   4.717   5.748   4.961
 9380SOL    HW229040   4.569   5.717   4.898
 9381SOL     OW29041   4.234   2.950   5.701
 9381SOL    HW129042   4.158   3.006   5.733
 9381SOL    HW229043   4.200   2.862   5.669
 9382SOL     OW29044   3.813   0.559   3.734
 9382SOL    HW129045   3.860   0.622   3.671
 9382SOL    HW229046   3.738   0.514   3.685
 9383SOL     OW29047   0.385   5.979   4.418
 9383SOL    HW129048   0.408   5.946   4.510
 9383SOL    HW229049   0.445   6.055   4.394
 9384SOL     OW29050   4.254   0.414   2.151
 9384SOL    HW129051   4.338   0.365   2.174
 9384SOL    HW229052   4.255   0.437   2.054
 9385SOL     OW29053   4.034   1.049   3.503
 9385SOL    HW129054   4.128   1.036   3.532
 9385SOL    HW229055   3.972   1.030   3.579
 9386SOL     OW29056   2.058   5.732   4.911
 9386SOL    HW129057   2.080   5.774   4.999
 9386SOL    HW229058   1.970   5.685   4.917
 9387SOL     OW29059   3.017   1.489   6.707
 9387SOL    HW129060   3.096   1.510   6.649
 9387SOL    HW229061   2.936   1.537   6.672
 9388SOL     OW29062   3.106   6.442   3.004
 9388SOL    HW129063   3.169   6.404   2.936
 9388SOL    HW229064   3.016   6.399   2.995
 9389SOL     OW29065   1.920   0.761   3.298
 9389SOL    HW129066   2.013   0.728   3.315
 9389SOL    HW229067   1.924   0.855   3.263
 9390SOL     OW29068   4.823   4.804   6.148
 9390SOL    HW129069   4.800   4.711   6.179
 9390SOL    HW229070   4.830   4.804   6.048
 9391SOL     OW29071   1.558   1.542   5.124
 9391SOL    HW129072   1.609   1.628   5.113
 9391SOL    HW229073   1.468   1.552   5.081
 9392SOL     OW29074   5.735   5.687   5.336
 9392SOL    HW129075   5.721   5.754   5.409
 9392SOL    HW229076   5.772   5.602   5.376
 9393SOL     OW29077   2.989   6.838   6.916
 9393SOL    HW129078   2.913   6.829   6.981
 9393SOL    HW229079   3.064   6.886   6.960
 9394SOL     OW29080   6.452   0.299   1.673
 9394SOL    HW129081   6.358   0.287   1.640
 9394SOL    HW229082   6.504   0.216   1.656
 9395SOL     OW29083   3.421   1.786   1.235
 9395SOL    HW129084   3.330   1.772   1.197
 9395SOL    HW229085   3.454   1.700   1.276
 9396SOL     OW29086   2.163   4.130   3.973
 9396SOL    HW129087   2.170   4.144   4.072
 9396SOL    HW229088   2.093   4.062   3.954
 9397SOL     OW29089   3.996   6.996   6.156
 9397SOL    HW129090   3.930   6.933   6.198
 9397SOL    HW229091   3.963   0.001   6.065
 9398SOL     OW29092   6.362   1.306   4.869
 9398SOL    HW129093   6.448   1.357   4.874
 9398SOL    HW229094   6.291   1.364   4.830
 9399SOL     OW29095   1.069   3.047   5.328
 9399SOL    HW129096   1.011   3.105   5.386
 9399SOL    HW229097   1.157   3.031   5.373
 9400SOL     OW29098   4.553   1.348   1.507
 9400SOL    HW129099   4.576   1.251   1.517
 9400SOL    HW229100   4.629   1.396   1.463
 9401SOL     OW29101   6.563   0.723   3.139
 9401SOL    HW129102   6.648   0.671   3.140
 9401SOL    HW229103   6.558   0.778   3.056
 9402SOL     OW29104   1.168   5.271   2.560
 9402SOL    HW129105   1.258   5.230   2.571
 9402SOL    HW229106   1.173   5.347   2.496
 9403SOL     OW29107   6.548   1.250   2.107
 9403SOL    HW129108   6.550   1.342   2.069
 9403SOL    HW229109   6.532   1.184   2.034
 9404SOL     OW29110   0.830   2.436   0.514
 9404SOL    HW129111   0.751   2.450   0.573
 9404SOL    HW229112   0.872   2.524   0.492
 9405SOL     OW29113   2.365   4.344   3.961
 9405SOL    HW129114   2.290   4.403   3.933
 9405SOL    HW229115   2.347   4.250   3.931
 9406SOL     OW29116   6.725   2.829   6.325
 9406SOL    HW129117   6.660   2.841   6.250
 9406SOL    HW229118   6.710   2.741   6.369
 9407SOL     OW29119   2.878   5.017   3.573
 9407SOL    HW129120   2.917   4.988   3.660
 9407SOL    HW229121   2.778   5.005   3.576
 9408SOL     OW29122   6.387   3.122   6.228
 9408SOL    HW129123   6.476   3.137   6.186
 9408SOL    HW229124   6.319   3.183   6.187
 9409SOL     OW29125   5.940   5.100   0.516
 9409SOL    HW129126   5.940   5.023   0.452
 9409SOL    HW229127   6.002   5.171   0.482
 9410SOL     OW29128   1.777   0.652   2.282
 9410SOL    HW129129   1.864   0.638   2.235
 9410SOL    HW229130   1.721   0.717   2.230
 9411SOL     OW29131   3.615   3.718   2.646
 9411SOL    HW129132   3.690   3.781   2.666
 9411SOL    HW229133   3.533   3.746   2.694
 9412SOL     OW29134   0.834   0.904   2.577
 9412SOL    HW129135   0.816   0.948   2.489
 9412SOL    HW229136   0.925   0.932   2.610
 9413SOL     OW29137   4.069   5.919   3.642
 9413SOL    HW129138   4.114   5.849   3.697
 9413SOL    HW229139   4.132   5.995   3.627
 9414SOL     OW29140   3.055   1.010   3.150
 9414SOL    HW129141   3.002   1.073   3.094
 9414SOL    HW229142   3.009   0.921   3.153
 9415SOL     OW29143   2.495   6.854   2.286
 9415SOL    HW129144   2.463   6.778   2.230
 9415SOL    HW229145   2.445   6.937   2.262
 9416SOL     OW29146   0.010   1.866   6.235
 9416SOL    HW129147   7.005   1.770   6.241
 9416SOL    HW229148   7.000   1.914   6.317
 9417SOL     OW29149   4.233   0.480   1.008
 9417SOL    HW129150   4.282   0.393   1.016
 9417SOL    HW229151   4.294   0.555   1.030
 9418SOL     OW29152   3.195   0.750   1.573
 9418SOL    HW129153   3.178   0.729   1.477
 9418SOL    HW229154   3.263   0.823   1.580
 9419SOL     OW29155   2.365   4.100   5.852
 9419SOL    HW129156   2.435   4.063   5.914
 9419SOL    HW229157   2.316   4.174   5.897
 9420SOL     OW29158   5.443   4.683   6.514
 9420SOL    HW129159   5.344   4.684   6.498
 9420SOL    HW229160   5.489   4.732   6.440
 9421SOL     OW29161   2.626   6.427   4.725
 9421SOL    HW129162   2.565   6.505   4.712
 9421SOL    HW229163   2.585   6.346   4.683
 9422SOL     OW29164   3.103   5.470   2.758
 9422SOL    HW129165   3.168   5.493   2.686
 9422SOL    HW229166   3.089   5.371   2.760
 9423SOL     OW29167   2.803   6.685   3.606
 9423SOL    HW129168   2.852   6.752   3.552
 9423SOL    HW229169   2.789   6.602   3.552
 9424SOL     OW29170   4.954   1.960   4.769
 9424SOL    HW129171   4.954   1.947   4.670
 9424SOL    HW229172   4.984   1.876   4.814
 9425SOL     OW29173   5.307   3.506   1.255
 9425SOL    HW129174   5.386   3.519   1.314
 9425SOL    HW229175   5.227   3.549   1.297
 9426SOL     OW29176   3.289   1.750   6.178
 9426SOL    HW129177   3.255   1.839   6.149
 9426SOL    HW229178   3.263   1.680   6.112
 9427SOL     OW29179   2.528   5.596   3.338
 9427SOL    HW129180   2.469   5.666   3.378
 9427SOL    HW229181   2.624   5.622   3.349
 9428SOL     OW29182   6.529   1.154   1.617
 9428SOL    HW129183   6.583   1.151   1.533
 9428SOL    HW229184   6.473   1.072   1.624
 9429SOL     OW29185   2.077   3.907   3.498
 9429SOL    HW129186   2.057   3.991   3.549
 9429SOL    HW229187   2.128   3.929   3.415
 9430SOL     OW29188   0.424   2.805   4.999
 9430SOL    HW129189   0.504   2.843   5.045
 9430SOL    HW229190   0.363   2.763   5.066
 9431SOL     OW29191   6.547   4.155   0.695
 9431SOL    HW129192   6.625   4.097   0.670
 9431SOL    HW229193   6.552   4.241   0.645
 9432SOL     OW29194   5.586   0.224   3.244
 9432SOL    HW129195   5.518   0.242   3.316
 9432SOL    HW229196   5.672   0.268   3.269
 9433SOL     OW29197   2.999   5.973   3.534
 9433SOL    HW129198   2.974   5.910   3.460
 9433SOL    HW229199   3.064   6.041   3.499
 9434SOL     OW29200   5.478   5.737   1.762
 9434SOL    HW129201   5.404   5.682   1.799
 9434SOL    HW229202   5.446   5.831   1.748
 9435SOL     OW29203   0.798   2.784   3.758
 9435SOL    HW129204   0.849   2.848   3.700
 9435SOL    HW229205   0.749   2.834   3.829
 9436SOL     OW29206   1.628   2.784   1.310
 9436SOL    HW129207   1.690   2.711   1.338
 9436SOL    HW229208   1.646   2.807   1.214
 9437SOL     OW29209   1.338   5.946   3.074
 9437SOL    HW129210   1.416   6.010   3.074
 9437SOL    HW229211   1.352   5.877   3.004
 9438SOL     OW29212   0.426   6.971   1.611
 9438SOL    HW129213   0.458   6.929   1.696
 9438SOL    HW229214   0.468   0.039   1.599
 9439SOL     OW29215   0.685   2.823   6.942
 9439SOL    HW129216   0.661   2.771   0.002
 9439SOL    HW229217   0.771   2.873   6.958
 9440SOL     OW29218   4.032   4.785   3.234
 9440SOL    HW129219   4.018   4.816   3.140
 9440SOL    HW229220   4.093   4.706   3.235
 9441SOL     OW29221   6.085   4.320   6.322
 9441SOL    HW129222   6.154   4.328   6.394
 9441SOL    HW229223   6.115   4.254   6.254
 9442SOL     OW29224   4.859   3.686   1.556
 9442SOL    HW129225   4.808   3.702   1.472
 9442SOL    HW229226   4.833   3.597   1.595
 9443SOL     OW29227   2.447   5.029   0.861
 9443SOL    HW129228   2.479   5.121   0.837
 9443SOL    HW229229   2.398   5.034   0.949
 9444SOL     OW29230   1.954   3.689   0.746
 9444SOL    HW129231   1.969   3.775   0.795
 9444SOL    HW229232   1.987   3.613   0.802
 9445SOL     OW29233   6.074   3.331   2.939
 9445SOL    HW129234   6.019   3.256   2.976
 9445SOL    HW229235   6.170   3.316   2.959
 9446SOL     OW29236   6.203   5.442   4.998
 9446SOL    HW129237   6.229   5.538   5.014
 9446SOL    HW229238   6.127   5.439   4.933
 9447SOL     OW29239   5.865   4.592   3.926
 9447SOL    HW129240   5.920   4.613   4.006
 9447SOL    HW229241   5.874   4.665   3.858
 9448SOL     OW29242   6.798   0.174   5.754
 9448SOL    HW129243   6.894   0.147   5.742
 9448SOL    HW229244   6.793   0.273   5.769
 9449SOL     OW29245   5.378   0.195   0.474
 9449SOL    HW129246   5.369   0.135   0.553
 9449SOL    HW229247   5.288   0.206   0.431
 9450SOL     OW29248   2.405   5.819   4.023
 9450SOL    HW129249   2.363   5.901   3.984
 9450SOL    HW229250   2.460   5.845   4.103
 9451SOL     OW29251   4.557   6.605   5.718
 9451SOL    HW129252   4.554   6.566   5.626
 9451SOL    HW229253   4.478   6.575   5.770
 9452SOL     OW29254   1.744   3.354   0.213
 9452SOL    HW129255   1.754   3.296   0.294
 9452SOL    HW229256   1.835   3.380   0.179
 9453SOL     OW29257   2.903   5.041   3.038
 9453SOL    HW129258   2.873   4.946   3.037
 9453SOL    HW229259   2.923   5.068   3.132
 9454SOL     OW29260   3.394   3.576   6.308
 9454SOL    HW129261   3.407   3.559   6.210
 9454SOL    HW229262   3.420   3.494   6.360
 9455SOL     OW29263   2.093   1.802   3.662
 9455SOL    HW129264   2.137   1.776   3.576
 9455SOL    HW229265   2.163   1.812   3.733
 9456SOL     OW29266   0.068   3.354   0.981
 9456SOL    HW129267   0.127   3.386   0.907
 9456SOL    HW229268   6.995   3.349   0.949
 9457SOL     OW29269   1.786   3.648   3.961
 9457SOL    HW129270   1.868   3.688   4.002
 9457SOL    HW229271   1.705   3.682   4.009
 9458SOL     OW29272   0.528   3.563   6.410
 9458SOL    HW129273   0.527   3.615   6.496
 9458SOL    HW229274   0.436   3.564   6.370
 9459SOL     OW29275   5.149   4.677   3.700
 9459SOL    HW129276   5.113   4.696   3.792
 9459SOL    HW229277   5.244   4.649   3.706
 9460SOL     OW29278   1.642   3.411   3.955
 9460SOL    HW129279   1.699   3.352   3.898
 9460SOL    HW229280   1.675   3.505   3.951
 9461SOL     OW29281   0.414   1.918   1.455
 9461SOL    HW129282   0.330   1.863   1.452
 9461SOL    HW229283   0.478   1.877   1.520
 9462SOL     OW29284   1.723   3.637   3.646
 9462SOL    HW129285   1.785   3.605   3.718
 9462SOL    HW229286   1.776   3.664   3.565
 9463SOL     OW29287   5.970   0.273   1.275
 9463SOL    HW129288   6.009   0.260   1.366
 9463SOL    HW229289   5.961   0.184   1.229
 9464SOL     OW29290   5.871   0.512   1.221
 9464SOL    HW129291   5.840   0.551   1.308
 9464SOL    HW229292   5.892   0.415   1.234
 9465SOL     OW29293   0.458   3.990   1.711
 9465SOL    HW129294   0.537   4.041   1.744
 9465SOL    HW229295   0.465   3.895   1.740
 9466SOL     OW29296   3.703   4.871   5.162
 9466SOL    HW129297   3.720   4.901   5.068
 9466SOL    HW229298   3.788   4.874   5.214
 9467SOL     OW29299   1.557   2.360   1.299
 9467SOL    HW129300   1.619   2.395   1.229
 9467SOL    HW229301   1.463   2.387   1.276
 9468SOL     OW29302   5.616   3.867   6.266
 9468SOL    HW129303   5.627   3.927   6.346
 9468SOL    HW229304   5.662   3.907   6.187
 9469SOL     OW29305   0.151   4.594   1.816
 9469SOL    HW129306   0.219   4.558   1.879
 9469SOL    HW229307   0.064   4.606   1.863
 9470SOL     OW29308   4.919   3.477   6.521
 9470SOL    HW129309   4.820   3.478   6.508
 9470SOL    HW229310   4.961   3.546   6.462
 9471SOL     OW29311   6.344   2.291   4.307
 9471SOL    HW129312   6.427   2.280   4.253
 9471SOL    HW229313   6.264   2.290   4.247
 9472SOL     OW29314   6.232   2.623   5.039
 9472SOL    HW129315   6.328   2.646   5.054
 9472SOL    HW229316   6.181   2.706   5.015
 9473SOL     OW29317   3.244   5.295   0.546
 9473SOL    HW129318   3.274   5.306   0.451
 9473SOL    HW229319   3.315   5.330   0.607
 9474SOL     OW29320   0.075   3.504   0.203
 9474SOL    HW129321   0.025   3.463   0.126
 9474SOL    HW229322   0.173   3.500   0.185
 9475SOL     OW29323   3.789   3.011   0.343
 9475SOL    HW129324   3.734   3.094   0.345
 9475SOL    HW229325   3.765   2.956   0.263
 9476SOL     OW29326   3.987   3.766   4.093
 9476SOL    HW129327   4.061   3.712   4.132
 9476SOL    HW229328   3.982   3.750   3.994
 9477SOL     OW29329   0.947   2.753   0.429
 9477SOL    HW129330   1.039   2.780   0.457
 9477SOL    HW229331   0.891   2.834   0.416
 9478SOL     OW29332   5.043   3.272   1.344
 9478SOL    HW129333   4.967   3.280   1.407
 9478SOL    HW229334   5.081   3.363   1.326
 9479SOL     OW29335   4.428   6.479   0.625
 9479SOL    HW129336   4.434   6.380   0.622
 9479SOL    HW229337   4.489   6.514   0.696
 9480SOL     OW29338   5.323   4.577   0.553
 9480SOL    HW129339   5.308   4.489   0.508
 9480SOL    HW229340   5.243   4.636   0.540
 9481SOL     OW29341   4.888   3.294   2.560
 9481SOL    HW129342   4.789   3.293   2.544
 9481SOL    HW229343   4.935   3.326   2.477
 9482SOL     OW29344   0.463   1.140   2.481
 9482SOL    HW129345   0.476   1.215   2.546
 9482SOL    HW229346   0.521   1.153   2.401
 9483SOL     OW29347   1.442   0.516   0.988
 9483SOL    HW129348   1.342   0.509   0.981
 9483SOL    HW229349   1.467   0.551   1.078
 9484SOL     OW29350   4.153   0.331   4.504
 9484SOL    HW129351   4.230   0.291   4.552
 9484SOL    HW229352   4.130   0.275   4.424
 9485SOL     OW29353   0.400   0.756   0.867
 9485SOL    HW129354   0.389   0.855   0.879
 9485SOL    HW229355   0.479   0.725   0.918
 9486SOL     OW29356   3.788   6.381   0.773
 9486SOL    HW129357   3.791   6.401   0.675
 9486SOL    HW229358   3.692   6.376   0.802
 9487SOL     OW29359   3.255   3.795   3.850
 9487SOL    HW129360   3.317   3.838   3.916
 9487SOL    HW229361   3.161   3.817   3.874
 9488SOL     OW29362   2.849   0.329   1.155
 9488SOL    HW129363   2.811   0.402   1.211
 9488SOL    HW229364   2.949   0.337   1.153
 9489SOL     OW29365   4.724   4.059   1.159
 9489SOL    HW129366   4.629   4.089   1.172
 9489SOL    HW229367   4.783   4.106   1.225
 9490SOL     OW29368   6.010   5.428   2.328
 9490SOL    HW129369   6.011   5.363   2.405
 9490SOL    HW229370   5.951   5.392   2.255
 9491SOL     OW29371   5.574   4.680   3.912
 9491SOL    HW129372   5.568   4.758   3.975
 9491SOL    HW229373   5.668   4.668   3.882
 9492SOL     OW29374   3.706   3.366   4.333
 9492SOL    HW129375   3.739   3.460   4.326
 9492SOL    HW229376   3.768   3.313   4.390
 9493SOL     OW29377   2.684   5.639   4.761
 9493SOL    HW129378   2.631   5.563   4.723
 9493SOL    HW229379   2.630   5.684   4.832
 9494SOL     OW29380   5.275   2.940   2.489
 9494SOL    HW129381   5.205   2.894   2.434
 9494SOL    HW229382   5.241   3.028   2.520
 9495SOL     OW29383   6.861   1.919   2.925
 9495SOL    HW129384   6.946   1.866   2.924
 9495SOL    HW229385   6.878   2.008   2.968
 9496SOL     OW29386   6.328   3.544   1.618
 9496SOL    HW129387   6.245   3.550   1.564
 9496SOL    HW229388   6.319   3.603   1.699
 9497SOL     OW29389   6.002   7.018   6.358
 9497SOL    HW129390   6.064   6.976   6.292
 9497SOL    HW229391   6.034   0.088   6.381
 9498SOL     OW29392   5.259   6.457   3.993
 9498SOL    HW129393   5.330   6.387   3.987
 9498SOL    HW229394   5.261   6.499   4.084
 9499SOL     OW29395   2.217   4.647   6.301
 9499SOL    HW129396   2.201   4.624   6.205
 9499SOL    HW229397   2.312   4.626   6.325
 9500SOL     OW29398   4.760   0.461   0.963
 9500SOL    HW129399   4.672   0.466   0.916
 9500SOL    HW229400   4.834   0.475   0.897
 9501SOL     OW29401   2.858   1.118   5.455
 9501SOL    HW129402   2.838   1.104   5.551
 9501SOL    HW229403   2.871   1.030   5.410
 9502SOL     OW29404   5.979   2.450   5.322
 9502SOL    HW129405   5.913   2.492   5.260
 9502SOL    HW229406   6.066   2.436   5.273
 9503SOL     OW29407   0.822   1.701   1.148
 9503SOL    HW129408   0.836   1.734   1.241
 9503SOL    HW229409   0.907   1.709   1.096
 9504SOL     OW29410   6.853   3.003   0.291
 9504SOL    HW129411   6.943   3.044   0.282
 9504SOL    HW229412   6.816   3.021   0.382
 9505SOL     OW29413   5.273   4.320   4.243
 9505SOL    HW129414   5.245   4.363   4.157
 9505SOL    HW229415   5.192   4.305   4.300
 9506SOL     OW29416   1.592   2.184   6.443
 9506SOL    HW129417   1.629   2.132   6.520
 9506SOL    HW229418   1.492   2.187   6.450
 9507SOL     OW29419   0.261   0.991   2.573
 9507SOL    HW129420   0.243   0.905   2.525
 9507SOL    HW229421   0.333   1.042   2.524
 9508SOL     OW29422   6.167   1.943   1.366
 9508SOL    HW129423   6.109   1.971   1.442
 9508SOL    HW229424   6.262   1.935   1.397
 9509SOL     OW29425   0.324   0.848   3.520
 9509SOL    HW129426   0.271   0.908   3.460
 9509SOL    HW229427   0.405   0.896   3.554
 9510SOL     OW29428   1.863   3.735   3.433
 9510SOL    HW129429   1.868   3.711   3.336
 9510SOL    HW229430   1.947   3.782   3.460
 9511SOL     OW29431   1.696   6.986   1.252
 9511SOL    HW129432   1.664   6.968   1.159
 9511SOL    HW229433   1.626   6.956   1.317
 9512SOL     OW29434   6.334   1.551   1.441
 9512SOL    HW129435   6.422   1.585   1.408
 9512SOL    HW229436   6.320   1.458   1.406
 9513SOL     OW29437   2.294   3.795   6.281
 9513SOL    HW129438   2.289   3.701   6.315
 9513SOL    HW229439   2.342   3.796   6.194
 9514SOL     OW29440   1.832   5.046   5.672
 9514SOL    HW129441   1.919   5.048   5.623
 9514SOL    HW229442   1.848   5.053   5.770
 9515SOL     OW29443   1.359   5.667   0.616
 9515SOL    HW129444   1.296   5.682   0.692
 9515SOL    HW229445   1.452   5.659   0.650
 9516SOL     OW29446   6.257   5.187   6.778
 9516SOL    HW129447   6.293   5.250   6.846
 9516SOL    HW229448   6.329   5.160   6.715
 9517SOL     OW29449   1.520   4.253   1.179
 9517SOL    HW129450   1.523   4.300   1.090
 9517SOL    HW229451   1.544   4.157   1.166
 9518SOL     OW29452   2.131   1.840   0.496
 9518SOL    HW129453   2.032   1.840   0.501
 9518SOL    HW229454   2.160   1.807   0.406
 9519SOL     OW29455   2.943   3.663   4.631
 9519SOL    HW129456   2.944   3.761   4.610
 9519SOL    HW229457   2.929   3.611   4.546
 9520SOL     OW29458   1.841   2.196   3.274
 9520SOL    HW129459   1.741   2.198   3.278
 9520SOL    HW229460   1.872   2.252   3.197
 9521SOL     OW29461   5.022   5.416   1.967
 9521SOL    HW129462   5.048   5.366   2.049
 9521SOL    HW229463   5.104   5.440   1.915
 9522SOL     OW29464   2.325   5.820   0.971
 9522SOL    HW129465   2.399   5.879   0.939
 9522SOL    HW229466   2.293   5.763   0.894
 9523SOL     OW29467   2.990   5.114   4.946
 9523SOL    HW129468   3.028   5.174   5.016
 9523SOL    HW229469   3.010   5.018   4.969
 9524SOL     OW29470   3.750   2.920   1.542
 9524SOL    HW129471   3.721   2.855   1.472
 9524SOL    HW229472   3.753   3.012   1.504
 9525SOL     OW29473   2.373   3.009   5.709
 9525SOL    HW129474   2.439   3.078   5.682
 9525SOL    HW229475   2.359   3.013   5.808
 9526SOL     OW29476   5.208   5.633   1.780
 9526SOL    HW129477   5.199   5.541   1.740
 9526SOL    HW229478   5.216   5.626   1.879
 9527SOL     OW29479   0.960   0.400   3.313
 9527SOL    HW129480   1.044   0.454   3.319
 9527SOL    HW229481   0.912   0.404   3.401
 9528SOL     OW29482   0.396   1.039   6.935
 9528SOL    HW129483   0.493   1.019   6.952
 9528SOL    HW229484   0.347   0.954   6.916
 9529SOL     OW29485   6.140   2.903   5.035
 9529SOL    HW129486   6.231   2.941   5.024
 9529SOL    HW229487   6.074   2.961   4.986
 9530SOL     OW29488   1.767   3.706   2.251
 9530SOL    HW129489   1.758   3.609   2.228
 9530SOL    HW229490   1.811   3.754   2.175
 9531SOL     OW29491   5.071   5.534   3.182
 9531SOL    HW129492   4.997   5.587   3.141
 9531SOL    HW229493   5.155   5.545   3.129
 9532SOL     OW29494   0.535   7.013   2.164
 9532SOL    HW129495   0.585   6.947   2.220
 9532SOL    HW229496   0.509   0.070   2.221
 9533SOL     OW29497   6.708   6.798   5.318
 9533SOL    HW129498   6.610   6.808   5.301
 9533SOL    HW229499   6.746   6.730   5.256
 9534SOL     OW29500   6.517   3.083   5.360
 9534SOL    HW129501   6.573   3.146   5.413
 9534SOL    HW229502   6.538   3.094   5.262
 9535SOL     OW29503   2.849   1.788   5.611
 9535SOL    HW129504   2.896   1.777   5.524
 9535SOL    HW229505   2.757   1.824   5.595
 9536SOL     OW29506   2.727   4.653   5.416
 9536SOL    HW129507   2.799   4.607   5.364
 9536SOL    HW229508   2.637   4.625   5.380
 9537SOL     OW29509   2.653   6.247   2.871
 9537SOL    HW129510   2.728   6.233   2.935
 9537SOL    HW229511   2.690   6.264   2.780
 9538SOL     OW29512   6.200   2.056   3.655
 9538SOL    HW129513   6.293   2.084   3.677
 9538SOL    HW229514   6.200   2.002   3.571
 9539SOL     OW29515   2.086   3.754   5.330
 9539SOL    HW129516   2.178   3.720   5.347
 9539SOL    HW229517   2.080   3.790   5.237
 9540SOL     OW29518   5.478   4.156   4.247
 9540SOL    HW129519   5.448   4.096   4.173
 9540SOL    HW229520   5.416   4.233   4.255
 9541SOL     OW29521   3.225   1.895   5.936
 9541SOL    HW129522   3.291   1.895   5.861
 9541SOL    HW229523   3.133   1.880   5.901
 9542SOL     OW29524   5.274   4.021   4.669
 9542SOL    HW129525   5.321   3.975   4.745
 9542SOL    HW229526   5.340   4.075   4.617
 9543SOL     OW29527   3.393   1.074   4.906
 9543SOL    HW129528   3.448   1.158   4.897
 9543SOL    HW229529   3.303   1.089   4.866
 9544SOL     OW29530   0.310   1.260   3.362
 9544SOL    HW129531   0.269   1.169   3.350
 9544SOL    HW229532   0.408   1.255   3.339
 9545SOL     OW29533   6.109   5.348   3.794
 9545SOL    HW129534   6.034   5.284   3.775
 9545SOL    HW229535   6.091   5.435   3.749
 9546SOL     OW29536   3.090   2.764   5.799
 9546SOL    HW129537   3.102   2.864   5.796
 9546SOL    HW229538   3.158   2.725   5.862
 9547SOL     OW29539   2.149   6.085   3.975
 9547SOL    HW129540   2.091   6.017   3.930
 9547SOL    HW229541   2.099   6.171   3.984
 9548SOL     OW29542   5.571   6.393   5.287
 9548SOL    HW129543   5.495   6.440   5.241
 9548SOL    HW229544   5.534   6.321   5.346
 9549SOL     OW29545   2.895   3.405   1.447
 9549SOL    HW129546   2.961   3.350   1.396
 9549SOL    HW229547   2.822   3.345   1.482
 9550SOL     OW29548   0.358   1.276   0.546
 9550SOL    HW129549   0.302   1.348   0.507
 9550SOL    HW229550   0.443   1.267   0.494
 9551SOL     OW29551   6.379   0.995   3.932
 9551SOL    HW129552   6.377   0.896   3.921
 9551SOL    HW229553   6.426   1.018   4.017
 9552SOL     OW29554   1.087   6.341   2.288
 9552SOL    HW129555   1.145   6.268   2.323
 9552SOL    HW229556   1.094   6.344   2.188
 9553SOL     OW29557   6.022   4.067   6.952
 9553SOL    HW129558   5.964   4.123   6.892
 9553SOL    HW229559   6.044   4.119   0.013
 9554SOL     OW29560   2.370   0.524   1.840
 9554SOL    HW129561   2.437   0.559   1.775
 9554SOL    HW229562   2.409   0.525   1.932
 9555SOL     OW29563   0.945   1.145   1.874
 9555SOL    HW129564   0.944   1.087   1.792
 9555SOL    HW229565   0.962   1.088   1.955
 9556SOL     OW29566   2.390   2.482   1.458
 9556SOL    HW129567   2.415   2.482   1.361
 9556SOL    HW229568   2.465   2.522   1.511
 9557SOL     OW29569   6.963   0.554   2.527
 9557SOL    HW129570   0.038   0.562   2.552
 9557SOL    HW229571   6.915   0.500   2.596
 9558SOL     OW29572   6.305   5.944   4.434
 9558SOL    HW129573   6.243   5.882   4.385
 9558SOL    HW229574   6.359   5.892   4.500
 9559SOL     OW29575   0.215   3.795   1.462
 9559SOL    HW129576   0.205   3.733   1.540
 9559SOL    HW229577   0.190   3.888   1.489
 9560SOL     OW29578   1.438   1.429   2.818
 9560SOL    HW129579   1.345   1.465   2.821
 9560SOL    HW229580   1.446   1.365   2.741
 9561SOL     OW29581   1.110   6.425   0.160
 9561SOL    HW129582   1.069   6.368   0.230
 9561SOL    HW229583   1.060   6.413   0.074
 9562SOL     OW29584   3.329   0.071   5.037
 9562SOL    HW129585   3.368   0.071   5.129
 9562SOL    HW229586   3.398   0.040   4.972
 9563SOL     OW29587   6.537   6.783   0.150
 9563SOL    HW129588   6.624   6.793   0.197
 9563SOL    HW229589   6.464   6.774   0.218
 9564SOL     OW29590   2.587   6.992   6.723
 9564SOL    HW129591   2.658   6.922   6.727
 9564SOL    HW229592   2.548   7.005   6.814
 9565SOL     OW29593   3.774   6.292   5.373
 9565SOL    HW129594   3.769   6.350   5.454
 9565SOL    HW229595   3.869   6.287   5.341
 9566SOL     OW29596   2.825   5.214   6.532
 9566SOL    HW129597   2.885   5.271   6.475
 9566SOL    HW229598   2.733   5.253   6.534
 9567SOL     OW29599   6.449   4.521   6.660
 9567SOL    HW129600   6.386   4.596   6.643
 9567SOL    HW229601   6.529   4.530   6.601
 9568SOL     OW29602   4.960   2.574   7.011
 9568SOL    HW129603   4.883   2.547   0.046
 9568SOL    HW229604   4.931   2.577   6.915
 9569SOL     OW29605   0.213   0.496   2.618
 9569SOL    HW129606   0.217   0.402   2.649
 9569SOL    HW229607   0.237   0.558   2.693
 9570SOL     OW29608   1.272   2.375   2.117
 9570SOL    HW129609   1.370   2.394   2.125
 9570SOL    HW229610   1.220   2.452   2.154
 9571SOL     OW29611   2.807   3.932   6.914
 9571SOL    HW129612   2.760   3.996   6.973
 9571SOL    HW229613   2.764   3.842   6.921
 9572SOL     OW29614   1.420   5.281   1.046
 9572SOL    HW129615   1.331   5.313   1.078
 9572SOL    HW229616   1.490   5.349   1.068
 9573SOL     OW29617   0.739   1.670   6.369
 9573SOL    HW129618   0.712   1.579   6.401
 9573SOL    HW229619   0.836   1.669   6.345
 9574SOL     OW29620   3.968   3.118   4.145
 9574SOL    HW129621   3.931   3.075   4.228
 9574SOL    HW229622   3.945   3.062   4.065
 9575SOL     OW29623   5.724   0.623   1.020
 9575SOL    HW129624   5.759   0.563   1.092
 9575SOL    HW229625   5.763   0.596   0.932
 9576SOL     OW29626   3.256   0.585   2.554
 9576SOL    HW129627   3.213   0.605   2.642
 9576SOL    HW229628   3.211   0.507   2.511
 9577SOL     OW29629   1.171   1.047   3.738
 9577SOL    HW129630   1.260   1.001   3.747
 9577SOL    HW229631   1.186   1.139   3.702
 9578SOL     OW29632   6.799   3.428   3.541
 9578SOL    HW129633   6.854   3.458   3.464
 9578SOL    HW229634   6.848   3.448   3.626
 9579SOL     OW29635   1.934   5.236   3.051
 9579SOL    HW129636   1.872   5.251   3.128
 9579SOL    HW229637   2.027   5.223   3.086
 9580SOL     OW29638   4.629   2.967   1.002
 9580SOL    HW129639   4.564   2.961   0.926
 9580SOL    HW229640   4.579   2.971   1.089
 9581SOL     OW29641   1.100   5.286   6.461
 9581SOL    HW129642   1.100   5.363   6.524
 9581SOL    HW229643   1.029   5.221   6.488
 9582SOL     OW29644   4.329   4.734   4.811
 9582SOL    HW129645   4.305   4.653   4.865
 9582SOL    HW229646   4.295   4.816   4.857
 9583SOL     OW29647   2.876   3.226   1.058
 9583SOL    HW129648   2.873   3.140   1.109
 9583SOL    HW229649   2.946   3.285   1.097
 9584SOL     OW29650   6.246   6.479   0.088
 9584SOL    HW129651   6.197   6.499   0.004
 9584SOL    HW229652   6.200   6.404   0.136
 9585SOL     OW29653   6.851   1.126   2.868
 9585SOL    HW129654   6.943   1.155   2.896
 9585SOL    HW229655   6.789   1.131   2.946
 9586SOL     OW29656   6.382   4.008   2.266
 9586SOL    HW129657   6.417   4.057   2.186
 9586SOL    HW229658   6.287   4.034   2.283
 9587SOL     OW29659   6.036   0.471   2.225
 9587SOL    HW129660   5.964   0.530   2.188
 9587SOL    HW229661   6.097   0.525   2.284
 9588SOL     OW29662   0.665   1.820   2.165
 9588SOL    HW129663   0.657   1.919   2.154
 9588SOL    HW229664   0.761   1.796   2.181
 9589SOL     OW29665   2.695   5.528   6.234
 9589SOL    HW129666   2.611   5.518   6.287
 9589SOL    HW229667   2.761   5.583   6.287
 9590SOL     OW29668   0.327   5.220   2.647
 9590SOL    HW129669   0.254   5.252   2.707
 9590SOL    HW229670   0.347   5.124   2.668
 9591SOL     OW29671   3.093   5.995   6.866
 9591SOL    HW129672   3.122   5.919   6.924
 9591SOL    HW229673   3.035   6.057   6.919
 9592SOL     OW29674   3.857   5.114   1.692
 9592SOL    HW129675   3.904   5.183   1.638
 9592SOL    HW229676   3.769   5.092   1.649
 9593SOL     OW29677   6.049   1.240   4.676
 9593SOL    HW129678   6.116   1.314   4.667
 9593SOL    HW229679   5.970   1.273   4.728
 9594SOL     OW29680   0.408   6.134   3.376
 9594SOL    HW129681   0.472   6.075   3.326
 9594SOL    HW229682   0.317   6.092   3.375
 9595SOL     OW29683   1.964   4.133   4.262
 9595SOL    HW129684   1.877   4.087   4.244
 9595SOL    HW229685   1.951   4.232   4.258
 9596SOL     OW29686   0.093   5.521   0.532
 9596SOL    HW129687   0.042   5.436   0.545
 9596SOL    HW229688   0.037   5.599   0.561
 9597SOL     OW29689   6.928   4.144   0.938
 9597SOL    HW129690   6.983   4.093   1.005
 9597SOL    HW229691   6.857   4.084   0.901
 9598SOL     OW29692   0.445   3.761   5.027
 9598SOL    HW129693   0.359   3.711   5.024
 9598SOL    HW229694   0.519   3.699   5.053
 9599SOL     OW29695   3.105   0.682   4.888
 9599SOL    HW129696   3.015   0.671   4.930
 9599SOL    HW229697   3.096   0.724   4.798
 9600SOL     OW29698   2.289   6.865   5.926
 9600SOL    HW129699   2.250   6.934   5.865
 9600SOL    HW229700   2.219   6.835   5.991
 9601SOL     OW29701   6.246   3.985   6.811
 9601SOL    HW129702   6.296   4.049   6.753
 9601SOL    HW229703   6.170   4.033   6.855
 9602SOL     OW29704   6.461   4.792   6.374
 9602SOL    HW129705   6.428   4.702   6.349
 9602SOL    HW229706   6.384   4.854   6.389
 9603SOL     OW29707   2.674   0.200   4.274
 9603SOL    HW129708   2.677   0.291   4.314
 9603SOL    HW229709   2.753   0.187   4.214
 9604SOL     OW29710   5.083   0.230   0.748
 9604SOL    HW129711   5.032   0.146   0.730
 9604SOL    HW229712   5.144   0.250   0.671
 9605SOL     OW29713   0.082   4.732   5.491
 9605SOL    HW129714   0.159   4.722   5.554
 9605SOL    HW229715   0.112   4.709   5.399
 9606SOL     OW29716   1.226   6.614   4.614
 9606SOL    HW129717   1.134   6.605   4.654
 9606SOL    HW229718   1.276   6.528   4.624
 9607SOL     OW29719   1.171   2.087   1.929
 9607SOL    HW129720   1.246   2.040   1.881
 9607SOL    HW229721   1.190   2.185   1.933
 9608SOL     OW29722   0.377   6.671   2.550
 9608SOL    HW129723   0.345   6.610   2.623
 9608SOL    HW229724   0.466   6.708   2.574
 9609SOL     OW29725   1.466   4.129   4.856
 9609SOL    HW129726   1.445   4.035   4.885
 9609SOL    HW229727   1.561   4.134   4.826
 9610SOL     OW29728   1.415   3.865   4.933
 9610SOL    HW129729   1.376   3.780   4.898
 9610SOL    HW229730   1.368   3.891   5.018
 9611SOL     OW29731   0.490   6.375   1.369
 9611SOL    HW129732   0.446   6.286   1.377
 9611SOL    HW229733   0.444   6.429   1.298
 9612SOL     OW29734   6.128   2.995   1.291
 9612SOL    HW129735   6.141   2.981   1.389
 9612SOL    HW229736   6.032   3.014   1.273
 9613SOL     OW29737   5.132   5.718   3.784
 9613SOL    HW129738   5.076   5.774   3.844
 9613SOL    HW229739   5.072   5.659   3.729
 9614SOL     OW29740   3.974   3.820   1.315
 9614SOL    HW129741   4.029   3.761   1.256
 9614SOL    HW229742   3.953   3.905   1.267
 9615SOL     OW29743   1.467   6.627   2.313
 9615SOL    HW129744   1.425   6.583   2.392
 9615SOL    HW229745   1.397   6.676   2.261
 9616SOL     OW29746   4.005   3.880   0.546
 9616SOL    HW129747   4.092   3.831   0.550
 9616SOL    HW229748   4.023   3.978   0.536
 9617SOL     OW29749   0.987   4.131   4.294
 9617SOL    HW129750   1.005   4.125   4.392
 9617SOL    HW229751   0.924   4.058   4.267
 9618SOL     OW29752   3.796   6.863   6.276
 9618SOL    HW129753   3.809   6.839   6.372
 9618SOL    HW229754   3.738   6.944   6.270
 9619SOL     OW29755   1.340   0.085   0.751
 9619SOL    HW129756   1.319   0.079   0.654
 9619SOL    HW229757   1.326   7.018   0.794
 9620SOL     OW29758   5.121   1.746   6.752
 9620SOL    HW129759   5.117   1.836   6.708
 9620SOL    HW229760   5.090   1.677   6.687
 9621SOL     OW29761   1.452   1.276   2.616
 9621SOL    HW129762   1.431   1.179   2.627
 9621SOL    HW229763   1.443   1.302   2.520
 9622SOL     OW29764   5.833   1.522   6.869
 9622SOL    HW129765   5.800   1.515   6.775
 9622SOL    HW229766   5.767   1.478   6.931
 9623SOL     OW29767   4.282   5.475   5.936
 9623SOL    HW129768   4.320   5.535   6.006
 9623SOL    HW229769   4.190   5.507   5.911
 9624SOL     OW29770   5.230   4.087   5.005
 9624SOL    HW129771   5.321   4.088   4.963
 9624SOL    HW229772   5.187   3.998   4.989
 9625SOL     OW29773   4.956   4.350   6.884
 9625SOL    HW129774   4.932   4.423   6.948
 9625SOL    HW229775   4.960   4.387   6.791
 9626SOL     OW29776   2.402   5.923   5.480
 9626SOL    HW129777   2.497   5.896   5.497
 9626SOL    HW229778   2.388   5.937   5.382
 9627SOL     OW29779   0.383   4.180   4.728
 9627SOL    HW129780   0.433   4.217   4.806
 9627SOL    HW229781   0.408   4.231   4.646
 9628SOL     OW29782   6.215   3.701   1.161
 9628SOL    HW129783   6.179   3.776   1.106
 9628SOL    HW229784   6.315   3.698   1.153
 9629SOL     OW29785   6.648   6.032   3.184
 9629SOL    HW129786   6.558   6.002   3.151
 9629SOL    HW229787   6.716   6.019   3.111
 9630SOL     OW29788   6.192   6.092   5.548
 9630SOL    HW129789   6.280   6.085   5.596
 9630SOL    HW229790   6.202   6.151   5.468
 9631SOL     OW29791   4.400   1.944   0.835
 9631SOL    HW129792   4.323   1.880   0.841
 9631SOL    HW229793   4.401   1.987   0.745
 9632SOL     OW29794   2.024   5.355   2.284
 9632SOL    HW129795   2.123   5.337   2.286
 9632SOL    HW229796   1.988   5.352   2.377
 9633SOL     OW29797   3.716   4.156   0.167
 9633SOL    HW129798   3.761   4.205   0.241
 9633SOL    HW229799   3.784   4.129   0.098
 9634SOL     OW29800   6.584   5.601   3.330
 9634SOL    HW129801   6.610   5.689   3.370
 9634SOL    HW229802   6.666   5.544   3.320
 9635SOL     OW29803   1.150   4.214   5.629
 9635SOL    HW129804   1.109   4.150   5.694
 9635SOL    HW229805   1.149   4.174   5.538
 9636SOL     OW29806   3.775   1.588   5.920
 9636SOL    HW129807   3.688   1.575   5.872
 9636SOL    HW229808   3.822   1.500   5.929
 9637SOL     OW29809   3.784   3.176   1.433
 9637SOL    HW129810   3.791   3.121   1.350
 9637SOL    HW229811   3.843   3.257   1.424
 9638SOL     OW29812   6.777   3.147   5.907
 9638SOL    HW129813   6.875   3.128   5.909
 9638SOL    HW229814   6.761   3.240   5.940
 9639SOL     OW29815   4.231   2.361   1.867
 9639SOL    HW129816   4.231   2.342   1.965
 9639SOL    HW229817   4.137   2.357   1.833
 9640SOL     OW29818   3.084   0.254   2.316
 9640SOL    HW129819   3.163   0.257   2.377
 9640SOL    HW229820   3.037   0.167   2.328
 9641SOL     OW29821   5.731   5.927   2.109
 9641SOL    HW129822   5.651   5.980   2.083
 9641SOL    HW229823   5.803   5.939   2.040
 9642SOL     OW29824   1.461   6.205   4.332
 9642SOL    HW129825   1.408   6.167   4.256
 9642SOL    HW229826   1.425   6.170   4.418
 9643SOL     OW29827   5.157   3.961   3.658
 9643SOL    HW129828   5.132   3.900   3.582
 9643SOL    HW229829   5.239   4.012   3.634
 9644SOL     OW29830   1.765   5.702   5.737
 9644SOL    HW129831   1.750   5.744   5.647
 9644SOL    HW229832   1.783   5.604   5.725
 9645SOL     OW29833   2.505   4.548   4.796
 9645SOL    HW129834   2.518   4.594   4.884
 9645SOL    HW229835   2.523   4.450   4.807
 9646SOL     OW29836   2.667   5.204   1.885
 9646SOL    HW129837   2.606   5.180   1.960
 9646SOL    HW229838   2.746   5.143   1.884
 9647SOL     OW29839   0.154   0.145   3.460
 9647SOL    HW129840   0.249   0.138   3.490
 9647SOL    HW229841   0.113   0.054   3.454
 9648SOL     OW29842   4.552   2.564   0.952
 9648SOL    HW129843   4.522   2.490   1.013
 9648SOL    HW229844   4.480   2.633   0.945
 9649SOL     OW29845   2.434   4.171   6.923
 9649SOL    HW129846   2.387   4.085   6.904
 9649SOL    HW229847   2.506   4.156   6.991
 9650SOL     OW29848   4.622   4.516   2.691
 9650SOL    HW129849   4.532   4.557   2.674
 9650SOL    HW229850   4.610   4.426   2.732
 9651SOL     OW29851   4.622   1.347   1.067
 9651SOL    HW129852   4.635   1.412   1.142
 9651SOL    HW229853   4.683   1.371   0.991
 9652SOL     OW29854   1.117   4.858   1.499
 9652SOL    HW129855   1.181   4.827   1.568
 9652SOL    HW229856   1.160   4.930   1.443
 9653SOL     OW29857   4.715   4.825   4.938
 9653SOL    HW129858   4.658   4.748   4.967
 9653SOL    HW229859   4.811   4.796   4.933
 9654SOL     OW29860   3.070   3.348   3.066
 9654SOL    HW129861   3.008   3.326   2.990
 9654SOL    HW229862   3.035   3.306   3.150
 9655SOL     OW29863   0.064   1.860   0.415
 9655SOL    HW129864   0.028   1.819   0.331
 9655SOL    HW229865   0.046   1.959   0.415
 9656SOL     OW29866   4.460   2.932   1.210
 9656SOL    HW129867   4.438   2.835   1.203
 9656SOL    HW229868   4.472   2.956   1.307
 9657SOL     OW29869   5.990   3.977   2.563
 9657SOL    HW129870   5.899   3.990   2.525
 9657SOL    HW229871   5.984   3.968   2.663
 9658SOL     OW29872   5.581   1.455   2.168
 9658SOL    HW129873   5.537   1.378   2.122
 9658SOL    HW229874   5.552   1.457   2.264
 9659SOL     OW29875   1.090   2.828   0.059
 9659SOL    HW129876   1.176   2.869   0.089
 9659SOL    HW229877   1.074   2.742   0.106
 9660SOL     OW29878   0.835   6.929   2.778
 9660SOL    HW129879   0.764   6.910   2.711
 9660SOL    HW229880   0.831   6.862   2.852
 9661SOL     OW29881   3.752   6.270   1.444
 9661SOL    HW129882   3.696   6.188   1.438
 9661SOL    HW229883   3.744   6.310   1.535
 9662SOL     OW29884   5.428   3.893   6.980
 9662SOL    HW129885   5.367   3.874   6.904
 9662SOL    HW229886   5.468   3.808   7.013
 9663SOL     OW29887   0.398   6.036   2.749
 9663SOL    HW129888   0.403   6.123   2.701
 9663SOL    HW229889   0.436   5.964   2.692
 9664SOL     OW29890   5.507   4.854   4.100
 9664SOL    HW129891   5.551   4.872   4.188
 9664SOL    HW229892   5.453   4.935   4.073
 9665SOL     OW29893   5.828   6.766   6.126
 9665SOL    HW129894   5.911   6.717   6.151
 9665SOL    HW229895   5.852   6.849   6.076
 9666SOL     OW29896   6.436   3.716   2.184
 9666SOL    HW129897   6.411   3.807   2.217
 9666SOL    HW229898   6.354   3.666   2.155
 9667SOL     OW29899   4.018   3.702   0.099
 9667SOL    HW129900   4.008   3.640   0.177
 9667SOL    HW229901   3.950   3.678   0.030
 9668SOL     OW29902   0.914   0.539   6.306
 9668SOL    HW129903   0.898   0.604   6.380
 9668SOL    HW229904   0.964   0.461   6.341
 9669SOL     OW29905   2.259   6.999   1.791
 9669SOL    HW129906   2.290   0.070   1.814
 9669SOL    HW229907   2.163   6.989   1.819
 9670SOL     OW29908   0.111   5.061   5.789
 9670SOL    HW129909   0.122   4.986   5.724
 9670SOL    HW229910   0.172   5.048   5.866
 9671SOL     OW29911   6.820   4.130   0.214
 9671SOL    HW129912   6.823   4.085   0.125
 9671SOL    HW229913   6.892   4.094   0.272
 9672SOL     OW29914   2.142   4.772   3.359
 9672SOL    HW129915   2.118   4.741   3.450
 9672SOL    HW229916   2.242   4.769   3.348
 9673SOL     OW29917   3.406   3.421   0.613
 9673SOL    HW129918   3.495   3.393   0.648
 9673SOL    HW229919   3.337   3.352   0.637
 9674SOL     OW29920   4.149   6.413   3.378
 9674SOL    HW129921   4.211   6.363   3.439
 9674SOL    HW229922   4.155   6.511   3.398
 9675SOL     OW29923   5.050   2.291   6.585
 9675SOL    HW129924   5.143   2.286   6.547
 9675SOL    HW229925   5.055   2.298   6.685
 9676SOL     OW29926   1.607   3.176   6.074
 9676SOL    HW129927   1.599   3.080   6.050
 9676SOL    HW229928   1.684   3.217   6.025
 9677SOL     OW29929   6.282   4.840   4.816
 9677SOL    HW129930   6.307   4.904   4.744
 9677SOL    HW229931   6.313   4.875   4.904
 9678SOL     OW29932   2.925   3.321   4.096
 9678SOL    HW129933   2.890   3.405   4.055
 9678SOL    HW229934   3.018   3.304   4.062
 9679SOL     OW29935   2.274   0.470   3.694
 9679SOL    HW129936   2.219   0.433   3.619
 9679SOL    HW229937   2.316   0.395   3.745
 9680SOL     OW29938   4.362   0.204   4.339
 9680SOL    HW129939   4.370   0.159   4.428
 9680SOL    HW229940   4.385   0.139   4.267
 9681SOL     OW29941   2.468   2.392   0.753
 9681SOL    HW129942   2.482   2.370   0.849
 9681SOL    HW229943   2.554   2.422   0.713
 9682SOL     OW29944   4.639   4.209   3.850
 9682SOL    HW129945   4.602   4.229   3.759
 9682SOL    HW229946   4.676   4.116   3.851
 9683SOL     OW29947   3.259   6.579   1.486
 9683SOL    HW129948   3.332   6.524   1.446
 9683SOL    HW229949   3.206   6.623   1.413
 9684SOL     OW29950   0.962   3.364   5.575
 9684SOL    HW129951   1.038   3.309   5.540
 9684SOL    HW229952   0.997   3.450   5.612
 9685SOL     OW29953   5.024   3.835   1.038
 9685SOL    HW129954   5.007   3.860   1.134
 9685SOL    HW229955   4.945   3.862   0.982
 9686SOL     OW29956   0.490   2.989   5.871
 9686SOL    HW129957   0.410   2.943   5.834
 9686SOL    HW229958   0.463   3.075   5.913
 9687SOL     OW29959   0.559   0.889   3.649
 9687SOL    HW129960   0.475   0.878   3.701
 9687SOL    HW229961   0.635   0.847   3.698
 9688SOL     OW29962   1.028   2.734   0.783
 9688SOL    HW129963   1.058   2.782   0.701
 9688SOL    HW229964   0.957   2.787   0.829
 9689SOL     OW29965   1.380   4.635   6.555
 9689SOL    HW129966   1.338   4.565   6.613
 9689SOL    HW229967   1.332   4.722   6.568
 9690SOL     OW29968   5.820   6.321   6.351
 9690SOL    HW129969   5.778   6.389   6.290
 9690SOL    HW229970   5.915   6.307   6.324
 9691SOL     OW29971   2.760   4.074   1.409
 9691SOL    HW129972   2.670   4.111   1.385
 9691SOL    HW229973   2.778   4.092   1.506
 9692SOL     OW29974   4.128   6.280   1.472
 9692SOL    HW129975   4.069   6.203   1.497
 9692SOL    HW229976   4.099   6.317   1.384
 9693SOL     OW29977   6.020   4.246   2.551
 9693SOL    HW129978   6.038   4.240   2.453
 9693SOL    HW229979   6.034   4.157   2.593
 9694SOL     OW29980   3.144   1.432   1.525
 9694SOL    HW129981   3.230   1.391   1.493
 9694SOL    HW229982   3.109   1.378   1.602
 9695SOL     OW29983   0.016   2.794   3.168
 9695SOL    HW129984   0.001   2.811   3.266
 9695SOL    HW229985   7.018   2.877   3.117
 9696SOL     OW29986   5.415   2.803   1.248
 9696SOL    HW129987   5.430   2.846   1.160
 9696SOL    HW229988   5.321   2.818   1.277
 9697SOL     OW29989   0.603   5.456   6.954
 9697SOL    HW129990   0.614   5.541   7.005
 9697SOL    HW229991   0.612   5.379   7.017
 9698SOL     OW29992   5.652   2.202   6.203
 9698SOL    HW129993   5.695   2.213   6.113
 9698SOL    HW229994   5.654   2.106   6.229
 9699SOL     OW29995   6.547   5.697   6.796
 9699SOL    HW129996   6.587   5.605   6.796
 9699SOL    HW229997   6.475   5.702   6.726
 9700SOL     OW29998   5.856   5.099   5.188
 9700SOL    HW129999   5.809   5.162   5.250
 9700SOL    HW230000   5.802   5.086   5.105
 9701SOL     OW30001   4.704   4.507   5.544
 9701SOL    HW130002   4.787   4.493   5.490
 9701SOL    HW230003   4.661   4.419   5.564
 9702SOL     OW30004   3.405   2.295   0.035
 9702SOL    HW130005   3.311   2.270   0.012
 9702SOL    HW230006   3.441   2.231   0.103
 9703SOL     OW30007   4.961   3.728   3.656
 9703SOL    HW130008   4.997   3.712   3.564
 9703SOL    HW230009   4.981   3.649   3.713
 9704SOL     OW30010   3.266   6.483   1.141
 9704SOL    HW130011   3.237   6.393   1.174
 9704SOL    HW230012   3.234   6.495   1.047
 9705SOL     OW30013   5.479   4.172   6.215
 9705SOL    HW130014   5.452   4.267   6.194
 9705SOL    HW230015   5.449   4.112   6.141
 9706SOL     OW30016   2.262   2.514   1.076
 9706SOL    HW130017   2.263   2.537   0.978
 9706SOL    HW230018   2.187   2.450   1.094
 9707SOL     OW30019   6.555   4.662   2.555
 9707SOL    HW130020   6.492   4.595   2.593
 9707SOL    HW230021   6.503   4.739   2.518
 9708SOL     OW30022   0.596   1.425   3.514
 9708SOL    HW130023   0.506   1.410   3.556
 9708SOL    HW230024   0.658   1.352   3.541
 9709SOL     OW30025   5.496   6.173   2.566
 9709SOL    HW130026   5.505   6.080   2.532
 9709SOL    HW230027   5.587   6.215   2.572
 9710SOL     OW30028   6.525   1.336   1.233
 9710SOL    HW130029   6.432   1.340   1.271
 9710SOL    HW230030   6.539   1.414   1.172
 9711SOL     OW30031   3.469   5.374   5.411
 9711SOL    HW130032   3.566   5.381   5.384
 9711SOL    HW230033   3.451   5.282   5.446
 9712SOL     OW30034   5.496   3.841   6.540
 9712SOL    HW130035   5.590   3.812   6.558
 9712SOL    HW230036   5.477   3.925   6.590
 9713SOL     OW30037   2.072   4.383   3.365
 9713SOL    HW130038   2.143   4.321   3.398
 9713SOL    HW230039   2.041   4.441   3.440
 9714SOL     OW30040   4.366   6.614   6.531
 9714SOL    HW130041   4.437   6.676   6.563
 9714SOL    HW230042   4.396   6.570   6.446
 9715SOL     OW30043   5.870   4.159   0.291
 9715SOL    HW130044   5.947   4.169   0.228
 9715SOL    HW230045   5.794   4.215   0.260
 9716SOL     OW30046   3.469   4.689   6.868
 9716SOL    HW130047   3.505   4.644   6.950
 9716SOL    HW230048   3.373   4.664   6.856
 9717SOL     OW30049   5.186   6.640   5.983
 9717SOL    HW130050   5.235   6.703   5.923
 9717SOL    HW230051   5.245   6.563   6.005
 9718SOL     OW30052   5.306   3.448   0.604
 9718SOL    HW130053   5.244   3.525   0.588
 9718SOL    HW230054   5.253   3.363   0.610
 9719SOL     OW30055   6.144   1.088   5.602
 9719SOL    HW130056   6.090   1.146   5.663
 9719SOL    HW230057   6.204   1.146   5.547
 9720SOL     OW30058   1.152   4.263   2.249
 9720SOL    HW130059   1.087   4.331   2.284
 9720SOL    HW230060   1.117   4.171   2.268
 9721SOL     OW30061   0.376   1.662   0.532
 9721SOL    HW130062   0.305   1.621   0.589
 9721SOL    HW230063   0.464   1.654   0.578
 9722SOL     OW30064   3.881   1.614   5.107
 9722SOL    HW130065   3.793   1.658   5.125
 9722SOL    HW230066   3.922   1.655   5.025
 9723SOL     OW30067   3.904   6.370   3.494
 9723SOL    HW130068   3.868   6.459   3.468
 9723SOL    HW230069   3.996   6.358   3.456
 9724SOL     OW30070   2.056   5.232   6.800
 9724SOL    HW130071   2.022   5.140   6.781
 9724SOL    HW230072   2.127   5.255   6.734
 9725SOL     OW30073   4.705   6.051   6.182
 9725SOL    HW130074   4.627   6.083   6.128
 9725SOL    HW230075   4.784   6.036   6.121
 9726SOL     OW30076   4.870   1.356   3.680
 9726SOL    HW130077   4.814   1.407   3.746
 9726SOL    HW230078   4.822   1.351   3.592
 9727SOL     OW30079   1.108   2.459   6.858
 9727SOL    HW130080   1.021   2.416   6.884
 9727SOL    HW230081   1.154   2.493   6.939
 9728SOL     OW30082   0.766   0.830   5.439
 9728SOL    HW130083   0.714   0.893   5.497
 9728SOL    HW230084   0.708   0.797   5.364
 9729SOL     OW30085   0.969   4.090   3.471
 9729SOL    HW130086   0.886   4.128   3.513
 9729SOL    HW230087   1.049   4.139   3.505
 9730SOL     OW30088   1.873   4.754   2.863
 9730SOL    HW130089   1.903   4.678   2.920
 9730SOL    HW230090   1.921   4.837   2.891
 9731SOL     OW30091   5.159   5.444   1.466
 9731SOL    HW130092   5.209   5.521   1.425
 9731SOL    HW230093   5.199   5.421   1.554
 9732SOL     OW30094   0.638   4.659   2.439
 9732SOL    HW130095   0.651   4.758   2.448
 9732SOL    HW230096   0.709   4.611   2.490
 9733SOL     OW30097   5.111   5.221   0.526
 9733SOL    HW130098   5.021   5.182   0.508
 9733SOL    HW230099   5.106   5.321   0.520
 9734SOL     OW30100   6.925   0.776   0.652
 9734SOL    HW130101   6.983   0.842   0.700
 9734SOL    HW230102   6.943   0.684   0.687
 9735SOL     OW30103   2.039   3.607   3.228
 9735SOL    HW130104   2.086   3.683   3.183
 9735SOL    HW230105   2.092   3.523   3.217
 9736SOL     OW30106   5.939   1.291   5.692
 9736SOL    HW130107   5.877   1.327   5.623
 9736SOL    HW230108   5.887   1.233   5.755
 9737SOL     OW30109   4.974   2.048   3.164
 9737SOL    HW130110   5.038   1.974   3.183
 9737SOL    HW230111   4.897   2.013   3.110
 9738SOL     OW30112   2.543   0.092   0.379
 9738SOL    HW130113   2.598   0.009   0.371
 9738SOL    HW230114   2.446   0.068   0.383
 9739SOL     OW30115   4.768   5.912   0.867
 9739SOL    HW130116   4.780   5.998   0.917
 9739SOL    HW230117   4.848   5.897   0.809
 9740SOL     OW30118   0.229   1.498   3.501
 9740SOL    HW130119   0.266   1.418   3.455
 9740SOL    HW230120   0.155   1.538   3.446
 9741SOL     OW30121   2.955   1.683   2.394
 9741SOL    HW130122   2.856   1.695   2.383
 9741SOL    HW230123   3.002   1.750   2.336
 9742SOL     OW30124   3.781   1.056   0.211
 9742SOL    HW130125   3.839   1.119   0.261
 9742SOL    HW230126   3.694   1.100   0.188
 9743SOL     OW30127   6.799   3.616   4.062
 9743SOL    HW130128   6.867   3.555   4.104
 9743SOL    HW230129   6.829   3.711   4.071
 9744SOL     OW30130   1.251   6.741   1.797
 9744SOL    HW130131   1.240   6.840   1.792
 9744SOL    HW230132   1.161   6.697   1.789
 9745SOL     OW30133   4.819   2.404   6.494
 9745SOL    HW130134   4.740   2.352   6.527
 9745SOL    HW230135   4.903   2.356   6.519
 9746SOL     OW30136   5.995   0.580   5.968
 9746SOL    HW130137   5.928   0.512   5.996
 9746SOL    HW230138   6.058   0.598   6.044
 9747SOL     OW30139   2.741   1.922   1.792
 9747SOL    HW130140   2.804   1.951   1.720
 9747SOL    HW230141   2.716   2.001   1.849
 9748SOL     OW30142   6.597   6.627   3.642
 9748SOL    HW130143   6.635   6.556   3.701
 9748SOL    HW230144   6.507   6.654   3.676
 9749SOL     OW30145   1.859   0.414   4.290
 9749SOL    HW130146   1.901   0.448   4.206
 9749SOL    HW230147   1.759   0.422   4.282
 9750SOL     OW30148   5.578   5.126   3.010
 9750SOL    HW130149   5.655   5.099   3.068
 9750SOL    HW230150   5.500   5.066   3.029
 9751SOL     OW30151   2.468   0.329   1.021
 9751SOL    HW130152   2.516   0.357   0.938
 9751SOL    HW230153   2.370   0.326   1.004
 9752SOL     OW30154   3.897   2.217   5.181
 9752SOL    HW130155   3.839   2.280   5.233
 9752SOL    HW230156   3.839   2.149   5.136
 9753SOL     OW30157   0.099   5.623   6.563
 9753SOL    HW130158   0.186   5.614   6.515
 9753SOL    HW230159   0.115   5.640   6.660
 9754SOL     OW30160   1.799   0.326   0.986
 9754SOL    HW130161   1.888   0.281   0.990
 9754SOL    HW230162   1.727   0.257   0.974
 9755SOL     OW30163   3.570   3.718   4.172
 9755SOL    HW130164   3.645   3.694   4.233
 9755SOL    HW230165   3.483   3.685   4.210
 9756SOL     OW30166   5.652   2.689   6.386
 9756SOL    HW130167   5.579   2.685   6.318
 9756SOL    HW230168   5.723   2.622   6.362
 9757SOL     OW30169   5.556   4.486   4.088
 9757SOL    HW130170   5.464   4.447   4.092
 9757SOL    HW230171   5.554   4.570   4.034
 9758SOL     OW30172   2.326   0.516   6.813
 9758SOL    HW130173   2.248   0.456   6.832
 9758SOL    HW230174   2.324   0.594   6.874
 9759SOL     OW30175   1.219   0.672   0.631
 9759SOL    HW130176   1.183   0.667   0.724
 9759SOL    HW230177   1.225   0.768   0.603
 9760SOL     OW30178   4.938   2.914   5.729
 9760SOL    HW130179   4.901   2.843   5.670
 9760SOL    HW230180   4.864   2.956   5.782
 9761SOL     OW30181   0.423   1.422   2.154
 9761SOL    HW130182   0.387   1.502   2.201
 9761SOL    HW230183   0.371   1.406   2.070
 9762SOL     OW30184   3.190   2.035   4.700
 9762SOL    HW130185   3.197   2.101   4.625
 9762SOL    HW230186   3.122   2.066   4.766
 9763SOL     OW30187   4.773   1.714   2.653
 9763SOL    HW130188   4.861   1.760   2.653
 9763SOL    HW230189   4.758   1.671   2.563
 9764SOL     OW30190   6.714   3.022   3.059
 9764SOL    HW130191   6.801   3.003   3.103
 9764SOL    HW230192   6.729   3.082   2.981
 9765SOL     OW30193   6.559   6.458   3.908
 9765SOL    HW130194   6.624   6.385   3.928
 9765SOL    HW230195   6.467   6.419   3.900
 9766SOL     OW30196   2.669   6.983   2.059
 9766SOL    HW130197   2.735   6.951   2.127
 9766SOL    HW230198   2.606   0.026   2.102
 9767SOL     OW30199   3.574   1.460   5.736
 9767SOL    HW130200   3.636   1.392   5.697
 9767SOL    HW230201   3.506   1.486   5.668
 9768SOL     OW30202   5.466   1.019   1.604
 9768SOL    HW130203   5.396   1.052   1.666
 9768SOL    HW230204   5.445   0.924   1.577
 9769SOL     OW30205   4.331   0.606   4.795
 9769SOL    HW130206   4.352   0.629   4.890
 9769SOL    HW230207   4.332   0.506   4.784
 9770SOL     OW30208   3.723   1.025   6.003
 9770SOL    HW130209   3.698   1.041   6.098
 9770SOL    HW230210   3.784   0.946   5.997
 9771SOL     OW30211   2.855   5.784   0.590
 9771SOL    HW130212   2.875   5.826   0.679
 9771SOL    HW230213   2.810   5.851   0.531
 9772SOL     OW30214   1.501   6.033   1.440
 9772SOL    HW130215   1.545   6.123   1.440
 9772SOL    HW230216   1.544   5.975   1.509
 9773SOL     OW30217   5.247   5.263   4.600
 9773SOL    HW130218   5.300   5.343   4.627
 9773SOL    HW230219   5.285   5.225   4.515
 9774SOL     OW30220   6.843   5.732   1.971
 9774SOL    HW130221   6.849   5.666   1.895
 9774SOL    HW230222   6.929   5.781   1.980
 9775SOL     OW30223   3.064   0.642   3.405
 9775SOL    HW130224   3.111   0.569   3.355
 9775SOL    HW230225   3.020   0.604   3.486
 9776SOL     OW30226   0.610   4.817   5.208
 9776SOL    HW130227   0.682   4.879   5.240
 9776SOL    HW230228   0.558   4.861   5.135
 9777SOL     OW30229   6.004   5.810   0.123
 9777SOL    HW130230   5.930   5.792   0.059
 9777SOL    HW230231   6.091   5.780   0.084
 9778SOL     OW30232   0.112   1.585   4.390
 9778SOL    HW130233   0.163   1.615   4.309
 9778SOL    HW230234   0.095   1.487   4.384
 9779SOL     OW30235   0.886   1.721   4.104
 9779SOL    HW130236   0.847   1.656   4.039
 9779SOL    HW230237   0.825   1.800   4.112
 9780SOL     OW30238   2.095   2.430   0.482
 9780SOL    HW130239   2.133   2.356   0.538
 9780SOL    HW230240   2.139   2.516   0.506
 9781SOL     OW30241   1.990   2.217   4.823
 9781SOL    HW130242   2.065   2.280   4.804
 9781SOL    HW230243   1.933   2.255   4.896
 9782SOL     OW30244   0.202   1.029   1.208
 9782SOL    HW130245   0.236   1.080   1.129
 9782SOL    HW230246   0.181   1.093   1.282
 9783SOL     OW30247   4.735   2.717   3.356
 9783SOL    HW130248   4.800   2.700   3.282
 9783SOL    HW230249   4.748   2.809   3.393
 9784SOL     OW30250   3.256   2.328   6.327
 9784SOL    HW130251   3.324   2.298   6.260
 9784SOL    HW230252   3.167   2.289   6.304
 9785SOL     OW30253   1.190   2.161   5.872
 9785SOL    HW130254   1.152   2.077   5.912
 9785SOL    HW230255   1.129   2.194   5.801
 9786SOL     OW30256   2.684   4.286   0.406
 9786SOL    HW130257   2.730   4.286   0.317
 9786SOL    HW230258   2.748   4.320   0.476
 9787SOL     OW30259   3.316   3.586   2.629
 9787SOL    HW130260   3.314   3.683   2.655
 9787SOL    HW230261   3.363   3.576   2.541
 9788SOL     OW30262   0.613   0.155   3.746
 9788SOL    HW130263   0.670   0.189   3.820
 9788SOL    HW230264   0.671   0.114   3.675
 9789SOL     OW30265   1.754   5.424   0.780
 9789SOL    HW130266   1.735   5.345   0.838
 9789SOL    HW230267   1.817   5.398   0.707
 9790SOL     OW30268   6.854   4.956   6.713
 9790SOL    HW130269   6.787   5.003   6.771
 9790SOL    HW230270   6.892   4.878   6.762
 9791SOL     OW30271   0.599   0.537   0.319
 9791SOL    HW130272   0.697   0.549   0.334
 9791SOL    HW230273   0.563   0.617   0.271
 9792SOL     OW30274   3.467   4.053   0.595
 9792SOL    HW130275   3.539   4.098   0.648
 9792SOL    HW230276   3.505   4.022   0.508
 9793SOL     OW30277   3.929   6.869   2.582
 9793SOL    HW130278   3.844   6.846   2.629
 9793SOL    HW230279   3.970   6.949   2.625
 9794SOL     OW30280   0.043   4.073   6.734
 9794SOL    HW130281   7.020   4.140   6.676
 9794SOL    HW230282   0.132   4.108   6.764
 9795SOL     OW30283   1.806   1.712   4.487
 9795SOL    HW130284   1.806   1.807   4.456
 9795SOL    HW230285   1.727   1.696   4.545
 9796SOL     OW30286   3.087   2.987   2.521
 9796SOL    HW130287   3.095   2.991   2.421
 9796SOL    HW230288   3.033   2.907   2.547
 9797SOL     OW30289   1.980   5.716   0.176
 9797SOL    HW130290   2.059   5.705   0.116
 9797SOL    HW230291   1.898   5.683   0.130
 9798SOL     OW30292   3.295   0.298   2.491
 9798SOL    HW130293   3.310   0.342   2.579
 9798SOL    HW230294   3.296   0.199   2.502
 9799SOL     OW30295   3.019   3.932   5.509
 9799SOL    HW130296   3.044   3.981   5.592
 9799SOL    HW230297   2.945   3.981   5.462
 9800SOL     OW30298   4.203   4.986   4.892
 9800SOL    HW130299   4.243   5.072   4.859
 9800SOL    HW230300   4.105   4.997   4.904
 9801SOL     OW30301   5.078   3.946   0.227
 9801SOL    HW130302   5.053   3.994   0.311
 9801SOL    HW230303   5.077   4.010   0.151
 9802SOL     OW30304   0.124   4.394   2.163
 9802SOL    HW130305   0.182   4.394   2.081
 9802SOL    HW230306   0.126   4.303   2.205
 9803SOL     OW30307   1.882   1.942   6.448
 9803SOL    HW130308   1.944   1.986   6.383
 9803SOL    HW230309   1.852   2.009   6.516
 9804SOL     OW30310   1.237   5.817   3.351
 9804SOL    HW130311   1.212   5.720   3.352
 9804SOL    HW230312   1.294   5.836   3.272
 9805SOL     OW30313   0.857   6.641   3.587
 9805SOL    HW130314   0.929   6.594   3.536
 9805SOL    HW230315   0.866   6.739   3.574
 9806SOL     OW30316   1.484   1.028   6.471
 9806SOL    HW130317   1.469   0.947   6.528
 9806SOL    HW230318   1.537   1.002   6.390
 9807SOL     OW30319   3.435   4.337   0.456
 9807SOL    HW130320   3.404   4.397   0.530
 9807SOL    HW230321   3.513   4.283   0.488
 9808SOL     OW30322   3.559   0.354   5.303
 9808SOL    HW130323   3.474   0.388   5.262
 9808SOL    HW230324   3.637   0.389   5.251
 9809SOL     OW30325   0.852   3.297   6.655
 9809SOL    HW130326   0.922   3.278   6.586
 9809SOL    HW230327   0.883   3.262   6.743
 9810SOL     OW30328   2.093   2.646   3.781
 9810SOL    HW130329   2.169   2.709   3.795
 9810SOL    HW230330   2.007   2.696   3.789
 9811SOL     OW30331   5.717   4.762   2.980
 9811SOL    HW130332   5.774   4.841   2.958
 9811SOL    HW230333   5.627   4.772   2.936
 9812SOL     OW30334   3.911   2.238   5.699
 9812SOL    HW130335   3.822   2.242   5.744
 9812SOL    HW230336   3.907   2.174   5.622
 9813SOL     OW30337   4.845   1.475   0.938
 9813SOL    HW130338   4.900   1.423   0.874
 9813SOL    HW230339   4.773   1.524   0.889
 9814SOL     OW30340   6.491   0.282   6.783
 9814SOL    HW130341   6.471   0.295   6.880
 9814SOL    HW230342   6.437   0.206   6.747
 9815SOL     OW30343   5.782   3.918   4.612
 9815SOL    HW130344   5.842   3.962   4.679
 9815SOL    HW230345   5.780   3.972   4.528
 9816SOL     OW30346   0.694   0.850   6.134
 9816SOL    HW130347   0.770   0.865   6.071
 9816SOL    HW230348   0.653   0.760   6.116
 9817SOL     OW30349   3.218   6.784   3.406
 9817SOL    HW130350   3.144   6.719   3.395
 9817SOL    HW230351   3.186   6.876   3.383
 9818SOL     OW30352   0.777   0.449   3.868
 9818SOL    HW130353   0.784   0.360   3.915
 9818SOL    HW230354   0.701   0.501   3.907
 9819SOL     OW30355   4.960   3.451   3.787
 9819SOL    HW130356   4.922   3.442   3.879
 9819SOL    HW230357   4.892   3.422   3.720
 9820SOL     OW30358   4.279   3.177   6.298
 9820SOL    HW130359   4.214   3.132   6.237
 9820SOL    HW230360   4.270   3.276   6.290
 9821SOL     OW30361   5.098   0.930   6.399
 9821SOL    HW130362   5.158   0.878   6.459
 9821SOL    HW230363   5.004   0.926   6.435
 9822SOL     OW30364   2.057   6.852   3.607
 9822SOL    HW130365   1.982   6.850   3.673
 9822SOL    HW230366   2.126   6.918   3.638
 9823SOL     OW30367   2.505   1.009   0.150
 9823SOL    HW130368   2.518   1.100   0.110
 9823SOL    HW230369   2.563   0.999   0.231
 9824SOL     OW30370   1.720   4.912   4.711
 9824SOL    HW130371   1.805   4.870   4.743
 9824SOL    HW230372   1.740   5.002   4.674
 9825SOL     OW30373   4.941   5.732   5.243
 9825SOL    HW130374   4.906   5.643   5.275
 9825SOL    HW230375   5.034   5.745   5.278
 9826SOL     OW30376   4.275   5.177   5.938
 9826SOL    HW130377   4.260   5.274   5.921
 9826SOL    HW230378   4.193   5.138   5.981
 9827SOL     OW30379   2.066   3.280   3.867
 9827SOL    HW130380   2.052   3.310   3.961
 9827SOL    HW230381   2.070   3.360   3.806
 9828SOL     OW30382   2.134   2.761   5.534
 9828SOL    HW130383   2.223   2.787   5.498
 9828SOL    HW230384   2.129   2.661   5.541
 9829SOL     OW30385   4.119   5.629   6.354
 9829SOL    HW130386   4.067   5.712   6.374
 9829SOL    HW230387   4.062   5.566   6.300
 9830SOL     OW30388   6.109   2.193   1.848
 9830SOL    HW130389   6.181   2.182   1.779
 9830SOL    HW230390   6.098   2.290   1.869
 9831SOL     OW30391   2.527   5.243   1.299
 9831SOL    HW130392   2.595   5.172   1.315
 9831SOL    HW230393   2.568   5.317   1.245
 9832SOL     OW30394   5.201   5.705   2.610
 9832SOL    HW130395   5.296   5.716   2.580
 9832SOL    HW230396   5.161   5.624   2.567
 9833SOL     OW30397   3.227   3.591   4.826
 9833SOL    HW130398   3.258   3.680   4.790
 9833SOL    HW230399   3.214   3.598   4.925
 9834SOL     OW30400   2.805   4.074   5.415
 9834SOL    HW130401   2.749   4.013   5.360
 9834SOL    HW230402   2.775   4.070   5.511
 9835SOL     OW30403   3.976   3.096   5.099
 9835SOL    HW130404   4.075   3.081   5.105
 9835SOL    HW230405   3.940   3.118   5.190
 9836SOL     OW30406   6.619   4.415   3.565
 9836SOL    HW130407   6.604   4.368   3.479
 9836SOL    HW230408   6.624   4.514   3.549
 9837SOL     OW30409   3.312   0.329   2.763
 9837SOL    HW130410   3.404   0.368   2.764
 9837SOL    HW230411   3.316   0.234   2.793
 9838SOL     OW30412   1.483   6.845   6.961
 9838SOL    HW130413   1.457   6.779   0.010
 9838SOL    HW230414   1.400   6.883   6.919
 9839SOL     OW30415   5.355   0.246   3.425
 9839SOL    HW130416   5.264   0.277   3.452
 9839SOL    HW230417   5.382   0.169   3.483
 9840SOL     OW30418   5.747   1.249   0.654
 9840SOL    HW130419   5.843   1.276   0.662
 9840SOL    HW230420   5.695   1.323   0.610
 9841SOL     OW30421   1.652   4.710   5.274
 9841SOL    HW130422   1.637   4.612   5.285
 9841SOL    HW230423   1.691   4.728   5.183
 9842SOL     OW30424   3.429   3.294   2.043
 9842SOL    HW130425   3.334   3.283   2.015
 9842SOL    HW230426   3.477   3.349   1.975
 9843SOL     OW30427   6.234   1.355   1.240
 9843SOL    HW130428   6.286   1.324   1.161
 9843SOL    HW230429   6.143   1.312   1.240
 9844SOL     OW30430   6.210   0.633   2.345
 9844SOL    HW130431   6.264   0.611   2.426
 9844SOL    HW230432   6.144   0.705   2.368
 9845SOL     OW30433   1.950   3.087   3.010
 9845SOL    HW130434   2.030   3.096   2.952
 9845SOL    HW230435   1.978   3.067   3.104
 9846SOL     OW30436   3.798   3.414   2.199
 9846SOL    HW130437   3.712   3.410   2.250
 9846SOL    HW230438   3.840   3.323   2.198
 9847SOL     OW30439   3.620   2.893   3.764
 9847SOL    HW130440   3.616   2.993   3.773
 9847SOL    HW230441   3.606   2.851   3.854
 9848SOL     OW30442   3.754   3.118   4.721
 9848SOL    HW130443   3.716   3.197   4.672
 9848SOL    HW230444   3.816   3.150   4.792
 9849SOL     OW30445   1.229   6.943   6.880
 9849SOL    HW130446   1.231   6.984   6.971
 9849SOL    HW230447   1.204   7.012   6.812
 9850SOL     OW30448   6.129   6.637   4.413
 9850SOL    HW130449   6.211   6.643   4.356
 9850SOL    HW230450   6.054   6.687   4.370
 9851SOL     OW30451   6.412   0.444   4.521
 9851SOL    HW130452   6.506   0.478   4.508
 9851SOL    HW230453   6.401   0.359   4.469
 9852SOL     OW30454   3.863   1.908   3.985
 9852SOL    HW130455   3.831   1.988   3.935
 9852SOL    HW230456   3.789   1.872   4.042
 9853SOL     OW30457   4.985   3.791   4.712
 9853SOL    HW130458   5.059   3.733   4.679
 9853SOL    HW230459   4.953   3.757   4.800
 9854SOL     OW30460   6.526   5.751   5.336
 9854SOL    HW130461   6.564   5.673   5.285
 9854SOL    HW230462   6.572   5.759   5.424
 9855SOL     OW30463   2.217   3.652   1.028
 9855SOL    HW130464   2.272   3.619   1.105
 9855SOL    HW230465   2.177   3.741   1.051
 9856SOL     OW30466   5.026   4.074   4.697
 9856SOL    HW130467   5.122   4.057   4.674
 9856SOL    HW230468   4.970   3.998   4.664
 9857SOL     OW30469   4.724   2.689   2.962
 9857SOL    HW130470   4.684   2.653   2.877
 9857SOL    HW230471   4.772   2.775   2.943
 9858SOL     OW30472   0.023   0.711   1.463
 9858SOL    HW130473   0.038   0.778   1.535
 9858SOL    HW230474   7.006   0.628   1.502
 9859SOL     OW30475   6.455   6.695   2.461
 9859SOL    HW130476   6.553   6.693   2.441
 9859SOL    HW230477   6.416   6.604   2.451
 9860SOL     OW30478   1.495   1.791   3.200
 9860SOL    HW130479   1.569   1.740   3.155
 9860SOL    HW230480   1.458   1.859   3.136
 9861SOL     OW30481   2.911   0.414   3.575
 9861SOL    HW130482   2.868   0.461   3.498
 9861SOL    HW230483   2.902   0.470   3.658
 9862SOL     OW30484   3.991   2.903   6.994
 9862SOL    HW130485   4.076   2.915   0.024
 9862SOL    HW230486   3.926   2.849   0.026
 9863SOL     OW30487   3.048   6.640   2.728
 9863SOL    HW130488   3.147   6.651   2.717
 9863SOL    HW230489   3.002   6.663   2.643
 9864SOL     OW30490   3.662   6.226   3.706
 9864SOL    HW130491   3.658   6.138   3.657
 9864SOL    HW230492   3.631   6.299   3.646
 9865SOL     OW30493   1.588   0.282   4.426
 9865SOL    HW130494   1.493   0.287   4.458
 9865SOL    HW230495   1.592   0.225   4.344
 9866SOL     OW30496   4.838   4.307   6.039
 9866SOL    HW130497   4.833   4.267   6.131
 9866SOL    HW230498   4.760   4.368   6.025
 9867SOL     OW30499   6.848   1.432   0.781
 9867SOL    HW130500   6.817   1.526   0.797
 9867SOL    HW230501   6.786   1.386   0.718
 9868SOL     OW30502   0.694   3.769   5.496
 9868SOL    HW130503   0.609   3.748   5.448
 9868SOL    HW230504   0.772   3.748   5.438
 9869SOL     OW30505   1.071   2.750   1.587
 9869SOL    HW130506   1.127   2.829   1.562
 9869SOL    HW230507   1.130   2.670   1.596
 9870SOL     OW30508   3.626   6.144   2.687
 9870SOL    HW130509   3.645   6.111   2.595
 9870SOL    HW230510   3.648   6.073   2.754
 9871SOL     OW30511   0.273   6.000   6.066
 9871SOL    HW130512   0.203   5.949   6.015
 9871SOL    HW230513   0.232   6.038   6.149
 9872SOL     OW30514   2.463   5.365   4.803
 9872SOL    HW130515   2.427   5.272   4.806
 9872SOL    HW230516   2.428   5.418   4.880
 9873SOL     OW30517   2.267   2.619   0.519
 9873SOL    HW130518   2.230   2.704   0.481
 9873SOL    HW230519   2.366   2.615   0.502
 9874SOL     OW30520   5.693   3.306   5.092
 9874SOL    HW130521   5.782   3.296   5.138
 9874SOL    HW230522   5.683   3.400   5.061
 9875SOL     OW30523   6.203   5.931   1.833
 9875SOL    HW130524   6.260   5.940   1.752
 9875SOL    HW230525   6.228   6.001   1.900
 9876SOL     OW30526   6.088   0.529   3.620
 9876SOL    HW130527   6.135   0.443   3.642
 9876SOL    HW230528   6.047   0.566   3.702
 9877SOL     OW30529   6.342   5.204   4.352
 9877SOL    HW130530   6.374   5.110   4.354
 9877SOL    HW230531   6.328   5.233   4.257
 9878SOL     OW30532   2.583   3.935   5.918
 9878SOL    HW130533   2.595   3.966   6.012
 9878SOL    HW230534   2.634   3.995   5.856
 9879SOL     OW30535   5.396   5.766   5.498
 9879SOL    HW130536   5.409   5.680   5.447
 9879SOL    HW230537   5.454   5.837   5.458
 9880SOL     OW30538   4.085   0.673   0.278
 9880SOL    HW130539   4.053   0.672   0.183
 9880SOL    HW230540   4.185   0.674   0.279
 9881SOL     OW30541   1.449   1.288   3.976
 9881SOL    HW130542   1.537   1.278   3.927
 9881SOL    HW230543   1.404   1.372   3.945
 9882SOL     OW30544   1.592   3.497   4.338
 9882SOL    HW130545   1.684   3.517   4.372
 9882SOL    HW230546   1.532   3.477   4.416
 9883SOL     OW30547   1.415   6.018   0.953
 9883SOL    HW130548   1.453   6.109   0.971
 9883SOL    HW230549   1.403   6.007   0.854
 9884SOL     OW30550   4.866   2.450   1.800
 9884SOL    HW130551   4.792   2.516   1.784
 9884SOL    HW230552   4.856   2.410   1.891
 9885SOL     OW30553   0.285   2.214   4.939
 9885SOL    HW130554   0.349   2.235   4.866
 9885SOL    HW230555   0.210   2.280   4.938
 9886SOL     OW30556   1.372   5.106   2.054
 9886SOL    HW130557   1.428   5.185   2.078
 9886SOL    HW230558   1.419   5.053   1.983
 9887SOL     OW30559   4.859   0.338   6.936
 9887SOL    HW130560   4.941   0.282   6.933
 9887SOL    HW230561   4.807   0.317   7.019
 9888SOL     OW30562   5.522   4.963   2.430
 9888SOL    HW130563   5.461   4.902   2.380
 9888SOL    HW230564   5.473   5.005   2.506
 9889SOL     OW30565   6.214   4.817   0.685
 9889SOL    HW130566   6.290   4.825   0.750
 9889SOL    HW230567   6.140   4.878   0.713
 9890SOL     OW30568   0.922   2.965   1.244
 9890SOL    HW130569   0.980   2.983   1.165
 9890SOL    HW230570   0.848   2.903   1.218
 9891SOL     OW30571   5.776   3.250   1.549
 9891SOL    HW130572   5.681   3.271   1.528
 9891SOL    HW230573   5.831   3.257   1.465
 9892SOL     OW30574   1.748   4.920   2.363
 9892SOL    HW130575   1.658   4.895   2.401
 9892SOL    HW230576   1.801   4.966   2.434
 9893SOL     OW30577   0.244   0.207   2.325
 9893SOL    HW130578   0.331   0.188   2.369
 9893SOL    HW230579   0.210   0.124   2.280
 9894SOL     OW30580   3.021   2.717   0.255
 9894SOL    HW130581   3.073   2.734   0.339
 9894SOL    HW230582   3.071   2.755   0.177
 9895SOL     OW30583   5.297   3.677   5.377
 9895SOL    HW130584   5.230   3.748   5.354
 9895SOL    HW230585   5.389   3.716   5.377
 9896SOL     OW30586   6.359   1.358   0.998
 9896SOL    HW130587   6.293   1.419   0.954
 9896SOL    HW230588   6.356   1.268   0.955
 9897SOL     OW30589   5.817   0.193   2.087
 9897SOL    HW130590   5.917   0.193   2.084
 9897SOL    HW230591   5.783   0.102   2.065
 9898SOL     OW30592   0.919   5.023   6.335
 9898SOL    HW130593   0.831   4.990   6.371
 9898SOL    HW230594   0.913   5.121   6.317
 9899SOL     OW30595   0.857   5.203   1.594
 9899SOL    HW130596   0.836   5.106   1.605
 9899SOL    HW230597   0.855   5.248   1.684
 9900SOL     OW30598   1.552   3.031   2.588
 9900SOL    HW130599   1.632   3.053   2.532
 9900SOL    HW230600   1.510   3.116   2.620
 9901SOL     OW30601   3.083   0.704   6.402
 9901SOL    HW130602   3.122   0.790   6.368
 9901SOL    HW230603   2.993   0.691   6.360
 9902SOL     OW30604   3.581   4.334   1.501
 9902SOL    HW130605   3.606   4.243   1.467
 9902SOL    HW230606   3.484   4.350   1.483
 9903SOL     OW30607   5.398   1.282   1.327
 9903SOL    HW130608   5.372   1.308   1.420
 9903SOL    HW230609   5.341   1.331   1.262
 9904SOL     OW30610   0.253   3.643   6.264
 9904SOL    HW130611   0.155   3.660   6.261
 9904SOL    HW230612   0.291   3.646   6.172
 9905SOL     OW30613   2.548   0.282   5.561
 9905SOL    HW130614   2.602   0.249   5.639
 9905SOL    HW230615   2.513   0.373   5.582
 9906SOL     OW30616   1.759   3.098   0.836
 9906SOL    HW130617   1.742   3.166   0.907
 9906SOL    HW230618   1.857   3.076   0.833
 9907SOL     OW30619   1.649   0.506   1.474
 9907SOL    HW130620   1.555   0.509   1.509
 9907SOL    HW230621   1.661   0.425   1.417
 9908SOL     OW30622   6.182   2.443   4.822
 9908SOL    HW130623   6.083   2.434   4.830
 9908SOL    HW230624   6.211   2.530   4.864
 9909SOL     OW30625   4.077   0.895   2.677
 9909SOL    HW130626   4.092   0.971   2.615
 9909SOL    HW230627   4.076   0.809   2.625
 9910SOL     OW30628   1.364   5.207   1.377
 9910SOL    HW130629   1.271   5.240   1.396
 9910SOL    HW230630   1.424   5.285   1.359
 9911SOL     OW30631   2.816   5.791   1.731
 9911SOL    HW130632   2.752   5.716   1.714
 9911SOL    HW230633   2.886   5.761   1.796
 9912SOL     OW30634   3.818   1.537   0.798
 9912SOL    HW130635   3.783   1.577   0.882
 9912SOL    HW230636   3.786   1.442   0.790
 9913SOL     OW30637   6.403   3.429   0.687
 9913SOL    HW130638   6.422   3.339   0.650
 9913SOL    HW230639   6.340   3.478   0.627
 9914SOL     OW30640   6.498   0.123   5.849
 9914SOL    HW130641   6.571   0.191   5.853
 9914SOL    HW230642   6.409   0.170   5.844
 9915SOL     OW30643   5.755   0.539   3.521
 9915SOL    HW130644   5.759   0.623   3.576
 9915SOL    HW230645   5.701   0.470   3.568
 9916SOL     OW30646   2.204   2.360   3.135
 9916SOL    HW130647   2.172   2.295   3.204
 9916SOL    HW230648   2.247   2.310   3.060
 9917SOL     OW30649   3.820   3.791   5.743
 9917SOL    HW130650   3.749   3.741   5.792
 9917SOL    HW230651   3.779   3.842   5.667
 9918SOL     OW30652   1.467   2.830   2.920
 9918SOL    HW130653   1.453   2.813   2.822
 9918SOL    HW230654   1.543   2.773   2.953
 9919SOL     OW30655   2.407   5.148   1.539
 9919SOL    HW130656   2.393   5.050   1.529
 9919SOL    HW230657   2.429   5.188   1.450
 9920SOL     OW30658   4.698   0.594   2.520
 9920SOL    HW130659   4.770   0.611   2.588
 9920SOL    HW230660   4.661   0.682   2.489
 9921SOL     OW30661   4.454   6.512   4.401
 9921SOL    HW130662   4.489   6.438   4.458
 9921SOL    HW230663   4.530   6.567   4.368
 9922SOL     OW30664   3.915   4.204   0.831
 9922SOL    HW130665   3.880   4.166   0.745
 9922SOL    HW230666   3.865   4.288   0.853
 9923SOL     OW30667   6.147   3.778   0.014
 9923SOL    HW130668   6.056   3.809   7.007
 9923SOL    HW230669   6.216   3.820   6.976
 9924SOL     OW30670   5.908   2.061   2.723
 9924SOL    HW130671   5.819   2.098   2.696
 9924SOL    HW230672   5.911   1.963   2.704
 9925SOL     OW30673   0.429   5.139   3.732
 9925SOL    HW130674   0.482   5.144   3.817
 9925SOL    HW230675   0.366   5.062   3.737
 9926SOL     OW30676   4.108   2.522   1.059
 9926SOL    HW130677   4.070   2.587   1.124
 9926SOL    HW230678   4.107   2.430   1.099
 9927SOL     OW30679   1.348   1.378   0.918
 9927SOL    HW130680   1.440   1.383   0.880
 9927SOL    HW230681   1.345   1.311   0.992
 9928SOL     OW30682   4.919   4.563   3.567
 9928SOL    HW130683   4.993   4.627   3.588
 9928SOL    HW230684   4.862   4.602   3.494
 9929SOL     OW30685   3.618   4.156   4.180
 9929SOL    HW130686   3.589   4.182   4.272
 9929SOL    HW230687   3.711   4.120   4.184
 9930SOL     OW30688   0.786   7.012   5.906
 9930SOL    HW130689   0.831   7.017   5.817
 9930SOL    HW230690   0.693   6.977   5.895
 9931SOL     OW30691   6.702   5.460   4.742
 9931SOL    HW130692   6.679   5.364   4.755
 9931SOL    HW230693   6.623   5.509   4.706
 9932SOL     OW30694   2.715   2.948   5.644
 9932SOL    HW130695   2.800   2.998   5.629
 9932SOL    HW230696   2.667   2.936   5.558
 9933SOL     OW30697   2.144   6.731   4.218
 9933SOL    HW130698   2.226   6.781   4.246
 9933SOL    HW230699   2.144   6.640   4.258
 9934SOL     OW30700   0.305   2.202   6.305
 9934SOL    HW130701   0.258   2.168   6.224
 9934SOL    HW230702   0.304   2.302   6.305
 9935SOL     OW30703   2.496   0.135   1.193
 9935SOL    HW130704   2.469   0.207   1.129
 9935SOL    HW230705   2.595   0.121   1.187
 9936SOL     OW30706   6.478   4.643   0.439
 9936SOL    HW130707   6.457   4.576   0.511
 9936SOL    HW230708   6.394   4.690   0.412
 9937SOL     OW30709   0.501   1.619   1.569
 9937SOL    HW130710   0.407   1.638   1.597
 9937SOL    HW230711   0.563   1.687   1.608
 9938SOL     OW30712   5.425   5.049   3.846
 9938SOL    HW130713   5.380   5.112   3.782
 9938SOL    HW230714   5.414   4.955   3.813
 9939SOL     OW30715   3.550   2.447   1.091
 9939SOL    HW130716   3.535   2.401   1.004
 9939SOL    HW230717   3.510   2.392   1.165
 9940SOL     OW30718   1.066   0.145   2.075
 9940SOL    HW130719   1.134   0.077   2.048
 9940SOL    HW230720   1.074   0.161   2.174
 9941SOL     OW30721   3.086   4.345   5.951
 9941SOL    HW130722   3.086   4.381   6.045
 9941SOL    HW230723   3.050   4.252   5.952
 9942SOL     OW30724   3.608   5.490   2.332
 9942SOL    HW130725   3.565   5.418   2.387
 9942SOL    HW230726   3.586   5.475   2.235
 9943SOL     OW30727   1.269   5.023   6.821
 9943SOL    HW130728   1.289   4.960   6.747
 9943SOL    HW230729   1.319   5.109   6.807
 9944SOL     OW30730   0.950   4.426   6.999
 9944SOL    HW130731   0.999   4.497   0.027
 9944SOL    HW230732   0.851   4.445   7.001
 9945SOL     OW30733   4.644   5.773   0.183
 9945SOL    HW130734   4.690   5.720   0.111
 9945SOL    HW230735   4.549   5.791   0.156
 9946SOL     OW30736   6.471   6.814   3.462
 9946SOL    HW130737   6.483   6.798   3.364
 9946SOL    HW230738   6.527   6.748   3.513
 9947SOL     OW30739   2.684   2.339   4.406
 9947SOL    HW130740   2.612   2.354   4.338
 9947SOL    HW230741   2.677   2.407   4.478
 9948SOL     OW30742   6.924   4.995   4.976
 9948SOL    HW130743   6.861   5.002   4.898
 9948SOL    HW230744   6.896   4.919   5.035
 9949SOL     OW30745   0.001   4.943   3.857
 9949SOL    HW130746   6.990   4.970   3.947
 9949SOL    HW230747   6.997   4.848   3.839
 9950SOL     OW30748   5.712   6.103   6.425
 9950SOL    HW130749   5.752   6.194   6.420
 9950SOL    HW230750   5.725   6.056   6.337
 9951SOL     OW30751   1.133   2.348   3.403
 9951SOL    HW130752   1.201   2.299   3.348
 9951SOL    HW230753   1.104   2.430   3.353
 9952SOL     OW30754   1.628   4.450   0.585
 9952SOL    HW130755   1.650   4.404   0.671
 9952SOL    HW230756   1.712   4.463   0.532
 9953SOL     OW30757   6.183   1.929   4.338
 9953SOL    HW130758   6.090   1.893   4.343
 9953SOL    HW230759   6.199   1.992   4.414
 9954SOL     OW30760   1.271   0.340   5.587
 9954SOL    HW130761   1.331   0.405   5.540
 9954SOL    HW230762   1.177   0.371   5.581
 9955SOL     OW30763   4.267   4.223   6.426
 9955SOL    HW130764   4.321   4.234   6.342
 9955SOL    HW230765   4.327   4.235   6.505
 9956SOL     OW30766   0.859   5.341   4.210
 9956SOL    HW130767   0.791   5.378   4.146
 9956SOL    HW230768   0.840   5.244   4.226
 9957SOL     OW30769   6.029   0.020   1.177
 9957SOL    HW130770   6.010   6.991   1.093
 9957SOL    HW230771   6.064   6.979   1.246
 9958SOL     OW30772   2.553   5.917   6.916
 9958SOL    HW130773   2.550   6.013   6.944
 9958SOL    HW230774   2.514   5.907   6.825
 9959SOL     OW30775   4.114   3.619   3.621
 9959SOL    HW130776   4.130   3.644   3.526
 9959SOL    HW230777   4.081   3.698   3.672
 9960SOL     OW30778   0.505   0.134   2.391
 9960SOL    HW130779   0.559   0.066   2.441
 9960SOL    HW230780   0.555   0.221   2.390
 9961SOL     OW30781   1.310   5.005   4.725
 9961SOL    HW130782   1.241   4.944   4.685
 9961SOL    HW230783   1.284   5.100   4.708
 9962SOL     OW30784   4.719   0.388   2.792
 9962SOL    HW130785   4.644   0.345   2.741
 9962SOL    HW230786   4.774   0.317   2.837
 9963SOL     OW30787   2.311   2.298   6.091
 9963SOL    HW130788   2.350   2.232   6.155
 9963SOL    HW230789   2.342   2.390   6.116
 9964SOL     OW30790   4.274   4.259   6.124
 9964SOL    HW130791   4.332   4.328   6.081
 9964SOL    HW230792   4.323   4.172   6.130
 9965SOL     OW30793   3.779   4.759   5.579
 9965SOL    HW130794   3.714   4.826   5.616
 9965SOL    HW230795   3.756   4.742   5.483
 9966SOL     OW30796   2.543   5.804   2.021
 9966SOL    HW130797   2.537   5.802   1.922
 9966SOL    HW230798   2.452   5.821   2.060
 9967SOL     OW30799   6.122   5.739   1.560
 9967SOL    HW130800   6.210   5.785   1.570
 9967SOL    HW230801   6.102   5.687   1.643
 9968SOL     OW30802   3.347   4.472   6.521
 9968SOL    HW130803   3.334   4.419   6.437
 9968SOL    HW230804   3.306   4.562   6.510
 9969SOL     OW30805   1.177   2.239   4.011
 9969SOL    HW130806   1.155   2.181   4.090
 9969SOL    HW230807   1.248   2.195   3.956
 9970SOL     OW30808   6.038   4.644   2.213
 9970SOL    HW130809   6.024   4.553   2.173
 9970SOL    HW230810   5.958   4.670   2.266
 9971SOL     OW30811   2.657   4.021   0.283
 9971SOL    HW130812   2.663   4.087   0.358
 9971SOL    HW230813   2.738   3.962   0.284
 9972SOL     OW30814   3.744   4.819   0.791
 9972SOL    HW130815   3.671   4.754   0.770
 9972SOL    HW230816   3.795   4.840   0.708
 9973SOL     OW30817   4.568   2.239   4.492
 9973SOL    HW130818   4.532   2.169   4.430
 9973SOL    HW230819   4.508   2.319   4.492
 9974SOL     OW30820   6.009   3.391   3.638
 9974SOL    HW130821   6.053   3.448   3.568
 9974SOL    HW230822   6.067   3.386   3.719
 9975SOL     OW30823   6.915   4.381   0.258
 9975SOL    HW130824   6.862   4.435   0.323
 9975SOL    HW230825   6.863   4.300   0.231
 9976SOL     OW30826   0.114   5.608   6.127
 9976SOL    HW130827   0.058   5.555   6.064
 9976SOL    HW230828   0.055   5.668   6.182
 9977SOL     OW30829   6.948   5.271   6.156
 9977SOL    HW130830   6.875   5.202   6.154
 9977SOL    HW230831   6.951   5.318   6.068
 9978SOL     OW30832   6.363   2.523   3.482
 9978SOL    HW130833   6.414   2.553   3.562
 9978SOL    HW230834   6.286   2.466   3.511
 9979SOL     OW30835   6.651   4.795   6.150
 9979SOL    HW130836   6.689   4.886   6.162
 9979SOL    HW230837   6.592   4.773   6.227
 9980SOL     OW30838   1.893   1.335   0.146
 9980SOL    HW130839   1.832   1.270   0.192
 9980SOL    HW230840   1.838   1.404   0.098
 9981SOL     OW30841   2.516   1.763   1.237
 9981SOL    HW130842   2.581   1.746   1.163
 9981SOL    HW230843   2.559   1.744   1.325
 9982SOL     OW30844   0.573   1.229   3.269
 9982SOL    HW130845   0.617   1.155   3.320
 9982SOL    HW230846   0.544   1.194   3.179
 9983SOL     OW30847   1.524   2.121   2.105
 9983SOL    HW130848   1.500   2.029   2.074
 9983SOL    HW230849   1.517   2.184   2.028
 9984SOL     OW30850   1.222   0.352   0.698
 9984SOL    HW130851   1.237   0.270   0.753
 9984SOL    HW230852   1.203   0.429   0.758
 9985SOL     OW30853   2.615   0.984   2.032
 9985SOL    HW130854   2.646   0.905   1.978
 9985SOL    HW230855   2.561   1.045   1.974
 9986SOL     OW30856   5.031   4.211   6.437
 9986SOL    HW130857   5.040   4.133   6.375
 9986SOL    HW230858   5.120   4.229   6.480
 9987SOL     OW30859   5.807   1.541   2.708
 9987SOL    HW130860   5.896   1.584   2.724
 9987SOL    HW230861   5.816   1.470   2.638
 9988SOL     OW30862   0.193   5.229   5.244
 9988SOL    HW130863   0.142   5.186   5.170
 9988SOL    HW230864   0.284   5.189   5.250
 9989SOL     OW30865   5.494   4.147   2.682
 9989SOL    HW130866   5.532   4.054   2.679
 9989SOL    HW230867   5.566   4.213   2.661
 9990SOL     OW30868   2.737   6.929   2.923
 9990SOL    HW130869   2.818   6.973   2.884
 9990SOL    HW230870   2.703   6.858   2.861
 9991SOL     OW30871   1.904   3.444   4.602
 9991SOL    HW130872   1.913   3.489   4.691
 9991SOL    HW230873   1.826   3.381   4.604
 9992SOL     OW30874   4.764   3.892   0.624
 9992SOL    HW130875   4.862   3.876   0.635
 9992SOL    HW230876   4.723   3.814   0.577
 9993SOL     OW30877   4.054   0.272   2.254
 9993SOL    HW130878   4.137   0.310   2.213
 9993SOL    HW230879   4.026   0.330   2.330
 9994SOL     OW30880   6.917   3.869   4.196
 9994SOL    HW130881   6.875   3.902   4.281
 9994SOL    HW230882   7.009   3.836   4.216
 9995SOL     OW30883   3.018   0.330   2.746
 9995SOL    HW130884   3.005   0.409   2.687
 9995SOL    HW230885   3.113   0.326   2.777
 9996SOL     OW30886   2.711   3.235   1.514
 9996SOL    HW130887   2.697   3.149   1.466
 9996SOL    HW230888   2.642   3.245   1.586
 9997SOL     OW30889   4.327   2.186   0.921
 9997SOL    HW130890   4.229   2.184   0.901
 9997SOL    HW230891   4.366   2.096   0.904
 9998SOL     OW30892   6.664   3.750   2.067
 9998SOL    HW130893   6.707   3.841   2.065
 9998SOL    HW230894   6.570   3.759   2.100
 9999SOL     OW30895   6.274   4.592   5.083
 9999SOL    HW130896   6.199   4.526   5.076
 9999SOL    HW230897   6.313   4.607   4.992
10000SOL     OW30898   5.330   3.090   6.964
10000SOL    HW130899   5.289   3.154   6.900
10000SOL    HW230900   5.392   3.028   6.916
10001SOL     OW30901   4.855   1.306   2.028
10001SOL    HW130902   4.891   1.360   1.952
10001SOL    HW230903   4.756   1.299   2.021
10002SOL     OW30904   1.386   0.553   1.266
10002SOL    HW130905   1.362   0.627   1.329
10002SOL    HW230906   1.305   0.500   1.243
10003SOL     OW30907   3.727   1.815   3.268
10003SOL    HW130908   3.672   1.748   3.318
10003SOL    HW230909   3.714   1.906   3.309
10004SOL     OW30910   4.596   2.607   4.454
10004SOL    HW130911   4.693   2.583   4.459
10004SOL    HW230912   4.554   2.562   4.376
10005SOL     OW30913   4.745   6.615   3.545
10005SOL    HW130914   4.753   6.616   3.645
10005SOL    HW230915   4.649   6.614   3.519
10006SOL     OW30916   5.179   0.888   4.104
10006SOL    HW130917   5.166   0.977   4.060
10006SOL    HW230918   5.124   0.884   4.187
10007SOL     OW30919   0.630   4.449   4.893
10007SOL    HW130920   0.688   4.526   4.920
10007SOL    HW230921   0.665   4.410   4.807
10008SOL     OW30922   4.441   1.350   3.839
10008SOL    HW130923   4.535   1.356   3.871
10008SOL    HW230924   4.379   1.381   3.912
10009SOL     OW30925   1.741   4.191   1.782
10009SOL    HW130926   1.768   4.260   1.715
10009SOL    HW230927   1.674   4.129   1.741
10010SOL     OW30928   2.278   6.854   6.733
10010SOL    HW130929   2.320   6.848   6.642
10010SOL    HW230930   2.296   6.944   6.772
10011SOL     OW30931   5.907   2.370   4.835
10011SOL    HW130932   5.919   2.274   4.810
10011SOL    HW230933   5.809   2.393   4.834
10012SOL     OW30934   4.726   0.046   2.742
10012SOL    HW130935   4.715   0.081   2.649
10012SOL    HW230936   4.756   6.973   2.739
10013SOL     OW30937   1.668   1.529   3.920
10013SOL    HW130938   1.733   1.606   3.919
10013SOL    HW230939   1.585   1.556   3.872
10014SOL     OW30940   6.414   2.992   6.794
10014SOL    HW130941   6.474   2.979   6.715
10014SOL    HW230942   6.416   3.088   6.822
10015SOL     OW30943   2.766   4.453   0.777
10015SOL    HW130944   2.760   4.421   0.872
10015SOL    HW230945   2.821   4.389   0.724
10016SOL     OW30946   2.075   0.499   4.931
10016SOL    HW130947   2.087   0.420   4.990
10016SOL    HW230948   1.981   0.501   4.896
10017SOL     OW30949   2.035   2.572   2.365
10017SOL    HW130950   2.125   2.595   2.401
10017SOL    HW230951   1.970   2.562   2.440
10018SOL     OW30952   4.916   6.781   5.830
10018SOL    HW130953   5.002   6.824   5.801
10018SOL    HW230954   4.860   6.760   5.750
10019SOL     OW30955   1.492   2.029   2.740
10019SOL    HW130956   1.398   1.994   2.739
10019SOL    HW230957   1.552   1.963   2.694
10020SOL     OW30958   0.822   2.946   1.645
10020SOL    HW130959   0.867   2.985   1.726
10020SOL    HW230960   0.795   2.852   1.665
10021SOL     OW30961   0.392   3.325   1.035
10021SOL    HW130962   0.355   3.361   0.950
10021SOL    HW230963   0.337   3.357   1.112
10022SOL     OW30964   3.770   6.910   0.562
10022SOL    HW130965   3.807   6.976   0.496
10022SOL    HW230966   3.751   6.956   0.648
10023SOL     OW30967   1.500   5.249   6.169
10023SOL    HW130968   1.478   5.157   6.139
10023SOL    HW230969   1.430   5.281   6.233
10024SOL     OW30970   2.482   6.713   1.624
10024SOL    HW130971   2.538   6.670   1.553
10024SOL    HW230972   2.468   6.809   1.602
10025SOL     OW30973   1.141   1.110   1.538
10025SOL    HW130974   1.206   1.071   1.473
10025SOL    HW230975   1.089   1.037   1.582
10026SOL     OW30976   4.791   6.977   3.761
10026SOL    HW130977   4.823   6.936   3.846
10026SOL    HW230978   4.693   6.997   3.769
10027SOL     OW30979   0.196   4.155   5.227
10027SOL    HW130980   0.184   4.241   5.278
10027SOL    HW230981   0.255   4.094   5.280
10028SOL     OW30982   1.104   2.085   1.280
10028SOL    HW130983   1.100   2.184   1.293
10028SOL    HW230984   1.025   2.042   1.323
10029SOL     OW30985   3.750   2.149   3.882
10029SOL    HW130986   3.741   2.179   3.787
10029SOL    HW230987   3.683   2.198   3.939
10030SOL     OW30988   2.202   6.587   3.640
10030SOL    HW130989   2.296   6.620   3.644
10030SOL    HW230990   2.141   6.663   3.617
10031SOL     OW30991   5.891   5.156   3.773
10031SOL    HW130992   5.845   5.089   3.831
10031SOL    HW230993   5.889   5.125   3.678
10032SOL     OW30994   2.807   2.005   4.903
10032SOL    HW130995   2.883   2.070   4.903
10032SOL    HW230996   2.750   2.020   4.983
10033SOL     OW30997   4.836   2.164   3.825
10033SOL    HW130998   4.747   2.122   3.806
10033SOL    HW230999   4.909   2.106   3.787
10034SOL     OW31000   2.865   0.078   4.050
10034SOL    HW131001   2.825   7.009   4.046
10034SOL    HW231002   2.836   0.132   3.971
10035SOL     OW31003   6.824   4.495   2.138
10035SOL    HW131004   6.863   4.415   2.091
10035SOL    HW231005   6.777   4.465   2.221
10036SOL     OW31006   5.703   1.813   1.382
10036SOL    HW131007   5.646   1.843   1.458
10036SOL    HW231008   5.681   1.866   1.301
10037SOL     OW31009   6.536   1.083   0.763
10037SOL    HW131010   6.539   1.049   0.669
10037SOL    HW231011   6.484   1.168   0.766
10038SOL     OW31012   4.709   0.743   6.942
10038SOL    HW131013   4.766   0.678   6.892
10038SOL    HW231014   4.759   0.777   7.021
10039SOL     OW31015   3.792   0.444   3.373
10039SOL    HW131016   3.702   0.485   3.363
10039SOL    HW231017   3.795   0.391   3.458
10040SOL     OW31018   4.429   5.943   6.250
10040SOL    HW131019   4.483   5.920   6.170
10040SOL    HW231020   4.482   5.923   6.333
10041SOL     OW31021   4.206   6.290   6.856
10041SOL    HW131022   4.263   6.368   6.832
10041SOL    HW231023   4.141   6.272   6.783
10042SOL     OW31024   0.978   1.925   4.361
10042SOL    HW131025   1.065   1.877   4.367
10042SOL    HW231026   0.905   1.869   4.401
10043SOL     OW31027   6.456   1.662   5.005
10043SOL    HW131028   6.386   1.700   4.945
10043SOL    HW231029   6.546   1.694   4.975
10044SOL     OW31030   2.469   1.953   4.887
10044SOL    HW131031   2.511   2.035   4.847
10044SOL    HW231032   2.478   1.877   4.823
10045SOL     OW31033   3.534   0.204   3.252
10045SOL    HW131034   3.504   0.295   3.224
10045SOL    HW231035   3.575   0.156   3.175
10046SOL     OW31036   2.257   3.742   0.596
10046SOL    HW131037   2.208   3.768   0.680
10046SOL    HW231038   2.241   3.645   0.577
10047SOL     OW31039   0.976   3.630   4.537
10047SOL    HW131040   0.890   3.680   4.526
10047SOL    HW231041   0.961   3.533   4.519
10048SOL     OW31042   6.247   0.266   2.443
10048SOL    HW131043   6.313   0.304   2.378
10048SOL    HW231044   6.280   0.281   2.536
10049SOL     OW31045   1.260   1.925   6.256
10049SOL    HW131046   1.334   1.911   6.190
10049SOL    HW231047   1.172   1.915   6.210
10050SOL     OW31048   5.313   3.459   5.163
10050SOL    HW131049   5.215   3.451   5.145
10050SOL    HW231050   5.328   3.472   5.261
10051SOL     OW31051   6.222   4.090   5.610
10051SOL    HW131052   6.123   4.075   5.620
10051SOL    HW231053   6.248   4.171   5.663
10052SOL     OW31054   2.198   1.180   2.902
10052SOL    HW131055   2.268   1.246   2.877
10052SOL    HW231056   2.222   1.090   2.865
10053SOL     OW31057   4.069   5.525   3.337
10053SOL    HW131058   4.149   5.523   3.397
10053SOL    HW231059   4.030   5.617   3.336
10054SOL     OW31060   5.603   6.272   6.056
10054SOL    HW131061   5.614   6.328   6.138
10054SOL    HW231062   5.632   6.178   6.074
10055SOL     OW31063   6.109   1.496   5.023
10055SOL    HW131064   6.209   1.503   5.031
10055SOL    HW231065   6.070   1.488   5.115
10056SOL     OW31066   5.325   4.838   2.764
10056SOL    HW131067   5.396   4.782   2.806
10056SOL    HW231068   5.235   4.796   2.779
10057SOL     OW31069   4.222   2.839   5.410
10057SOL    HW131070   4.260   2.748   5.397
10057SOL    HW231071   4.132   2.844   5.366
10058SOL     OW31072   6.065   3.737   5.230
10058SOL    HW131073   5.981   3.714   5.280
10058SOL    HW231074   6.123   3.656   5.223
10059SOL     OW31075   0.335   1.685   6.601
10059SOL    HW131076   0.345   1.724   6.693
10059SOL    HW231077   0.248   1.635   6.596
10060SOL     OW31078   2.327   2.812   2.241
10060SOL    HW131079   2.266   2.822   2.163
10060SOL    HW231080   2.332   2.899   2.291
10061SOL     OW31081   4.731   1.544   3.816
10061SOL    HW131082   4.810   1.549   3.877
10061SOL    HW231083   4.654   1.591   3.858
10062SOL     OW31084   5.617   0.359   3.683
10062SOL    HW131085   5.536   0.341   3.739
10062SOL    HW231086   5.698   0.319   3.727
10063SOL     OW31087   2.878   1.205   4.679
10063SOL    HW131088   2.925   1.293   4.668
10063SOL    HW231089   2.815   1.211   4.757
10064SOL     OW31090   4.902   6.205   0.577
10064SOL    HW131091   4.986   6.211   0.524
10064SOL    HW231092   4.863   6.114   0.568
10065SOL     OW31093   2.316   0.354   2.461
10065SOL    HW131094   2.305   0.382   2.366
10065SOL    HW231095   2.393   0.403   2.503
10066SOL     OW31096   0.590   2.703   4.792
10066SOL    HW131097   0.550   2.740   4.876
10066SOL    HW231098   0.530   2.634   4.754
10067SOL     OW31099   0.363   3.342   5.296
10067SOL    HW131100   0.447   3.316   5.248
10067SOL    HW231101   0.385   3.403   5.371
10068SOL     OW31102   0.887   3.565   3.805
10068SOL    HW131103   0.817   3.538   3.740
10068SOL    HW231104   0.916   3.660   3.786
10069SOL     OW31105   3.423   5.202   1.609
10069SOL    HW131106   3.402   5.294   1.576
10069SOL    HW231107   3.440   5.141   1.532
10070SOL     OW31108   0.352   6.041   5.443
10070SOL    HW131109   0.302   6.120   5.409
10070SOL    HW231110   0.434   6.025   5.387
10071SOL     OW31111   0.005   6.184   4.351
10071SOL    HW131112   6.997   6.153   4.441
10071SOL    HW231113   0.031   6.106   4.295
10072SOL     OW31114   0.129   0.115   4.478
10072SOL    HW131115   0.208   0.054   4.485
10072SOL    HW231116   0.160   0.210   4.474
10073SOL     OW31117   6.562   3.969   4.329
10073SOL    HW131118   6.531   3.883   4.287
10073SOL    HW231119   6.646   3.953   4.380
10074SOL     OW31120   2.167   6.961   6.459
10074SOL    HW131121   2.219   6.879   6.438
10074SOL    HW231122   2.230   0.015   6.479
10075SOL     OW31123   1.592   2.245   1.864
10075SOL    HW131124   1.686   2.215   1.879
10075SOL    HW231125   1.580   2.337   1.901
10076SOL     OW31126   5.618   6.614   3.083
10076SOL    HW131127   5.651   6.618   3.177
10076SOL    HW231128   5.666   6.542   3.034
10077SOL     OW31129   3.803   3.480   0.750
10077SOL    HW131130   3.705   3.490   0.769
10077SOL    HW231131   3.831   3.549   0.683
10078SOL     OW31132   5.995   6.312   4.523
10078SOL    HW131133   6.001   6.327   4.621
10078SOL    HW231134   6.002   6.214   4.503
10079SOL     OW31135   5.777   3.351   3.019
10079SOL    HW131136   5.831   3.373   2.937
10079SOL    HW231137   5.819   3.274   3.066
10080SOL     OW31138   4.790   1.589   6.325
10080SOL    HW131139   4.734   1.508   6.340
10080SOL    HW231140   4.764   1.632   6.238
10081SOL     OW31141   0.698   1.774   6.734
10081SOL    HW131142   0.649   1.729   6.659
10081SOL    HW231143   0.690   1.719   6.817
10082SOL     OW31144   0.472   5.680   2.231
10082SOL    HW131145   0.457   5.582   2.250
10082SOL    HW231146   0.405   5.734   2.282
10083SOL     OW31147   3.397   0.408   3.873
10083SOL    HW131148   3.381   0.413   3.774
10083SOL    HW231149   3.409   0.312   3.900
10084SOL     OW31150   0.701   0.067   5.483
10084SOL    HW131151   0.713   6.991   5.501
10084SOL    HW231152   0.744   0.090   5.396
10085SOL     OW31153   3.620   0.160   0.927
10085SOL    HW131154   3.546   0.093   0.932
10085SOL    HW231155   3.700   0.119   0.884
10086SOL     OW31156   6.105   5.896   3.035
10086SOL    HW131157   6.091   5.993   3.056
10086SOL    HW231158   6.029   5.843   3.071
10087SOL     OW31159   6.440   5.565   4.272
10087SOL    HW131160   6.379   5.603   4.341
10087SOL    HW231161   6.534   5.570   4.305
10088SOL     OW31162   6.981   0.287   1.987
10088SOL    HW131163   6.967   0.379   1.949
10088SOL    HW231164   6.945   0.219   1.924
10089SOL     OW31165   3.260   2.087   3.324
10089SOL    HW131166   3.338   2.095   3.263
10089SOL    HW231167   3.290   2.055   3.414
10090SOL     OW31168   0.271   4.965   2.030
10090SOL    HW131169   0.225   4.900   1.969
10090SOL    HW231170   0.202   5.018   2.080
10091SOL     OW31171   6.423   5.560   6.347
10091SOL    HW131172   6.392   5.504   6.271
10091SOL    HW231173   6.520   5.543   6.364
10092SOL     OW31174   1.599   2.517   6.218
10092SOL    HW131175   1.513   2.485   6.258
10092SOL    HW231176   1.589   2.523   6.118
10093SOL     OW31177   4.522   3.405   5.353
10093SOL    HW131178   4.524   3.447   5.443
10093SOL    HW231179   4.553   3.471   5.284
10094SOL     OW31180   2.399   6.145   1.234
10094SOL    HW131181   2.322   6.202   1.262
10094SOL    HW231182   2.427   6.169   1.141
10095SOL     OW31183   5.153   1.594   4.567
10095SOL    HW131184   5.248   1.592   4.537
10095SOL    HW231185   5.130   1.685   4.599
10096SOL     OW31186   4.661   6.872   3.312
10096SOL    HW131187   4.591   6.843   3.377
10096SOL    HW231188   4.670   6.803   3.239
10097SOL     OW31189   1.783   2.096   6.656
10097SOL    HW131190   1.802   2.074   6.752
10097SOL    HW231191   1.772   2.195   6.647
10098SOL     OW31192   2.898   6.690   4.887
10098SOL    HW131193   2.843   6.729   4.961
10098SOL    HW231194   2.901   6.591   4.897
10099SOL     OW31195   0.270   4.779   1.626
10099SOL    HW131196   0.248   4.702   1.686
10099SOL    HW231197   0.193   4.844   1.626
10100SOL     OW31198   5.210   6.074   5.664
10100SOL    HW131199   5.252   5.990   5.697
10100SOL    HW231200   5.241   6.151   5.719
10101SOL     OW31201   0.069   3.298   2.050
10101SOL    HW131202   0.083   3.251   1.963
10101SOL    HW231203   0.058   3.231   2.123
10102SOL     OW31204   6.438   0.833   1.213
10102SOL    HW131205   6.478   0.887   1.139
10102SOL    HW231206   6.390   0.894   1.276
10103SOL     OW31207   2.083   0.220   5.541
10103SOL    HW131208   2.131   0.242   5.626
10103SOL    HW231209   2.118   0.277   5.467
10104SOL     OW31210   1.513   1.412   5.477
10104SOL    HW131211   1.421   1.438   5.507
10104SOL    HW231212   1.543   1.475   5.405
10105SOL     OW31213   2.125   0.688   6.053
10105SOL    HW131214   2.144   0.593   6.078
10105SOL    HW231215   2.148   0.703   5.957
10106SOL     OW31216   4.202   6.472   0.933
10106SOL    HW131217   4.184   6.432   1.023
10106SOL    HW231218   4.203   6.400   0.864
10107SOL     OW31219   5.440   1.556   6.277
10107SOL    HW131220   5.437   1.655   6.291
10107SOL    HW231221   5.530   1.521   6.304
10108SOL     OW31222   0.407   1.813   6.855
10108SOL    HW131223   0.378   1.909   6.849
10108SOL    HW231224   0.507   1.809   6.862
10109SOL     OW31225   0.465   1.052   0.937
10109SOL    HW131226   0.500   1.112   1.010
10109SOL    HW231227   0.366   1.066   0.927
10110SOL     OW31228   4.509   4.434   4.188
10110SOL    HW131229   4.569   4.355   4.171
10110SOL    HW231230   4.498   4.447   4.286
10111SOL     OW31231   7.003   3.513   3.332
10111SOL    HW131232   0.018   3.572   3.259
10111SOL    HW231233   0.051   3.499   3.401
10112SOL     OW31234   6.123   3.345   2.648
10112SOL    HW131235   6.105   3.341   2.747
10112SOL    HW231236   6.092   3.259   2.606
10113SOL     OW31237   4.368   0.230   0.983
10113SOL    HW131238   4.459   0.262   0.957
10113SOL    HW231239   4.352   0.140   0.942
10114SOL     OW31240   4.341   2.039   2.620
10114SOL    HW131241   4.416   2.067   2.561
10114SOL    HW231242   4.254   2.059   2.576
10115SOL     OW31243   4.130   1.963   5.013
10115SOL    HW131244   4.128   2.040   4.950
10115SOL    HW231245   4.149   1.879   4.963
10116SOL     OW31246   0.458   6.802   6.858
10116SOL    HW131247   0.448   6.800   6.758
10116SOL    HW231248   0.369   6.782   6.900
10117SOL     OW31249   6.999   6.349   6.046
10117SOL    HW131250   6.926   6.281   6.039
10117SOL    HW231251   6.964   6.439   6.022
10118SOL     OW31252   2.474   4.537   4.112
10118SOL    HW131253   2.447   4.621   4.064
10118SOL    HW231254   2.438   4.458   4.064
10119SOL     OW31255   6.336   4.671   3.761
10119SOL    HW131256   6.258   4.689   3.701
10119SOL    HW231257   6.325   4.724   3.846
10120SOL     OW31258   1.968   3.402   4.098
10120SOL    HW131259   1.897   3.441   4.156
10120SOL    HW231260   2.024   3.476   4.060
10121SOL     OW31261   5.829   3.857   0.242
10121SOL    HW131262   5.880   3.932   0.284
10121SOL    HW231263   5.822   3.781   0.307
10122SOL     OW31264   5.795   2.153   3.709
10122SOL    HW131265   5.832   2.079   3.653
10122SOL    HW231266   5.754   2.114   3.792
10123SOL     OW31267   5.979   6.374   0.931
10123SOL    HW131268   5.956   6.361   0.835
10123SOL    HW231269   5.996   6.471   0.948
10124SOL     OW31270   1.372   5.209   0.597
10124SOL    HW131271   1.443   5.199   0.667
10124SOL    HW231272   1.335   5.119   0.574
10125SOL     OW31273   2.563   1.425   0.964
10125SOL    HW131274   2.485   1.400   0.906
10125SOL    HW231275   2.622   1.345   0.976
10126SOL     OW31276   7.015   6.965   6.076
10126SOL    HW131277   6.981   6.981   6.169
10126SOL    HW231278   6.938   6.966   6.012
10127SOL     OW31279   2.043   3.553   0.460
10127SOL    HW131280   1.990   3.482   0.505
10127SOL    HW231281   2.006   3.643   0.484
10128SOL     OW31282   2.870   0.933   5.753
10128SOL    HW131283   2.861   0.998   5.829
10128SOL    HW231284   2.788   0.939   5.696
10129SOL     OW31285   6.914   1.909   2.238
10129SOL    HW131286   6.854   1.878   2.165
10129SOL    HW231287   6.902   1.851   2.318
10130SOL     OW31288   0.575   3.454   1.486
10130SOL    HW131289   0.591   3.448   1.584
10130SOL    HW231290   0.539   3.545   1.463
10131SOL     OW31291   1.504   0.391   3.958
10131SOL    HW131292   1.588   0.364   4.005
10131SOL    HW231293   1.519   0.390   3.859
10132SOL     OW31294   1.418   0.411   2.838
10132SOL    HW131295   1.511   0.446   2.853
10132SOL    HW231296   1.420   0.311   2.841
10133SOL     OW31297   4.635   6.715   0.995
10133SOL    HW131298   4.620   6.671   1.084
10133SOL    HW231299   4.716   6.773   1.000
10134SOL     OW31300   5.883   1.175   3.039
10134SOL    HW131301   5.932   1.166   3.126
10134SOL    HW231302   5.797   1.123   3.045
10135SOL     OW31303   4.841   2.485   3.792
10135SOL    HW131304   4.848   2.522   3.699
10135SOL    HW231305   4.890   2.399   3.797
10136SOL     OW31306   5.423   1.789   2.274
10136SOL    HW131307   5.338   1.805   2.324
10136SOL    HW231308   5.443   1.691   2.273
10137SOL     OW31309   0.310   4.964   5.352
10137SOL    HW131310   0.235   4.956   5.286
10137SOL    HW231311   0.281   4.926   5.440
10138SOL     OW31312   5.884   3.034   0.611
10138SOL    HW131313   5.806   3.021   0.550
10138SOL    HW231314   5.881   3.126   0.649
10139SOL     OW31315   3.116   4.040   4.787
10139SOL    HW131316   3.056   4.072   4.861
10139SOL    HW231317   3.173   3.966   4.821
10140SOL     OW31318   7.008   6.605   6.523
10140SOL    HW131319   6.997   6.703   6.542
10140SOL    HW231320   0.053   6.593   6.449
10141SOL     OW31321   3.716   1.119   4.715
10141SOL    HW131322   3.795   1.161   4.671
10141SOL    HW231323   3.710   1.023   4.690
10142SOL     OW31324   5.932   6.669   5.718
10142SOL    HW131325   5.915   6.578   5.756
10142SOL    HW231326   5.870   6.735   5.760
10143SOL     OW31327   5.495   3.030   0.148
10143SOL    HW131328   5.492   3.118   0.197
10143SOL    HW231329   5.426   3.030   0.076
10144SOL     OW31330   4.749   6.292   5.118
10144SOL    HW131331   4.830   6.288   5.176
10144SOL    HW231332   4.768   6.348   5.037
10145SOL     OW31333   3.798   5.486   3.094
10145SOL    HW131334   3.800   5.386   3.086
10145SOL    HW231335   3.876   5.516   3.149
10146SOL     OW31336   6.975   3.958   4.703
10146SOL    HW131337   7.015   4.048   4.684
10146SOL    HW231338   6.939   3.957   4.796
10147SOL     OW31339   4.633   4.020   6.348
10147SOL    HW131340   4.699   3.957   6.308
10147SOL    HW231341   4.647   4.112   6.311
10148SOL     OW31342   5.849   3.921   0.988
10148SOL    HW131343   5.769   3.861   0.995
10148SOL    HW231344   5.932   3.869   1.009
10149SOL     OW31345   5.025   4.628   1.405
10149SOL    HW131346   5.044   4.622   1.503
10149SOL    HW231347   4.936   4.670   1.391
10150SOL     OW31348   4.478   3.399   1.448
10150SOL    HW131349   4.527   3.329   1.500
10150SOL    HW231350   4.505   3.392   1.351
10151SOL     OW31351   1.029   0.265   6.364
10151SOL    HW131352   1.015   0.213   6.280
10151SOL    HW231353   0.946   0.259   6.421
10152SOL     OW31354   6.363   5.712   4.039
10152SOL    HW131355   6.266   5.687   4.049
10152SOL    HW231356   6.417   5.663   4.108
10153SOL     OW31357   4.901   5.937   4.131
10153SOL    HW131358   4.881   5.955   4.228
10153SOL    HW231359   4.983   5.880   4.124
10154SOL     OW31360   3.180   6.416   6.040
10154SOL    HW131361   3.234   6.482   5.987
10154SOL    HW231362   3.234   6.383   6.117
10155SOL     OW31363   5.035   2.457   5.518
10155SOL    HW131364   4.946   2.452   5.472
10155SOL    HW231365   5.032   2.528   5.588
10156SOL     OW31366   5.378   0.801   1.476
10156SOL    HW131367   5.381   0.794   1.376
10156SOL    HW231368   5.403   0.713   1.516
10157SOL     OW31369   6.984   2.364   0.265
10157SOL    HW131370   6.986   2.360   0.364
10157SOL    HW231371   0.056   2.369   0.229
10158SOL     OW31372   6.024   6.402   1.901
10158SOL    HW131373   6.038   6.338   1.977
10158SOL    HW231374   5.980   6.355   1.825
10159SOL     OW31375   3.707   3.251   2.561
10159SOL    HW131376   3.730   3.346   2.538
10159SOL    HW231377   3.726   3.234   2.657
10160SOL     OW31378   1.779   3.950   3.202
10160SOL    HW131379   1.787   4.048   3.186
10160SOL    HW231380   1.823   3.927   3.289
10161SOL     OW31381   3.287   4.984   6.602
10161SOL    HW131382   3.253   5.029   6.685
10161SOL    HW231383   3.288   5.050   6.527
10162SOL     OW31384   2.294   4.223   0.721
10162SOL    HW131385   2.368   4.219   0.654
10162SOL    HW231386   2.323   4.279   0.799
10163SOL     OW31387   0.655   4.986   6.475
10163SOL    HW131388   0.703   5.056   6.527
10163SOL    HW231389   0.559   5.012   6.464
10164SOL     OW31390   5.918   3.004   4.538
10164SOL    HW131391   5.957   3.080   4.486
10164SOL    HW231392   5.923   2.920   4.484
10165SOL     OW31393   6.568   2.566   3.712
10165SOL    HW131394   6.594   2.633   3.643
10165SOL    HW231395   6.644   2.503   3.728
10166SOL     OW31396   1.287   1.899   1.182
10166SOL    HW131397   1.263   1.802   1.185
10166SOL    HW231398   1.214   1.952   1.224
10167SOL     OW31399   6.895   5.645   0.147
10167SOL    HW131400   6.931   5.635   0.055
10167SOL    HW231401   6.797   5.665   0.143
10168SOL     OW31402   6.647   1.837   6.110
10168SOL    HW131403   6.708   1.913   6.133
10168SOL    HW231404   6.572   1.834   6.176
10169SOL     OW31405   6.360   3.826   3.279
10169SOL    HW131406   6.271   3.824   3.233
10169SOL    HW231407   6.348   3.810   3.377
10170SOL     OW31408   6.549   5.807   6.198
10170SOL    HW131409   6.611   5.882   6.220
10170SOL    HW231410   6.486   5.793   6.274
10171SOL     OW31411   0.592   2.377   4.424
10171SOL    HW131412   0.621   2.455   4.368
10171SOL    HW231413   0.643   2.378   4.510
10172SOL     OW31414   0.571   0.135   4.505
10172SOL    HW131415   0.494   0.087   4.547
10172SOL    HW231416   0.568   0.121   4.406
10173SOL     OW31417   2.487   3.292   6.456
10173SOL    HW131418   2.561   3.350   6.490
10173SOL    HW231419   2.418   3.348   6.411
10174SOL     OW31420   4.434   4.483   3.662
10174SOL    HW131421   4.454   4.484   3.760
10174SOL    HW231422   4.375   4.560   3.639
10175SOL     OW31423   6.188   1.591   4.025
10175SOL    HW131424   6.131   1.668   4.055
10175SOL    HW231425   6.246   1.561   4.101
10176SOL     OW31426   6.279   3.003   5.444
10176SOL    HW131427   6.307   2.950   5.523
10176SOL    HW231428   6.359   3.032   5.392
10177SOL     OW31429   1.582   6.890   1.011
10177SOL    HW131430   1.483   6.886   0.993
10177SOL    HW231431   1.630   6.903   0.925
10178SOL     OW31432   1.519   1.106   0.676
10178SOL    HW131433   1.606   1.146   0.648
10178SOL    HW231434   1.446   1.137   0.615
10179SOL     OW31435   0.323   3.873   6.464
10179SOL    HW131436   0.361   3.825   6.544
10179SOL    HW231437   0.318   3.810   6.387
10180SOL     OW31438   4.447   0.402   0.554
10180SOL    HW131439   4.355   0.391   0.515
10180SOL    HW231440   4.500   0.464   0.497
10181SOL     OW31441   0.807   3.227   1.152
10181SOL    HW131442   0.717   3.208   1.111
10181SOL    HW231443   0.808   3.195   1.246
10182SOL     OW31444   5.114   1.516   0.120
10182SOL    HW131445   5.085   1.448   0.052
10182SOL    HW231446   5.034   1.554   0.166
10183SOL     OW31447   6.014   2.896   6.042
10183SOL    HW131448   5.928   2.847   6.052
10183SOL    HW231449   6.047   2.926   6.132
10184SOL     OW31450   5.043   2.969   0.086
10184SOL    HW131451   4.983   2.939   0.160
10184SOL    HW231452   5.071   3.063   0.102
10185SOL     OW31453   5.868   5.917   2.345
10185SOL    HW131454   5.811   5.882   2.271
10185SOL    HW231455   5.925   5.844   2.381
10186SOL     OW31456   4.973   3.484   4.852
10186SOL    HW131457   4.909   3.516   4.922
10186SOL    HW231458   4.924   3.426   4.787
10187SOL     OW31459   1.689   4.528   5.665
10187SOL    HW131460   1.766   4.495   5.610
10187SOL    HW231461   1.722   4.597   5.729
10188SOL     OW31462   2.661   5.003   6.844
10188SOL    HW131463   2.597   5.080   6.845
10188SOL    HW231464   2.709   4.999   6.932
10189SOL     OW31465   1.594   0.724   6.317
10189SOL    HW131466   1.505   0.711   6.272
10189SOL    HW231467   1.615   0.643   6.372
10190SOL     OW31468   4.344   3.202   1.761
10190SOL    HW131469   4.386   3.235   1.846
10190SOL    HW231470   4.416   3.187   1.693
10191SOL     OW31471   5.579   5.533   0.625
10191SOL    HW131472   5.570   5.553   0.528
10191SOL    HW231473   5.675   5.518   0.648
10192SOL     OW31474   3.375   1.863   5.112
10192SOL    HW131475   3.305   1.801   5.075
10192SOL    HW231476   3.465   1.819   5.106
10193SOL     OW31477   2.978   3.804   2.286
10193SOL    HW131478   2.991   3.745   2.206
10193SOL    HW231479   2.898   3.863   2.272
10194SOL     OW31480   4.589   0.572   4.556
10194SOL    HW131481   4.493   0.545   4.551
10194SOL    HW231482   4.635   0.549   4.470
10195SOL     OW31483   6.676   0.229   2.035
10195SOL    HW131484   6.703   0.158   1.970
10195SOL    HW231485   6.618   0.296   1.990
10196SOL     OW31486   5.270   1.778   3.524
10196SOL    HW131487   5.360   1.812   3.550
10196SOL    HW231488   5.224   1.846   3.467
10197SOL     OW31489   4.750   1.587   4.274
10197SOL    HW131490   4.769   1.579   4.372
10197SOL    HW231491   4.806   1.522   4.223
10198SOL     OW31492   3.724   6.714   0.855
10198SOL    HW131493   3.809   6.665   0.876
10198SOL    HW231494   3.746   6.802   0.814
10199SOL     OW31495   0.540   2.055   6.366
10199SOL    HW131496   0.465   2.121   6.361
10199SOL    HW231497   0.509   1.973   6.414
10200SOL     OW31498   5.002   3.322   5.436
10200SOL    HW131499   5.066   3.383   5.483
10200SOL    HW231500   5.045   3.233   5.422
10201SOL     OW31501   0.558   5.752   1.175
10201SOL    HW131502   0.473   5.699   1.179
10201SOL    HW231503   0.565   5.797   1.086
10202SOL     OW31504   1.399   3.909   0.490
10202SOL    HW131505   1.401   3.858   0.576
10202SOL    HW231506   1.344   3.859   0.422
10203SOL     OW31507   1.341   3.045   1.679
10203SOL    HW131508   1.408   3.004   1.617
10203SOL    HW231509   1.331   3.142   1.658
10204SOL     OW31510   3.073   5.557   6.247
10204SOL    HW131511   3.085   5.467   6.289
10204SOL    HW231512   3.020   5.548   6.163
10205SOL     OW31513   3.217   1.393   2.303
10205SOL    HW131514   3.189   1.331   2.377
10205SOL    HW231515   3.172   1.366   2.218
10206SOL     OW31516   4.968   6.543   6.735
10206SOL    HW131517   4.897   6.610   6.714
10206SOL    HW231518   4.959   6.464   6.674
10207SOL     OW31519   2.198   1.263   0.349
10207SOL    HW131520   2.158   1.354   0.360
10207SOL    HW231521   2.254   1.242   0.429
10208SOL     OW31522   6.293   4.793   3.993
10208SOL    HW131523   6.251   4.751   4.074
10208SOL    HW231524   6.278   4.891   3.995
10209SOL     OW31525   0.464   0.578   5.428
10209SOL    HW131526   0.415   0.666   5.428
10209SOL    HW231527   0.525   0.575   5.349
10210SOL     OW31528   4.864   0.407   1.781
10210SOL    HW131529   4.937   0.344   1.753
10210SOL    HW231530   4.846   0.471   1.708
10211SOL     OW31531   4.227   6.414   5.456
10211SOL    HW131532   4.309   6.378   5.500
10211SOL    HW231533   4.252   6.452   5.367
10212SOL     OW31534   0.292   0.958   4.489
10212SOL    HW131535   0.339   1.009   4.560
10212SOL    HW231536   0.340   0.969   4.402
10213SOL     OW31537   5.973   2.519   1.918
10213SOL    HW131538   5.878   2.550   1.918
10213SOL    HW231539   6.029   2.586   1.870
10214SOL     OW31540   1.057   2.140   2.518
10214SOL    HW131541   1.079   2.169   2.425
10214SOL    HW231542   1.009   2.214   2.566
10215SOL     OW31543   3.680   2.989   4.054
10215SOL    HW131544   3.697   3.087   4.062
10215SOL    HW231545   3.581   2.972   4.060
10216SOL     OW31546   0.715   0.210   0.730
10216SOL    HW131547   0.692   0.128   0.783
10216SOL    HW231548   0.725   0.185   0.633
10217SOL     OW31549   2.518   1.568   4.121
10217SOL    HW131550   2.458   1.543   4.046
10217SOL    HW231551   2.606   1.522   4.111
10218SOL     OW31552   1.761   0.597   1.894
10218SOL    HW131553   1.825   0.642   1.831
10218SOL    HW231554   1.780   0.499   1.896
10219SOL     OW31555   0.541   3.204   1.916
10219SOL    HW131556   0.488   3.184   1.998
10219SOL    HW231557   0.596   3.124   1.892
10220SOL     OW31558   4.442   1.447   2.063
10220SOL    HW131559   4.466   1.389   1.985
10220SOL    HW231560   4.348   1.479   2.054
10221SOL     OW31561   1.656   2.666   3.925
10221SOL    HW131562   1.578   2.656   3.863
10221SOL    HW231563   1.635   2.736   3.994
10222SOL     OW31564   2.257   3.032   6.312
10222SOL    HW131565   2.220   2.955   6.260
10222SOL    HW231566   2.325   2.999   6.377
10223SOL     OW31567   1.534   5.995   6.687
10223SOL    HW131568   1.500   6.025   6.598
10223SOL    HW231569   1.590   5.913   6.676
10224SOL     OW31570   6.674   1.784   4.896
10224SOL    HW131571   6.719   1.769   4.808
10224SOL    HW231572   6.674   1.882   4.916
10225SOL     OW31573   1.925   6.165   6.140
10225SOL    HW131574   2.013   6.122   6.120
10225SOL    HW231575   1.879   6.113   6.212
10226SOL     OW31576   2.475   6.985   6.995
10226SOL    HW131577   2.413   0.039   7.015
10226SOL    HW231578   2.478   6.923   0.051
10227SOL     OW31579   4.989   4.978   0.958
10227SOL    HW131580   5.023   4.914   0.890
10227SOL    HW231581   4.976   4.930   1.045
10228SOL     OW31582   1.022   5.514   2.107
10228SOL    HW131583   0.960   5.448   2.150
10228SOL    HW231584   0.973   5.565   2.036
10229SOL     OW31585   0.506   1.508   4.396
10229SOL    HW131586   0.462   1.543   4.479
10229SOL    HW231587   0.488   1.410   4.387
10230SOL     OW31588   6.432   6.401   3.251
10230SOL    HW131589   6.342   6.443   3.258
10230SOL    HW231590   6.460   6.367   3.341
10231SOL     OW31591   6.523   5.558   5.718
10231SOL    HW131592   6.470   5.477   5.693
10231SOL    HW231593   6.620   5.540   5.699
10232SOL     OW31594   2.543   0.480   3.871
10232SOL    HW131595   2.469   0.539   3.905
10232SOL    HW231596   2.537   0.391   3.915
10233SOL     OW31597   4.815   3.568   5.392
10233SOL    HW131598   4.747   3.577   5.320
10233SOL    HW231599   4.842   3.472   5.401
10234SOL     OW31600   4.915   1.215   0.782
10234SOL    HW131601   4.984   1.188   0.850
10234SOL    HW231602   4.961   1.244   0.698
10235SOL     OW31603   4.789   2.495   0.222
10235SOL    HW131604   4.860   2.440   0.267
10235SOL    HW231605   4.708   2.439   0.205
10236SOL     OW31606   2.607   6.867   1.824
10236SOL    HW131607   2.641   6.885   1.916
10236SOL    HW231608   2.522   6.815   1.829
10237SOL     OW31609   6.137   3.894   0.967
10237SOL    HW131610   6.167   3.900   0.872
10237SOL    HW231611   6.163   3.978   1.016
10238SOL     OW31612   3.274   3.884   3.600
10238SOL    HW131613   3.278   3.979   3.629
10238SOL    HW231614   3.268   3.824   3.680
10239SOL     OW31615   0.912   4.007   5.111
10239SOL    HW131616   0.960   3.923   5.084
10239SOL    HW231617   0.976   4.084   5.108
10240SOL     OW31618   2.301   5.019   3.001
10240SOL    HW131619   2.256   5.086   3.060
10240SOL    HW231620   2.378   5.061   2.954
10241SOL     OW31621   6.862   0.535   2.267
10241SOL    HW131622   6.950   0.536   2.315
10241SOL    HW231623   6.812   0.452   2.290
10242SOL     OW31624   0.035   1.292   6.732
10242SOL    HW131625   0.009   1.231   6.807
10242SOL    HW231626   0.043   1.240   6.647
10243SOL     OW31627   0.710   4.916   1.363
10243SOL    HW131628   0.642   4.870   1.420
10243SOL    HW231629   0.792   4.858   1.357
10244SOL     OW31630   1.403   4.567   0.242
10244SOL    HW131631   1.500   4.591   0.235
10244SOL    HW231632   1.387   4.517   0.327
10245SOL     OW31633   3.038   4.913   6.874
10245SOL    HW131634   2.967   4.945   6.938
10245SOL    HW231635   3.002   4.837   6.819
10246SOL     OW31636   3.003   3.819   4.018
10246SOL    HW131637   2.961   3.740   3.973
10246SOL    HW231638   2.997   3.808   4.117
10247SOL     OW31639   0.052   5.495   5.293
10247SOL    HW131640   0.062   5.434   5.214
10247SOL    HW231641   6.978   5.524   5.301
10248SOL     OW31642   3.732   6.623   2.344
10248SOL    HW131643   3.822   6.582   2.334
10248SOL    HW231644   3.741   6.723   2.349
10249SOL     OW31645   3.439   1.435   6.213
10249SOL    HW131646   3.376   1.369   6.254
10249SOL    HW231647   3.490   1.391   6.139
10250SOL     OW31648   6.947   2.528   0.735
10250SOL    HW131649   6.943   2.627   0.731
10250SOL    HW231650   6.868   2.493   0.786
10251SOL     OW31651   2.758   2.352   5.138
10251SOL    HW131652   2.794   2.365   5.230
10251SOL    HW231653   2.728   2.257   5.127
10252SOL     OW31654   5.695   5.802   0.373
10252SOL    HW131655   5.685   5.706   0.347
10252SOL    HW231656   5.736   5.808   0.464
10253SOL     OW31657   5.101   5.795   0.105
10253SOL    HW131658   5.086   5.791   0.006
10253SOL    HW231659   5.065   5.712   0.148
10254SOL     OW31660   4.274   1.605   5.092
10254SOL    HW131661   4.198   1.542   5.075
10254SOL    HW231662   4.360   1.561   5.065
10255SOL     OW31663   2.046   5.990   1.433
10255SOL    HW131664   2.030   5.930   1.355
10255SOL    HW231665   2.142   5.983   1.461
10256SOL     OW31666   5.907   0.629   1.895
10256SOL    HW131667   6.006   0.640   1.903
10256SOL    HW231668   5.870   0.700   1.835
10257SOL     OW31669   1.656   5.315   4.127
10257SOL    HW131670   1.674   5.413   4.132
10257SOL    HW231671   1.561   5.297   4.154
10258SOL     OW31672   4.321   0.849   4.109
10258SOL    HW131673   4.294   0.874   4.202
10258SOL    HW231674   4.379   0.921   4.071
10259SOL     OW31675   0.350   4.529   3.259
10259SOL    HW131676   0.409   4.586   3.203
10259SOL    HW231677   0.317   4.451   3.205
10260SOL     OW31678   0.217   0.332   3.254
10260SOL    HW131679   0.310   0.319   3.219
10260SOL    HW231680   0.194   0.259   3.317
10261SOL     OW31681   6.428   5.104   3.524
10261SOL    HW131682   6.430   5.204   3.518
10261SOL    HW231683   6.472   5.064   3.444
10262SOL     OW31684   2.587   6.707   4.694
10262SOL    HW131685   2.656   6.779   4.695
10262SOL    HW231686   2.498   6.746   4.672
10263SOL     OW31687   4.714   0.611   6.383
10263SOL    HW131688   4.698   0.707   6.358
10263SOL    HW231689   4.662   0.589   6.465
10264SOL     OW31690   5.944   2.228   6.499
10264SOL    HW131691   5.881   2.171   6.552
10264SOL    HW231692   5.892   2.291   6.441
10265SOL     OW31693   3.233   1.896   2.923
10265SOL    HW131694   3.325   1.869   2.950
10265SOL    HW231695   3.225   1.996   2.929
10266SOL     OW31696   3.079   3.025   5.016
10266SOL    HW131697   3.022   3.106   5.004
10266SOL    HW231698   3.167   3.040   4.970
10267SOL     OW31699   5.923   1.610   0.210
10267SOL    HW131700   5.923   1.666   0.293
10267SOL    HW231701   6.012   1.618   0.164
10268SOL     OW31702   4.569   4.856   1.691
10268SOL    HW131703   4.652   4.907   1.672
10268SOL    HW231704   4.591   4.774   1.744
10269SOL     OW31705   1.025   2.647   5.158
10269SOL    HW131706   0.980   2.634   5.070
10269SOL    HW231707   1.103   2.708   5.147
10270SOL     OW31708   2.481   5.389   3.807
10270SOL    HW131709   2.530   5.399   3.720
10270SOL    HW231710   2.545   5.360   3.878
10271SOL     OW31711   4.180   2.706   0.569
10271SOL    HW131712   4.159   2.642   0.643
10271SOL    HW231713   4.279   2.710   0.556
10272SOL     OW31714   0.499   0.019   4.818
10272SOL    HW131715   0.481   0.038   4.915
10272SOL    HW231716   0.590   7.001   4.809
10273SOL     OW31717   4.326   4.975   3.495
10273SOL    HW131718   4.417   5.003   3.525
10273SOL    HW231719   4.262   5.051   3.506
10274SOL     OW31720   0.686   4.252   4.694
10274SOL    HW131721   0.627   4.266   4.615
10274SOL    HW231722   0.721   4.158   4.695
10275SOL     OW31723   0.867   6.066   1.887
10275SOL    HW131724   0.943   6.110   1.840
10275SOL    HW231725   0.782   6.085   1.838
10276SOL     OW31726   6.092   5.984   5.776
10276SOL    HW131727   6.122   5.890   5.790
10276SOL    HW231728   6.131   6.019   5.691
10277SOL     OW31729   2.465   5.607   4.242
10277SOL    HW131730   2.490   5.526   4.295
10277SOL    HW231731   2.519   5.610   4.158
10278SOL     OW31732   6.247   1.484   4.670
10278SOL    HW131733   6.193   1.548   4.614
10278SOL    HW231734   6.283   1.411   4.611
10279SOL     OW31735   2.305   5.627   4.833
10279SOL    HW131736   2.303   5.602   4.736
10279SOL    HW231737   2.219   5.672   4.857
10280SOL     OW31738   1.561   3.671   0.843
10280SOL    HW131739   1.603   3.644   0.756
10280SOL    HW231740   1.614   3.633   0.919
10281SOL     OW31741   6.390   1.343   2.848
10281SOL    HW131742   6.442   1.427   2.833
10281SOL    HW231743   6.293   1.362   2.831
10282SOL     OW31744   6.229   4.257   4.248
10282SOL    HW131745   6.225   4.196   4.327
10282SOL    HW231746   6.137   4.290   4.228
10283SOL     OW31747   0.683   3.450   0.462
10283SOL    HW131748   0.662   3.406   0.549
10283SOL    HW231749   0.769   3.500   0.469
10284SOL     OW31750   5.173   3.711   5.104
10284SOL    HW131751   5.270   3.698   5.125
10284SOL    HW231752   5.122   3.630   5.134
10285SOL     OW31753   4.856   1.308   1.416
10285SOL    HW131754   4.944   1.275   1.382
10285SOL    HW231755   4.837   1.398   1.377
10286SOL     OW31756   3.188   1.876   3.650
10286SOL    HW131757   3.229   1.797   3.695
10286SOL    HW231758   3.157   1.850   3.558
10287SOL     OW31759   2.658   5.994   1.591
10287SOL    HW131760   2.629   5.916   1.647
10287SOL    HW231761   2.746   6.028   1.624
10288SOL     OW31762   5.116   5.966   2.556
10288SOL    HW131763   5.138   5.870   2.575
10288SOL    HW231764   5.022   5.985   2.583
10289SOL     OW31765   3.174   1.047   2.089
10289SOL    HW131766   3.094   1.037   2.031
10289SOL    HW231767   3.190   0.962   2.140
10290SOL     OW31768   3.223   4.093   2.082
10290SOL    HW131769   3.172   4.178   2.089
10290SOL    HW231770   3.219   4.044   2.169
10291SOL     OW31771   4.219   1.386   4.258
10291SOL    HW131772   4.316   1.365   4.266
10291SOL    HW231773   4.189   1.440   4.337
10292SOL     OW31774   1.908   0.720   4.442
10292SOL    HW131775   1.925   0.775   4.359
10292SOL    HW231776   1.828   0.662   4.427
10293SOL     OW31777   2.037   5.554   3.900
10293SOL    HW131778   2.048   5.486   3.972
10293SOL    HW231779   1.954   5.608   3.918
10294SOL     OW31780   4.697   4.144   2.621
10294SOL    HW131781   4.709   4.049   2.648
10294SOL    HW231782   4.696   4.151   2.521
10295SOL     OW31783   5.916   5.436   5.873
10295SOL    HW131784   6.002   5.387   5.889
10295SOL    HW231785   5.931   5.508   5.806
10296SOL     OW31786   4.492   3.506   6.961
10296SOL    HW131787   4.413   3.468   6.913
10296SOL    HW231788   4.491   3.476   0.035
10297SOL     OW31789   2.048   6.492   6.148
10297SOL    HW131790   2.016   6.472   6.055
10297SOL    HW231791   1.971   6.524   6.204
10298SOL     OW31792   3.791   5.165   2.130
10298SOL    HW131793   3.878   5.174   2.082
10298SOL    HW231794   3.763   5.069   2.131
10299SOL     OW31795   4.863   4.922   2.827
10299SOL    HW131796   4.778   4.874   2.850
10299SOL    HW231797   4.846   4.989   2.755
10300SOL     OW31798   1.587   4.784   3.065
10300SOL    HW131799   1.574   4.796   3.163
10300SOL    HW231800   1.666   4.836   3.034
10301SOL     OW31801   6.122   2.219   3.309
10301SOL    HW131802   6.083   2.310   3.312
10301SOL    HW231803   6.176   2.208   3.225
10302SOL     OW31804   0.604   5.931   3.966
10302SOL    HW131805   0.628   5.918   3.870
10302SOL    HW231806   0.668   5.881   4.024
10303SOL     OW31807   2.325   5.076   1.829
10303SOL    HW131808   2.298   5.171   1.815
10303SOL    HW231809   2.333   5.031   1.740
10304SOL     OW31810   5.250   0.957   2.791
10304SOL    HW131811   5.345   0.969   2.761
10304SOL    HW231812   5.204   0.893   2.730
10305SOL     OW31813   0.766   4.858   6.830
10305SOL    HW131814   0.684   4.832   6.778
10305SOL    HW231815   0.757   4.829   6.925
10306SOL     OW31816   4.319   6.433   0.208
10306SOL    HW131817   4.281   6.525   0.208
10306SOL    HW231818   4.376   6.421   0.127
10307SOL     OW31819   1.919   2.258   4.544
10307SOL    HW131820   1.939   2.281   4.449
10307SOL    HW231821   1.998   2.279   4.601
10308SOL     OW31822   2.732   5.346   4.051
10308SOL    HW131823   2.720   5.439   4.087
10308SOL    HW231824   2.830   5.327   4.039
10309SOL     OW31825   6.027   1.124   3.261
10309SOL    HW131826   6.033   1.032   3.223
10309SOL    HW231827   6.119   1.156   3.285
10310SOL     OW31828   4.541   2.749   1.534
10310SOL    HW131829   4.560   2.663   1.487
10310SOL    HW231830   4.627   2.792   1.561
10311SOL     OW31831   0.638   5.420   1.284
10311SOL    HW131832   0.615   5.436   1.380
10311SOL    HW231833   0.734   5.395   1.276
10312SOL     OW31834   2.224   6.035   0.481
10312SOL    HW131835   2.161   6.112   0.480
10312SOL    HW231836   2.235   6.002   0.575
10313SOL     OW31837   3.825   0.101   1.524
10313SOL    HW131838   3.913   0.107   1.478
10313SOL    HW231839   3.755   0.071   1.459
10314SOL     OW31840   0.077   0.521   1.809
10314SOL    HW131841   0.060   0.574   1.892
10314SOL    HW231842   0.014   0.550   1.737
10315SOL     OW31843   6.269   5.483   4.582
10315SOL    HW131844   6.179   5.486   4.624
10315SOL    HW231845   6.268   5.419   4.505
10316SOL     OW31846   6.094   2.343   4.555
10316SOL    HW131847   6.180   2.362   4.506
10316SOL    HW231848   6.108   2.357   4.653
10317SOL     OW31849   3.307   6.267   6.220
10317SOL    HW131850   3.228   6.207   6.231
10317SOL    HW231851   3.337   6.301   6.309
10318SOL     OW31852   4.598   6.176   0.115
10318SOL    HW131853   4.657   6.098   0.140
10318SOL    HW231854   4.597   6.242   0.190
10319SOL     OW31855   1.808   2.784   5.654
10319SOL    HW131856   1.712   2.755   5.646
10319SOL    HW231857   1.867   2.708   5.627
10320SOL     OW31858   0.572   0.575   1.040
10320SOL    HW131859   0.637   0.499   1.048
10320SOL    HW231860   0.580   0.634   1.121
10321SOL     OW31861   4.240   0.634   3.678
10321SOL    HW131862   4.292   0.719   3.686
10321SOL    HW231863   4.161   0.650   3.619
10322SOL     OW31864   6.190   5.533   6.124
10322SOL    HW131865   6.095   5.565   6.124
10322SOL    HW231866   6.251   5.608   6.098
10323SOL     OW31867   6.510   3.828   5.831
10323SOL    HW131868   6.535   3.906   5.775
10323SOL    HW231869   6.496   3.748   5.772
10324SOL     OW31870   3.028   3.131   3.228
10324SOL    HW131871   2.966   3.071   3.279
10324SOL    HW231872   3.111   3.145   3.281
10325SOL     OW31873   6.682   4.476   3.162
10325SOL    HW131874   6.614   4.428   3.217
10325SOL    HW231875   6.761   4.500   3.219
10326SOL     OW31876   4.238   2.904   0.100
10326SOL    HW131877   4.303   2.829   0.107
10326SOL    HW231878   4.216   2.938   0.191
10327SOL     OW31879   2.671   1.417   1.816
10327SOL    HW131880   2.628   1.380   1.899
10327SOL    HW231881   2.715   1.504   1.837
10328SOL     OW31882   6.589   3.307   1.708
10328SOL    HW131883   6.579   3.381   1.642
10328SOL    HW231884   6.524   3.319   1.783
10329SOL     OW31885   3.792   0.261   3.992
10329SOL    HW131886   3.853   0.315   4.050
10329SOL    HW231887   3.814   0.277   3.896
10330SOL     OW31888   3.304   5.148   2.655
10330SOL    HW131889   3.339   5.068   2.705
10330SOL    HW231890   3.298   5.226   2.717
10331SOL     OW31891   6.549   0.404   3.436
10331SOL    HW131892   6.476   0.471   3.422
10331SOL    HW231893   6.637   0.445   3.413
10332SOL     OW31894   6.007   2.087   0.579
10332SOL    HW131895   5.991   2.116   0.673
10332SOL    HW231896   5.931   2.117   0.522
10333SOL     OW31897   6.483   4.216   4.484
10333SOL    HW131898   6.516   4.126   4.455
10333SOL    HW231899   6.497   4.283   4.412
10334SOL     OW31900   2.200   5.598   4.243
10334SOL    HW131901   2.130   5.664   4.269
10334SOL    HW231902   2.291   5.635   4.265
10335SOL     OW31903   2.388   5.112   0.295
10335SOL    HW131904   2.340   5.121   0.382
10335SOL    HW231905   2.331   5.061   0.231
10336SOL     OW31906   5.882   6.385   3.321
10336SOL    HW131907   5.810   6.455   3.324
10336SOL    HW231908   5.948   6.403   3.394
10337SOL     OW31909   6.572   6.661   5.548
10337SOL    HW131910   6.503   6.718   5.592
10337SOL    HW231911   6.634   6.719   5.496
10338SOL     OW31912   3.111   6.626   1.708
10338SOL    HW131913   3.011   6.636   1.707
10338SOL    HW231914   3.143   6.603   1.617
10339SOL     OW31915   3.787   5.203   0.695
10339SOL    HW131916   3.864   5.264   0.713
10339SOL    HW231917   3.787   5.129   0.763
10340SOL     OW31918   1.657   5.274   0.316
10340SOL    HW131919   1.667   5.373   0.315
10340SOL    HW231920   1.581   5.248   0.376
10341SOL     OW31921   2.212   3.329   1.683
10341SOL    HW131922   2.272   3.366   1.755
10341SOL    HW231923   2.220   3.230   1.682
10342SOL     OW31924   2.180   5.798   5.634
10342SOL    HW131925   2.203   5.849   5.551
10342SOL    HW231926   2.137   5.711   5.609
10343SOL     OW31927   2.517   3.894   0.503
10343SOL    HW131928   2.439   3.834   0.523
10343SOL    HW231929   2.521   3.911   0.404
10344SOL     OW31930   4.040   3.820   2.054
10344SOL    HW131931   4.064   3.873   1.973
10344SOL    HW231932   3.957   3.859   2.095
10345SOL     OW31933   1.917   0.844   6.065
10345SOL    HW131934   2.004   0.799   6.083
10345SOL    HW231935   1.879   0.879   6.151
10346SOL     OW31936   6.546   1.577   1.016
10346SOL    HW131937   6.495   1.492   1.001
10346SOL    HW231938   6.542   1.602   1.112
10347SOL     OW31939   5.704   2.638   1.931
10347SOL    HW131940   5.625   2.589   1.969
10347SOL    HW231941   5.684   2.736   1.927
10348SOL     OW31942   6.777   1.219   6.494
10348SOL    HW131943   6.750   1.214   6.397
10348SOL    HW231944   6.863   1.169   6.506
10349SOL     OW31945   0.080   1.853   6.747
10349SOL    HW131946   0.064   1.903   6.832
10349SOL    HW231947   0.144   1.778   6.764
10350SOL     OW31948   2.909   6.177   4.621
10350SOL    HW131949   2.989   6.192   4.563
10350SOL    HW231950   2.898   6.255   4.683
10351SOL     OW31951   6.041   5.108   6.075
10351SOL    HW131952   5.966   5.168   6.103
10351SOL    HW231953   6.004   5.019   6.047
10352SOL     OW31954   5.535   1.910   6.749
10352SOL    HW131955   5.614   1.950   6.703
10352SOL    HW231956   5.515   1.963   6.832
10353SOL     OW31957   0.022   2.837   4.374
10353SOL    HW131958   0.063   2.928   4.362
10353SOL    HW231959   6.995   2.811   4.291
10354SOL     OW31960   0.685   2.844   1.213
10354SOL    HW131961   0.648   2.898   1.289
10354SOL    HW231962   0.623   2.768   1.193
10355SOL     OW31963   1.288   0.959   1.086
10355SOL    HW131964   1.224   0.883   1.075
10355SOL    HW231965   1.342   0.970   1.003
10356SOL     OW31966   6.703   3.715   5.598
10356SOL    HW131967   6.631   3.668   5.548
10356SOL    HW231968   6.669   3.802   5.632
10357SOL     OW31969   4.209   2.521   6.083
10357SOL    HW131970   4.208   2.606   6.135
10357SOL    HW231971   4.286   2.465   6.112
10358SOL     OW31972   0.794   3.184   3.892
10358SOL    HW131973   0.731   3.261   3.888
10358SOL    HW231974   0.878   3.212   3.939
10359SOL     OW31975   5.253   2.198   1.991
10359SOL    HW131976   5.348   2.173   1.973
10359SOL    HW231977   5.232   2.285   1.947
10360SOL     OW31978   5.328   6.035   2.145
10360SOL    HW131979   5.242   6.020   2.192
10360SOL    HW231980   5.378   6.109   2.190
10361SOL     OW31981   2.564   1.135   2.512
10361SOL    HW131982   2.600   1.154   2.421
10361SOL    HW231983   2.529   1.219   2.552
10362SOL     OW31984   0.914   5.376   3.043
10362SOL    HW131985   0.886   5.307   3.111
10362SOL    HW231986   0.936   5.331   2.957
10363SOL     OW31987   5.447   2.344   1.328
10363SOL    HW131988   5.432   2.245   1.327
10363SOL    HW231989   5.470   2.373   1.420
10364SOL     OW31990   4.759   4.106   1.429
10364SOL    HW131991   4.798   4.099   1.522
10364SOL    HW231992   4.666   4.071   1.430
10365SOL     OW31993   6.022   4.531   0.026
10365SOL    HW131994   6.080   4.468   6.995
10365SOL    HW231995   5.990   4.604   6.988
10366SOL     OW31996   3.288   6.547   3.631
10366SOL    HW131997   3.212   6.486   3.610
10366SOL    HW231998   3.254   6.637   3.658
10367SOL     OW31999   0.153   1.849   1.292
10367SOL    HW132000   0.074   1.909   1.279
10367SOL    HW232001   0.121   1.759   1.322
10368SOL     OW32002   2.243   1.197   2.249
10368SOL    HW132003   2.148   1.217   2.273
10368SOL    HW232004   2.278   1.123   2.306
10369SOL     OW32005   2.734   6.640   6.055
10369SOL    HW132006   2.801   6.710   6.029
10369SOL    HW232007   2.649   6.684   6.085
10370SOL     OW32008   6.500   1.653   5.268
10370SOL    HW132009   6.598   1.659   5.286
10370SOL    HW232010   6.483   1.668   5.170
10371SOL     OW32011   2.300   6.457   4.601
10371SOL    HW132012   2.345   6.368   4.595
10371SOL    HW232013   2.333   6.516   4.527
10372SOL     OW32014   2.425   0.686   0.679
10372SOL    HW132015   2.448   0.676   0.582
10372SOL    HW232016   2.509   0.701   0.732
10373SOL     OW32017   1.076   6.878   5.004
10373SOL    HW132018   0.978   6.856   5.000
10373SOL    HW232019   1.106   6.913   4.915
10374SOL     OW32020   3.640   0.535   3.949
10374SOL    HW132021   3.572   0.471   3.913
10374SOL    HW232022   3.694   0.573   3.873
10375SOL     OW32023   2.568   2.313   5.941
10375SOL    HW132024   2.563   2.221   5.902
10375SOL    HW232025   2.570   2.380   5.866
10376SOL     OW32026   1.290   6.098   4.544
10376SOL    HW132027   1.210   6.062   4.497
10376SOL    HW232028   1.261   6.143   4.629
10377SOL     OW32029   0.239   1.053   2.103
10377SOL    HW132030   0.218   1.115   2.179
10377SOL    HW232031   0.225   1.101   2.016
10378SOL     OW32032   5.961   5.919   5.456
10378SOL    HW132033   6.040   5.904   5.516
10378SOL    HW232034   5.989   5.909   5.360
10379SOL     OW32035   3.512   5.748   4.727
10379SOL    HW132036   3.439   5.789   4.671
10379SOL    HW232037   3.480   5.662   4.765
10380SOL     OW32038   1.114   2.726   4.773
10380SOL    HW132039   1.146   2.774   4.692
10380SOL    HW232040   1.016   2.708   4.765
10381SOL     OW32041   4.449   3.767   1.344
10381SOL    HW132042   4.377   3.763   1.413
10381SOL    HW232043   4.434   3.695   1.276
10382SOL     OW32044   2.990   5.505   1.686
10382SOL    HW132045   2.912   5.469   1.636
10382SOL    HW232046   3.046   5.561   1.625
10383SOL     OW32047   0.932   4.404   0.667
10383SOL    HW132048   1.022   4.393   0.624
10383SOL    HW232049   0.888   4.315   0.677
10384SOL     OW32050   6.649   6.804   0.603
10384SOL    HW132051   6.575   6.809   0.669
10384SOL    HW232052   6.737   6.802   0.651
10385SOL     OW32053   3.990   5.851   6.429
10385SOL    HW132054   4.019   5.946   6.440
10385SOL    HW232055   3.897   5.848   6.394
10386SOL     OW32056   0.341   1.394   5.864
10386SOL    HW132057   0.427   1.379   5.913
10386SOL    HW232058   0.303   1.306   5.835
10387SOL     OW32059   4.854   2.967   2.879
10387SOL    HW132060   4.950   2.947   2.898
10387SOL    HW232061   4.833   3.061   2.905
10388SOL     OW32062   1.100   5.682   1.774
10388SOL    HW132063   1.025   5.670   1.839
10388SOL    HW232064   1.186   5.655   1.817
10389SOL     OW32065   6.208   4.122   1.106
10389SOL    HW132066   6.189   4.152   1.200
10389SOL    HW232067   6.298   4.156   1.078
10390SOL     OW32068   2.205   3.331   0.430
10390SOL    HW132069   2.121   3.384   0.427
10390SOL    HW232070   2.251   3.346   0.518
10391SOL     OW32071   0.104   6.240   3.986
10391SOL    HW132072   0.018   6.287   3.968
10391SOL    HW232073   0.148   6.216   3.899
10392SOL     OW32074   5.831   4.630   5.905
10392SOL    HW132075   5.922   4.590   5.902
10392SOL    HW232076   5.771   4.578   5.843
10393SOL     OW32077   2.284   2.846   3.088
10393SOL    HW132078   2.250   2.940   3.092
10393SOL    HW232079   2.307   2.816   3.181
10394SOL     OW32080   2.519   5.092   5.567
10394SOL    HW132081   2.550   5.002   5.598
10394SOL    HW232082   2.551   5.162   5.631
10395SOL     OW32083   0.404   0.605   1.769
10395SOL    HW132084   0.385   0.700   1.793
10395SOL    HW232085   0.380   0.546   1.846
10396SOL     OW32086   3.595   1.099   4.034
10396SOL    HW132087   3.640   1.189   4.037
10396SOL    HW232088   3.660   1.029   4.062
10397SOL     OW32089   3.541   0.830   4.509
10397SOL    HW132090   3.610   0.898   4.483
10397SOL    HW232091   3.586   0.743   4.531
10398SOL     OW32092   5.687   2.464   0.745
10398SOL    HW132093   5.653   2.386   0.798
10398SOL    HW232094   5.619   2.537   0.746
10399SOL     OW32095   4.732   1.972   3.081
10399SOL    HW132096   4.690   1.894   3.127
10399SOL    HW232097   4.720   1.962   2.982
10400SOL     OW32098   4.464   5.814   6.898
10400SOL    HW132099   4.482   5.905   6.863
10400SOL    HW232100   4.441   5.820   6.995
10401SOL     OW32101   0.417   6.318   2.624
10401SOL    HW132102   0.511   6.315   2.658
10401SOL    HW232103   0.414   6.372   2.540
10402SOL     OW32104   0.124   1.531   5.948
10402SOL    HW132105   0.201   1.477   5.913
10402SOL    HW232106   0.041   1.476   5.947
10403SOL     OW32107   4.561   2.551   3.169
10403SOL    HW132108   4.567   2.589   3.261
10403SOL    HW232109   4.566   2.625   3.102
10404SOL     OW32110   5.869   6.409   4.284
10404SOL    HW132111   5.906   6.399   4.376
10404SOL    HW232112   5.926   6.474   4.232
10405SOL     OW32113   1.417   6.392   4.665
10405SOL    HW132114   1.386   6.313   4.718
10405SOL    HW232115   1.513   6.379   4.639
10406SOL     OW32116   2.196   3.042   3.711
10406SOL    HW132117   2.250   2.981   3.769
10406SOL    HW232118   2.153   3.113   3.767
10407SOL     OW32119   2.621   6.452   6.410
10407SOL    HW132120   2.679   6.528   6.442
10407SOL    HW232121   2.564   6.484   6.335
10408SOL     OW32122   4.666   0.679   1.166
10408SOL    HW132123   4.721   0.757   1.137
10408SOL    HW232124   4.696   0.597   1.119
10409SOL     OW32125   6.747   4.851   0.935
10409SOL    HW132126   6.817   4.865   1.005
10409SOL    HW232127   6.658   4.840   0.978
10410SOL     OW32128   5.294   1.918   1.738
10410SOL    HW132129   5.378   1.867   1.758
10410SOL    HW232130   5.233   1.914   1.818
10411SOL     OW32131   2.773   6.358   3.556
10411SOL    HW132132   2.870   6.381   3.549
10411SOL    HW232133   2.762   6.270   3.602
10412SOL     OW32134   0.326   1.376   0.822
10412SOL    HW132135   0.353   1.346   0.730
10412SOL    HW232136   0.260   1.450   0.815
10413SOL     OW32137   6.770   3.043   1.044
10413SOL    HW132138   6.734   2.994   0.965
10413SOL    HW232139   6.782   2.979   1.120
10414SOL     OW32140   3.426   5.136   5.542
10414SOL    HW132141   3.442   5.059   5.479
10414SOL    HW232142   3.400   5.101   5.631
10415SOL     OW32143   1.323   3.892   4.352
10415SOL    HW132144   1.332   3.974   4.296
10415SOL    HW232145   1.255   3.831   4.311
10416SOL     OW32146   5.746   0.034   5.270
10416SOL    HW132147   5.704   7.002   5.343
10416SOL    HW232148   5.839   7.021   5.254
10417SOL     OW32149   3.256   4.904   3.846
10417SOL    HW132150   3.333   4.845   3.823
10417SOL    HW232151   3.266   4.938   3.940
10418SOL     OW32152   6.550   4.198   6.017
10418SOL    HW132153   6.472   4.137   6.033
10418SOL    HW232154   6.630   4.144   5.990
10419SOL     OW32155   3.333   6.545   6.469
10419SOL    HW132156   3.274   6.492   6.530
10419SOL    HW232157   3.282   6.572   6.388
10420SOL     OW32158   0.048   3.521   4.207
10420SOL    HW132159   0.092   3.603   4.172
10420SOL    HW232160   0.088   3.497   4.296
10421SOL     OW32161   1.239   2.603   4.272
10421SOL    HW132162   1.258   2.574   4.178
10421SOL    HW232163   1.188   2.532   4.320
10422SOL     OW32164   6.186   3.076   4.731
10422SOL    HW132165   6.184   3.171   4.700
10422SOL    HW232166   6.093   3.046   4.752
10423SOL     OW32167   5.478   5.083   5.731
10423SOL    HW132168   5.456   5.178   5.708
10423SOL    HW232169   5.404   5.045   5.786
10424SOL     OW32170   4.159   3.200   1.359
10424SOL    HW132171   4.217   3.192   1.278
10424SOL    HW232172   4.141   3.297   1.377
10425SOL     OW32173   1.319   7.019   2.288
10425SOL    HW132174   1.412   6.991   2.311
10425SOL    HW232175   1.254   6.969   2.345
10426SOL     OW32176   5.279   4.640   0.107
10426SOL    HW132177   5.280   4.672   0.013
10426SOL    HW232178   5.272   4.718   0.169
10427SOL     OW32179   4.115   1.078   6.948
10427SOL    HW132180   4.199   1.128   6.927
10427SOL    HW232181   4.112   1.057   0.024
10428SOL     OW32182   3.782   0.874   3.556
10428SOL    HW132183   3.809   0.915   3.643
10428SOL    HW232184   3.689   0.904   3.533
10429SOL     OW32185   7.012   4.042   1.974
10429SOL    HW132186   6.972   4.125   1.935
10429SOL    HW232187   6.991   3.964   1.915
10430SOL     OW32188   5.060   7.016   4.785
10430SOL    HW132189   5.084   0.002   4.688
10430SOL    HW232190   5.055   6.919   4.810
10431SOL     OW32191   2.654   6.099   4.640
10431SOL    HW132192   2.633   6.023   4.579
10431SOL    HW232193   2.751   6.121   4.633
10432SOL     OW32194   5.992   0.369   4.698
10432SOL    HW132195   6.077   0.421   4.691
10432SOL    HW232196   5.960   0.346   4.606
10433SOL     OW32197   1.243   6.097   2.372
10433SOL    HW132198   1.337   6.067   2.388
10433SOL    HW232199   1.199   6.034   2.308
10434SOL     OW32200   3.849   5.639   2.696
10434SOL    HW132201   3.778   5.675   2.635
10434SOL    HW232202   3.917   5.589   2.641
10435SOL     OW32203   0.763   1.241   5.354
10435SOL    HW132204   0.788   1.320   5.298
10435SOL    HW232205   0.664   1.243   5.373
10436SOL     OW32206   6.244   4.574   5.715
10436SOL    HW132207   6.168   4.554   5.778
10436SOL    HW232208   6.330   4.547   5.758
10437SOL     OW32209   4.393   4.025   6.194
10437SOL    HW132210   4.484   4.034   6.233
10437SOL    HW232211   4.352   3.938   6.223
10438SOL     OW32212   6.495   6.663   6.707
10438SOL    HW132213   6.557   6.648   6.630
10438SOL    HW232214   6.405   6.624   6.685
10439SOL     OW32215   4.025   1.745   4.874
10439SOL    HW132216   4.052   1.649   4.875
10439SOL    HW232217   3.983   1.767   4.786
10440SOL     OW32218   1.020   6.333   0.788
10440SOL    HW132219   1.041   6.394   0.864
10440SOL    HW232220   1.007   6.240   0.822
10441SOL     OW32221   4.131   1.587   1.279
10441SOL    HW132222   4.061   1.619   1.343
10441SOL    HW232223   4.162   1.496   1.306
10442SOL     OW32224   4.118   6.744   6.527
10442SOL    HW132225   4.111   6.763   6.625
10442SOL    HW232226   4.204   6.698   6.507
10443SOL     OW32227   4.884   3.753   3.960
10443SOL    HW132228   4.900   3.720   3.867
10443SOL    HW232229   4.908   3.681   4.025
10444SOL     OW32230   4.399   5.530   3.822
10444SOL    HW132231   4.300   5.537   3.806
10444SOL    HW232232   4.420   5.563   3.914
10445SOL     OW32233   1.031   4.632   4.345
10445SOL    HW132234   0.954   4.568   4.344
10445SOL    HW232235   1.115   4.583   4.368
10446SOL     OW32236   1.468   3.020   5.772
10446SOL    HW132237   1.544   2.964   5.804
10446SOL    HW232238   1.384   2.991   5.817
10447SOL     OW32239   0.216   1.213   2.322
10447SOL    HW132240   0.275   1.195   2.400
10447SOL    HW232241   0.260   1.278   2.261
10448SOL     OW32242   4.853   0.860   2.608
10448SOL    HW132243   4.877   0.957   2.610
10448SOL    HW232244   4.785   0.845   2.536
10449SOL     OW32245   1.786   5.593   4.858
10449SOL    HW132246   1.803   5.506   4.904
10449SOL    HW232247   1.689   5.600   4.835
10450SOL     OW32248   0.815   1.368   0.797
10450SOL    HW132249   0.794   1.406   0.888
10450SOL    HW232250   0.904   1.402   0.767
10451SOL     OW32251   2.286   5.845   2.508
10451SOL    HW132252   2.366   5.802   2.551
10451SOL    HW232253   2.227   5.885   2.578
10452SOL     OW32254   6.734   3.164   2.261
10452SOL    HW132255   6.735   3.079   2.312
10452SOL    HW232256   6.650   3.169   2.206
10453SOL     OW32257   4.063   0.136   1.362
10453SOL    HW132258   4.030   0.042   1.359
10453SOL    HW232259   4.159   0.137   1.391
10454SOL     OW32260   4.980   3.415   0.510
10454SOL    HW132261   4.980   3.317   0.528
10454SOL    HW232262   5.023   3.433   0.421
10455SOL     OW32263   6.339   5.928   3.571
10455SOL    HW132264   6.370   6.011   3.525
10455SOL    HW232265   6.255   5.895   3.529
10456SOL     OW32266   2.199   5.733   0.436
10456SOL    HW132267   2.107   5.697   0.420
10456SOL    HW232268   2.194   5.833   0.447
10457SOL     OW32269   3.408   3.060   1.312
10457SOL    HW132270   3.377   3.054   1.407
10457SOL    HW232271   3.475   3.134   1.302
10458SOL     OW32272   6.303   0.608   6.870
10458SOL    HW132273   6.311   0.675   6.944
10458SOL    HW232274   6.379   0.618   6.807
10459SOL     OW32275   4.940   5.856   1.496
10459SOL    HW132276   4.985   5.918   1.431
10459SOL    HW232277   4.990   5.857   1.583
10460SOL     OW32278   0.563   4.253   2.500
10460SOL    HW132279   0.582   4.319   2.427
10460SOL    HW232280   0.612   4.280   2.583
10461SOL     OW32281   7.002   5.463   5.922
10461SOL    HW132282   6.915   5.428   5.887
10461SOL    HW232283   0.046   5.471   5.847
10462SOL     OW32284   5.905   1.571   3.367
10462SOL    HW132285   5.940   1.484   3.402
10462SOL    HW232286   5.859   1.555   3.280
10463SOL     OW32287   4.427   3.028   5.970
10463SOL    HW132288   4.410   2.973   5.888
10463SOL    HW232289   4.399   3.123   5.952
10464SOL     OW32290   6.492   0.037   1.590
10464SOL    HW132291   6.397   0.017   1.613
10464SOL    HW232292   6.549   6.981   1.617
10465SOL     OW32293   6.294   5.353   0.970
10465SOL    HW132294   6.370   5.308   0.922
10465SOL    HW232295   6.233   5.395   0.903
10466SOL     OW32296   4.013   5.157   6.016
10466SOL    HW132297   3.956   5.223   5.966
10466SOL    HW232298   3.957   5.078   6.041
10467SOL     OW32299   2.977   1.201   6.770
10467SOL    HW132300   2.964   1.292   6.730
10467SOL    HW232301   3.064   1.199   6.818
10468SOL     OW32302   4.166   5.268   3.249
10468SOL    HW132303   4.134   5.354   3.289
10468SOL    HW232304   4.104   5.194   3.275
10469SOL     OW32305   4.251   4.472   5.687
10469SOL    HW132306   4.170   4.522   5.717
10469SOL    HW232307   4.223   4.392   5.634
10470SOL     OW32308   2.455   2.589   3.507
10470SOL    HW132309   2.522   2.515   3.505
10470SOL    HW232310   2.369   2.556   3.546
10471SOL     OW32311   2.723   1.974   1.284
10471SOL    HW132312   2.761   1.890   1.245
10471SOL    HW232313   2.755   1.986   1.377
10472SOL     OW32314   4.048   5.439   0.209
10472SOL    HW132315   4.038   5.344   0.238
10472SOL    HW232316   3.966   5.490   0.233
10473SOL     OW32317   6.758   0.422   6.313
10473SOL    HW132318   6.683   0.363   6.282
10473SOL    HW232319   6.834   0.366   6.346
10474SOL     OW32320   3.469   2.134   4.529
10474SOL    HW132321   3.456   2.212   4.468
10474SOL    HW232322   3.435   2.158   4.620
10475SOL     OW32323   4.527   6.935   1.453
10475SOL    HW132324   4.438   6.955   1.494
10475SOL    HW232325   4.569   6.859   1.503
10476SOL     OW32326   7.006   5.837   0.335
10476SOL    HW132327   0.080   5.816   0.359
10476SOL    HW232328   6.972   5.769   0.271
10477SOL     OW32329   6.723   1.922   4.398
10477SOL    HW132330   6.634   1.891   4.364
10477SOL    HW232331   6.795   1.870   4.352
10478SOL     OW32332   7.011   0.429   1.233
10478SOL    HW132333   0.009   0.375   1.314
10478SOL    HW232334   0.054   0.505   1.226
10479SOL     OW32335   0.168   2.357   2.228
10479SOL    HW132336   0.100   2.353   2.156
10479SOL    HW232337   0.170   2.449   2.268
10480SOL     OW32338   6.776   0.045   1.852
10480SOL    HW132339   6.712   0.003   1.787
10480SOL    HW232340   6.825   6.996   1.902
10481SOL     OW32341   2.323   6.828   4.765
10481SOL    HW132342   2.242   6.842   4.708
10481SOL    HW232343   2.378   6.911   4.767
10482SOL     OW32344   6.079   5.132   4.799
10482SOL    HW132345   6.011   5.079   4.747
10482SOL    HW232346   6.162   5.141   4.744
10483SOL     OW32347   6.420   4.581   6.944
10483SOL    HW132348   6.469   4.611   6.862
10483SOL    HW232349   6.482   4.582   0.001
10484SOL     OW32350   5.899   1.031   1.973
10484SOL    HW132351   5.867   1.125   1.985
10484SOL    HW232352   5.915   0.990   2.062
10485SOL     OW32353   3.211   4.037   1.036
10485SOL    HW132354   3.209   4.097   0.956
10485SOL    HW232355   3.304   4.002   1.049
10486SOL     OW32356   6.574   0.682   0.020
10486SOL    HW132357   6.629   0.676   6.959
10486SOL    HW232358   6.578   0.596   0.070
10487SOL     OW32359   4.753   1.563   2.424
10487SOL    HW132360   4.804   1.508   2.358
10487SOL    HW232361   4.675   1.511   2.458
10488SOL     OW32362   2.788   2.088   5.504
10488SOL    HW132363   2.853   2.148   5.550
10488SOL    HW232364   2.838   2.018   5.452
10489SOL     OW32365   6.998   6.933   4.617
10489SOL    HW132366   6.935   6.962   4.689
10489SOL    HW232367   0.030   7.012   4.587
10490SOL     OW32368   6.099   1.861   0.717
10490SOL    HW132369   6.099   1.779   0.659
10490SOL    HW232370   6.073   1.941   0.661
10491SOL     OW32371   2.616   2.058   5.820
10491SOL    HW132372   2.582   2.000   5.746
10491SOL    HW232373   2.714   2.073   5.808
10492SOL     OW32374   5.338   5.584   0.725
10492SOL    HW132375   5.423   5.563   0.676
10492SOL    HW232376   5.260   5.555   0.669
10493SOL     OW32377   3.266   6.818   1.903
10493SOL    HW132378   3.227   6.790   1.816
10493SOL    HW232379   3.220   6.901   1.935
10494SOL     OW32380   5.439   4.463   6.222
10494SOL    HW132381   5.348   4.495   6.194
10494SOL    HW232382   5.443   4.458   6.322
10495SOL     OW32383   0.874   6.661   0.927
10495SOL    HW132384   0.912   6.752   0.913
10495SOL    HW232385   0.945   6.600   0.960
10496SOL     OW32386   5.871   3.823   6.036
10496SOL    HW132387   5.941   3.808   5.966
10496SOL    HW232388   5.871   3.745   6.099
10497SOL     OW32389   1.984   7.016   1.684
10497SOL    HW132390   1.941   0.021   1.771
10497SOL    HW232391   1.995   0.075   1.627
10498SOL     OW32392   5.245   5.084   0.714
10498SOL    HW132393   5.205   4.993   0.722
10498SOL    HW232394   5.201   5.133   0.638
10499SOL     OW32395   4.917   0.365   2.305
10499SOL    HW132396   4.987   0.378   2.375
10499SOL    HW232397   4.886   0.270   2.307
10500SOL     OW32398   6.135   1.449   5.814
10500SOL    HW132399   6.115   1.428   5.910
10500SOL    HW232400   6.061   1.415   5.757
10501SOL     OW32401   2.138   5.661   2.366
10501SOL    HW132402   2.194   5.732   2.409
10501SOL    HW232403   2.152   5.663   2.267
10502SOL     OW32404   2.738   2.377   1.464
10502SOL    HW132405   2.719   2.294   1.410
10502SOL    HW232406   2.696   2.456   1.419
10503SOL     OW32407   5.064   3.032   1.094
10503SOL    HW132408   5.155   3.073   1.097
10503SOL    HW232409   5.063   2.949   1.150
10504SOL     OW32410   1.556   2.643   5.680
10504SOL    HW132411   1.546   2.564   5.620
10504SOL    HW232412   1.468   2.665   5.721
10505SOL     OW32413   5.434   5.132   0.940
10505SOL    HW132414   5.365   5.083   0.886
10505SOL    HW232415   5.423   5.231   0.926
10506SOL     OW32416   0.277   3.923   6.935
10506SOL    HW132417   0.222   3.881   7.007
10506SOL    HW232418   0.333   3.853   6.889
10507SOL     OW32419   1.703   5.890   0.848
10507SOL    HW132420   1.691   5.820   0.919
10507SOL    HW232421   1.692   5.981   0.888
10508SOL     OW32422   6.827   5.834   4.974
10508SOL    HW132423   6.736   5.874   4.978
10508SOL    HW232424   6.838   5.785   4.887
10509SOL     OW32425   6.820   5.383   5.038
10509SOL    HW132426   6.761   5.339   4.970
10509SOL    HW232427   6.834   5.320   5.115
10510SOL     OW32428   4.798   6.459   0.304
10510SOL    HW132429   4.700   6.442   0.308
10510SOL    HW232430   4.847   6.385   0.351
10511SOL     OW32431   2.580   1.335   2.088
10511SOL    HW132432   2.595   1.430   2.111
10511SOL    HW232433   2.628   1.276   2.153
10512SOL     OW32434   4.218   0.481   5.336
10512SOL    HW132435   4.244   0.574   5.364
10512SOL    HW232436   4.299   0.422   5.336
10513SOL     OW32437   6.727   3.027   3.592
10513SOL    HW132438   6.647   3.069   3.635
10513SOL    HW232439   6.709   3.015   3.494
10514SOL     OW32440   0.641   3.428   0.973
10514SOL    HW132441   0.560   3.408   1.028
10514SOL    HW232442   0.723   3.391   1.018
10515SOL     OW32443   1.353   4.178   3.993
10515SOL    HW132444   1.255   4.198   3.994
10515SOL    HW232445   1.369   4.088   3.953
10516SOL     OW32446   3.203   1.943   0.651
10516SOL    HW132447   3.275   1.881   0.620
10516SOL    HW232448   3.192   2.017   0.585
10517SOL     OW32449   0.744   3.121   0.881
10517SOL    HW132450   0.704   3.151   0.794
10517SOL    HW232451   0.839   3.152   0.886
10518SOL     OW32452   0.151   5.867   0.731
10518SOL    HW132453   0.114   5.960   0.739
10518SOL    HW232454   0.174   5.833   0.823
10519SOL     OW32455   3.033   3.744   0.902
10519SOL    HW132456   2.956   3.681   0.898
10519SOL    HW232457   3.077   3.738   0.992
10520SOL     OW32458   0.782   2.291   5.891
10520SOL    HW132459   0.844   2.302   5.814
10520SOL    HW232460   0.833   2.264   5.973
10521SOL     OW32461   6.618   5.049   1.259
10521SOL    HW132462   6.536   4.994   1.250
10521SOL    HW232463   6.659   5.033   1.349
10522SOL     OW32464   0.306   1.289   4.163
10522SOL    HW132465   0.269   1.381   4.158
10522SOL    HW232466   0.385   1.288   4.225
10523SOL     OW32467   0.754   4.999   3.024
10523SOL    HW132468   0.842   5.038   3.052
10523SOL    HW232469   0.691   4.998   3.101
10524SOL     OW32470   0.624   6.565   3.876
10524SOL    HW132471   0.714   6.530   3.902
10524SOL    HW232472   0.577   6.497   3.820
10525SOL     OW32473   3.847   0.675   5.383
10525SOL    HW132474   3.851   0.730   5.466
10525SOL    HW232475   3.909   0.596   5.393
10526SOL     OW32476   1.111   6.852   2.878
10526SOL    HW132477   1.025   6.900   2.862
10526SOL    HW232478   1.116   6.772   2.818
10527SOL     OW32479   1.136   0.774   5.188
10527SOL    HW132480   1.100   0.867   5.183
10527SOL    HW232481   1.229   0.772   5.151
10528SOL     OW32482   1.487   3.673   6.030
10528SOL    HW132483   1.541   3.753   6.054
10528SOL    HW232484   1.510   3.644   5.936
10529SOL     OW32485   2.599   6.434   4.259
10529SOL    HW132486   2.677   6.417   4.318
10529SOL    HW232487   2.556   6.521   4.284
10530SOL     OW32488   1.384   0.160   6.174
10530SOL    HW132489   1.347   0.204   6.092
10530SOL    HW232490   1.313   0.105   6.218
10531SOL     OW32491   1.616   2.478   4.118
10531SOL    HW132492   1.674   2.491   4.198
10531SOL    HW232493   1.648   2.537   4.044
10532SOL     OW32494   0.775   0.023   6.292
10532SOL    HW132495   0.679   0.032   6.266
10532SOL    HW232496   0.832   0.023   6.209
10533SOL     OW32497   2.918   6.936   3.514
10533SOL    HW132498   2.873   0.004   3.512
10533SOL    HW232499   2.968   6.922   3.428
10534SOL     OW32500   6.404   5.536   2.139
10534SOL    HW132501   6.466   5.535   2.061
10534SOL    HW232502   6.321   5.586   2.115
10535SOL     OW32503   1.814   1.935   2.239
10535SOL    HW132504   1.888   1.919   2.305
10535SOL    HW232505   1.726   1.913   2.281
10536SOL     OW32506   4.567   0.566   4.185
10536SOL    HW132507   4.468   0.560   4.192
10536SOL    HW232508   4.596   0.662   4.193
10537SOL     OW32509   4.211   6.582   4.476
10537SOL    HW132510   4.221   6.608   4.572
10537SOL    HW232511   4.302   6.565   4.436
10538SOL     OW32512   6.494   3.742   1.417
10538SOL    HW132513   6.544   3.657   1.435
10538SOL    HW232514   6.500   3.763   1.319
10539SOL     OW32515   6.996   4.747   0.428
10539SOL    HW132516   6.905   4.735   0.389
10539SOL    HW232517   0.039   4.770   0.355
10540SOL     OW32518   1.574   3.031   5.511
10540SOL    HW132519   1.525   3.030   5.598
10540SOL    HW232520   1.672   3.041   5.528
10541SOL     OW32521   3.565   4.001   1.955
10541SOL    HW132522   3.554   4.041   2.046
10541SOL    HW232523   3.494   4.035   1.895
10542SOL     OW32524   0.090   1.330   5.412
10542SOL    HW132525   0.047   1.287   5.492
10542SOL    HW232526   0.085   1.267   5.334
10543SOL     OW32527   0.200   1.949   4.860
10543SOL    HW132528   0.233   2.040   4.887
10543SOL    HW232529   0.189   1.947   4.760
10544SOL     OW32530   2.844   6.648   1.835
10544SOL    HW132531   2.807   6.741   1.836
10544SOL    HW232532   2.778   6.586   1.795
10545SOL     OW32533   0.643   2.040   1.165
10545SOL    HW132534   0.723   2.048   1.225
10545SOL    HW232535   0.649   1.955   1.113
10546SOL     OW32536   1.950   0.016   0.698
10546SOL    HW132537   2.025   6.974   0.718
10546SOL    HW232538   1.865   6.986   0.687
10547SOL     OW32539   5.197   3.128   3.329
10547SOL    HW132540   5.215   3.187   3.251
10547SOL    HW232541   5.112   3.077   3.314
10548SOL     OW32542   6.110   4.107   4.453
10548SOL    HW132543   6.041   4.088   4.383
10548SOL    HW232544   6.069   4.164   4.524
10549SOL     OW32545   0.760   0.839   1.615
10549SOL    HW132546   0.811   0.820   1.531
10549SOL    HW232547   0.689   0.907   1.596
10550SOL     OW32548   5.097   6.963   3.439
10550SOL    HW132549   5.150   6.899   3.384
10550SOL    HW232550   5.083   6.926   3.530
10551SOL     OW32551   2.091   2.277   6.560
10551SOL    HW132552   2.055   2.229   6.480
10551SOL    HW232553   2.177   2.322   6.536
10552SOL     OW32554   2.218   1.005   5.858
10552SOL    HW132555   2.245   1.101   5.868
10552SOL    HW232556   2.294   0.946   5.885
10553SOL     OW32557   0.097   4.393   1.472
10553SOL    HW132558   0.191   4.409   1.443
10553SOL    HW232559   0.058   4.318   1.419
10554SOL     OW32560   5.123   4.762   1.146
10554SOL    HW132561   5.124   4.730   1.241
10554SOL    HW232562   5.123   4.683   1.084
10555SOL     OW32563   2.514   2.479   1.199
10555SOL    HW132564   2.422   2.513   1.178
10555SOL    HW232565   2.550   2.429   1.121
10556SOL     OW32566   1.125   1.397   4.245
10556SOL    HW132567   1.026   1.392   4.260
10556SOL    HW232568   1.152   1.329   4.177
10557SOL     OW32569   2.173   3.117   2.872
10557SOL    HW132570   2.170   3.049   2.798
10557SOL    HW232571   2.241   3.187   2.850
10558SOL     OW32572   3.889   6.695   5.035
10558SOL    HW132573   3.882   6.741   5.124
10558SOL    HW232574   3.932   6.606   5.048
10559SOL     OW32575   4.564   1.191   1.999
10559SOL    HW132576   4.564   1.096   1.968
10559SOL    HW232577   4.594   1.195   2.094
10560SOL     OW32578   4.845   6.798   2.754
10560SOL    HW132579   4.798   6.729   2.699
10560SOL    HW232580   4.871   6.758   2.842
10561SOL     OW32581   3.668   4.557   1.647
10561SOL    HW132582   3.669   4.464   1.684
10561SOL    HW232583   3.606   4.613   1.701
10562SOL     OW32584   4.144   5.391   6.985
10562SOL    HW132585   4.076   5.404   0.035
10562SOL    HW232586   4.233   5.373   0.005
10563SOL     OW32587   0.170   1.018   3.020
10563SOL    HW132588   0.132   0.989   2.932
10563SOL    HW232589   0.147   0.951   3.090
10564SOL     OW32590   5.286   6.138   3.025
10564SOL    HW132591   5.228   6.134   3.106
10564SOL    HW232592   5.340   6.222   3.027
10565SOL     OW32593   0.129   6.766   5.969
10565SOL    HW132594   0.153   6.779   5.873
10565SOL    HW232595   0.084   6.848   6.004
10566SOL     OW32596   3.913   2.095   6.784
10566SOL    HW132597   4.000   2.145   6.782
10566SOL    HW232598   3.870   2.106   6.874
10567SOL     OW32599   2.484   2.526   5.071
10567SOL    HW132600   2.484   2.542   4.972
10567SOL    HW232601   2.567   2.475   5.096
10568SOL     OW32602   0.079   2.892   0.880
10568SOL    HW132603   0.078   2.822   0.951
10568SOL    HW232604   0.008   2.872   0.812
10569SOL     OW32605   5.384   1.444   1.780
10569SOL    HW132606   5.445   1.490   1.715
10569SOL    HW232607   5.330   1.513   1.829
10570SOL     OW32608   1.766   4.422   3.459
10570SOL    HW132609   1.734   4.456   3.370
10570SOL    HW232610   1.714   4.466   3.532
10571SOL     OW32611   0.333   4.530   4.879
10571SOL    HW132612   0.264   4.507   4.948
10571SOL    HW232613   0.422   4.497   4.910
10572SOL     OW32614   6.953   4.536   2.873
10572SOL    HW132615   0.016   4.567   2.830
10572SOL    HW232616   6.875   4.582   2.831
10573SOL     OW32617   5.351   0.805   4.885
10573SOL    HW132618   5.279   0.842   4.826
10573SOL    HW232619   5.343   0.845   4.977
10574SOL     OW32620   0.478   1.628   4.914
10574SOL    HW132621   0.442   1.699   4.975
10574SOL    HW232622   0.561   1.661   4.870
10575SOL     OW32623   6.767   1.132   3.773
10575SOL    HW132624   6.852   1.154   3.725
10575SOL    HW232625   6.754   1.196   3.849
10576SOL     OW32626   0.426   5.554   4.690
10576SOL    HW132627   0.394   5.561   4.596
10576SOL    HW232628   0.445   5.459   4.712
10577SOL     OW32629   1.837   4.832   0.562
10577SOL    HW132630   1.898   4.845   0.483
10577SOL    HW232631   1.743   4.821   0.530
10578SOL     OW32632   4.250   1.360   2.846
10578SOL    HW132633   4.234   1.423   2.770
10578SOL    HW232634   4.260   1.412   2.931
10579SOL     OW32635   4.457   2.989   1.461
10579SOL    HW132636   4.359   3.008   1.472
10579SOL    HW232637   4.478   2.901   1.504
10580SOL     OW32638   6.829   0.551   6.601
10580SOL    HW132639   6.840   0.458   6.637
10580SOL    HW232640   6.912   0.577   6.551
10581SOL     OW32641   5.601   0.253   2.772
10581SOL    HW132642   5.547   0.194   2.832
10581SOL    HW232643   5.690   0.271   2.816
10582SOL     OW32644   4.611   4.190   5.606
10582SOL    HW132645   4.656   4.112   5.649
10582SOL    HW232646   4.556   4.159   5.529
10583SOL     OW32647   3.884   1.308   3.897
10583SOL    HW132648   3.920   1.288   3.988
10583SOL    HW232649   3.958   1.340   3.838
10584SOL     OW32650   6.688   0.552   0.389
10584SOL    HW132651   6.689   0.651   0.401
10584SOL    HW232652   6.593   0.519   0.391
10585SOL     OW32653   2.663   2.088   5.157
10585SOL    HW132654   2.629   2.128   5.241
10585SOL    HW232655   2.703   1.998   5.176
10586SOL     OW32656   5.618   4.688   5.681
10586SOL    HW132657   5.677   4.620   5.637
10586SOL    HW232658   5.672   4.747   5.740
10587SOL     OW32659   6.357   4.891   7.022
10587SOL    HW132660   6.351   4.792   7.008
10587SOL    HW232661   6.396   4.911   0.090
10588SOL     OW32662   1.526   2.369   4.832
10588SOL    HW132663   1.445   2.421   4.805
10588SOL    HW232664   1.569   2.414   4.911
10589SOL     OW32665   6.003   1.082   4.453
10589SOL    HW132666   6.009   1.140   4.534
10589SOL    HW232667   6.047   1.128   4.376
10590SOL     OW32668   0.365   0.230   0.701
10590SOL    HW132669   0.353   0.255   0.797
10590SOL    HW232670   0.297   0.276   0.645
10591SOL     OW32671   1.080   2.176   0.130
10591SOL    HW132672   1.017   2.225   0.069
10591SOL    HW232673   1.075   2.215   0.222
10592SOL     OW32674   5.630   3.929   2.848
10592SOL    HW132675   5.573   3.950   2.928
10592SOL    HW232676   5.615   3.834   2.821
10593SOL     OW32677   2.913   5.892   0.826
10593SOL    HW132678   2.989   5.843   0.868
10593SOL    HW232679   2.878   5.961   0.890
10594SOL     OW32680   5.103   1.440   3.149
10594SOL    HW132681   5.050   1.464   3.230
10594SOL    HW232682   5.170   1.512   3.131
10595SOL     OW32683   5.475   0.140   0.167
10595SOL    HW132684   5.526   0.213   0.212
10595SOL    HW232685   5.536   0.087   0.109
10596SOL     OW32686   4.390   0.679   0.297
10596SOL    HW132687   4.414   0.653   0.204
10596SOL    HW232688   4.446   0.758   0.324
10597SOL     OW32689   3.556   1.317   5.985
10597SOL    HW132690   3.559   1.359   5.895
10597SOL    HW232691   3.618   1.238   5.988
10598SOL     OW32692   3.056   3.110   0.299
10598SOL    HW132693   2.975   3.132   0.352
10598SOL    HW232694   3.036   3.119   0.201
10599SOL     OW32695   5.301   3.500   6.292
10599SOL    HW132696   5.275   3.572   6.357
10599SOL    HW232697   5.366   3.438   6.334
10600SOL     OW32698   3.403   2.614   1.246
10600SOL    HW132699   3.358   2.553   1.310
10600SOL    HW232700   3.452   2.560   1.177
10601SOL     OW32701   1.175   4.918   4.988
10601SOL    HW132702   1.267   4.907   5.025
10601SOL    HW232703   1.178   4.912   4.888
10602SOL     OW32704   1.407   0.656   2.100
10602SOL    HW132705   1.317   0.645   2.140
10602SOL    HW232706   1.438   0.750   2.110
10603SOL     OW32707   3.997   0.246   3.458
10603SOL    HW132708   4.095   0.254   3.474
10603SOL    HW232709   3.980   0.198   3.372
10604SOL     OW32710   6.589   6.137   5.405
10604SOL    HW132711   6.685   6.110   5.409
10604SOL    HW232712   6.579   6.217   5.345
10605SOL     OW32713   2.031   6.607   6.742
10605SOL    HW132714   2.054   6.510   6.745
10605SOL    HW232715   2.095   6.654   6.681
10606SOL     OW32716   0.138   0.221   1.421
10606SOL    HW132717   0.152   0.125   1.447
10606SOL    HW232718   0.219   0.255   1.374
10607SOL     OW32719   3.912   5.696   6.118
10607SOL    HW132720   3.929   5.778   6.063
10607SOL    HW232721   3.831   5.710   6.174
10608SOL     OW32722   6.729   3.265   4.347
10608SOL    HW132723   6.664   3.339   4.368
10608SOL    HW232724   6.694   3.179   4.385
10609SOL     OW32725   2.788   6.802   6.719
10609SOL    HW132726   2.870   6.819   6.774
10609SOL    HW232727   2.762   6.706   6.729
10610SOL     OW32728   0.482   2.585   3.840
10610SOL    HW132729   0.430   2.660   3.798
10610SOL    HW232730   0.419   2.525   3.891
10611SOL     OW32731   2.695   4.188   0.053
10611SOL    HW132732   2.680   4.130   0.133
10611SOL    HW232733   2.771   4.251   0.071
10612SOL     OW32734   3.642   2.044   4.818
10612SOL    HW132735   3.715   2.092   4.768
10612SOL    HW232736   3.580   2.111   4.859
10613SOL     OW32737   5.729   5.890   5.774
10613SOL    HW132738   5.767   5.805   5.738
10613SOL    HW232739   5.782   5.920   5.854
10614SOL     OW32740   4.585   1.798   5.049
10614SOL    HW132741   4.670   1.818   5.097
10614SOL    HW232742   4.521   1.755   5.113
10615SOL     OW32743   3.886   0.640   5.848
10615SOL    HW132744   3.848   0.672   5.935
10615SOL    HW232745   3.866   0.543   5.836
10616SOL     OW32746   2.234   6.931   0.163
10616SOL    HW132747   2.327   6.896   0.177
10616SOL    HW232748   2.170   6.855   0.158
10617SOL     OW32749   2.932   4.149   1.080
10617SOL    HW132750   3.030   4.132   1.083
10617SOL    HW232751   2.887   4.095   1.152
10618SOL     OW32752   0.996   3.988   5.772
10618SOL    HW132753   1.045   3.970   5.857
10618SOL    HW232754   1.035   3.933   5.698
10619SOL     OW32755   0.575   3.302   3.234
10619SOL    HW132756   0.634   3.244   3.290
10619SOL    HW232757   0.503   3.247   3.193
10620SOL     OW32758   1.403   6.690   5.353
10620SOL    HW132759   1.357   6.615   5.399
10620SOL    HW232760   1.488   6.657   5.312
10621SOL     OW32761   0.923   4.928   1.692
10621SOL    HW132762   0.969   4.954   1.776
10621SOL    HW232763   0.990   4.920   1.618
10622SOL     OW32764   5.122   1.687   2.350
10622SOL    HW132765   5.195   1.635   2.393
10622SOL    HW232766   5.076   1.631   2.281
10623SOL     OW32767   0.035   5.169   5.466
10623SOL    HW132768   0.050   5.233   5.541
10623SOL    HW232769   0.095   5.193   5.390
10624SOL     OW32770   1.080   2.300   5.014
10624SOL    HW132771   1.161   2.351   5.044
10624SOL    HW232772   1.080   2.294   4.914
10625SOL     OW32773   0.415   4.541   1.008
10625SOL    HW132774   0.426   4.621   1.067
10625SOL    HW232775   0.356   4.565   0.931
10626SOL     OW32776   3.008   2.989   0.898
10626SOL    HW132777   3.107   2.983   0.901
10626SOL    HW232778   2.971   2.973   0.990
10627SOL     OW32779   5.298   0.836   6.549
10627SOL    HW132780   5.390   0.828   6.512
10627SOL    HW232781   5.297   0.804   6.644
10628SOL     OW32782   5.212   5.934   0.960
10628SOL    HW132783   5.222   5.837   0.936
10628SOL    HW232784   5.127   5.947   1.010
10629SOL     OW32785   2.496   5.087   4.775
10629SOL    HW132786   2.509   5.043   4.863
10629SOL    HW232787   2.581   5.084   4.723
10630SOL     OW32788   6.163   1.302   3.679
10630SOL    HW132789   6.166   1.397   3.709
10630SOL    HW232790   6.255   1.270   3.659
10631SOL     OW32791   3.311   5.031   5.131
10631SOL    HW132792   3.392   5.062   5.179
10631SOL    HW232793   3.312   5.065   5.037
10632SOL     OW32794   5.360   6.792   3.980
10632SOL    HW132795   5.453   6.784   4.017
10632SOL    HW232796   5.294   6.757   4.047
10633SOL     OW32797   2.744   2.464   0.770
10633SOL    HW132798   2.766   2.561   0.760
10633SOL    HW232799   2.761   2.436   0.865
10634SOL     OW32800   2.882   4.261   0.645
10634SOL    HW132801   2.858   4.198   0.719
10634SOL    HW232802   2.979   4.249   0.623
10635SOL     OW32803   1.731   3.684   6.936
10635SOL    HW132804   1.771   3.767   6.974
10635SOL    HW232805   1.681   3.706   6.852
10636SOL     OW32806   0.308   1.856   0.766
10636SOL    HW132807   0.405   1.832   0.755
10636SOL    HW232808   0.252   1.775   0.748
10637SOL     OW32809   1.310   4.868   5.695
10637SOL    HW132810   1.408   4.865   5.714
10637SOL    HW232811   1.259   4.863   5.781
10638SOL     OW32812   5.398   5.894   2.942
10638SOL    HW132813   5.349   5.973   2.977
10638SOL    HW232814   5.337   5.815   2.939
10639SOL     OW32815   1.015   4.040   3.212
10639SOL    HW132816   1.012   4.066   3.308
10639SOL    HW232817   0.941   3.975   3.193
10640SOL     OW32818   4.651   6.869   4.040
10640SOL    HW132819   4.647   6.957   4.086
10640SOL    HW232820   4.566   6.819   4.054
10641SOL     OW32821   1.737   2.242   2.248
10641SOL    HW132822   1.753   2.338   2.223
10641SOL    HW232823   1.667   2.203   2.188
10642SOL     OW32824   6.648   2.606   1.026
10642SOL    HW132825   6.683   2.560   1.107
10642SOL    HW232826   6.654   2.545   0.947
10643SOL     OW32827   1.479   5.742   4.550
10643SOL    HW132828   1.405   5.740   4.483
10643SOL    HW232829   1.448   5.787   4.634
10644SOL     OW32830   5.997   2.745   2.128
10644SOL    HW132831   5.920   2.683   2.110
10644SOL    HW232832   5.973   2.806   2.204
10645SOL     OW32833   1.798   2.808   4.456
10645SOL    HW132834   1.707   2.815   4.413
10645SOL    HW232835   1.851   2.890   4.435
10646SOL     OW32836   0.079   0.142   6.613
10646SOL    HW132837   0.166   0.157   6.567
10646SOL    HW232838   0.089   0.068   6.679
10647SOL     OW32839   2.988   5.789   4.849
10647SOL    HW132840   2.968   5.734   4.768
10647SOL    HW232841   2.962   5.884   4.833
10648SOL     OW32842   5.894   3.958   6.485
10648SOL    HW132843   5.853   4.049   6.483
10648SOL    HW232844   5.828   3.893   6.523
10649SOL     OW32845   7.006   4.335   2.536
10649SOL    HW132846   0.023   4.426   2.519
10649SOL    HW232847   6.980   4.293   2.450
10650SOL     OW32848   0.445   0.365   3.796
10650SOL    HW132849   0.492   0.281   3.769
10650SOL    HW232850   0.455   0.434   3.723
10651SOL     OW32851   5.608   6.422   6.934
10651SOL    HW132852   5.602   6.371   6.848
10651SOL    HW232853   5.516   6.447   6.964
10652SOL     OW32854   3.472   6.765   5.435
10652SOL    HW132855   3.410   6.737   5.508
10652SOL    HW232856   3.444   6.722   5.349
10653SOL     OW32857   4.325   5.478   4.185
10653SOL    HW132858   4.253   5.457   4.120
10653SOL    HW232859   4.347   5.575   4.181
10654SOL     OW32860   5.592   0.709   0.682
10654SOL    HW132861   5.574   0.779   0.750
10654SOL    HW232862   5.603   0.751   0.592
10655SOL     OW32863   2.600   5.408   0.533
10655SOL    HW132864   2.510   5.429   0.495
10655SOL    HW232865   2.670   5.459   0.484
10656SOL     OW32866   0.283   2.122   2.902
10656SOL    HW132867   0.259   2.187   2.974
10656SOL    HW232868   0.243   2.152   2.815
10657SOL     OW32869   5.404   0.384   5.840
10657SOL    HW132870   5.447   0.311   5.787
10657SOL    HW232871   5.391   0.464   5.781
10658SOL     OW32872   6.278   4.781   5.283
10658SOL    HW132873   6.238   4.778   5.375
10658SOL    HW232874   6.259   4.695   5.236
10659SOL     OW32875   0.490   5.224   1.648
10659SOL    HW132876   0.430   5.236   1.726
10659SOL    HW232877   0.532   5.133   1.652
10660SOL     OW32878   5.113   3.448   6.066
10660SOL    HW132879   5.014   3.437   6.075
10660SOL    HW232880   5.133   3.486   5.975
10661SOL     OW32881   1.208   6.860   1.436
10661SOL    HW132882   1.210   6.912   1.521
10661SOL    HW232883   1.184   6.765   1.456
10662SOL     OW32884   5.561   6.740   2.372
10662SOL    HW132885   5.550   6.840   2.368
10662SOL    HW232886   5.534   6.708   2.463
10663SOL     OW32887   0.587   2.192   2.965
10663SOL    HW132888   0.492   2.217   2.947
10663SOL    HW232889   0.592   2.143   3.052
10664SOL     OW32890   6.496   4.221   4.792
10664SOL    HW132891   6.403   4.211   4.825
10664SOL    HW232892   6.498   4.208   4.693
10665SOL     OW32893   0.790   1.675   0.527
10665SOL    HW132894   0.732   1.606   0.482
10665SOL    HW232895   0.861   1.705   0.464
10666SOL     OW32896   3.789   3.727   1.791
10666SOL    HW132897   3.713   3.685   1.740
10666SOL    HW232898   3.770   3.722   1.889
10667SOL     OW32899   5.014   2.710   4.743
10667SOL    HW132900   4.920   2.731   4.771
10667SOL    HW232901   5.043   2.776   4.673
10668SOL     OW32902   2.434   0.600   5.001
10668SOL    HW132903   2.411   0.672   4.935
10668SOL    HW232904   2.435   0.512   4.954
10669SOL     OW32905   5.711   6.919   1.543
10669SOL    HW132906   5.736   6.898   1.448
10669SOL    HW232907   5.671   7.010   1.549
10670SOL     OW32908   5.243   4.286   5.213
10670SOL    HW132909   5.232   4.227   5.133
10670SOL    HW232910   5.170   4.266   5.279
10671SOL     OW32911   2.658   2.358   3.044
10671SOL    HW132912   2.603   2.282   3.010
10671SOL    HW232913   2.610   2.444   3.028
10672SOL     OW32914   6.412   3.387   1.253
10672SOL    HW132915   6.426   3.423   1.161
10672SOL    HW232916   6.314   3.380   1.272
10673SOL     OW32917   1.129   0.761   6.831
10673SOL    HW132918   1.122   0.661   6.828
10673SOL    HW232919   1.086   0.800   6.750
10674SOL     OW32920   3.573   4.114   2.197
10674SOL    HW132921   3.554   4.126   2.294
10674SOL    HW232922   3.594   4.203   2.156
10675SOL     OW32923   1.628   0.173   6.577
10675SOL    HW132924   1.707   0.196   6.520
10675SOL    HW232925   1.651   0.189   6.673
10676SOL     OW32926   6.769   6.211   6.059
10676SOL    HW132927   6.706   6.180   5.988
10676SOL    HW232928   6.722   6.271   6.123
10677SOL     OW32929   1.215   0.408   1.987
10677SOL    HW132930   1.161   0.327   1.961
10677SOL    HW232931   1.308   0.379   2.012
10678SOL     OW32932   4.347   5.019   4.172
10678SOL    HW132933   4.319   4.924   4.184
10678SOL    HW232934   4.411   5.044   4.245
10679SOL     OW32935   4.705   5.781   6.669
10679SOL    HW132936   4.804   5.796   6.679
10679SOL    HW232937   4.668   5.849   6.606
10680SOL     OW32938   3.992   1.602   3.572
10680SOL    HW132939   3.964   1.605   3.476
10680SOL    HW232940   4.000   1.695   3.607
10681SOL     OW32941   0.582   3.801   0.541
10681SOL    HW132942   0.522   3.765   0.470
10681SOL    HW232943   0.583   3.739   0.619
10682SOL     OW32944   0.870   1.058   5.075
10682SOL    HW132945   0.953   1.099   5.038
10682SOL    HW232946   0.880   1.046   5.174
10683SOL     OW32947   3.745   2.158   3.615
10683SOL    HW132948   3.826   2.171   3.557
10683SOL    HW232949   3.724   2.060   3.620
10684SOL     OW32950   5.587   4.697   2.268
10684SOL    HW132951   5.568   4.617   2.326
10684SOL    HW232952   5.503   4.750   2.256
10685SOL     OW32953   0.597   5.525   2.568
10685SOL    HW132954   0.667   5.586   2.531
10685SOL    HW232955   0.626   5.430   2.554
10686SOL     OW32956   0.855   4.730   6.336
10686SOL    HW132957   0.943   4.777   6.338
10686SOL    HW232958   0.784   4.793   6.368
10687SOL     OW32959   6.565   5.491   1.904
10687SOL    HW132960   6.552   5.396   1.876
10687SOL    HW232961   6.642   5.530   1.853
10688SOL     OW32962   6.676   3.871   2.578
10688SOL    HW132963   6.633   3.881   2.668
10688SOL    HW232964   6.710   3.777   2.569
10689SOL     OW32965   0.238   5.817   3.569
10689SOL    HW132966   0.245   5.735   3.626
10689SOL    HW232967   0.175   5.882   3.612
10690SOL     OW32968   6.898   6.037   3.840
10690SOL    HW132969   6.816   6.051   3.784
10690SOL    HW232970   6.979   6.035   3.782
10691SOL     OW32971   0.335   2.133   2.413
10691SOL    HW132972   0.428   2.160   2.389
10691SOL    HW232973   0.271   2.204   2.385
10692SOL     OW32974   3.333   6.108   2.971
10692SOL    HW132975   3.427   6.126   2.999
10692SOL    HW232976   3.298   6.027   3.019
10693SOL     OW32977   2.198   6.655   7.007
10693SOL    HW132978   2.286   6.703   7.001
10693SOL    HW232979   2.159   6.645   6.916
10694SOL     OW32980   5.305   6.380   2.054
10694SOL    HW132981   5.213   6.418   2.059
10694SOL    HW232982   5.346   6.380   2.145
10695SOL     OW32983   5.858   2.099   2.983
10695SOL    HW132984   5.862   2.087   2.884
10695SOL    HW232985   5.928   2.165   3.011
10696SOL     OW32986   0.353   3.622   3.872
10696SOL    HW132987   0.406   3.596   3.791
10696SOL    HW232988   0.272   3.673   3.843
10697SOL     OW32989   0.111   5.840   4.631
10697SOL    HW132990   0.113   5.815   4.534
10697SOL    HW232991   0.023   5.812   4.671
10698SOL     OW32992   4.503   5.384   5.814
10698SOL    HW132993   4.577   5.423   5.869
10698SOL    HW232994   4.415   5.412   5.852
10699SOL     OW32995   4.098   3.335   1.969
10699SOL    HW132996   4.067   3.425   1.939
10699SOL    HW232997   4.125   3.339   2.065
10700SOL     OW32998   6.849   6.685   1.623
10700SOL    HW132999   6.922   6.621   1.646
10700SOL    HW233000   6.780   6.638   1.567
10701SOL     OW33001   3.377   6.400   0.181
10701SOL    HW133002   3.412   6.308   0.199
10701SOL    HW233003   3.320   6.398   0.099
10702SOL     OW33004   6.105   2.740   1.821
10702SOL    HW133005   6.186   2.707   1.772
10702SOL    HW233006   6.131   2.817   1.879
10703SOL     OW33007   3.163   4.128   5.099
10703SOL    HW133008   3.067   4.099   5.095
10703SOL    HW233009   3.169   4.216   5.147
10704SOL     OW33010   6.355   5.127   1.527
10704SOL    HW133011   6.255   5.118   1.518
10704SOL    HW233012   6.394   5.038   1.549
10705SOL     OW33013   6.520   4.655   1.575
10705SOL    HW133014   6.544   4.599   1.495
10705SOL    HW233015   6.551   4.610   1.658
10706SOL     OW33016   5.303   6.980   2.131
10706SOL    HW133017   5.338   0.049   2.154
10706SOL    HW233018   5.263   6.981   2.039
10707SOL     OW33019   6.920   6.351   3.875
10707SOL    HW133020   6.875   6.437   3.850
10707SOL    HW233021   6.851   6.279   3.884
10708SOL     OW33022   4.074   0.730   2.454
10708SOL    HW133023   4.063   0.683   2.367
10708SOL    HW233024   4.167   0.767   2.460
10709SOL     OW33025   6.237   6.292   4.820
10709SOL    HW133026   6.307   6.285   4.890
10709SOL    HW233027   6.277   6.330   4.736
10710SOL     OW33028   0.452   6.359   4.763
10710SOL    HW133029   0.399   6.435   4.799
10710SOL    HW233030   0.485   6.381   4.671
10711SOL     OW33031   1.714   6.555   3.844
10711SOL    HW133032   1.761   6.641   3.820
10711SOL    HW233033   1.751   6.520   3.930
10712SOL     OW33034   2.708   1.439   1.534
10712SOL    HW133035   2.664   1.373   1.472
10712SOL    HW233036   2.706   1.403   1.627
10713SOL     OW33037   1.277   4.043   1.540
10713SOL    HW133038   1.304   3.954   1.506
10713SOL    HW233039   1.276   4.109   1.465
10714SOL     OW33040   5.955   3.694   4.369
10714SOL    HW133041   5.897   3.769   4.337
10714SOL    HW233042   5.919   3.608   4.334
10715SOL     OW33043   5.254   6.782   2.834
10715SOL    HW133044   5.209   6.828   2.911
10715SOL    HW233045   5.223   6.823   2.748
10716SOL     OW33046   5.482   1.955   4.442
10716SOL    HW133047   5.403   2.006   4.476
10716SOL    HW233048   5.544   2.018   4.394
10717SOL     OW33049   0.912   3.009   0.616
10717SOL    HW133050   0.900   3.063   0.699
10717SOL    HW233051   1.010   2.997   0.598
10718SOL     OW33052   1.478   2.569   6.565
10718SOL    HW133053   1.491   2.510   6.644
10718SOL    HW233054   1.419   2.523   6.498
10719SOL     OW33055   5.452   5.595   1.169
10719SOL    HW133056   5.521   5.525   1.186
10719SOL    HW233057   5.497   5.685   1.166
10720SOL     OW33058   6.750   3.587   4.985
10720SOL    HW133059   6.744   3.526   4.907
10720SOL    HW233060   6.842   3.581   5.025
10721SOL     OW33061   6.051   4.144   5.181
10721SOL    HW133062   6.151   4.144   5.176
10721SOL    HW233063   6.020   4.234   5.210
10722SOL     OW33064   7.016   3.801   0.778
10722SOL    HW133065   0.007   3.720   0.722
10722SOL    HW233066   0.051   3.794   0.860
10723SOL     OW33067   0.568   3.852   6.115
10723SOL    HW133068   0.628   3.932   6.105
10723SOL    HW233069   0.612   3.784   6.174
10724SOL     OW33070   4.521   0.938   6.936
10724SOL    HW133071   4.556   1.023   6.977
10724SOL    HW233072   4.593   0.868   6.939
10725SOL     OW33073   0.487   4.335   4.496
10725SOL    HW133074   0.435   4.301   4.417
10725SOL    HW233075   0.438   4.411   4.538
10726SOL     OW33076   5.168   6.889   5.687
10726SOL    HW133077   5.242   6.875   5.752
10726SOL    HW233078   5.163   6.986   5.662
10727SOL     OW33079   0.255   5.205   4.489
10727SOL    HW133080   0.179   5.257   4.450
10727SOL    HW233081   0.226   5.109   4.500
10728SOL     OW33082   6.244   6.305   0.772
10728SOL    HW133083   6.191   6.261   0.845
10728SOL    HW233084   6.341   6.292   0.790
10729SOL     OW33085   5.483   0.950   2.659
10729SOL    HW133086   5.574   0.910   2.671
10729SOL    HW233087   5.474   0.987   2.566
10730SOL     OW33088   2.198   0.197   2.087
10730SOL    HW133089   2.186   0.272   2.153
10730SOL    HW233090   2.249   0.230   2.008
10731SOL     OW33091   3.075   5.775   0.432
10731SOL    HW133092   3.036   5.838   0.364
10731SOL    HW233093   3.004   5.747   0.496
10732SOL     OW33094   4.820   5.146   2.222
10732SOL    HW133095   4.772   5.078   2.166
10732SOL    HW233096   4.879   5.099   2.287
10733SOL     OW33097   5.394   2.221   0.286
10733SOL    HW133098   5.445   2.281   0.224
10733SOL    HW233099   5.299   2.215   0.255
10734SOL     OW33100   1.382   0.281   0.240
10734SOL    HW133101   1.407   0.320   0.328
10734SOL    HW233102   1.324   0.346   0.190
10735SOL     OW33103   1.602   4.418   2.708
10735SOL    HW133104   1.587   4.488   2.778
10735SOL    HW233105   1.526   4.352   2.711
10736SOL     OW33106   6.778   0.580   3.379
10736SOL    HW133107   6.854   0.521   3.406
10736SOL    HW233108   6.788   0.605   3.282
10737SOL     OW33109   1.350   1.778   0.119
10737SOL    HW133110   1.384   1.708   0.057
10737SOL    HW233111   1.312   1.854   0.066
10738SOL     OW33112   2.759   0.504   3.378
10738SOL    HW133113   2.740   0.603   3.382
10738SOL    HW233114   2.673   0.454   3.390
10739SOL     OW33115   6.989   0.878   1.111
10739SOL    HW133116   0.055   0.923   1.128
10739SOL    HW233117   6.929   0.893   1.190
10740SOL     OW33118   0.562   4.683   5.688
10740SOL    HW133119   0.640   4.667   5.627
10740SOL    HW233120   0.557   4.609   5.755
10741SOL     OW33121   0.514   0.768   3.162
10741SOL    HW133122   0.560   0.716   3.233
10741SOL    HW233123   0.573   0.843   3.132
10742SOL     OW33124   5.689   0.168   1.681
10742SOL    HW133125   5.759   0.111   1.724
10742SOL    HW233126   5.612   0.180   1.744
10743SOL     OW33127   2.176   1.950   4.936
10743SOL    HW133128   2.261   1.973   4.889
10743SOL    HW233129   2.195   1.885   5.010
10744SOL     OW33130   2.644   1.631   2.122
10744SOL    HW133131   2.669   1.666   2.212
10744SOL    HW233132   2.723   1.635   2.061
10745SOL     OW33133   1.035   4.623   0.818
10745SOL    HW133134   0.995   4.535   0.793
10745SOL    HW233135   1.019   4.639   0.916
10746SOL     OW33136   1.928   4.149   1.426
10746SOL    HW133137   1.828   4.153   1.428
10746SOL    HW233138   1.957   4.054   1.443
10747SOL     OW33139   4.288   0.387   3.024
10747SOL    HW133140   4.268   0.357   2.931
10747SOL    HW233141   4.380   0.426   3.027
10748SOL     OW33142   3.614   0.720   1.635
10748SOL    HW133143   3.707   0.757   1.627
10748SOL    HW233144   3.548   0.793   1.618
10749SOL     OW33145   6.910   5.144   3.387
10749SOL    HW133146   6.913   5.100   3.477
10749SOL    HW233147   6.994   5.123   3.338
10750SOL     OW33148   3.901   6.252   4.251
10750SOL    HW133149   3.841   6.196   4.194
10750SOL    HW233150   3.901   6.216   4.344
10751SOL     OW33151   1.256   4.455   4.334
10751SOL    HW133152   1.291   4.383   4.394
10751SOL    HW233153   1.209   4.413   4.256
10752SOL     OW33154   6.270   3.716   6.005
10752SOL    HW133155   6.349   3.747   5.951
10752SOL    HW233156   6.302   3.651   6.075
10753SOL     OW33157   4.157   7.012   4.690
10753SOL    HW133158   4.102   7.014   4.773
10753SOL    HW233159   4.112   6.953   4.622
10754SOL     OW33160   1.272   1.637   3.618
10754SOL    HW133161   1.215   1.719   3.609
10754SOL    HW233162   1.364   1.664   3.647
10755SOL     OW33163   0.385   2.081   6.786
10755SOL    HW133164   0.355   2.066   6.691
10755SOL    HW233165   0.469   2.135   6.786
10756SOL     OW33166   6.491   4.374   0.199
10756SOL    HW133167   6.532   4.302   0.255
10756SOL    HW233168   6.410   4.409   0.245
10757SOL     OW33169   1.119   2.903   6.782
10757SOL    HW133170   1.089   2.894   6.877
10757SOL    HW233171   1.215   2.929   6.780
10758SOL     OW33172   1.054   6.627   5.491
10758SOL    HW133173   1.084   6.715   5.452
10758SOL    HW233174   1.132   6.580   5.531
10759SOL     OW33175   1.955   2.932   6.597
10759SOL    HW133176   1.877   2.955   6.656
10759SOL    HW233177   1.976   2.834   6.607
10760SOL     OW33178   6.436   1.348   0.197
10760SOL    HW133179   6.489   1.373   0.115
10760SOL    HW233180   6.351   1.400   0.198
10761SOL     OW33181   1.617   1.807   6.312
10761SOL    HW133182   1.687   1.738   6.295
10761SOL    HW233183   1.660   1.887   6.355
10762SOL     OW33184   3.657   1.782   5.128
10762SOL    HW133185   3.684   1.875   5.105
10762SOL    HW233186   3.678   1.764   5.224
10763SOL     OW33187   4.576   6.587   1.245
10763SOL    HW133188   4.605   6.609   1.338
10763SOL    HW233189   4.480   6.558   1.246
10764SOL     OW33190   5.702   1.991   5.903
10764SOL    HW133191   5.732   1.960   5.813
10764SOL    HW233192   5.608   2.024   5.898
10765SOL     OW33193   5.696   2.705   1.041
10765SOL    HW133194   5.650   2.682   1.126
10765SOL    HW233195   5.769   2.638   1.024
10766SOL     OW33196   3.646   2.732   1.363
10766SOL    HW133197   3.563   2.709   1.311
10766SOL    HW233198   3.689   2.647   1.395
10767SOL     OW33199   1.330   0.593   0.176
10767SOL    HW133200   1.380   0.640   0.249
10767SOL    HW233201   1.363   0.625   0.087
10768SOL     OW33202   4.318   5.240   0.532
10768SOL    HW133203   4.331   5.238   0.631
10768SOL    HW233204   4.226   5.207   0.510
10769SOL     OW33205   2.022   5.082   4.752
10769SOL    HW133206   2.040   4.983   4.751
10769SOL    HW233207   2.104   5.131   4.723
10770SOL     OW33208   5.444   0.178   4.987
10770SOL    HW133209   5.431   0.079   4.993
10770SOL    HW233210   5.503   0.209   5.062
10771SOL     OW33211   5.258   1.023   4.449
10771SOL    HW133212   5.227   1.028   4.544
10771SOL    HW233213   5.339   0.966   4.443
10772SOL     OW33214   0.270   6.322   4.389
10772SOL    HW133215   0.298   6.323   4.293
10772SOL    HW233216   0.189   6.264   4.400
10773SOL     OW33217   0.192   5.316   6.831
10773SOL    HW133218   0.200   5.279   6.738
10773SOL    HW233219   0.139   5.252   6.887
10774SOL     OW33220   1.748   1.629   6.742
10774SOL    HW133221   1.740   1.590   6.650
10774SOL    HW233222   1.721   1.725   6.740
10775SOL     OW33223   0.083   2.873   0.429
10775SOL    HW133224   0.050   2.848   0.338
10775SOL    HW233225   0.180   2.899   0.423
10776SOL     OW33226   1.332   6.550   6.947
10776SOL    HW133227   1.381   6.551   6.860
10776SOL    HW233228   1.254   6.611   6.943
10777SOL     OW33229   3.772   5.713   4.102
10777SOL    HW133230   3.745   5.794   4.051
10777SOL    HW233231   3.702   5.692   4.171
10778SOL     OW33232   5.424   6.520   5.079
10778SOL    HW133233   5.349   6.454   5.081
10778SOL    HW233234   5.441   6.547   4.984
10779SOL     OW33235   6.060   4.991   3.281
10779SOL    HW133236   6.115   5.073   3.267
10779SOL    HW233237   6.072   4.929   3.204
10780SOL     OW33238   1.722   0.160   4.057
10780SOL    HW133239   1.815   0.151   4.094
10780SOL    HW233240   1.655   0.135   4.126
10781SOL     OW33241   3.928   1.098   3.107
10781SOL    HW133242   3.993   1.141   3.170
10781SOL    HW233243   3.941   0.999   3.109
10782SOL     OW33244   6.967   1.901   3.462
10782SOL    HW133245   6.887   1.887   3.519
10782SOL    HW233246   0.006   1.968   3.506
10783SOL     OW33247   0.892   3.647   3.099
10783SOL    HW133248   0.961   3.676   3.165
10783SOL    HW233249   0.921   3.562   3.055
10784SOL     OW33250   3.083   0.731   3.780
10784SOL    HW133251   3.145   0.687   3.845
10784SOL    HW233252   2.988   0.710   3.805
10785SOL     OW33253   0.101   4.953   1.363
10785SOL    HW133254   0.044   4.943   1.445
10785SOL    HW233255   0.196   4.971   1.390
10786SOL     OW33256   4.813   4.904   1.906
10786SOL    HW133257   4.760   4.871   1.984
10786SOL    HW233258   4.866   4.829   1.867
10787SOL     OW33259   3.025   1.461   4.632
10787SOL    HW133260   3.107   1.428   4.585
10787SOL    HW233261   3.004   1.554   4.600
10788SOL     OW33262   2.136   4.731   6.543
10788SOL    HW133263   2.199   4.731   6.621
10788SOL    HW233264   2.189   4.716   6.459
10789SOL     OW33265   5.860   2.846   0.091
10789SOL    HW133266   5.858   2.823   0.188
10789SOL    HW233267   5.781   2.804   0.045
10790SOL     OW33268   0.722   0.695   2.333
10790SOL    HW133269   0.790   0.649   2.276
10790SOL    HW233270   0.697   0.782   2.292
10791SOL     OW33271   6.920   6.944   0.626
10791SOL    HW133272   6.871   7.020   0.582
10791SOL    HW233273   6.983   6.903   0.560
10792SOL     OW33274   3.823   3.903   2.686
10792SOL    HW133275   3.899   3.852   2.727
10792SOL    HW233276   3.850   3.936   2.596
10793SOL     OW33277   5.156   2.697   4.178
10793SOL    HW133278   5.097   2.617   4.178
10793SOL    HW233279   5.132   2.756   4.100
10794SOL     OW33280   2.952   3.577   3.848
10794SOL    HW133281   2.912   3.496   3.804
10794SOL    HW233282   2.960   3.650   3.780
10795SOL     OW33283   0.059   4.066   3.286
10795SOL    HW133284   7.017   4.016   3.344
10795SOL    HW233285   0.021   4.074   3.194
10796SOL     OW33286   5.781   6.970   0.620
10796SOL    HW133287   5.792   6.880   0.580
10796SOL    HW233288   5.723   0.005   0.561
10797SOL     OW33289   3.736   1.822   1.480
10797SOL    HW133290   3.675   1.800   1.557
10797SOL    HW233291   3.683   1.866   1.407
10798SOL     OW33292   2.494   6.243   0.996
10798SOL    HW133293   2.448   6.264   0.910
10798SOL    HW233294   2.523   6.328   1.040
10799SOL     OW33295   3.673   0.628   2.313
10799SOL    HW133296   3.722   0.649   2.229
10799SOL    HW233297   3.610   0.553   2.297
10800SOL     OW33298   0.032   0.227   0.325
10800SOL    HW133299   0.088   0.153   0.287
10800SOL    HW233300   0.092   0.291   0.374
10801SOL     OW33301   1.036   6.796   5.838
10801SOL    HW133302   1.058   6.705   5.875
10801SOL    HW233303   1.028   6.861   5.914
10802SOL     OW33304   1.075   2.584   3.180
10802SOL    HW133305   0.991   2.636   3.196
10802SOL    HW233306   1.124   2.623   3.102
10803SOL     OW33307   3.253   3.681   5.849
10803SOL    HW133308   3.313   3.750   5.808
10803SOL    HW233309   3.205   3.632   5.776
10804SOL     OW33310   5.784   3.714   1.734
10804SOL    HW133311   5.869   3.701   1.784
10804SOL    HW233312   5.728   3.631   1.740
10805SOL     OW33313   4.027   6.904   6.996
10805SOL    HW133314   4.054   6.860   6.910
10805SOL    HW233315   4.011   6.833   0.044
10806SOL     OW33316   4.719   3.725   5.869
10806SOL    HW133317   4.689   3.688   5.781
10806SOL    HW233318   4.697   3.659   5.941
10807SOL     OW33319   1.477   6.584   3.089
10807SOL    HW133320   1.500   6.615   3.181
10807SOL    HW233321   1.512   6.649   3.021
10808SOL     OW33322   6.305   3.159   6.582
10808SOL    HW133323   6.269   3.070   6.611
10808SOL    HW233324   6.280   3.228   6.650
10809SOL     OW33325   3.227   5.976   3.765
10809SOL    HW133326   3.169   5.979   3.683
10809SOL    HW233327   3.304   6.039   3.753
10810SOL     OW33328   2.142   0.646   4.711
10810SOL    HW133329   2.149   0.617   4.807
10810SOL    HW233330   2.122   0.566   4.654
10811SOL     OW33331   3.988   4.558   5.717
10811SOL    HW133332   3.966   4.547   5.814
10811SOL    HW233333   3.965   4.652   5.688
10812SOL     OW33334   0.824   3.544   1.517
10812SOL    HW133335   0.760   3.469   1.505
10812SOL    HW233336   0.907   3.511   1.562
10813SOL     OW33337   2.228   4.949   0.131
10813SOL    HW133338   2.134   4.979   0.140
10813SOL    HW233339   2.235   4.885   0.054
10814SOL     OW33340   1.260   6.676   6.541
10814SOL    HW133341   1.289   6.739   6.469
10814SOL    HW233342   1.218   6.729   6.615
10815SOL     OW33343   4.523   4.462   3.902
10815SOL    HW133344   4.576   4.382   3.875
10815SOL    HW233345   4.505   4.459   4.000
10816SOL     OW33346   2.048   2.247   1.324
10816SOL    HW133347   2.139   2.207   1.328
10816SOL    HW233348   1.990   2.205   1.394
10817SOL     OW33349   5.242   6.797   3.293
10817SOL    HW133350   5.295   6.714   3.311
10817SOL    HW233351   5.304   6.874   3.281
10818SOL     OW33352   4.418   4.566   5.471
10818SOL    HW133353   4.512   4.568   5.504
10818SOL    HW233354   4.355   4.582   5.548
10819SOL     OW33355   6.711   4.336   6.668
10819SOL    HW133356   6.627   4.297   6.705
10819SOL    HW233357   6.689   4.388   6.585
10820SOL     OW33358   6.058   5.938   4.221
10820SOL    HW133359   6.057   6.038   4.221
10820SOL    HW233360   6.052   5.904   4.127
10821SOL     OW33361   5.622   6.717   2.013
10821SOL    HW133362   5.568   6.657   1.954
10821SOL    HW233363   5.661   6.663   2.088
10822SOL     OW33364   0.749   2.978   3.090
10822SOL    HW133365   0.818   3.049   3.106
10822SOL    HW233366   0.682   3.011   3.024
10823SOL     OW33367   1.502   5.421   1.351
10823SOL    HW133368   1.566   5.429   1.428
10823SOL    HW233369   1.446   5.503   1.345
10824SOL     OW33370   6.307   1.169   3.247
10824SOL    HW133371   6.337   1.093   3.305
10824SOL    HW233372   6.365   1.172   3.165
10825SOL     OW33373   2.626   0.565   6.037
10825SOL    HW133374   2.614   0.642   5.975
10825SOL    HW233375   2.542   0.549   6.089
10826SOL     OW33376   0.855   3.249   3.621
10826SOL    HW133377   0.854   3.220   3.717
10826SOL    HW233378   0.916   3.328   3.611
10827SOL     OW33379   5.857   4.347   4.446
10827SOL    HW133380   5.935   4.351   4.508
10827SOL    HW233381   5.836   4.251   4.425
10828SOL     OW33382   0.679   5.199   1.967
10828SOL    HW133383   0.651   5.142   1.890
10828SOL    HW233384   0.624   5.283   1.968
10829SOL     OW33385   3.626   1.970   1.274
10829SOL    HW133386   3.565   1.895   1.247
10829SOL    HW233387   3.664   2.013   1.192
10830SOL     OW33388   5.066   1.694   3.709
10830SOL    HW133389   5.094   1.638   3.786
10830SOL    HW233390   5.145   1.714   3.651
10831SOL     OW33391   3.832   5.787   2.206
10831SOL    HW133392   3.932   5.793   2.214
10831SOL    HW233393   3.808   5.725   2.132
10832SOL     OW33394   1.219   2.551   0.077
10832SOL    HW133395   1.292   2.529   0.142
10832SOL    HW233396   1.132   2.562   0.126
10833SOL     OW33397   1.485   0.992   1.876
10833SOL    HW133398   1.499   0.919   1.810
10833SOL    HW233399   1.573   1.025   1.909
10834SOL     OW33400   1.051   2.200   6.350
10834SOL    HW133401   1.044   2.104   6.377
10834SOL    HW233402   1.140   2.236   6.380
10835SOL     OW33403   6.472   2.146   0.056
10835SOL    HW133404   6.551   2.170   7.021
10835SOL    HW233405   6.463   2.047   0.062
10836SOL     OW33406   6.989   2.237   4.524
10836SOL    HW133407   6.971   2.327   4.484
10836SOL    HW233408   6.907   2.205   4.571
10837SOL     OW33409   0.154   4.820   0.212
10837SOL    HW133410   0.229   4.883   0.230
10837SOL    HW233411   0.087   4.864   0.153
10838SOL     OW33412   5.729   6.359   5.085
10838SOL    HW133413   5.687   6.386   5.172
10838SOL    HW233414   5.682   6.405   5.010
10839SOL     OW33415   3.926   2.763   1.178
10839SOL    HW133416   3.843   2.716   1.149
10839SOL    HW233417   3.902   2.854   1.213
10840SOL     OW33418   3.600   5.366   2.074
10840SOL    HW133419   3.651   5.280   2.072
10840SOL    HW233420   3.642   5.432   2.011
10841SOL     OW33421   5.238   5.408   6.988
10841SOL    HW133422   5.219   5.426   6.891
10841SOL    HW233423   5.172   5.341   0.001
10842SOL     OW33424   5.194   2.568   1.400
10842SOL    HW133425   5.270   2.523   1.354
10842SOL    HW233426   5.124   2.500   1.422
10843SOL     OW33427   1.166   2.426   0.899
10843SOL    HW133428   1.073   2.403   0.871
10843SOL    HW233429   1.209   2.483   0.829
10844SOL     OW33430   0.287   6.687   3.608
10844SOL    HW133431   0.367   6.708   3.552
10844SOL    HW233432   0.299   6.598   3.650
10845SOL     OW33433   3.171   0.164   5.511
10845SOL    HW133434   3.211   0.245   5.555
10845SOL    HW233435   3.243   0.107   5.472
10846SOL     OW33436   4.909   2.384   1.057
10846SOL    HW133437   4.966   2.421   0.983
10846SOL    HW233438   4.928   2.286   1.068
10847SOL     OW33439   3.968   3.606   6.440
10847SOL    HW133440   3.974   3.540   6.365
10847SOL    HW233441   4.058   3.617   6.482
10848SOL     OW33442   3.092   2.953   6.847
10848SOL    HW133443   3.164   3.020   6.865
10848SOL    HW233444   3.082   2.940   6.749
10849SOL     OW33445   2.771   5.773   3.401
10849SOL    HW133446   2.834   5.788   3.325
10849SOL    HW233447   2.691   5.832   3.390
10850SOL     OW33448   3.780   5.381   6.942
10850SOL    HW133449   3.756   5.322   6.865
10850SOL    HW233450   3.860   5.436   6.918
10851SOL     OW33451   2.502   2.827   6.416
10851SOL    HW133452   2.601   2.833   6.401
10851SOL    HW233453   2.471   2.911   6.460
10852SOL     OW33454   1.127   0.118   6.615
10852SOL    HW133455   1.220   0.151   6.631
10852SOL    HW233456   1.112   0.108   6.517
10853SOL     OW33457   3.302   2.241   5.748
10853SOL    HW133458   3.212   2.244   5.790
10853SOL    HW233459   3.359   2.315   5.785
10854SOL     OW33460   4.735   6.642   5.123
10854SOL    HW133461   4.780   6.731   5.130
10854SOL    HW233462   4.802   6.570   5.136
10855SOL     OW33463   2.610   6.604   1.401
10855SOL    HW133464   2.535   6.629   1.339
10855SOL    HW233465   2.695   6.597   1.349
10856SOL     OW33466   6.046   1.757   1.624
10856SOL    HW133467   6.004   1.840   1.586
10856SOL    HW233468   6.041   1.683   1.557
10857SOL     OW33469   5.985   2.379   2.983
10857SOL    HW133470   5.925   2.409   2.908
10857SOL    HW233471   5.969   2.436   3.063
10858SOL     OW33472   0.721   1.962   6.197
10858SOL    HW133473   0.771   2.042   6.165
10858SOL    HW233474   0.654   1.990   6.266
10859SOL     OW33475   2.167   2.968   4.133
10859SOL    HW133476   2.180   3.050   4.189
10859SOL    HW233477   2.072   2.964   4.100
10860SOL     OW33478   6.550   1.579   6.045
10860SOL    HW133479   6.550   1.586   5.945
10860SOL    HW233480   6.584   1.665   6.084
10861SOL     OW33481   3.792   3.334   2.994
10861SOL    HW133482   3.892   3.333   2.985
10861SOL    HW233483   3.752   3.272   2.927
10862SOL     OW33484   2.682   1.755   6.474
10862SOL    HW133485   2.771   1.743   6.430
10862SOL    HW233486   2.666   1.852   6.491
10863SOL     OW33487   4.029   0.277   3.071
10863SOL    HW133488   3.955   0.260   3.137
10863SOL    HW233489   4.107   0.318   3.118
10864SOL     OW33490   3.649   5.482   0.708
10864SOL    HW133491   3.705   5.556   0.745
10864SOL    HW233492   3.706   5.400   0.696
10865SOL     OW33493   6.125   1.400   2.802
10865SOL    HW133494   6.098   1.496   2.809
10865SOL    HW233495   6.045   1.344   2.779
10866SOL     OW33496   4.777   4.580   0.250
10866SOL    HW133497   4.680   4.556   0.247
10866SOL    HW233498   4.800   4.615   0.341
10867SOL     OW33499   3.283   4.168   0.153
10867SOL    HW133500   3.275   4.132   0.246
10867SOL    HW233501   3.374   4.207   0.140
10868SOL     OW33502   2.493   2.197   3.574
10868SOL    HW133503   2.403   2.211   3.532
10868SOL    HW233504   2.483   2.137   3.653
10869NA      NA33505   0.551   2.367   5.869
10870NA      NA33506   4.310   4.636   5.261
10871NA      NA33507   1.940   4.249   2.513
10872NA      NA33508   5.037   4.172   3.694
10873NA      NA33509   4.117   2.265   5.215
10874NA      NA33510   3.147   4.849   1.674
10875NA      NA33511   0.115   4.402   0.199
10876NA      NA33512   3.287   3.428   3.031
10877NA      NA33513   4.860   5.203   1.007
10878NA      NA33514   3.745   6.970   5.346
10879NA      NA33515   6.029   5.473   1.199
10880NA      NA33516   1.969   0.851   4.655
10881NA      NA33517   4.041   4.943   1.779
10882NA      NA33518   4.103   3.165   1.782
   7.02153   7.02153   7.02153
