Generated by trjconv : CNT in water t= 508.00000
33518
    1C        C    1   2.849   2.772   4.745
    1C        C    2   2.899   2.718   4.866
    1C        C    3   2.840   2.769   4.982
    1C        C    4   2.851   2.776   4.259
    1C        C    5   2.905   2.728   4.380
    1C        C    6   2.853   2.776   4.503
    1C        C    7   3.017   2.640   4.623
    1C        C    8   2.902   2.723   4.624
    1C        C    9   3.079   2.606   4.745
    1C        C   10   3.011   2.632   4.866
    1C        C   11   3.179   2.484   4.975
    1C        C   12   3.060   2.559   4.975
    1C        C   13   2.848   2.767   3.772
    1C        C   14   2.900   2.721   3.895
    1C        C   15   2.849   2.771   4.017
    1C        C   16   3.017   2.641   4.137
    1C        C   17   2.902   2.722   4.138
    1C        C   18   3.084   2.613   4.258
    1C        C   19   3.022   2.649   4.380
    1C        C   20   3.210   2.552   4.503
    1C        C   21   3.080   2.606   4.502
    1C        C   22   3.279   2.525   4.624
    1C        C   23   3.209   2.546   4.744
    1C        C   24   3.411   2.479   4.860
    1C        C   25   3.269   2.499   4.864
    1C        C   26   3.490   2.481   4.976
    1C        C   27   2.855   2.771   3.281
    1C        C   28   2.907   2.725   3.404
    1C        C   29   2.855   2.771   3.528
    1C        C   30   3.019   2.640   3.648
    1C        C   31   2.904   2.721   3.650
    1C        C   32   3.077   2.603   3.772
    1C        C   33   3.015   2.640   3.894
    1C        C   34   3.208   2.547   4.015
    1C        C   35   3.078   2.603   4.015
    1C        C   36   3.276   2.527   4.137
    1C        C   37   3.212   2.554   4.260
    1C        C   38   3.417   2.501   4.379
    1C        C   39   3.279   2.530   4.382
    1C        C   40   3.487   2.500   4.501
    1C        C   41   3.418   2.500   4.625
    1C        C   42   3.633   2.478   4.744
    1C        C   43   3.490   2.474   4.743
    1C        C   44   3.706   2.480   4.864
    1C        C   45   3.628   2.468   4.981
    1C        C   46   2.847   2.762   2.791
    1C        C   47   2.899   2.714   2.914
    1C        C   48   2.851   2.767   3.036
    1C        C   49   3.016   2.636   3.160
    1C        C   50   2.903   2.720   3.158
    1C        C   51   3.079   2.602   3.282
    1C        C   52   3.021   2.641   3.405
    1C        C   53   3.209   2.543   3.524
    1C        C   54   3.081   2.603   3.527
    1C        C   55   3.271   2.521   3.649
    1C        C   56   3.206   2.547   3.771
    1C        C   57   3.414   2.500   3.891
    1C        C   58   3.275   2.526   3.893
    1C        C   59   3.484   2.494   4.013
    1C        C   60   3.415   2.501   4.136
    1C        C   61   3.629   2.494   4.256
    1C        C   62   3.487   2.489   4.257
    1C        C   63   3.700   2.507   4.378
    1C        C   64   3.628   2.502   4.500
    1C        C   65   3.836   2.539   4.622
    1C        C   66   3.699   2.503   4.622
    1C        C   67   3.905   2.558   4.743
    1C        C   68   3.842   2.519   4.863
    1C        C   69   4.051   2.581   4.978
    1C        C   70   3.922   2.526   4.977
    1C        C   71   2.823   2.732   2.309
    1C        C   72   2.882   2.689   2.430
    1C        C   73   2.834   2.748   2.549
    1C        C   74   3.011   2.626   2.671
    1C        C   75   2.896   2.708   2.670
    1C        C   76   3.071   2.589   2.793
    1C        C   77   3.012   2.630   2.915
    1C        C   78   3.208   2.548   3.036
    1C        C   79   3.077   2.601   3.037
    1C        C   80   3.277   2.529   3.158
    1C        C   81   3.210   2.550   3.280
    1C        C   82   3.415   2.495   3.401
    1C        C   83   3.277   2.524   3.402
    1C        C   84   3.483   2.492   3.525
    1C        C   85   3.411   2.498   3.646
    1C        C   86   3.624   2.495   3.767
    1C        C   87   3.483   2.492   3.767
    1C        C   88   3.693   2.499   3.890
    1C        C   89   3.626   2.496   4.014
    1C        C   90   3.836   2.541   4.132
    1C        C   91   3.699   2.505   4.134
    1C        C   92   3.903   2.562   4.255
    1C        C   93   3.837   2.538   4.378
    1C        C   94   4.023   2.638   4.497
    1C        C   95   3.901   2.567   4.500
    1C        C   96   4.084   2.672   4.620
    1C        C   97   4.029   2.628   4.743
    1C        C   98   4.189   2.764   4.861
    1C        C   99   4.099   2.653   4.864
    1C        C  100   4.214   2.841   4.975
    1C        C  101   2.819   2.727   2.070
    1C        C  102   2.985   2.588   2.188
    1C        C  103   2.871   2.674   2.188
    1C        C  104   3.059   2.572   2.308
    1C        C  105   2.998   2.609   2.430
    1C        C  106   3.196   2.524   2.549
    1C        C  107   3.068   2.582   2.550
    1C        C  108   3.268   2.512   2.670
    1C        C  109   3.201   2.535   2.793
    1C        C  110   3.412   2.494   2.913
    1C        C  111   3.273   2.519   2.914
    1C        C  112   3.486   2.485   3.033
    1C        C  113   3.416   2.499   3.154
    1C        C  114   3.625   2.491   3.278
    1C        C  115   3.483   2.487   3.278
    1C        C  116   3.693   2.504   3.401
    1C        C  117   3.624   2.496   3.524
    1C        C  118   3.832   2.540   3.643
    1C        C  119   3.695   2.505   3.646
    1C        C  120   3.892   2.574   3.767
    1C        C  121   3.826   2.546   3.889
    1C        C  122   4.019   2.641   4.010
    1C        C  123   3.898   2.568   4.009
    1C        C  124   4.080   2.678   4.132
    1C        C  125   4.024   2.634   4.254
    1C        C  126   4.190   2.769   4.374
    1C        C  127   4.085   2.674   4.375
    1C        C  128   4.234   2.823   4.496
    1C        C  129   4.183   2.772   4.618
    1C        C  130   4.319   2.937   4.740
    1C        C  131   4.234   2.823   4.740
    1C        C  132   4.354   3.001   4.861
    1C        C  133   4.282   2.963   4.974
    1C        C  134   3.170   2.465   2.080
    1C        C  135   3.036   2.506   2.082
    1C        C  136   3.257   2.483   2.188
    1C        C  137   3.191   2.520   2.308
    1C        C  138   3.403   2.477   2.428
    1C        C  139   3.264   2.500   2.427
    1C        C  140   3.478   2.478   2.548
    1C        C  141   3.407   2.489   2.669
    1C        C  142   3.622   2.481   2.789
    1C        C  143   3.481   2.482   2.790
    1C        C  144   3.694   2.490   2.909
    1C        C  145   3.627   2.481   3.033
    1C        C  146   3.832   2.532   3.154
    1C        C  147   3.696   2.492   3.156
    1C        C  148   3.898   2.558   3.276
    1C        C  149   3.831   2.536   3.398
    1C        C  150   4.021   2.632   3.521
    1C        C  151   3.898   2.562   3.520
    1C        C  152   4.079   2.673   3.643
    1C        C  153   4.016   2.640   3.765
    1C        C  154   4.188   2.768   3.886
    1C        C  155   4.077   2.680   3.887
    1C        C  156   4.241   2.813   4.008
    1C        C  157   4.190   2.767   4.131
    1C        C  158   4.335   2.923   4.252
    1C        C  159   4.243   2.816   4.252
    1C        C  160   4.369   2.986   4.374
    1C        C  161   4.322   2.934   4.497
    1C        C  162   4.430   3.117   4.612
    1C        C  163   4.363   2.993   4.618
    1C        C  164   4.460   3.184   4.733
    1C        C  165   4.422   3.125   4.856
    1C        C  166   4.507   3.318   4.969
    1C        C  167   4.469   3.185   4.974
    1C        C  168   3.471   2.434   2.072
    1C        C  169   3.396   2.459   2.188
    1C        C  170   3.616   2.462   2.304
    1C        C  171   3.474   2.461   2.306
    1C        C  172   3.690   2.484   2.422
    1C        C  173   3.619   2.478   2.545
    1C        C  174   3.827   2.529   2.664
    1C        C  175   3.691   2.490   2.666
    1C        C  176   3.894   2.553   2.786
    1C        C  177   3.831   2.527   2.909
    1C        C  178   4.019   2.627   3.029
    1C        C  179   3.895   2.559   3.031
    1C        C  180   4.078   2.665   3.152
    1C        C  181   4.021   2.628   3.275
    1C        C  182   4.189   2.755   3.397
    1C        C  183   4.082   2.663   3.398
    1C        C  184   4.241   2.804   3.518
    1C        C  185   4.192   2.758   3.642
    1C        C  186   4.333   2.920   3.760
    1C        C  187   4.242   2.812   3.763
    1C        C  188   4.372   2.978   3.883
    1C        C  189   4.334   2.920   4.005
    1C        C  190   4.438   3.105   4.127
    1C        C  191   4.372   2.980   4.127
    1C        C  192   4.466   3.173   4.248
    1C        C  193   4.435   3.110   4.371
    1C        C  194   4.500   3.318   4.489
    1C        C  195   4.456   3.183   4.490
    1C        C  196   4.517   3.386   4.611
    1C        C  197   4.508   3.317   4.734
    1C        C  198   4.551   3.534   4.851
    1C        C  199   4.533   3.392   4.853
    1C        C  200   4.583   3.618   4.962
    1C        C  201   3.610   2.415   2.071
    1C        C  202   3.821   2.512   2.178
    1C        C  203   3.690   2.456   2.183
    1C        C  204   3.895   2.537   2.297
    1C        C  205   3.828   2.513   2.419
    1C        C  206   4.017   2.613   2.542
    1C        C  207   3.894   2.545   2.540
    1C        C  208   4.077   2.656   2.662
    1C        C  209   4.017   2.623   2.786
    1C        C  210   4.189   2.752   2.905
    1C        C  211   4.080   2.661   2.906
    1C        C  212   4.240   2.800   3.028
    1C        C  213   4.193   2.748   3.151
    1C        C  214   4.328   2.912   3.271
    1C        C  215   4.238   2.803   3.273
    1C        C  216   4.366   2.973   3.393
    1C        C  217   4.328   2.916   3.516
    1C        C  218   4.435   3.102   3.638
    1C        C  219   4.375   2.974   3.637
    1C        C  220   4.459   3.168   3.760
    1C        C  221   4.438   3.103   3.884
    1C        C  222   4.502   3.307   4.003
    1C        C  223   4.465   3.171   4.005
    1C        C  224   4.515   3.379   4.124
    1C        C  225   4.502   3.309   4.246
    1C        C  226   4.516   3.526   4.367
    1C        C  227   4.512   3.385   4.365
    1C        C  228   4.518   3.598   4.488
    1C        C  229   4.524   3.527   4.610
    1C        C  230   4.498   3.741   4.728
    1C        C  231   4.532   3.603   4.729
    1C        C  232   4.492   3.819   4.846
    1C        C  233   4.545   3.753   4.957
    1C        C  234   4.010   2.615   2.063
    1C        C  235   3.890   2.544   2.060
    1C        C  236   4.081   2.648   2.179
    1C        C  237   4.022   2.602   2.299
    1C        C  238   4.192   2.734   2.422
    1C        C  239   4.078   2.649   2.419
    1C        C  240   4.249   2.784   2.541
    1C        C  241   4.193   2.737   2.663
    1C        C  242   4.334   2.902   2.782
    1C        C  243   4.242   2.795   2.782
    1C        C  244   4.375   2.962   2.903
    1C        C  245   4.332   2.907   3.027
    1C        C  246   4.429   3.096   3.146
    1C        C  247   4.369   2.968   3.149
    1C        C  248   4.452   3.160   3.270
    1C        C  249   4.429   3.100   3.396
    1C        C  250   4.491   3.306   3.514
    1C        C  251   4.458   3.169   3.516
    1C        C  252   4.505   3.374   3.637
    1C        C  253   4.492   3.306   3.760
    1C        C  254   4.525   3.517   3.876
    1C        C  255   4.513   3.376   3.881
    1C        C  256   4.521   3.590   3.997
    1C        C  257   4.519   3.521   4.120
    1C        C  258   4.489   3.730   4.241
    1C        C  259   4.515   3.591   4.242
    1C        C  260   4.469   3.801   4.362
    1C        C  261   4.492   3.737   4.485
    1C        C  262   4.433   3.943   4.602
    1C        C  263   4.477   3.809   4.606
    1C        C  264   4.401   4.010   4.722
    1C        C  265   4.435   3.949   4.845
    1C        C  266   4.321   4.131   4.958
    1C        C  267   4.391   4.011   4.962
    1C        C  268   4.260   2.771   2.062
    1C        C  269   4.194   2.731   2.179
    1C        C  270   4.341   2.887   2.297
    1C        C  271   4.248   2.780   2.301
    1C        C  272   4.380   2.950   2.417
    1C        C  273   4.337   2.894   2.540
    1C        C  274   4.442   3.084   2.658
    1C        C  275   4.372   2.961   2.659
    1C        C  276   4.469   3.151   2.779
    1C        C  277   4.437   3.089   2.902
    1C        C  278   4.494   3.295   3.025
    1C        C  279   4.460   3.158   3.023
    1C        C  280   4.509   3.365   3.147
    1C        C  281   4.494   3.294   3.268
    1C        C  282   4.516   3.510   3.388
    1C        C  283   4.503   3.369   3.388
    1C        C  284   4.520   3.581   3.510
    1C        C  285   4.522   3.514   3.634
    1C        C  286   4.498   3.727   3.751
    1C        C  287   4.525   3.589   3.755
    1C        C  288   4.476   3.795   3.873
    1C        C  289   4.494   3.729   3.997
    1C        C  290   4.431   3.932   4.116
    1C        C  291   4.475   3.798   4.118
    1C        C  292   4.403   3.999   4.237
    1C        C  293   4.431   3.937   4.361
    1C        C  294   4.326   4.126   4.477
    1C        C  295   4.405   4.008   4.481
    1C        C  296   4.285   4.187   4.598
    1C        C  297   4.327   4.132   4.721
    1C        C  298   4.194   4.308   4.833
    1C        C  299   4.282   4.195   4.840
    1C        C  300   4.168   4.401   4.939
    1C        C  301   4.351   2.876   2.062
    1C        C  302   4.471   3.065   2.175
    1C        C  303   4.394   2.943   2.177
    1C        C  304   4.477   3.141   2.295
    1C        C  305   4.445   3.075   2.416
    1C        C  306   4.501   3.283   2.535
    1C        C  307   4.477   3.144   2.535
    1C        C  308   4.510   3.355   2.656
    1C        C  309   4.503   3.288   2.780
    1C        C  310   4.526   3.501   2.895
    1C        C  311   4.511   3.361   2.901
    1C        C  312   4.519   3.573   3.017
    1C        C  313   4.515   3.506   3.142
    1C        C  314   4.490   3.717   3.262
    1C        C  315   4.513   3.578   3.264
    1C        C  316   4.483   3.788   3.384
    1C        C  317   4.497   3.720   3.507
    1C        C  318   4.429   3.925   3.625
    1C        C  319   4.477   3.792   3.627
    1C        C  320   4.400   3.991   3.747
    1C        C  321   4.428   3.927   3.870
    1C        C  322   4.318   4.109   3.991
    1C        C  323   4.397   3.992   3.992
    1C        C  324   4.273   4.166   4.112
    1C        C  325   4.322   4.115   4.234
    1C        C  326   4.184   4.280   4.353
    1C        C  327   4.280   4.177   4.354
    1C        C  328   4.135   4.337   4.472
    1C        C  329   4.188   4.289   4.595
    1C        C  330   4.019   4.433   4.710
    1C        C  331   4.134   4.349   4.711
    1C        C  332   3.966   4.490   4.828
    1C        C  333   4.048   4.474   4.940
    1C        C  334   4.551   3.262   2.058
    1C        C  335   4.536   3.123   2.062
    1C        C  336   4.535   3.345   2.170
    1C        C  337   4.506   3.280   2.292
    1C        C  338   4.518   3.494   2.408
    1C        C  339   4.515   3.353   2.412
    1C        C  340   4.519   3.567   2.528
    1C        C  341   4.519   3.496   2.650
    1C        C  342   4.494   3.708   2.771
    1C        C  343   4.516   3.568   2.771
    1C        C  344   4.479   3.779   2.892
    1C        C  345   4.496   3.712   3.015
    1C        C  346   4.432   3.916   3.134
    1C        C  347   4.476   3.781   3.137
    1C        C  348   4.399   3.980   3.256
    1C        C  349   4.433   3.920   3.379
    1C        C  350   4.317   4.099   3.500
    1C        C  351   4.399   3.984   3.501
    1C        C  352   4.275   4.161   3.620
    1C        C  353   4.323   4.109   3.743
    1C        C  354   4.176   4.260   3.865
    1C        C  355   4.277   4.161   3.866
    1C        C  356   4.118   4.308   3.985
    1C        C  357   4.171   4.263   4.108
    1C        C  358   4.012   4.403   4.229
    1C        C  359   4.126   4.318   4.230
    1C        C  360   3.951   4.446   4.349
    1C        C  361   4.019   4.417   4.469
    1C        C  362   3.823   4.512   4.589
    1C        C  363   3.953   4.457   4.588
    1C        C  364   3.758   4.542   4.710
    1C        C  365   3.835   4.542   4.829
    1C        C  366   3.627   4.598   4.946
    1C        C  367   3.765   4.580   4.944
    1C        C  368   4.501   3.559   2.049
    1C        C  369   4.521   3.486   2.167
    1C        C  370   4.501   3.704   2.286
    1C        C  371   4.514   3.563   2.285
    1C        C  372   4.485   3.777   2.406
    1C        C  373   4.503   3.708   2.527
    1C        C  374   4.429   3.908   2.648
    1C        C  375   4.481   3.777   2.649
    1C        C  376   4.395   3.973   2.769
    1C        C  377   4.433   3.913   2.891
    1C        C  378   4.322   4.095   3.010
    1C        C  379   4.404   3.980   3.012
    1C        C  380   4.275   4.151   3.131
    1C        C  381   4.317   4.095   3.254
    1C        C  382   4.173   4.251   3.376
    1C        C  383   4.272   4.149   3.376
    1C        C  384   4.118   4.299   3.496
    1C        C  385   4.173   4.259   3.620
    1C        C  386   4.003   4.382   3.743
    1C        C  387   4.121   4.304   3.743
    1C        C  388   3.941   4.423   3.863
    1C        C  389   4.001   4.388   3.986
    1C        C  390   3.814   4.483   4.105
    1C        C  391   3.945   4.431   4.108
    1C        C  392   3.748   4.508   4.227
    1C        C  393   3.820   4.500   4.348
    1C        C  394   3.612   4.549   4.471
    1C        C  395   3.752   4.530   4.468
    1C        C  396   3.541   4.562   4.593
    1C        C  397   3.618   4.561   4.711
    1C        C  398   3.408   4.558   4.838
    1C        C  399   3.548   4.576   4.833
    1C        C  400   3.340   4.521   4.955
    1C        C  401   4.497   3.698   2.050
    1C        C  402   4.450   3.912   2.162
    1C        C  403   4.487   3.776   2.165
    1C        C  404   4.412   3.975   2.283
    1C        C  405   4.434   3.909   2.406
    1C        C  406   4.331   4.097   2.524
    1C        C  407   4.402   3.975   2.527
    1C        C  408   4.280   4.149   2.644
    1C        C  409   4.317   4.091   2.768
    1C        C  410   4.173   4.248   2.888
    1C        C  411   4.272   4.148   2.889
    1C        C  412   4.119   4.294   3.010
    1C        C  413   4.171   4.247   3.133
    1C        C  414   4.000   4.375   3.252
    1C        C  415   4.118   4.297   3.254
    1C        C  416   3.940   4.409   3.375
    1C        C  417   4.000   4.377   3.499
    1C        C  418   3.808   4.466   3.617
    1C        C  419   3.938   4.411   3.621
    1C        C  420   3.745   4.498   3.740
    1C        C  421   3.812   4.480   3.863
    1C        C  422   3.606   4.532   3.986
    1C        C  423   3.745   4.506   3.984
    1C        C  424   3.537   4.543   4.108
    1C        C  425   3.609   4.536   4.229
    1C        C  426   3.397   4.554   4.353
    1C        C  427   3.538   4.547   4.351
    1C        C  428   3.326   4.546   4.475
    1C        C  429   3.400   4.555   4.596
    1C        C  430   3.192   4.524   4.722
    1C        C  431   3.332   4.551   4.719
    1C        C  432   3.121   4.498   4.842
    1C        C  433   3.205   4.489   4.954
    1C        C  434   4.381   4.118   2.049
    1C        C  435   4.445   3.994   2.048
    1C        C  436   4.301   4.157   2.161
    1C        C  437   4.334   4.094   2.283
    1C        C  438   4.176   4.243   2.400
    1C        C  439   4.282   4.150   2.402
    1C        C  440   4.121   4.289   2.522
    1C        C  441   4.175   4.244   2.645
    1C        C  442   4.004   4.374   2.762
    1C        C  443   4.120   4.294   2.765
    1C        C  444   3.942   4.411   2.884
    1C        C  445   4.001   4.372   3.006
    1C        C  446   3.810   4.463   3.129
    1C        C  447   3.938   4.404   3.129
    1C        C  448   3.745   4.489   3.252
    1C        C  449   3.812   4.468   3.374
    1C        C  450   3.604   4.523   3.494
    1C        C  451   3.742   4.491   3.495
    1C        C  452   3.536   4.536   3.617
    1C        C  453   3.607   4.528   3.739
    1C        C  454   3.398   4.545   3.862
    1C        C  455   3.539   4.541   3.862
    1C        C  456   3.328   4.539   3.985
    1C        C  457   3.395   4.544   4.108
    1C        C  458   3.189   4.514   4.234
    1C        C  459   3.326   4.547   4.232
    1C        C  460   3.122   4.491   4.356
    1C        C  461   3.189   4.513   4.479
    1C        C  462   2.996   4.436   4.601
    1C        C  463   3.122   4.499   4.602
    1C        C  464   2.930   4.400   4.720
    1C        C  465   2.987   4.447   4.842
    1C        C  466   2.801   4.336   4.958
    1C        C  467   2.907   4.428   4.959
    1C        C  468   4.120   4.278   2.042
    1C        C  469   4.190   4.248   2.159
    1C        C  470   4.006   4.370   2.277
    1C        C  471   4.125   4.292   2.278
    1C        C  472   3.938   4.396   2.398
    1C        C  473   4.004   4.368   2.520
    1C        C  474   3.809   4.459   2.640
    1C        C  475   3.940   4.406   2.640
    1C        C  476   3.744   4.487   2.762
    1C        C  477   3.812   4.465   2.884
    1C        C  478   3.606   4.517   3.007
    1C        C  479   3.744   4.489   3.006
    1C        C  480   3.536   4.526   3.130
    1C        C  481   3.606   4.518   3.252
    1C        C  482   3.392   4.541   3.376
    1C        C  483   3.533   4.534   3.372
    1C        C  484   3.321   4.538   3.498
    1C        C  485   3.395   4.547   3.617
    1C        C  486   3.191   4.497   3.744
    1C        C  487   3.326   4.539   3.740
    1C        C  488   3.127   4.473   3.867
    1C        C  489   3.191   4.504   3.990
    1C        C  490   2.997   4.422   4.111
    1C        C  491   3.122   4.487   4.112
    1C        C  492   2.941   4.385   4.235
    1C        C  493   2.996   4.427   4.358
    1C        C  494   2.829   4.300   4.480
    1C        C  495   2.935   4.393   4.481
    1C        C  496   2.778   4.250   4.602
    1C        C  497   2.821   4.308   4.723
    1C        C  498   2.665   4.162   4.842
    1C        C  499   2.756   4.269   4.843
    1C        C  500   2.596   4.115   4.954
    1C        C  501   4.004   4.355   2.040
    1C        C  502   3.813   4.459   2.154
    1C        C  503   3.943   4.404   2.156
    1C        C  504   3.740   4.476   2.274
    1C        C  505   3.807   4.449   2.396
    1C        C  506   3.603   4.506   2.518
    1C        C  507   3.739   4.471   2.518
    1C        C  508   3.534   4.518   2.641
    1C        C  509   3.605   4.515   2.763
    1C        C  510   3.394   4.523   2.884
    1C        C  511   3.535   4.524   2.885
    1C        C  512   3.324   4.518   3.007
    1C        C  513   3.395   4.529   3.129
    1C        C  514   3.188   4.499   3.252
    1C        C  515   3.325   4.532   3.251
    1C        C  516   3.120   4.475   3.374
    1C        C  517   3.185   4.498   3.497
    1C        C  518   2.996   4.414   3.623
    1C        C  519   3.124   4.474   3.622
    1C        C  520   2.939   4.373   3.745
    1C        C  521   3.000   4.412   3.866
    1C        C  522   2.835   4.282   3.994
    1C        C  523   2.943   4.373   3.990
    1C        C  524   2.787   4.234   4.118
    1C        C  525   2.836   4.291   4.238
    1C        C  526   2.700   4.129   4.364
    1C        C  527   2.782   4.243   4.359
    1C        C  528   2.654   4.073   4.485
    1C        C  529   2.690   4.139   4.604
    1C        C  530   2.583   3.956   4.731
    1C        C  531   2.639   4.087   4.725
    1C        C  532   2.540   3.896   4.853
    1C        C  533   2.533   3.990   4.960
    1C        C  534   3.618   4.556   2.037
    1C        C  535   3.747   4.504   2.039
    1C        C  536   3.535   4.537   2.152
    1C        C  537   3.603   4.512   2.275
    1C        C  538   3.391   4.516   2.397
    1C        C  539   3.532   4.521   2.397
    1C        C  540   3.321   4.506   2.519
    1C        C  541   3.393   4.513   2.640
    1C        C  542   3.184   4.484   2.764
    1C        C  543   3.322   4.516   2.763
    1C        C  544   3.116   4.467   2.887
    1C        C  545   3.187   4.485   3.008
    1C        C  546   3.000   4.395   3.133
    1C        C  547   3.122   4.465   3.132
    1C        C  548   2.942   4.358   3.257
    1C        C  549   2.999   4.402   3.378
    1C        C  550   2.833   4.275   3.502
    1C        C  551   2.939   4.368   3.502
    1C        C  552   2.782   4.230   3.626
    1C        C  553   2.831   4.281   3.748
    1C        C  554   2.704   4.117   3.875
    1C        C  555   2.784   4.233   3.872
    1C        C  556   2.669   4.056   3.997
    1C        C  557   2.708   4.118   4.118
    1C        C  558   2.604   3.938   4.246
    1C        C  559   2.668   4.064   4.242
    1C        C  560   2.569   3.876   4.368
    1C        C  561   2.591   3.946   4.489
    1C        C  562   2.526   3.747   4.612
    1C        C  563   2.565   3.883   4.612
    1C        C  564   2.513   3.678   4.735
    1C        C  565   2.522   3.754   4.854
    1C        C  566   2.513   3.545   4.976
    1C        C  567   2.520   3.684   4.976
    1C        C  568   3.330   4.469   2.038
    1C        C  569   3.396   4.507   2.155
    1C        C  570   3.183   4.473   2.277
    1C        C  571   3.320   4.510   2.275
    1C        C  572   3.115   4.450   2.398
    1C        C  573   3.183   4.475   2.519
    1C        C  574   2.990   4.395   2.646
    1C        C  575   3.117   4.456   2.643
    1C        C  576   2.930   4.358   2.768
    1C        C  577   2.993   4.398   2.888
    1C        C  578   2.826   4.270   3.015
    1C        C  579   2.938   4.356   3.011
    1C        C  580   2.777   4.220   3.138
    1C        C  581   2.830   4.272   3.258
    1C        C  582   2.693   4.113   3.383
    1C        C  583   2.781   4.224   3.381
    1C        C  584   2.659   4.055   3.507
    1C        C  585   2.699   4.115   3.629
    1C        C  586   2.600   3.931   3.755
    1C        C  587   2.663   4.058   3.753
    1C        C  588   2.571   3.868   3.878
    1C        C  589   2.602   3.931   4.000
    1C        C  590   2.534   3.736   4.127
    1C        C  591   2.574   3.872   4.125
    1C        C  592   2.521   3.668   4.250
    1C        C  593   2.527   3.741   4.371
    1C        C  594   2.506   3.530   4.496
    1C        C  595   2.517   3.671   4.493
    1C        C  596   2.510   3.462   4.620
    1C        C  597   2.512   3.536   4.740
    1C        C  598   2.533   3.325   4.861
    1C        C  599   2.514   3.465   4.862
    1C        C  600   2.536   3.248   4.978
    1C        C  601   3.195   4.439   2.041
    1C        C  602   2.981   4.389   2.157
    1C        C  603   3.116   4.437   2.157
    1C        C  604   2.925   4.352   2.283
    1C        C  605   2.986   4.391   2.404
    1C        C  606   2.815   4.269   2.528
    1C        C  607   2.925   4.357   2.526
    1C        C  608   2.772   4.213   2.651
    1C        C  609   2.824   4.265   2.771
    1C        C  610   2.681   4.112   2.897
    1C        C  611   2.773   4.218   2.895
    1C        C  612   2.645   4.051   3.020
    1C        C  613   2.687   4.111   3.140
    1C        C  614   2.586   3.926   3.264
    1C        C  615   2.649   4.053   3.263
    1C        C  616   2.562   3.867   3.390
    1C        C  617   2.593   3.930   3.512
    1C        C  618   2.529   3.729   3.636
    1C        C  619   2.567   3.865   3.635
    1C        C  620   2.519   3.661   3.760
    1C        C  621   2.531   3.732   3.881
    1C        C  622   2.510   3.525   4.007
    1C        C  623   2.521   3.666   4.005
    1C        C  624   2.511   3.457   4.130
    1C        C  625   2.511   3.527   4.253
    1C        C  626   2.538   3.319   4.378
    1C        C  627   2.511   3.457   4.375
    1C        C  628   2.556   3.250   4.500
    1C        C  629   2.535   3.323   4.619
    1C        C  630   2.590   3.116   4.742
    1C        C  631   2.548   3.252   4.741
    1C        C  632   2.613   3.045   4.863
    1C        C  633   2.567   3.111   4.982
    1C        C  634   2.779   4.303   2.055
    1C        C  635   2.886   4.394   2.050
    1C        C  636   2.746   4.228   2.168
    1C        C  637   2.806   4.274   2.287
    1C        C  638   2.676   4.105   2.409
    1C        C  639   2.759   4.219   2.408
    1C        C  640   2.639   4.045   2.532
    1C        C  641   2.683   4.103   2.653
    1C        C  642   2.581   3.922   2.776
    1C        C  643   2.643   4.049   2.777
    1C        C  644   2.558   3.855   2.899
    1C        C  645   2.585   3.923   3.020
    1C        C  646   2.521   3.722   3.148
    1C        C  647   2.559   3.858   3.143
    1C        C  648   2.510   3.657   3.273
    1C        C  649   2.524   3.731   3.392
    1C        C  650   2.501   3.519   3.516
    1C        C  651   2.512   3.660   3.514
    1C        C  652   2.502   3.450   3.639
    1C        C  653   2.504   3.520   3.761
    1C        C  654   2.535   3.315   3.887
    1C        C  655   2.504   3.453   3.885
    1C        C  656   2.554   3.251   4.012
    1C        C  657   2.532   3.317   4.135
    1C        C  658   2.604   3.117   4.255
    1C        C  659   2.550   3.248   4.257
    1C        C  660   2.635   3.057   4.378
    1C        C  661   2.602   3.117   4.502
    1C        C  662   2.709   2.934   4.622
    1C        C  663   2.630   3.051   4.624
    1C        C  664   2.749   2.873   4.743
    1C        C  665   2.692   2.925   4.863
    1C        C  666   2.743   2.868   4.980
    1C        C  667   2.683   4.018   2.052
    1C        C  668   2.688   4.099   2.166
    1C        C  669   2.587   3.911   2.292
    1C        C  670   2.644   4.041   2.287
    1C        C  671   2.553   3.848   2.414
    1C        C  672   2.583   3.916   2.535
    1C        C  673   2.508   3.718   2.659
    1C        C  674   2.551   3.852   2.657
    1C        C  675   2.505   3.647   2.781
    1C        C  676   2.519   3.719   2.901
    1C        C  677   2.498   3.512   3.027
    1C        C  678   2.505   3.654   3.025
    1C        C  679   2.504   3.443   3.150
    1C        C  680   2.503   3.516   3.271
    1C        C  681   2.532   3.308   3.398
    1C        C  682   2.507   3.447   3.394
    1C        C  683   2.553   3.244   3.522
    1C        C  684   2.528   3.311   3.643
    1C        C  685   2.606   3.114   3.769
    1C        C  686   2.550   3.244   3.766
    1C        C  687   2.642   3.055   3.892
    1C        C  688   2.607   3.121   4.013
    1C        C  689   2.715   2.935   4.136
    1C        C  690   2.636   3.052   4.133
    1C        C  691   2.758   2.881   4.259
    1C        C  692   2.715   2.940   4.381
    1C        C  693   2.758   2.880   4.501
    1C        C  694   2.618   3.894   2.056
    1C        C  695   2.522   3.703   2.176
    1C        C  696   2.578   3.833   2.175
    1C        C  697   2.503   3.635   2.298
    1C        C  698   2.512   3.713   2.416
    1C        C  699   2.481   3.505   2.539
    1C        C  700   2.490   3.646   2.538
    1C        C  701   2.493   3.434   2.661
    1C        C  702   2.497   3.506   2.783
    1C        C  703   2.524   3.299   2.909
    1C        C  704   2.500   3.438   2.907
    1C        C  705   2.540   3.231   3.032
    1C        C  706   2.524   3.303   3.153
    1C        C  707   2.598   3.106   3.278
    1C        C  708   2.545   3.237   3.276
    1C        C  709   2.637   3.048   3.401
    1C        C  710   2.609   3.114   3.523
    1C        C  711   2.720   2.937   3.647
    1C        C  712   2.638   3.052   3.646
    1C        C  713   2.762   2.879   3.769
    1C        C  714   2.724   2.941   3.891
    1C        C  715   2.764   2.884   4.014
    1C        C  716   2.447   3.499   2.064
    1C        C  717   2.498   3.630   2.059
    1C        C  718   2.458   3.420   2.182
    1C        C  719   2.478   3.496   2.301
    1C        C  720   2.512   3.286   2.423
    1C        C  721   2.483   3.425   2.423
    1C        C  722   2.533   3.220   2.546
    1C        C  723   2.518   3.295   2.664
    1C        C  724   2.591   3.098   2.790
    1C        C  725   2.538   3.229   2.787
    1C        C  726   2.628   3.036   2.912
    1C        C  727   2.597   3.102   3.033
    1C        C  728   2.710   2.925   3.159
    1C        C  729   2.631   3.042   3.157
    1C        C  730   2.762   2.877   3.281
    1C        C  731   2.719   2.933   3.403
    1C        C  732   2.762   2.878   3.526
    1C        C  733   2.487   3.196   2.071
    1C        C  734   2.486   3.280   2.183
    1C        C  735   2.578   3.082   2.304
    1C        C  736   2.521   3.212   2.303
    1C        C  737   2.609   3.017   2.426
    1C        C  738   2.583   3.088   2.546
    1C        C  739   2.697   2.913   2.670
    1C        C  740   2.616   3.029   2.670
    1C        C  741   2.744   2.858   2.792
    1C        C  742   2.703   2.917   2.913
    1C        C  743   2.749   2.865   3.037
    1C        C  744   2.542   3.068   2.070
    1C        C  745   2.680   2.895   2.186
    1C        C  746   2.605   3.014   2.183
    1C        C  747   2.732   2.841   2.306
    1C        C  748   2.686   2.899   2.427
    1C        C  749   2.735   2.849   2.550
    1C        C  750   2.731   2.835   2.070
    1C        C  751   3.657   2.333   1.958
    1C        O  752   3.674   2.208   1.968
    1C        O  753   3.673   2.372   1.824
    1C        C  754   4.635   3.047   1.981
    1C        O  755   4.625   3.022   1.858
    1C        O  756   4.772   3.059   2.006
    1C        C  757   4.456   4.220   1.972
    1C        O  758   4.542   4.302   2.016
    1C        O  759   4.446   4.240   1.834
    1C        C  760   3.598   4.674   1.949
    1C        O  761   3.608   4.796   1.976
    1C        O  762   3.581   4.651   1.812
    1C        C  763   2.873   4.520   1.974
    1C        O  764   2.921   4.544   1.860
    1C        O  765   2.777   4.611   2.020
    1C        C  766   2.351   3.481   1.952
    1C        O  767   2.384   3.499   1.832
    1C        O  768   2.212   3.481   1.964
    1C        C  769   4.695   3.591   5.055
    1C        O  770   4.680   3.611   5.179
    1C        O  771   4.818   3.650   5.023
    1C        C  772   4.261   4.436   5.049
    1C        O  773   4.225   4.391   5.162
    1C        O  774   4.312   4.564   5.072
    1C        C  775   4.139   2.515   5.077
    1C        O  776   4.209   2.413   5.053
    1C        O  777   4.189   2.579   5.191
    1C        C  778   2.887   4.537   5.057
    1C        O  779   2.861   4.654   5.016
    1C        O  780   2.863   4.516   5.193
    1C        C  781   2.501   3.037   5.091
    1C        O  782   2.415   2.946   5.075
    1C        O  783   2.490   3.078   5.224
    1C        C  784   2.448   3.971   5.080
    1C        O  785   2.326   3.996   5.065
    1C        O  786   2.499   3.974   5.211
    1C        C  787   2.940   2.430   1.998
    1C        O  788   2.926   2.461   1.877
    1C        O  789   2.897   2.301   2.025
    1C        C  790   3.193   2.380   5.079
    1C        O  791   3.158   2.261   5.058
    1C        O  792   3.268   2.382   5.197
    1C        H  793   4.254   3.035   5.048
    1C        H  794   4.195   2.791   5.068
    1C        H  795   4.503   3.124   5.055
    1C        H  796   4.553   3.353   5.060
    1C        H  797   4.572   3.816   5.040
    1C        H  798   4.366   3.947   5.044
    1C        H  799   4.284   4.173   5.049
    1C        H  800   4.012   4.494   5.039
    1C        H  801   3.824   4.605   5.029
    1C        H  802   3.592   4.666   5.021
    1C        H  803   3.390   4.519   5.049
    1C        H  804   3.163   4.468   5.051
    1C        H  805   3.886   2.496   5.074
    1C        H  806   3.670   2.410   5.060
    1C        H  807   3.021   2.584   5.071
    1C        H  808   3.444   2.533   5.057
    1C        H  809   2.867   2.734   5.079
    1C        H  810   2.719   2.910   5.075
    1C        H  811   2.490   3.292   5.065
    1C        H  812   2.494   3.502   5.072
    1C        H  813   2.576   3.729   5.055
    1C        H  814   2.580   4.182   5.037
    1C        H  815   2.765   4.302   5.053
    1C        H  816   2.742   2.900   1.986
    1C        H  817   2.841   2.680   1.976
    1C        H  818   3.217   2.460   1.984
    1C        H  819   3.432   2.474   1.981
    1C        H  820   3.889   2.465   1.988
    1C        H  821   4.072   2.593   1.979
    1C        H  822   4.275   2.700   1.984
    1C        H  823   4.399   2.895   1.968
    1C        H  824   4.543   3.306   1.961
    1C        H  825   4.427   3.518   1.983
    1C        H  826   4.537   3.741   1.960
    1C        H  827   3.809   4.532   1.956
    1C        H  828   3.982   4.401   1.946
    1C        H  829   4.171   4.269   1.948
    1C        H  830   4.524   3.980   1.977
    1C        H  831   2.575   3.863   1.963
    1C        H  832   2.753   4.030   1.972
    1C        H  833   2.700   4.324   1.986
    1C        H  834   3.371   4.488   1.941
    1C        H  835   3.145   4.433   1.947
    1C        H  836   2.550   3.017   1.976
    1C        H  837   2.472   3.243   1.976
    1C        H  838   2.571   3.648   1.983
    2V3OU   H29  839   2.803   3.550   5.597
    2V3OU   C27  840   2.779   3.501   5.695
    2V3OU   H27  841   2.716   3.566   5.761
    2V3OU   H28  842   2.728   3.402   5.687
    2V3OU   O11  843   2.904   3.472   5.758
    2V3OU   C15  844   2.916   3.396   5.872
    2V3OU   C13  845   3.044   3.373   5.925
    2V3OU   C14  846   3.072   3.272   6.017
    2V3OU   C16  847   2.968   3.186   6.053
    2V3OU    H6  848   2.989   3.099   6.116
    2V3OU   C12  849   3.212   3.228   6.038
    2V3OU    O2  850   3.233   3.128   6.109
    2V3OU   C10  851   3.324   3.305   5.982
    2V3OU    C8  852   3.455   3.270   6.012
    2V3OU   O10  853   3.487   3.153   6.073
    2V3OU   H26  854   3.405   3.117   6.110
    2V3OU    C6  855   3.564   3.350   5.964
    2V3OU    C5  856   3.535   3.463   5.888
    2V3OU    C4  857   3.702   3.294   5.959
    2V3OU    H4  858   3.724   3.231   6.050
    2V3OU    H5  859   3.707   3.230   5.867
    2V3OU    C2  860   3.816   3.396   5.950
    2V3OU    O6  861   3.804   3.478   6.067
    2V3OU   H21  862   3.761   3.559   6.035
    2V3OU    C3  863   3.780   3.495   5.839
    2V3OU    H2  864   3.860   3.571   5.821
    2V3OU    H3  865   3.776   3.432   5.746
    2V3OU   C25  866   3.949   3.322   5.937
    2V3OU    O7  867   3.998   3.285   5.830
    2V3OU   C26  868   4.026   3.290   6.064
    2V3OU   H22  869   4.065   3.385   6.107
    2V3OU   H23  870   4.111   3.222   6.040
    2V3OU    O8  871   3.965   3.212   6.164
    2V3OU   H24  872   3.918   3.268   6.228
    2V3OU    C1  873   3.645   3.561   5.858
    2V3OU    H1  874   3.623   3.617   5.763
    2V3OU    O3  875   3.656   3.654   5.966
    2V3OU   C19  876   3.618   3.791   5.953
    2V3OU    H9  877   3.519   3.792   5.899
    2V3OU    O4  878   3.716   3.846   5.867
    2V3OU   C20  879   3.843   3.872   5.928
    2V3OU   H10  880   3.889   3.770   5.942
    2V3OU   C24  881   3.609   3.854   6.092
    2V3OU   H16  882   3.544   3.787   6.153
    2V3OU   H17  883   3.558   3.953   6.080
    2V3OU   C23  884   3.747   3.873   6.156
    2V3OU   H15  885   3.790   3.772   6.185
    2V3OU    N1  886   3.737   3.950   6.279
    2V3OU   H19  887   3.811   3.923   6.341
    2V3OU   H20  888   3.644   3.936   6.313
    2V3OU   C21  889   3.845   3.948   6.061
    2V3OU   H11  890   3.947   3.924   6.103
    2V3OU    O5  891   3.824   4.089   6.062
    2V3OU   H18  892   3.775   4.108   6.144
    2V3OU   C22  893   3.913   3.946   5.816
    2V3OU   H12  894   3.860   4.042   5.793
    2V3OU   H13  895   3.906   3.886   5.722
    2V3OU   H14  896   4.020   3.968   5.843
    2V3OU   C11  897   3.152   3.466   5.888
    2V3OU    O1  898   3.124   3.586   5.867
    2V3OU    C9  899   3.292   3.420   5.906
    2V3OU    C7  900   3.399   3.496   5.858
    2V3OU    O9  901   3.387   3.617   5.794
    2V3OU   H25  902   3.294   3.630   5.770
    2V3OU   C17  903   2.812   3.320   5.931
    2V3OU    H7  904   2.709   3.336   5.899
    2V3OU   C18  905   2.837   3.210   6.012
    2V3OU    H8  906   2.748   3.148   6.033
    3SOL     OW  907   4.029   3.222   3.964
    3SOL    HW1  908   4.034   3.198   3.867
    3SOL    HW2  909   4.014   3.139   4.018
    4SOL     OW  910   0.027   6.017   0.921
    4SOL    HW1  911   6.957   5.991   0.955
    4SOL    HW2  912   0.058   5.951   0.852
    5SOL     OW  913   5.156   2.494   1.001
    5SOL    HW1  914   5.158   2.524   1.096
    5SOL    HW2  915   5.068   2.452   0.981
    6SOL     OW  916   4.279   1.205   2.379
    6SOL    HW1  917   4.351   1.274   2.377
    6SOL    HW2  918   4.316   1.119   2.343
    7SOL     OW  919   2.136   3.602   4.694
    7SOL    HW1  920   2.097   3.654   4.618
    7SOL    HW2  921   2.175   3.516   4.660
    8SOL     OW  922   0.905   2.389   5.219
    8SOL    HW1  923   0.996   2.358   5.191
    8SOL    HW2  924   0.844   2.388   5.140
    9SOL     OW  925   0.150   1.154   6.321
    9SOL    HW1  926   0.154   1.098   6.405
    9SOL    HW2  927   0.174   1.248   6.343
   10SOL     OW  928   5.277   4.838   1.492
   10SOL    HW1  929   5.285   4.858   1.590
   10SOL    HW2  930   5.208   4.898   1.451
   11SOL     OW  931   2.501   2.305   1.253
   11SOL    HW1  932   2.555   2.314   1.170
   11SOL    HW2  933   2.442   2.385   1.263
   12SOL     OW  934   4.581   5.184   2.638
   12SOL    HW1  935   4.486   5.155   2.631
   12SOL    HW2  936   4.617   5.159   2.728
   13SOL     OW  937   6.196   5.847   1.168
   13SOL    HW1  938   6.207   5.756   1.208
   13SOL    HW2  939   6.203   5.840   1.068
   14SOL     OW  940   4.509   6.989   6.468
   14SOL    HW1  941   4.526   6.984   6.567
   14SOL    HW2  942   4.540   0.057   6.434
   15SOL     OW  943   1.345   5.774   6.370
   15SOL    HW1  944   1.299   5.805   6.453
   15SOL    HW2  945   1.429   5.826   6.356
   16SOL     OW  946   2.113   4.920   5.201
   16SOL    HW1  947   2.172   4.933   5.121
   16SOL    HW2  948   2.065   4.832   5.193
   17SOL     OW  949   6.467   1.064   5.002
   17SOL    HW1  950   6.546   1.017   5.040
   17SOL    HW2  951   6.403   1.085   5.076
   18SOL     OW  952   3.121   0.894   5.628
   18SOL    HW1  953   3.059   0.964   5.590
   18SOL    HW2  954   3.068   0.829   5.681
   19SOL     OW  955   3.451   6.611   3.018
   19SOL    HW1  956   3.395   6.571   3.090
   19SOL    HW2  957   3.394   6.667   2.958
   20SOL     OW  958   6.116   1.480   5.672
   20SOL    HW1  959   6.107   1.517   5.765
   20SOL    HW2  960   6.178   1.538   5.619
   21SOL     OW  961   2.153   3.938   2.744
   21SOL    HW1  962   2.141   3.850   2.698
   21SOL    HW2  963   2.212   3.927   2.824
   22SOL     OW  964   1.060   1.022   0.130
   22SOL    HW1  965   1.037   0.997   0.224
   22SOL    HW2  966   1.160   1.019   0.118
   23SOL     OW  967   6.331   4.692   0.934
   23SOL    HW1  968   6.400   4.641   0.986
   23SOL    HW2  969   6.305   4.774   0.984
   24SOL     OW  970   5.327   1.539   0.413
   24SOL    HW1  971   5.385   1.500   0.484
   24SOL    HW2  972   5.368   1.523   0.324
   25SOL     OW  973   2.088   0.657   4.649
   25SOL    HW1  974   2.018   0.725   4.623
   25SOL    HW2  975   2.086   0.643   4.748
   26SOL     OW  976   1.403   1.830   5.793
   26SOL    HW1  977   1.329   1.815   5.859
   26SOL    HW2  978   1.415   1.748   5.737
   27SOL     OW  979   6.656   0.134   2.521
   27SOL    HW1  980   6.688   0.040   2.514
   27SOL    HW2  981   6.556   0.135   2.528
   28SOL     OW  982   2.177   0.413   5.669
   28SOL    HW1  983   2.226   0.459   5.595
   28SOL    HW2  984   2.108   0.351   5.631
   29SOL     OW  985   5.791   6.976   1.272
   29SOL    HW1  986   5.807   6.878   1.259
   29SOL    HW2  987   5.813   0.004   1.187
   30SOL     OW  988   4.651   0.138   5.230
   30SOL    HW1  989   4.725   0.151   5.164
   30SOL    HW2  990   4.687   0.146   5.323
   31SOL     OW  991   0.454   4.551   4.488
   31SOL    HW1  992   0.392   4.543   4.566
   31SOL    HW2  993   0.503   4.638   4.493
   32SOL     OW  994   3.487   0.529   1.034
   32SOL    HW1  995   3.476   0.612   1.089
   32SOL    HW2  996   3.511   0.452   1.094
   33SOL     OW  997   2.150   5.438   6.150
   33SOL    HW1  998   2.102   5.520   6.179
   33SOL    HW2  999   2.110   5.403   6.065
   34SOL     OW 1000   2.743   5.792   5.311
   34SOL    HW1 1001   2.763   5.697   5.289
   34SOL    HW2 1002   2.701   5.837   5.232
   35SOL     OW 1003   1.542   2.713   6.221
   35SOL    HW1 1004   1.624   2.737   6.169
   35SOL    HW2 1005   1.462   2.755   6.178
   36SOL     OW 1006   5.367   0.754   3.165
   36SOL    HW1 1007   5.309   0.761   3.246
   36SOL    HW2 1008   5.451   0.807   3.179
   37SOL     OW 1009   2.324   6.402   4.020
   37SOL    HW1 1010   2.384   6.405   3.940
   37SOL    HW2 1011   2.345   6.321   4.074
   38SOL     OW 1012   1.508   4.371   2.907
   38SOL    HW1 1013   1.460   4.425   2.837
   38SOL    HW2 1014   1.472   4.277   2.907
   39SOL     OW 1015   6.784   5.113   1.467
   39SOL    HW1 1016   6.768   5.056   1.548
   39SOL    HW2 1017   6.718   5.187   1.465
   40SOL     OW 1018   4.557   1.448   0.656
   40SOL    HW1 1019   4.523   1.500   0.578
   40SOL    HW2 1020   4.629   1.386   0.625
   41SOL     OW 1021   5.361   4.091   1.490
   41SOL    HW1 1022   5.455   4.069   1.465
   41SOL    HW2 1023   5.361   4.172   1.548
   42SOL     OW 1024   2.195   4.503   6.713
   42SOL    HW1 1025   2.182   4.596   6.678
   42SOL    HW2 1026   2.160   4.438   6.646
   43SOL     OW 1027   5.098   0.048   4.894
   43SOL    HW1 1028   5.103   0.083   4.987
   43SOL    HW2 1029   5.058   6.976   4.895
   44SOL     OW 1030   0.390   1.032   6.944
   44SOL    HW1 1031   0.310   1.076   6.904
   44SOL    HW2 1032   0.461   1.100   6.961
   45SOL     OW 1033   1.787   4.811   6.124
   45SOL    HW1 1034   1.831   4.797   6.035
   45SOL    HW2 1035   1.801   4.905   6.154
   46SOL     OW 1036   1.465   3.926   5.265
   46SOL    HW1 1037   1.413   4.007   5.291
   46SOL    HW2 1038   1.425   3.886   5.183
   47SOL     OW 1039   6.008   3.489   0.009
   47SOL    HW1 1040   6.075   3.416   7.016
   47SOL    HW2 1041   5.969   3.514   6.940
   48SOL     OW 1042   6.395   4.340   0.933
   48SOL    HW1 1043   6.446   4.260   0.898
   48SOL    HW2 1044   6.340   4.379   0.859
   49SOL     OW 1045   3.080   3.458   6.390
   49SOL    HW1 1046   3.067   3.542   6.442
   49SOL    HW2 1047   3.052   3.473   6.294
   50SOL     OW 1048   5.562   2.144   6.930
   50SOL    HW1 1049   5.504   2.137   7.011
   50SOL    HW2 1050   5.637   2.078   6.937
   51SOL     OW 1051   1.161   5.805   2.089
   51SOL    HW1 1052   1.221   5.791   2.168
   51SOL    HW2 1053   1.069   5.770   2.110
   52SOL     OW 1054   5.483   2.769   2.115
   52SOL    HW1 1055   5.550   2.829   2.159
   52SOL    HW2 1056   5.392   2.809   2.122
   53SOL     OW 1057   3.535   0.275   1.183
   53SOL    HW1 1058   3.475   0.248   1.108
   53SOL    HW2 1059   3.563   0.193   1.234
   54SOL     OW 1060   6.359   0.289   6.303
   54SOL    HW1 1061   6.272   0.244   6.323
   54SOL    HW2 1062   6.343   0.377   6.260
   55SOL     OW 1063   1.496   3.669   5.928
   55SOL    HW1 1064   1.410   3.620   5.914
   55SOL    HW2 1065   1.493   3.757   5.880
   56SOL     OW 1066   0.864   2.166   6.854
   56SOL    HW1 1067   0.855   2.216   6.767
   56SOL    HW2 1068   0.784   2.108   6.867
   57SOL     OW 1069   3.911   6.138   0.726
   57SOL    HW1 1070   3.976   6.138   0.802
   57SOL    HW2 1071   3.841   6.207   0.742
   58SOL     OW 1072   1.328   0.909   0.169
   58SOL    HW1 1073   1.360   0.831   0.115
   58SOL    HW2 1074   1.325   0.884   0.266
   59SOL     OW 1075   4.296   3.173   5.731
   59SOL    HW1 1076   4.314   3.260   5.777
   59SOL    HW2 1077   4.381   3.120   5.727
   60SOL     OW 1078   6.510   2.551   2.411
   60SOL    HW1 1079   6.603   2.564   2.445
   60SOL    HW2 1080   6.468   2.640   2.394
   61SOL     OW 1081   0.905   5.887   3.509
   61SOL    HW1 1082   0.927   5.845   3.421
   61SOL    HW2 1083   0.986   5.933   3.545
   62SOL     OW 1084   6.178   2.889   3.582
   62SOL    HW1 1085   6.118   2.826   3.630
   62SOL    HW2 1086   6.253   2.915   3.642
   63SOL     OW 1087   3.662   0.168   6.177
   63SOL    HW1 1088   3.578   0.118   6.157
   63SOL    HW2 1089   3.702   0.203   6.092
   64SOL     OW 1090   1.046   2.048   5.504
   64SOL    HW1 1091   1.080   1.962   5.466
   64SOL    HW2 1092   1.108   2.078   5.576
   65SOL     OW 1093   0.828   5.020   4.461
   65SOL    HW1 1094   0.904   4.977   4.510
   65SOL    HW2 1095   0.746   5.020   4.518
   66SOL     OW 1096   4.624   1.734   1.140
   66SOL    HW1 1097   4.568   1.733   1.223
   66SOL    HW2 1098   4.609   1.650   1.089
   67SOL     OW 1099   0.219   3.549   1.867
   67SOL    HW1 1100   0.219   3.624   1.801
   67SOL    HW2 1101   0.135   3.497   1.858
   68SOL     OW 1102   6.712   1.308   6.983
   68SOL    HW1 1103   6.758   1.323   0.050
   68SOL    HW2 1104   6.689   1.396   6.941
   69SOL     OW 1105   1.431   5.602   6.631
   69SOL    HW1 1106   1.436   5.592   6.532
   69SOL    HW2 1107   1.455   5.515   6.674
   70SOL     OW 1108   4.863   4.489   3.720
   70SOL    HW1 1109   4.847   4.390   3.723
   70SOL    HW2 1110   4.794   4.535   3.777
   71SOL     OW 1111   4.893   1.793   4.862
   71SOL    HW1 1112   4.891   1.740   4.946
   71SOL    HW2 1113   4.988   1.810   4.836
   72SOL     OW 1114   0.159   0.528   3.429
   72SOL    HW1 1115   0.211   0.530   3.514
   72SOL    HW2 1116   0.070   0.571   3.443
   73SOL     OW 1117   2.426   0.461   1.345
   73SOL    HW1 1118   2.423   0.527   1.270
   73SOL    HW2 1119   2.334   0.425   1.363
   74SOL     OW 1120   3.513   1.961   0.294
   74SOL    HW1 1121   3.438   1.895   0.302
   74SOL    HW2 1122   3.530   2.002   0.383
   75SOL     OW 1123   2.661   2.838   0.632
   75SOL    HW1 1124   2.721   2.910   0.667
   75SOL    HW2 1125   2.672   2.756   0.688
   76SOL     OW 1126   3.577   5.088   5.909
   76SOL    HW1 1127   3.565   5.145   5.828
   76SOL    HW2 1128   3.650   5.021   5.892
   77SOL     OW 1129   0.743   5.381   4.926
   77SOL    HW1 1130   0.757   5.385   4.827
   77SOL    HW2 1131   0.744   5.286   4.956
   78SOL     OW 1132   4.498   2.220   0.822
   78SOL    HW1 1133   4.447   2.201   0.738
   78SOL    HW2 1134   4.447   2.286   0.877
   79SOL     OW 1135   1.634   4.384   3.744
   79SOL    HW1 1136   1.551   4.328   3.739
   79SOL    HW2 1137   1.649   4.429   3.656
   80SOL     OW 1138   3.474   2.062   4.779
   80SOL    HW1 1139   3.530   2.088   4.858
   80SOL    HW2 1140   3.385   2.106   4.786
   81SOL     OW 1141   3.478   5.198   2.003
   81SOL    HW1 1142   3.555   5.252   2.037
   81SOL    HW2 1143   3.413   5.183   2.077
   82SOL     OW 1144   2.487   0.133   2.039
   82SOL    HW1 1145   2.568   0.131   2.097
   82SOL    HW2 1146   2.410   0.092   2.087
   83SOL     OW 1147   5.113   1.645   3.829
   83SOL    HW1 1148   5.129   1.660   3.927
   83SOL    HW2 1149   5.170   1.708   3.776
   84SOL     OW 1150   5.961   2.895   2.741
   84SOL    HW1 1151   5.995   2.946   2.820
   84SOL    HW2 1152   5.865   2.870   2.756
   85SOL     OW 1153   2.473   6.818   3.461
   85SOL    HW1 1154   2.453   6.855   3.370
   85SOL    HW2 1155   2.486   6.720   3.455
   86SOL     OW 1156   4.924   0.235   0.868
   86SOL    HW1 1157   4.935   0.332   0.848
   86SOL    HW2 1158   4.903   0.185   0.783
   87SOL     OW 1159   3.034   3.667   6.564
   87SOL    HW1 1160   2.969   3.672   6.640
   87SOL    HW2 1161   3.074   3.757   6.548
   88SOL     OW 1162   2.196   3.129   1.476
   88SOL    HW1 1163   2.258   3.178   1.414
   88SOL    HW2 1164   2.244   3.107   1.560
   89SOL     OW 1165   3.204   3.494   4.386
   89SOL    HW1 1166   3.190   3.552   4.306
   89SOL    HW2 1167   3.131   3.510   4.452
   90SOL     OW 1168   6.174   3.834   2.625
   90SOL    HW1 1169   6.175   3.737   2.645
   90SOL    HW2 1170   6.146   3.848   2.529
   91SOL     OW 1171   4.735   5.864   6.198
   91SOL    HW1 1172   4.707   5.880   6.104
   91SOL    HW2 1173   4.740   5.766   6.216
   92SOL     OW 1174   5.273   4.622   0.068
   92SOL    HW1 1175   5.228   4.639   0.156
   92SOL    HW2 1176   5.316   4.706   0.036
   93SOL     OW 1177   3.299   4.280   1.714
   93SOL    HW1 1178   3.251   4.193   1.704
   93SOL    HW2 1179   3.236   4.355   1.692
   94SOL     OW 1180   3.390   2.095   3.584
   94SOL    HW1 1181   3.333   2.027   3.631
   94SOL    HW2 1182   3.389   2.181   3.636
   95SOL     OW 1183   0.567   6.854   4.253
   95SOL    HW1 1184   0.611   6.773   4.213
   95SOL    HW2 1185   0.493   6.824   4.313
   96SOL     OW 1186   0.241   5.659   6.729
   96SOL    HW1 1187   0.225   5.561   6.716
   96SOL    HW2 1188   0.301   5.693   6.657
   97SOL     OW 1189   2.352   4.266   5.761
   97SOL    HW1 1190   2.418   4.338   5.783
   97SOL    HW2 1191   2.380   4.219   5.677
   98SOL     OW 1192   6.984   1.727   4.255
   98SOL    HW1 1193   6.960   1.814   4.298
   98SOL    HW2 1194   0.056   1.733   4.216
   99SOL     OW 1195   3.772   4.424   5.347
   99SOL    HW1 1196   3.815   4.352   5.292
   99SOL    HW2 1197   3.779   4.400   5.444
  100SOL     OW 1198   1.296   0.664   5.303
  100SOL    HW1 1199   1.313   0.568   5.281
  100SOL    HW2 1200   1.279   0.673   5.401
  101SOL     OW 1201   4.853   3.141   2.457
  101SOL    HW1 1202   4.908   3.185   2.528
  101SOL    HW2 1203   4.775   3.096   2.499
  102SOL     OW 1204   4.489   0.445   6.650
  102SOL    HW1 1205   4.572   0.494   6.621
  102SOL    HW2 1206   4.408   0.497   6.621
  103SOL     OW 1207   1.104   1.927   2.115
  103SOL    HW1 1208   1.016   1.906   2.070
  103SOL    HW2 1209   1.143   2.009   2.075
  104SOL     OW 1210   6.436   4.593   1.881
  104SOL    HW1 1211   6.472   4.525   1.945
  104SOL    HW2 1212   6.492   4.594   1.798
  105SOL     OW 1213   0.694   0.211   4.896
  105SOL    HW1 1214   0.775   0.269   4.898
  105SOL    HW2 1215   0.677   0.180   4.803
  106SOL     OW 1216   4.374   3.118   1.682
  106SOL    HW1 1217   4.359   3.045   1.616
  106SOL    HW2 1218   4.451   3.095   1.741
  107SOL     OW 1219   5.854   7.016   1.522
  107SOL    HW1 1220   5.856   6.920   1.551
  107SOL    HW2 1221   5.817   0.002   1.429
  108SOL     OW 1222   3.723   1.447   4.757
  108SOL    HW1 1223   3.737   1.386   4.679
  108SOL    HW2 1224   3.676   1.529   4.727
  109SOL     OW 1225   2.236   0.676   5.269
  109SOL    HW1 1226   2.298   0.717   5.202
  109SOL    HW2 1227   2.289   0.630   5.340
  110SOL     OW 1228   3.659   3.768   5.593
  110SOL    HW1 1229   3.690   3.767   5.688
  110SOL    HW2 1230   3.724   3.819   5.537
  111SOL     OW 1231   6.120   2.885   0.769
  111SOL    HW1 1232   6.040   2.832   0.799
  111SOL    HW2 1233   6.092   2.951   0.699
  112SOL     OW 1234   5.761   6.368   5.785
  112SOL    HW1 1235   5.736   6.442   5.848
  112SOL    HW2 1236   5.834   6.400   5.724
  113SOL     OW 1237   0.414   4.774   2.987
  113SOL    HW1 1238   0.476   4.823   2.925
  113SOL    HW2 1239   0.378   4.693   2.942
  114SOL     OW 1240   0.079   2.224   2.087
  114SOL    HW1 1241   0.044   2.130   2.090
  114SOL    HW2 1242   0.155   2.229   2.022
  115SOL     OW 1243   4.566   0.400   2.555
  115SOL    HW1 1244   4.601   0.439   2.470
  115SOL    HW2 1245   4.467   0.385   2.547
  116SOL     OW 1246   0.047   5.283   0.571
  116SOL    HW1 1247   6.988   5.234   0.535
  116SOL    HW2 1248   0.027   5.312   0.665
  117SOL     OW 1249   3.154   2.286   0.214
  117SOL    HW1 1250   3.160   2.333   0.126
  117SOL    HW2 1251   3.080   2.327   0.268
  118SOL     OW 1252   0.084   1.571   2.514
  118SOL    HW1 1253   0.068   1.669   2.524
  118SOL    HW2 1254   0.021   1.521   2.574
  119SOL     OW 1255   6.119   0.267   5.338
  119SOL    HW1 1256   6.082   0.288   5.248
  119SOL    HW2 1257   6.218   0.257   5.333
  120SOL     OW 1258   4.621   0.719   4.254
  120SOL    HW1 1259   4.585   0.812   4.256
  120SOL    HW2 1260   4.592   0.674   4.170
  121SOL     OW 1261   0.721   5.803   6.688
  121SOL    HW1 1262   0.677   5.730   6.741
  121SOL    HW2 1263   0.686   5.801   6.594
  122SOL     OW 1264   6.912   4.351   5.975
  122SOL    HW1 1265   6.845   4.396   6.035
  122SOL    HW2 1266   6.875   4.346   5.882
  123SOL     OW 1267   0.532   2.764   1.792
  123SOL    HW1 1268   0.498   2.846   1.746
  123SOL    HW2 1269   0.572   2.789   1.881
  124SOL     OW 1270   1.482   3.359   0.524
  124SOL    HW1 1271   1.454   3.285   0.463
  124SOL    HW2 1272   1.575   3.388   0.501
  125SOL     OW 1273   4.359   2.672   0.845
  125SOL    HW1 1274   4.444   2.696   0.891
  125SOL    HW2 1275   4.380   2.639   0.753
  126SOL     OW 1276   3.615   3.252   4.210
  126SOL    HW1 1277   3.682   3.279   4.141
  126SOL    HW2 1278   3.561   3.176   4.176
  127SOL     OW 1279   0.267   4.354   5.251
  127SOL    HW1 1280   0.233   4.404   5.171
  127SOL    HW2 1281   0.335   4.410   5.298
  128SOL     OW 1282   5.254   3.615   6.275
  128SOL    HW1 1283   5.262   3.580   6.368
  128SOL    HW2 1284   5.296   3.706   6.269
  129SOL     OW 1285   0.255   5.830   2.370
  129SOL    HW1 1286   0.318   5.867   2.439
  129SOL    HW2 1287   0.196   5.904   2.335
  130SOL     OW 1288   5.805   3.217   4.274
  130SOL    HW1 1289   5.820   3.311   4.244
  130SOL    HW2 1290   5.848   3.202   4.362
  131SOL     OW 1291   0.684   3.551   3.785
  131SOL    HW1 1292   0.669   3.454   3.802
  131SOL    HW2 1293   0.782   3.571   3.790
  132SOL     OW 1294   4.598   2.716   0.989
  132SOL    HW1 1295   4.604   2.815   0.971
  132SOL    HW2 1296   4.614   2.700   1.086
  133SOL     OW 1297   4.526   5.317   6.244
  133SOL    HW1 1298   4.477   5.401   6.220
  133SOL    HW2 1299   4.622   5.340   6.263
  134SOL     OW 1300   5.451   2.369   1.014
  134SOL    HW1 1301   5.451   2.468   1.022
  134SOL    HW2 1302   5.413   2.343   0.925
  135SOL     OW 1303   5.131   3.829   3.722
  135SOL    HW1 1304   5.122   3.851   3.625
  135SOL    HW2 1305   5.143   3.913   3.775
  136SOL     OW 1306   4.072   0.973   6.367
  136SOL    HW1 1307   3.981   1.001   6.338
  136SOL    HW2 1308   4.137   1.048   6.352
  137SOL     OW 1309   2.720   4.231   6.175
  137SOL    HW1 1310   2.768   4.312   6.141
  137SOL    HW2 1311   2.632   4.257   6.214
  138SOL     OW 1312   0.966   5.640   6.757
  138SOL    HW1 1313   0.888   5.701   6.745
  138SOL    HW2 1314   1.031   5.681   6.822
  139SOL     OW 1315   1.483   0.108   1.441
  139SOL    HW1 1316   1.499   0.185   1.379
  139SOL    HW2 1317   1.431   0.037   1.394
  140SOL     OW 1318   4.318   1.026   1.538
  140SOL    HW1 1319   4.308   1.100   1.603
  140SOL    HW2 1320   4.385   1.052   1.468
  141SOL     OW 1321   0.425   1.921   0.615
  141SOL    HW1 1322   0.485   1.873   0.550
  141SOL    HW2 1323   0.402   2.011   0.578
  142SOL     OW 1324   2.277   3.917   0.641
  142SOL    HW1 1325   2.215   3.844   0.611
  142SOL    HW2 1326   2.244   4.004   0.605
  143SOL     OW 1327   4.296   6.168   2.242
  143SOL    HW1 1328   4.311   6.266   2.228
  143SOL    HW2 1329   4.197   6.150   2.241
  144SOL     OW 1330   3.230   5.646   2.487
  144SOL    HW1 1331   3.182   5.733   2.489
  144SOL    HW2 1332   3.170   5.573   2.521
  145SOL     OW 1333   6.721   5.464   4.170
  145SOL    HW1 1334   6.713   5.436   4.075
  145SOL    HW2 1335   6.728   5.564   4.176
  146SOL     OW 1336   5.597   0.597   6.305
  146SOL    HW1 1337   5.557   0.686   6.327
  146SOL    HW2 1338   5.684   0.610   6.259
  147SOL     OW 1339   5.805   1.330   5.123
  147SOL    HW1 1340   5.754   1.318   5.208
  147SOL    HW2 1341   5.840   1.424   5.119
  148SOL     OW 1342   2.384   6.421   1.358
  148SOL    HW1 1343   2.383   6.329   1.397
  148SOL    HW2 1344   2.315   6.429   1.287
  149SOL     OW 1345   1.920   2.657   4.542
  149SOL    HW1 1346   1.918   2.754   4.564
  149SOL    HW2 1347   2.008   2.634   4.500
  150SOL     OW 1348   4.217   1.816   5.112
  150SOL    HW1 1349   4.191   1.871   5.191
  150SOL    HW2 1350   4.178   1.725   5.120
  151SOL     OW 1351   5.966   3.411   0.773
  151SOL    HW1 1352   5.954   3.315   0.800
  151SOL    HW2 1353   5.937   3.470   0.848
  152SOL     OW 1354   0.868   2.950   1.590
  152SOL    HW1 1355   0.888   2.857   1.559
  152SOL    HW2 1356   0.952   3.004   1.588
  153SOL     OW 1357   2.013   1.962   3.604
  153SOL    HW1 1358   2.055   1.939   3.692
  153SOL    HW2 1359   2.085   1.985   3.539
  154SOL     OW 1360   6.344   2.040   2.996
  154SOL    HW1 1361   6.405   2.119   2.992
  154SOL    HW2 1362   6.252   2.067   2.969
  155SOL     OW 1363   6.728   4.755   3.050
  155SOL    HW1 1364   6.828   4.750   3.054
  155SOL    HW2 1365   6.697   4.839   3.095
  156SOL     OW 1366   4.994   1.803   0.278
  156SOL    HW1 1367   5.035   1.736   0.216
  156SOL    HW2 1368   4.901   1.822   0.249
  157SOL     OW 1369   5.353   0.132   1.356
  157SOL    HW1 1370   5.353   0.166   1.450
  157SOL    HW2 1371   5.426   0.177   1.305
  158SOL     OW 1372   0.823   2.838   4.751
  158SOL    HW1 1373   0.838   2.812   4.846
  158SOL    HW2 1374   0.739   2.796   4.717
  159SOL     OW 1375   6.423   5.372   0.417
  159SOL    HW1 1376   6.468   5.439   0.476
  159SOL    HW2 1377   6.434   5.399   0.322
  160SOL     OW 1378   5.702   0.500   1.045
  160SOL    HW1 1379   5.622   0.471   1.098
  160SOL    HW2 1380   5.678   0.502   0.948
  161SOL     OW 1381   6.527   6.094   0.771
  161SOL    HW1 1382   6.595   6.022   0.786
  161SOL    HW2 1383   6.550   6.145   0.689
  162SOL     OW 1384   4.627   7.014   5.997
  162SOL    HW1 1385   4.617   6.966   5.909
  162SOL    HW2 1386   4.704   6.975   6.047
  163SOL     OW 1387   0.323   3.147   2.537
  163SOL    HW1 1388   0.357   3.240   2.529
  163SOL    HW2 1389   0.242   3.136   2.479
  164SOL     OW 1390   2.729   2.374   2.914
  164SOL    HW1 1391   2.665   2.451   2.912
  164SOL    HW2 1392   2.818   2.403   2.879
  165SOL     OW 1393   6.942   6.728   3.875
  165SOL    HW1 1394   6.910   6.769   3.960
  165SOL    HW2 1395   0.022   6.737   3.869
  166SOL     OW 1396   6.617   4.748   4.048
  166SOL    HW1 1397   6.676   4.766   3.969
  166SOL    HW2 1398   6.673   4.743   4.131
  167SOL     OW 1399   2.108   1.114   4.708
  167SOL    HW1 1400   2.189   1.069   4.671
  167SOL    HW2 1401   2.034   1.111   4.640
  168SOL     OW 1402   3.867   3.557   2.183
  168SOL    HW1 1403   3.818   3.575   2.268
  168SOL    HW2 1404   3.811   3.583   2.105
  169SOL     OW 1405   5.543   2.711   0.484
  169SOL    HW1 1406   5.579   2.706   0.390
  169SOL    HW2 1407   5.444   2.700   0.482
  170SOL     OW 1408   6.168   5.534   1.046
  170SOL    HW1 1409   6.252   5.574   1.008
  170SOL    HW2 1410   6.102   5.520   0.973
  171SOL     OW 1411   3.351   3.192   1.412
  171SOL    HW1 1412   3.351   3.225   1.317
  171SOL    HW2 1413   3.257   3.185   1.445
  172SOL     OW 1414   1.512   1.253   6.468
  172SOL    HW1 1415   1.487   1.299   6.553
  172SOL    HW2 1416   1.596   1.201   6.482
  173SOL     OW 1417   6.155   1.170   4.290
  173SOL    HW1 1418   6.104   1.250   4.261
  173SOL    HW2 1419   6.129   1.091   4.234
  174SOL     OW 1420   5.023   4.288   4.028
  174SOL    HW1 1421   5.061   4.341   3.952
  174SOL    HW2 1422   5.097   4.235   4.070
  175SOL     OW 1423   0.359   6.323   2.296
  175SOL    HW1 1424   0.453   6.307   2.266
  175SOL    HW2 1425   0.295   6.292   2.226
  176SOL     OW 1426   6.628   3.466   1.746
  176SOL    HW1 1427   6.576   3.535   1.696
  176SOL    HW2 1428   6.641   3.496   1.841
  177SOL     OW 1429   5.480   2.361   3.449
  177SOL    HW1 1430   5.579   2.364   3.456
  177SOL    HW2 1431   5.452   2.296   3.379
  178SOL     OW 1432   2.341   5.844   4.378
  178SOL    HW1 1433   2.440   5.835   4.385
  178SOL    HW2 1434   2.314   5.937   4.402
  179SOL     OW 1435   3.075   4.820   1.462
  179SOL    HW1 1436   3.007   4.753   1.431
  179SOL    HW2 1437   3.062   4.837   1.560
  180SOL     OW 1438   4.701   1.094   6.249
  180SOL    HW1 1439   4.650   1.014   6.218
  180SOL    HW2 1440   4.799   1.077   6.239
  181SOL     OW 1441   3.112   1.232   5.826
  181SOL    HW1 1442   3.101   1.332   5.827
  181SOL    HW2 1443   3.206   1.210   5.801
  182SOL     OW 1444   3.422   3.308   5.525
  182SOL    HW1 1445   3.368   3.390   5.542
  182SOL    HW2 1446   3.361   3.230   5.509
  183SOL     OW 1447   2.887   0.828   3.209
  183SOL    HW1 1448   2.873   0.746   3.264
  183SOL    HW2 1449   2.878   0.805   3.112
  184SOL     OW 1450   5.627   5.941   3.546
  184SOL    HW1 1451   5.677   6.001   3.609
  184SOL    HW2 1452   5.545   5.987   3.513
  185SOL     OW 1453   0.602   0.006   5.052
  185SOL    HW1 1454   0.615   0.091   5.001
  185SOL    HW2 1455   0.675   6.962   5.031
  186SOL     OW 1456   3.250   5.997   4.839
  186SOL    HW1 1457   3.241   5.941   4.921
  186SOL    HW2 1458   3.268   5.938   4.760
  187SOL     OW 1459   4.007   5.831   1.684
  187SOL    HW1 1460   3.915   5.812   1.719
  187SOL    HW2 1461   4.065   5.867   1.757
  188SOL     OW 1462   0.843   3.556   3.270
  188SOL    HW1 1463   0.785   3.475   3.279
  188SOL    HW2 1464   0.807   3.614   3.196
  189SOL     OW 1465   5.187   4.901   5.348
  189SOL    HW1 1466   5.189   4.825   5.413
  189SOL    HW2 1467   5.108   4.891   5.287
  190SOL     OW 1468   6.062   0.020   0.430
  190SOL    HW1 1469   6.030   0.115   0.429
  190SOL    HW2 1470   6.162   0.019   0.433
  191SOL     OW 1471   1.199   1.782   5.414
  191SOL    HW1 1472   1.288   1.814   5.448
  191SOL    HW2 1473   1.214   1.716   5.340
  192SOL     OW 1474   0.493   5.758   1.367
  192SOL    HW1 1475   0.531   5.668   1.389
  192SOL    HW2 1476   0.482   5.811   1.451
  193SOL     OW 1477   2.308   0.445   1.769
  193SOL    HW1 1478   2.343   0.457   1.862
  193SOL    HW2 1479   2.383   0.425   1.707
  194SOL     OW 1480   3.641   6.147   2.327
  194SOL    HW1 1481   3.703   6.160   2.250
  194SOL    HW2 1482   3.665   6.062   2.375
  195SOL     OW 1483   3.752   0.408   0.599
  195SOL    HW1 1484   3.731   0.447   0.689
  195SOL    HW2 1485   3.850   0.391   0.591
  196SOL     OW 1486   3.737   2.380   0.640
  196SOL    HW1 1487   3.731   2.286   0.606
  196SOL    HW2 1488   3.673   2.392   0.716
  197SOL     OW 1489   1.642   5.858   0.490
  197SOL    HW1 1490   1.570   5.789   0.486
  197SOL    HW2 1491   1.717   5.825   0.547
  198SOL     OW 1492   4.163   6.550   6.230
  198SOL    HW1 1493   4.175   6.499   6.315
  198SOL    HW2 1494   4.088   6.616   6.241
  199SOL     OW 1495   0.842   0.366   3.187
  199SOL    HW1 1496   0.809   0.458   3.166
  199SOL    HW2 1497   0.769   0.300   3.170
  200SOL     OW 1498   0.953   3.947   3.798
  200SOL    HW1 1499   0.985   4.042   3.803
  200SOL    HW2 1500   0.858   3.946   3.768
  201SOL     OW 1501   4.821   1.565   6.447
  201SOL    HW1 1502   4.809   1.521   6.358
  201SOL    HW2 1503   4.896   1.521   6.496
  202SOL     OW 1504   3.791   0.706   2.210
  202SOL    HW1 1505   3.761   0.713   2.305
  202SOL    HW2 1506   3.753   0.781   2.156
  203SOL     OW 1507   6.112   2.964   6.847
  203SOL    HW1 1508   6.126   2.877   6.800
  203SOL    HW2 1509   6.074   3.031   6.782
  204SOL     OW 1510   2.119   6.830   1.494
  204SOL    HW1 1511   2.205   6.779   1.495
  204SOL    HW2 1512   2.066   6.805   1.413
  205SOL     OW 1513   5.596   0.653   1.444
  205SOL    HW1 1514   5.497   0.665   1.435
  205SOL    HW2 1515   5.640   0.673   1.356
  206SOL     OW 1516   0.148   5.729   1.681
  206SOL    HW1 1517   0.223   5.689   1.734
  206SOL    HW2 1518   0.118   5.664   1.611
  207SOL     OW 1519   4.775   1.660   5.386
  207SOL    HW1 1520   4.873   1.658   5.365
  207SOL    HW2 1521   4.728   1.719   5.320
  208SOL     OW 1522   3.730   4.417   6.249
  208SOL    HW1 1523   3.737   4.379   6.341
  208SOL    HW2 1524   3.816   4.461   6.224
  209SOL     OW 1525   6.873   5.461   4.699
  209SOL    HW1 1526   6.835   5.535   4.755
  209SOL    HW2 1527   6.950   5.496   4.646
  210SOL     OW 1528   4.209   2.168   1.278
  210SOL    HW1 1529   4.189   2.116   1.361
  210SOL    HW2 1530   4.176   2.262   1.289
  211SOL     OW 1531   0.936   2.908   1.990
  211SOL    HW1 1532   0.997   2.848   1.938
  211SOL    HW2 1533   0.979   2.997   2.002
  212SOL     OW 1534   0.126   5.280   4.696
  212SOL    HW1 1535   0.117   5.212   4.768
  212SOL    HW2 1536   0.133   5.371   4.738
  213SOL     OW 1537   4.088   2.236   6.194
  213SOL    HW1 1538   4.087   2.269   6.100
  213SOL    HW2 1539   4.024   2.290   6.249
  214SOL     OW 1540   1.613   6.296   3.350
  214SOL    HW1 1541   1.649   6.371   3.295
  214SOL    HW2 1542   1.607   6.324   3.446
  215SOL     OW 1543   4.053   3.600   2.836
  215SOL    HW1 1544   4.072   3.530   2.766
  215SOL    HW2 1545   4.089   3.568   2.924
  216SOL     OW 1546   2.006   6.950   5.741
  216SOL    HW1 1547   2.067   6.885   5.785
  216SOL    HW2 1548   2.058   0.009   5.708
  217SOL     OW 1549   6.899   2.511   4.352
  217SOL    HW1 1550   6.859   2.563   4.277
  217SOL    HW2 1551   6.950   2.572   4.412
  218SOL     OW 1552   1.744   3.616   5.350
  218SOL    HW1 1553   1.690   3.594   5.431
  218SOL    HW2 1554   1.827   3.663   5.377
  219SOL     OW 1555   3.255   5.456   0.254
  219SOL    HW1 1556   3.196   5.525   0.213
  219SOL    HW2 1557   3.339   5.448   0.200
  220SOL     OW 1558   1.459   4.447   0.385
  220SOL    HW1 1559   1.524   4.449   0.308
  220SOL    HW2 1560   1.485   4.374   0.448
  221SOL     OW 1561   6.406   3.081   4.624
  221SOL    HW1 1562   6.323   3.134   4.643
  221SOL    HW2 1563   6.395   2.988   4.661
  222SOL     OW 1564   1.267   6.163   4.363
  222SOL    HW1 1565   1.179   6.128   4.394
  222SOL    HW2 1566   1.282   6.254   4.402
  223SOL     OW 1567   6.062   4.807   2.364
  223SOL    HW1 1568   6.036   4.746   2.439
  223SOL    HW2 1569   6.032   4.901   2.385
  224SOL     OW 1570   3.843   2.122   2.209
  224SOL    HW1 1571   3.768   2.167   2.160
  224SOL    HW2 1572   3.828   2.128   2.307
  225SOL     OW 1573   6.586   0.080   1.337
  225SOL    HW1 1574   6.666   0.081   1.278
  225SOL    HW2 1575   6.505   0.054   1.284
  226SOL     OW 1576   7.001   5.802   1.459
  226SOL    HW1 1577   0.010   5.709   1.441
  226SOL    HW2 1578   0.006   5.828   1.552
  227SOL     OW 1579   1.388   3.388   2.781
  227SOL    HW1 1580   1.291   3.412   2.783
  227SOL    HW2 1581   1.405   3.325   2.705
  228SOL     OW 1582   3.620   6.589   2.550
  228SOL    HW1 1583   3.552   6.635   2.493
  228SOL    HW2 1584   3.616   6.491   2.535
  229SOL     OW 1585   6.135   5.667   3.217
  229SOL    HW1 1586   6.052   5.659   3.272
  229SOL    HW2 1587   6.190   5.743   3.250
  230SOL     OW 1588   1.251   3.875   6.158
  230SOL    HW1 1589   1.293   3.942   6.096
  230SOL    HW2 1590   1.179   3.920   6.211
  231SOL     OW 1591   0.654   1.384   0.373
  231SOL    HW1 1592   0.651   1.333   0.459
  231SOL    HW2 1593   0.563   1.421   0.353
  232SOL     OW 1594   1.891   4.184   6.660
  232SOL    HW1 1595   1.838   4.267   6.638
  232SOL    HW2 1596   1.956   4.166   6.587
  233SOL     OW 1597   3.128   0.561   6.186
  233SOL    HW1 1598   3.179   0.610   6.115
  233SOL    HW2 1599   3.191   0.503   6.238
  234SOL     OW 1600   2.856   5.518   6.292
  234SOL    HW1 1601   2.928   5.552   6.352
  234SOL    HW2 1602   2.796   5.456   6.343
  235SOL     OW 1603   3.552   3.417   4.787
  235SOL    HW1 1604   3.633   3.367   4.757
  235SOL    HW2 1605   3.476   3.397   4.726
  236SOL     OW 1606   0.163   2.357   5.960
  236SOL    HW1 1607   0.164   2.344   6.059
  236SOL    HW2 1608   0.247   2.322   5.921
  237SOL     OW 1609   6.438   6.532   1.689
  237SOL    HW1 1610   6.501   6.609   1.704
  237SOL    HW2 1611   6.485   6.459   1.640
  238SOL     OW 1612   6.426   1.708   2.448
  238SOL    HW1 1613   6.386   1.763   2.521
  238SOL    HW2 1614   6.517   1.677   2.475
  239SOL     OW 1615   0.557   5.747   0.855
  239SOL    HW1 1616   0.538   5.695   0.938
  239SOL    HW2 1617   0.629   5.702   0.802
  240SOL     OW 1618   6.852   3.185   5.534
  240SOL    HW1 1619   6.829   3.226   5.622
  240SOL    HW2 1620   6.900   3.252   5.477
  241SOL     OW 1621   5.849   1.486   4.692
  241SOL    HW1 1622   5.816   1.393   4.676
  241SOL    HW2 1623   5.797   1.549   4.634
  242SOL     OW 1624   2.604   2.491   3.895
  242SOL    HW1 1625   2.553   2.539   3.967
  242SOL    HW2 1626   2.665   2.554   3.849
  243SOL     OW 1627   4.246   1.432   6.263
  243SOL    HW1 1628   4.228   1.335   6.246
  243SOL    HW2 1629   4.161   1.477   6.290
  244SOL     OW 1630   0.238   0.804   5.922
  244SOL    HW1 1631   0.159   0.760   5.964
  244SOL    HW2 1632   0.243   0.899   5.951
  245SOL     OW 1633   5.012   2.748   3.846
  245SOL    HW1 1634   4.982   2.706   3.932
  245SOL    HW2 1635   5.107   2.776   3.854
  246SOL     OW 1636   4.870   3.228   3.545
  246SOL    HW1 1637   4.896   3.133   3.528
  246SOL    HW2 1638   4.852   3.274   3.459
  247SOL     OW 1639   2.573   7.018   3.614
  247SOL    HW1 1640   2.671   7.010   3.597
  247SOL    HW2 1641   2.527   6.936   3.579
  248SOL     OW 1642   6.586   1.431   1.795
  248SOL    HW1 1643   6.666   1.375   1.816
  248SOL    HW2 1644   6.590   1.516   1.847
  249SOL     OW 1645   2.040   5.933   5.064
  249SOL    HW1 1646   2.026   5.837   5.039
  249SOL    HW2 1647   1.958   5.986   5.041
  250SOL     OW 1648   5.119   2.967   6.417
  250SOL    HW1 1649   5.056   3.042   6.397
  250SOL    HW2 1650   5.212   3.003   6.429
  251SOL     OW 1651   1.795   2.427   0.414
  251SOL    HW1 1652   1.783   2.389   0.505
  251SOL    HW2 1653   1.825   2.355   0.351
  252SOL     OW 1654   0.923   1.502   0.407
  252SOL    HW1 1655   0.835   1.456   0.408
  252SOL    HW2 1656   0.991   1.445   0.454
  253SOL     OW 1657   1.845   4.229   6.222
  253SOL    HW1 1658   1.763   4.276   6.254
  253SOL    HW2 1659   1.905   4.294   6.176
  254SOL     OW 1660   4.809   3.741   6.325
  254SOL    HW1 1661   4.880   3.766   6.391
  254SOL    HW2 1662   4.833   3.655   6.281
  255SOL     OW 1663   3.821   2.088   2.478
  255SOL    HW1 1664   3.848   2.150   2.552
  255SOL    HW2 1665   3.762   2.016   2.515
  256SOL     OW 1666   6.705   5.712   2.170
  256SOL    HW1 1667   6.640   5.644   2.201
  256SOL    HW2 1668   6.657   5.783   2.118
  257SOL     OW 1669   2.898   5.470   6.729
  257SOL    HW1 1670   2.831   5.395   6.731
  257SOL    HW2 1671   2.851   5.556   6.747
  258SOL     OW 1672   4.783   4.202   3.969
  258SOL    HW1 1673   4.869   4.240   4.003
  258SOL    HW2 1674   4.711   4.270   3.981
  259SOL     OW 1675   0.729   2.323   3.338
  259SOL    HW1 1676   0.648   2.265   3.328
  259SOL    HW2 1677   0.727   2.395   3.269
  260SOL     OW 1678   6.969   6.796   5.752
  260SOL    HW1 1679   6.904   6.743   5.807
  260SOL    HW2 1680   0.018   6.734   5.715
  261SOL     OW 1681   0.255   1.051   3.182
  261SOL    HW1 1682   0.162   1.087   3.187
  261SOL    HW2 1683   0.299   1.086   3.099
  262SOL     OW 1684   1.891   5.341   2.637
  262SOL    HW1 1685   1.892   5.248   2.600
  262SOL    HW2 1686   1.797   5.373   2.645
  263SOL     OW 1687   6.861   2.715   5.236
  263SOL    HW1 1688   6.919   2.701   5.316
  263SOL    HW2 1689   6.856   2.812   5.214
  264SOL     OW 1690   3.079   4.038   6.762
  264SOL    HW1 1691   3.058   3.957   6.707
  264SOL    HW2 1692   3.004   4.103   6.756
  265SOL     OW 1693   4.767   5.435   4.134
  265SOL    HW1 1694   4.863   5.405   4.133
  265SOL    HW2 1695   4.721   5.403   4.051
  266SOL     OW 1696   3.917   3.157   6.579
  266SOL    HW1 1697   3.819   3.167   6.561
  266SOL    HW2 1698   3.950   3.073   6.536
  267SOL     OW 1699   2.265   1.664   6.556
  267SOL    HW1 1700   2.318   1.591   6.513
  267SOL    HW2 1701   2.180   1.626   6.593
  268SOL     OW 1702   2.959   4.799   3.581
  268SOL    HW1 1703   2.871   4.755   3.565
  268SOL    HW2 1704   2.997   4.769   3.668
  269SOL     OW 1705   2.149   1.400   4.961
  269SOL    HW1 1706   2.124   1.345   5.040
  269SOL    HW2 1707   2.248   1.401   4.950
  270SOL     OW 1708   5.032   6.801   4.334
  270SOL    HW1 1709   4.939   6.816   4.366
  270SOL    HW2 1710   5.039   6.709   4.294
  271SOL     OW 1711   1.848   1.741   0.606
  271SOL    HW1 1712   1.867   1.747   0.704
  271SOL    HW2 1713   1.787   1.816   0.579
  272SOL     OW 1714   4.297   6.032   1.521
  272SOL    HW1 1715   4.381   5.976   1.520
  272SOL    HW2 1716   4.301   6.096   1.598
  273SOL     OW 1717   1.980   6.547   4.361
  273SOL    HW1 1718   1.993   6.448   4.351
  273SOL    HW2 1719   2.024   6.578   4.445
  274SOL     OW 1720   5.778   1.659   1.117
  274SOL    HW1 1721   5.822   1.612   1.193
  274SOL    HW2 1722   5.846   1.682   1.048
  275SOL     OW 1723   5.754   5.642   5.686
  275SOL    HW1 1724   5.757   5.602   5.777
  275SOL    HW2 1725   5.845   5.676   5.662
  276SOL     OW 1726   7.015   6.505   4.613
  276SOL    HW1 1727   0.036   6.576   4.670
  276SOL    HW2 1728   0.060   6.429   4.603
  277SOL     OW 1729   4.589   2.674   5.416
  277SOL    HW1 1730   4.584   2.701   5.512
  277SOL    HW2 1731   4.503   2.698   5.371
  278SOL     OW 1732   5.534   4.043   3.295
  278SOL    HW1 1733   5.550   3.949   3.264
  278SOL    HW2 1734   5.602   4.067   3.364
  279SOL     OW 1735   6.818   3.356   3.851
  279SOL    HW1 1736   6.796   3.278   3.910
  279SOL    HW2 1737   6.916   3.374   3.856
  280SOL     OW 1738   4.216   1.182   3.652
  280SOL    HW1 1739   4.229   1.280   3.665
  280SOL    HW2 1740   4.237   1.158   3.557
  281SOL     OW 1741   5.160   5.679   4.875
  281SOL    HW1 1742   5.232   5.614   4.853
  281SOL    HW2 1743   5.201   5.762   4.913
  282SOL     OW 1744   1.069   2.816   0.270
  282SOL    HW1 1745   1.137   2.748   0.298
  282SOL    HW2 1746   1.035   2.794   0.179
  283SOL     OW 1747   5.597   3.949   4.383
  283SOL    HW1 1748   5.678   4.007   4.378
  283SOL    HW2 1749   5.542   3.976   4.463
  284SOL     OW 1750   4.899   5.887   2.727
  284SOL    HW1 1751   4.893   5.963   2.664
  284SOL    HW2 1752   4.971   5.905   2.795
  285SOL     OW 1753   4.140   0.104   5.624
  285SOL    HW1 1754   4.230   0.077   5.660
  285SOL    HW2 1755   4.070   0.089   5.694
  286SOL     OW 1756   2.593   5.143   5.286
  286SOL    HW1 1757   2.624   5.202   5.211
  286SOL    HW2 1758   2.672   5.097   5.326
  287SOL     OW 1759   3.920   6.595   6.616
  287SOL    HW1 1760   4.012   6.558   6.603
  287SOL    HW2 1761   3.853   6.521   6.612
  288SOL     OW 1762   5.148   1.611   0.127
  288SOL    HW1 1763   5.211   1.536   0.111
  288SOL    HW2 1764   5.159   1.680   0.056
  289SOL     OW 1765   6.179   5.180   4.026
  289SOL    HW1 1766   6.188   5.204   4.123
  289SOL    HW2 1767   6.216   5.255   3.970
  290SOL     OW 1768   3.780   0.621   5.647
  290SOL    HW1 1769   3.730   0.646   5.565
  290SOL    HW2 1770   3.810   0.525   5.640
  291SOL     OW 1771   4.238   0.082   5.171
  291SOL    HW1 1772   4.215   0.167   5.217
  291SOL    HW2 1773   4.273   0.102   5.079
  292SOL     OW 1774   3.277   0.352   3.930
  292SOL    HW1 1775   3.362   0.308   3.959
  292SOL    HW2 1776   3.264   0.339   3.832
  293SOL     OW 1777   5.259   6.155   2.739
  293SOL    HW1 1778   5.314   6.115   2.666
  293SOL    HW2 1779   5.299   6.242   2.768
  294SOL     OW 1780   6.585   1.091   6.588
  294SOL    HW1 1781   6.532   1.035   6.525
  294SOL    HW2 1782   6.604   1.038   6.671
  295SOL     OW 1783   1.366   0.508   4.564
  295SOL    HW1 1784   1.304   0.586   4.574
  295SOL    HW2 1785   1.317   0.432   4.522
  296SOL     OW 1786   0.444   2.263   2.281
  296SOL    HW1 1787   0.434   2.277   2.380
  296SOL    HW2 1788   0.391   2.332   2.232
  297SOL     OW 1789   5.229   3.030   3.297
  297SOL    HW1 1790   5.316   2.985   3.319
  297SOL    HW2 1791   5.153   2.976   3.334
  298SOL     OW 1792   4.007   0.833   5.674
  298SOL    HW1 1793   3.968   0.898   5.740
  298SOL    HW2 1794   3.936   0.769   5.644
  299SOL     OW 1795   0.662   0.889   6.693
  299SOL    HW1 1796   0.629   0.805   6.652
  299SOL    HW2 1797   0.651   0.884   6.793
  300SOL     OW 1798   4.641   0.409   3.355
  300SOL    HW1 1799   4.568   0.421   3.422
  300SOL    HW2 1800   4.609   0.352   3.280
  301SOL     OW 1801   6.432   5.397   6.588
  301SOL    HW1 1802   6.354   5.335   6.586
  301SOL    HW2 1803   6.517   5.345   6.585
  302SOL     OW 1804   6.767   6.287   2.666
  302SOL    HW1 1805   6.674   6.289   2.631
  302SOL    HW2 1806   6.765   6.276   2.765
  303SOL     OW 1807   6.009   6.081   3.480
  303SOL    HW1 1808   5.938   6.017   3.451
  303SOL    HW2 1809   6.014   6.158   3.416
  304SOL     OW 1810   2.777   6.134   4.426
  304SOL    HW1 1811   2.789   6.214   4.485
  304SOL    HW2 1812   2.738   6.164   4.339
  305SOL     OW 1813   0.797   2.689   1.807
  305SOL    HW1 1814   0.741   2.733   1.736
  305SOL    HW2 1815   0.752   2.699   1.895
  306SOL     OW 1816   0.297   6.529   3.155
  306SOL    HW1 1817   0.381   6.502   3.203
  306SOL    HW2 1818   0.218   6.510   3.214
  307SOL     OW 1819   3.797   3.340   4.040
  307SOL    HW1 1820   3.883   3.292   4.024
  307SOL    HW2 1821   3.743   3.340   3.956
  308SOL     OW 1822   6.665   2.027   2.949
  308SOL    HW1 1823   6.643   2.039   2.852
  308SOL    HW2 1824   6.751   1.977   2.958
  309SOL     OW 1825   1.965   5.684   6.769
  309SOL    HW1 1826   2.009   5.757   6.717
  309SOL    HW2 1827   2.020   5.600   6.761
  310SOL     OW 1828   5.466   6.368   4.782
  310SOL    HW1 1829   5.405   6.346   4.859
  310SOL    HW2 1830   5.416   6.423   4.715
  311SOL     OW 1831   1.526   5.820   2.066
  311SOL    HW1 1832   1.511   5.734   2.016
  311SOL    HW2 1833   1.590   5.877   2.016
  312SOL     OW 1834   2.869   0.576   4.059
  312SOL    HW1 1835   2.900   0.643   4.126
  312SOL    HW2 1836   2.916   0.489   4.075
  313SOL     OW 1837   2.954   3.333   2.818
  313SOL    HW1 1838   2.906   3.357   2.734
  313SOL    HW2 1839   3.048   3.307   2.797
  314SOL     OW 1840   2.710   5.472   5.883
  314SOL    HW1 1841   2.700   5.375   5.904
  314SOL    HW2 1842   2.728   5.484   5.786
  315SOL     OW 1843   5.660   0.773   4.666
  315SOL    HW1 1844   5.580   0.831   4.681
  315SOL    HW2 1845   5.632   0.691   4.616
  316SOL     OW 1846   4.029   0.715   6.247
  316SOL    HW1 1847   4.003   0.757   6.160
  316SOL    HW2 1848   4.061   0.786   6.310
  317SOL     OW 1849   0.456   2.289   1.464
  317SOL    HW1 1850   0.508   2.303   1.380
  317SOL    HW2 1851   0.500   2.339   1.539
  318SOL     OW 1852   0.940   0.547   5.310
  318SOL    HW1 1853   0.892   0.541   5.222
  318SOL    HW2 1854   0.950   0.456   5.349
  319SOL     OW 1855   0.180   0.549   3.844
  319SOL    HW1 1856   0.100   0.555   3.785
  319SOL    HW2 1857   0.255   0.506   3.793
  320SOL     OW 1858   5.877   1.978   6.662
  320SOL    HW1 1859   5.824   1.918   6.721
  320SOL    HW2 1860   5.902   2.061   6.713
  321SOL     OW 1861   5.086   3.014   0.584
  321SOL    HW1 1862   5.151   3.054   0.649
  321SOL    HW2 1863   5.062   2.921   0.613
  322SOL     OW 1864   3.387   2.619   6.826
  322SOL    HW1 1865   3.402   2.708   6.783
  322SOL    HW2 1866   3.419   2.547   6.764
  323SOL     OW 1867   1.889   3.729   2.878
  323SOL    HW1 1868   1.830   3.809   2.873
  323SOL    HW2 1869   1.944   3.723   2.794
  324SOL     OW 1870   0.374   6.875   3.018
  324SOL    HW1 1871   0.291   6.873   3.074
  324SOL    HW2 1872   0.362   6.815   2.939
  325SOL     OW 1873   0.227   4.186   0.397
  325SOL    HW1 1874   0.219   4.111   0.463
  325SOL    HW2 1875   0.289   4.159   0.323
  326SOL     OW 1876   0.522   6.296   0.181
  326SOL    HW1 1877   0.560   6.225   0.241
  326SOL    HW2 1878   0.422   6.288   0.180
  327SOL     OW 1879   4.518   5.380   5.022
  327SOL    HW1 1880   4.553   5.297   5.065
  327SOL    HW2 1881   4.510   5.453   5.090
  328SOL     OW 1882   1.588   4.941   3.517
  328SOL    HW1 1883   1.536   4.866   3.475
  328SOL    HW2 1884   1.536   4.977   3.595
  329SOL     OW 1885   3.077   3.205   1.461
  329SOL    HW1 1886   3.014   3.182   1.386
  329SOL    HW2 1887   3.024   3.222   1.544
  330SOL     OW 1888   3.310   3.606   0.535
  330SOL    HW1 1889   3.355   3.583   0.448
  330SOL    HW2 1890   3.295   3.704   0.540
  331SOL     OW 1891   5.395   5.207   4.918
  331SOL    HW1 1892   5.434   5.163   4.998
  331SOL    HW2 1893   5.453   5.190   4.838
  332SOL     OW 1894   5.560   2.381   2.924
  332SOL    HW1 1895   5.584   2.463   2.872
  332SOL    HW2 1896   5.642   2.327   2.941
  333SOL     OW 1897   3.405   0.474   4.422
  333SOL    HW1 1898   3.451   0.563   4.425
  333SOL    HW2 1899   3.328   0.479   4.359
  334SOL     OW 1900   3.621   3.807   3.331
  334SOL    HW1 1901   3.665   3.896   3.326
  334SOL    HW2 1902   3.523   3.819   3.348
  335SOL     OW 1903   4.166   1.477   0.903
  335SOL    HW1 1904   4.186   1.505   0.997
  335SOL    HW2 1905   4.075   1.436   0.899
  336SOL     OW 1906   3.372   1.818   4.467
  336SOL    HW1 1907   3.340   1.912   4.467
  336SOL    HW2 1908   3.369   1.781   4.374
  337SOL     OW 1909   0.422   0.914   5.276
  337SOL    HW1 1910   0.393   1.006   5.249
  337SOL    HW2 1911   0.516   0.899   5.244
  338SOL     OW 1912   4.330   1.816   1.251
  338SOL    HW1 1913   4.317   1.915   1.239
  338SOL    HW2 1914   4.272   1.784   1.326
  339SOL     OW 1915   3.846   4.974   5.849
  339SOL    HW1 1916   3.901   4.894   5.873
  339SOL    HW2 1917   3.890   5.023   5.774
  340SOL     OW 1918   5.968   2.366   4.126
  340SOL    HW1 1919   5.879   2.336   4.160
  340SOL    HW2 1920   6.040   2.312   4.171
  341SOL     OW 1921   6.976   6.330   3.116
  341SOL    HW1 1922   0.002   6.415   3.141
  341SOL    HW2 1923   6.957   6.331   3.018
  342SOL     OW 1924   4.732   2.026   2.273
  342SOL    HW1 1925   4.637   2.009   2.298
  342SOL    HW2 1926   4.746   2.003   2.177
  343SOL     OW 1927   6.632   6.755   1.763
  343SOL    HW1 1928   6.574   6.772   1.842
  343SOL    HW2 1929   6.599   6.810   1.686
  344SOL     OW 1930   0.129   2.521   1.195
  344SOL    HW1 1931   0.162   2.524   1.289
  344SOL    HW2 1932   0.029   2.518   1.195
  345SOL     OW 1933   6.124   2.502   4.798
  345SOL    HW1 1934   6.117   2.497   4.698
  345SOL    HW2 1935   6.076   2.584   4.830
  346SOL     OW 1936   2.164   6.342   3.679
  346SOL    HW1 1937   2.122   6.347   3.588
  346SOL    HW2 1938   2.092   6.336   3.749
  347SOL     OW 1939   1.896   4.544   0.728
  347SOL    HW1 1940   1.983   4.495   0.722
  347SOL    HW2 1941   1.903   4.614   0.800
  348SOL     OW 1942   3.668   5.264   1.530
  348SOL    HW1 1943   3.592   5.221   1.580
  348SOL    HW2 1944   3.717   5.325   1.592
  349SOL     OW 1945   5.968   4.253   0.901
  349SOL    HW1 1946   6.056   4.244   0.947
  349SOL    HW2 1947   5.977   4.319   0.826
  350SOL     OW 1948   3.344   2.074   6.929
  350SOL    HW1 1949   3.420   2.127   6.967
  350SOL    HW2 1950   3.263   2.133   6.924
  351SOL     OW 1951   3.692   4.656   1.011
  351SOL    HW1 1952   3.724   4.562   1.004
  351SOL    HW2 1953   3.744   4.713   0.948
  352SOL     OW 1954   4.260   0.635   2.335
  352SOL    HW1 1955   4.273   0.561   2.401
  352SOL    HW2 1956   4.213   0.711   2.379
  353SOL     OW 1957   1.477   0.583   0.359
  353SOL    HW1 1958   1.482   0.497   0.409
  353SOL    HW2 1959   1.565   0.602   0.316
  354SOL     OW 1960   0.853   2.267   0.381
  354SOL    HW1 1961   0.801   2.262   0.296
  354SOL    HW2 1962   0.847   2.360   0.418
  355SOL     OW 1963   0.768   2.501   3.146
  355SOL    HW1 1964   0.777   2.454   3.058
  355SOL    HW2 1965   0.859   2.524   3.180
  356SOL     OW 1966   2.674   0.410   5.413
  356SOL    HW1 1967   2.713   0.328   5.370
  356SOL    HW2 1968   2.697   0.490   5.357
  357SOL     OW 1969   5.488   0.210   4.444
  357SOL    HW1 1970   5.439   0.294   4.420
  357SOL    HW2 1971   5.509   0.211   4.542
  358SOL     OW 1972   3.575   5.812   6.163
  358SOL    HW1 1973   3.648   5.763   6.211
  358SOL    HW2 1974   3.489   5.798   6.213
  359SOL     OW 1975   1.100   1.943   2.679
  359SOL    HW1 1976   1.133   2.016   2.739
  359SOL    HW2 1977   1.028   1.978   2.619
  360SOL     OW 1978   1.514   4.323   4.290
  360SOL    HW1 1979   1.438   4.385   4.311
  360SOL    HW2 1980   1.561   4.356   4.209
  361SOL     OW 1981   6.372   1.559   2.211
  361SOL    HW1 1982   6.375   1.599   2.303
  361SOL    HW2 1983   6.465   1.547   2.177
  362SOL     OW 1984   3.853   3.630   1.163
  362SOL    HW1 1985   3.770   3.629   1.107
  362SOL    HW2 1986   3.851   3.554   1.228
  363SOL     OW 1987   5.162   5.468   1.811
  363SOL    HW1 1988   5.075   5.480   1.859
  363SOL    HW2 1989   5.179   5.547   1.752
  364SOL     OW 1990   0.676   6.740   6.972
  364SOL    HW1 1991   0.627   6.794   6.904
  364SOL    HW2 1992   0.742   6.680   6.926
  365SOL     OW 1993   5.292   1.307   3.610
  365SOL    HW1 1994   5.372   1.311   3.671
  365SOL    HW2 1995   5.311   1.245   3.534
  366SOL     OW 1996   5.688   1.790   6.365
  366SOL    HW1 1997   5.630   1.869   6.385
  366SOL    HW2 1998   5.721   1.750   6.450
  367SOL     OW 1999   5.803   1.352   6.562
  367SOL    HW1 2000   5.889   1.304   6.544
  367SOL    HW2 2001   5.742   1.293   6.614
  368SOL     OW 2002   0.763   2.514   5.915
  368SOL    HW1 2003   0.746   2.422   5.878
  368SOL    HW2 2004   0.859   2.521   5.941
  369SOL     OW 2005   6.368   3.862   1.137
  369SOL    HW1 2006   6.425   3.878   1.218
  369SOL    HW2 2007   6.414   3.797   1.076
  370SOL     OW 2008   1.663   2.645   3.897
  370SOL    HW1 2009   1.614   2.558   3.885
  370SOL    HW2 2010   1.693   2.678   3.808
  371SOL     OW 2011   0.400   4.887   6.636
  371SOL    HW1 2012   0.435   4.979   6.618
  371SOL    HW2 2013   0.452   4.845   6.710
  372SOL     OW 2014   3.332   6.260   6.049
  372SOL    HW1 2015   3.266   6.332   6.069
  372SOL    HW2 2016   3.365   6.270   5.955
  373SOL     OW 2017   6.431   4.962   3.525
  373SOL    HW1 2018   6.377   4.958   3.441
  373SOL    HW2 2019   6.387   5.023   3.591
  374SOL     OW 2020   2.668   1.180   2.750
  374SOL    HW1 2021   2.595   1.182   2.683
  374SOL    HW2 2022   2.744   1.237   2.719
  375SOL     OW 2023   0.837   5.613   4.720
  375SOL    HW1 2024   0.872   5.555   4.646
  375SOL    HW2 2025   0.914   5.655   4.768
  376SOL     OW 2026   3.247   1.043   3.873
  376SOL    HW1 2027   3.204   0.980   3.809
  376SOL    HW2 2028   3.274   1.127   3.826
  377SOL     OW 2029   1.555   2.090   6.698
  377SOL    HW1 2030   1.495   2.110   6.776
  377SOL    HW2 2031   1.651   2.097   6.727
  378SOL     OW 2032   4.233   1.631   2.467
  378SOL    HW1 2033   4.285   1.616   2.383
  378SOL    HW2 2034   4.179   1.550   2.487
  379SOL     OW 2035   5.068   1.680   5.891
  379SOL    HW1 2036   5.143   1.714   5.948
  379SOL    HW2 2037   4.980   1.706   5.931
  380SOL     OW 2038   4.263   2.560   0.094
  380SOL    HW1 2039   4.215   2.519   0.171
  380SOL    HW2 2040   4.337   2.619   0.128
  381SOL     OW 2041   2.161   3.855   3.033
  381SOL    HW1 2042   2.064   3.854   3.010
  381SOL    HW2 2043   2.178   3.794   3.110
  382SOL     OW 2044   5.199   0.453   6.328
  382SOL    HW1 2045   5.290   0.474   6.295
  382SOL    HW2 2046   5.193   0.355   6.350
  383SOL     OW 2047   5.235   2.365   0.561
  383SOL    HW1 2048   5.267   2.459   0.547
  383SOL    HW2 2049   5.276   2.327   0.643
  384SOL     OW 2050   6.253   3.948   4.619
  384SOL    HW1 2051   6.255   3.849   4.602
  384SOL    HW2 2052   6.269   3.965   4.716
  385SOL     OW 2053   4.805   3.372   0.304
  385SOL    HW1 2054   4.782   3.283   0.342
  385SOL    HW2 2055   4.886   3.364   0.247
  386SOL     OW 2056   4.068   6.396   4.062
  386SOL    HW1 2057   4.069   6.309   4.112
  386SOL    HW2 2058   3.996   6.394   3.993
  387SOL     OW 2059   2.867   6.284   3.932
  387SOL    HW1 2060   2.916   6.331   3.860
  387SOL    HW2 2061   2.808   6.213   3.892
  388SOL     OW 2062   1.295   4.321   6.651
  388SOL    HW1 2063   1.371   4.384   6.667
  388SOL    HW2 2064   1.209   4.365   6.679
  389SOL     OW 2065   2.955   3.420   2.522
  389SOL    HW1 2066   2.993   3.513   2.519
  389SOL    HW2 2067   2.938   3.389   2.428
  390SOL     OW 2068   2.324   1.560   3.823
  390SOL    HW1 2069   2.272   1.607   3.752
  390SOL    HW2 2070   2.269   1.485   3.860
  391SOL     OW 2071   0.988   2.491   6.523
  391SOL    HW1 2072   1.012   2.506   6.427
  391SOL    HW2 2073   0.921   2.416   6.529
  392SOL     OW 2074   3.017   5.548   3.397
  392SOL    HW1 2075   3.068   5.519   3.316
  392SOL    HW2 2076   2.935   5.492   3.407
  393SOL     OW 2077   6.038   4.346   5.037
  393SOL    HW1 2078   6.093   4.423   5.069
  393SOL    HW2 2079   6.098   4.280   4.990
  394SOL     OW 2080   2.533   0.247   6.744
  394SOL    HW1 2081   2.490   0.157   6.745
  394SOL    HW2 2082   2.589   0.256   6.661
  395SOL     OW 2083   6.294   3.587   0.968
  395SOL    HW1 2084   6.361   3.530   0.920
  395SOL    HW2 2085   6.281   3.552   1.061
  396SOL     OW 2086   3.429   2.916   4.359
  396SOL    HW1 2087   3.498   2.891   4.427
  396SOL    HW2 2088   3.365   2.982   4.400
  397SOL     OW 2089   4.306   1.964   6.508
  397SOL    HW1 2090   4.255   2.043   6.475
  397SOL    HW2 2091   4.262   1.880   6.475
  398SOL     OW 2092   1.318   4.747   2.441
  398SOL    HW1 2093   1.403   4.706   2.407
  398SOL    HW2 2094   1.310   4.840   2.407
  399SOL     OW 2095   5.280   5.001   2.513
  399SOL    HW1 2096   5.295   5.087   2.464
  399SOL    HW2 2097   5.362   4.979   2.566
  400SOL     OW 2098   1.633   4.988   4.880
  400SOL    HW1 2099   1.573   4.977   4.959
  400SOL    HW2 2100   1.593   4.942   4.801
  401SOL     OW 2101   5.584   1.408   6.332
  401SOL    HW1 2102   5.534   1.468   6.395
  401SOL    HW2 2103   5.682   1.423   6.341
  402SOL     OW 2104   5.910   4.909   1.501
  402SOL    HW1 2105   5.979   4.978   1.479
  402SOL    HW2 2106   5.929   4.870   1.591
  403SOL     OW 2107   5.511   3.724   6.788
  403SOL    HW1 2108   5.504   3.811   6.837
  403SOL    HW2 2109   5.434   3.666   6.814
  404SOL     OW 2110   0.546   6.852   4.687
  404SOL    HW1 2111   0.608   6.774   4.682
  404SOL    HW2 2112   0.599   6.936   4.691
  405SOL     OW 2113   1.303   2.270   0.467
  405SOL    HW1 2114   1.282   2.290   0.563
  405SOL    HW2 2115   1.228   2.218   0.427
  406SOL     OW 2116   1.359   3.187   3.068
  406SOL    HW1 2117   1.274   3.226   3.032
  406SOL    HW2 2118   1.417   3.157   2.993
  407SOL     OW 2119   2.338   1.799   3.420
  407SOL    HW1 2120   2.438   1.794   3.429
  407SOL    HW2 2121   2.309   1.894   3.435
  408SOL     OW 2122   1.734   0.133   3.058
  408SOL    HW1 2123   1.755   0.128   3.155
  408SOL    HW2 2124   1.805   0.184   3.011
  409SOL     OW 2125   6.015   3.361   3.876
  409SOL    HW1 2126   5.973   3.277   3.910
  409SOL    HW2 2127   6.074   3.339   3.798
  410SOL     OW 2128   3.152   0.997   6.122
  410SOL    HW1 2129   3.097   0.959   6.196
  410SOL    HW2 2130   3.099   1.065   6.072
  411SOL     OW 2131   6.595   4.060   4.795
  411SOL    HW1 2132   6.516   4.035   4.851
  411SOL    HW2 2133   6.658   3.982   4.790
  412SOL     OW 2134   3.351   0.191   2.327
  412SOL    HW1 2135   3.404   0.181   2.411
  412SOL    HW2 2136   3.413   0.197   2.249
  413SOL     OW 2137   2.537   0.352   1.579
  413SOL    HW1 2138   2.615   0.294   1.554
  413SOL    HW2 2139   2.488   0.379   1.496
  414SOL     OW 2140   4.448   3.944   0.192
  414SOL    HW1 2141   4.405   3.925   0.280
  414SOL    HW2 2142   4.531   3.890   0.183
  415SOL     OW 2143   3.083   6.634   1.894
  415SOL    HW1 2144   3.024   6.706   1.932
  415SOL    HW2 2145   3.078   6.636   1.794
  416SOL     OW 2146   3.860   5.562   5.720
  416SOL    HW1 2147   3.839   5.657   5.743
  416SOL    HW2 2148   3.889   5.557   5.624
  417SOL     OW 2149   4.091   5.880   1.230
  417SOL    HW1 2150   4.078   5.952   1.297
  417SOL    HW2 2151   4.024   5.889   1.156
  418SOL     OW 2152   5.670   4.420   0.728
  418SOL    HW1 2153   5.761   4.461   0.728
  418SOL    HW2 2154   5.621   4.448   0.811
  419SOL     OW 2155   6.212   6.443   1.055
  419SOL    HW1 2156   6.178   6.489   0.974
  419SOL    HW2 2157   6.140   6.384   1.093
  420SOL     OW 2158   4.361   3.953   6.946
  420SOL    HW1 2159   4.394   3.959   0.020
  420SOL    HW2 2160   4.355   3.857   6.919
  421SOL     OW 2161   1.684   6.191   6.745
  421SOL    HW1 2162   1.624   6.265   6.714
  421SOL    HW2 2163   1.779   6.221   6.739
  422SOL     OW 2164   6.148   3.339   6.750
  422SOL    HW1 2165   6.092   3.279   6.694
  422SOL    HW2 2166   6.143   3.310   6.845
  423SOL     OW 2167   0.643   2.723   6.138
  423SOL    HW1 2168   0.656   2.654   6.067
  423SOL    HW2 2169   0.724   2.724   6.198
  424SOL     OW 2170   2.306   3.814   0.088
  424SOL    HW1 2171   2.305   3.719   0.056
  424SOL    HW2 2172   2.361   3.869   0.025
  425SOL     OW 2173   2.978   0.976   0.618
  425SOL    HW1 2174   2.943   0.886   0.594
  425SOL    HW2 2175   3.048   1.003   0.552
  426SOL     OW 2176   5.576   4.122   5.434
  426SOL    HW1 2177   5.557   4.183   5.357
  426SOL    HW2 2178   5.493   4.112   5.490
  427SOL     OW 2179   5.193   3.664   0.648
  427SOL    HW1 2180   5.163   3.580   0.694
  427SOL    HW2 2181   5.293   3.669   0.651
  428SOL     OW 2182   3.678   1.140   4.752
  428SOL    HW1 2183   3.633   1.104   4.833
  428SOL    HW2 2184   3.626   1.217   4.717
  429SOL     OW 2185   2.141   5.204   6.581
  429SOL    HW1 2186   2.069   5.184   6.648
  429SOL    HW2 2187   2.141   5.133   6.511
  430SOL     OW 2188   1.338   6.568   5.246
  430SOL    HW1 2189   1.246   6.606   5.255
  430SOL    HW2 2190   1.344   6.482   5.297
  431SOL     OW 2191   3.614   1.656   0.233
  431SOL    HW1 2192   3.612   1.704   0.321
  431SOL    HW2 2193   3.541   1.588   0.230
  432SOL     OW 2194   0.355   2.137   1.035
  432SOL    HW1 2195   0.373   2.235   1.036
  432SOL    HW2 2196   0.431   2.088   1.077
  433SOL     OW 2197   3.454   6.163   4.661
  433SOL    HW1 2198   3.421   6.141   4.753
  433SOL    HW2 2199   3.385   6.217   4.612
  434SOL     OW 2200   0.101   3.851   1.200
  434SOL    HW1 2201   0.109   3.944   1.165
  434SOL    HW2 2202   0.186   3.802   1.186
  435SOL     OW 2203   3.720   4.233   0.790
  435SOL    HW1 2204   3.688   4.162   0.728
  435SOL    HW2 2205   3.789   4.289   0.744
  436SOL     OW 2206   2.559   1.201   6.776
  436SOL    HW1 2207   2.580   1.258   6.696
  436SOL    HW2 2208   2.463   1.213   6.801
  437SOL     OW 2209   6.904   0.241   6.792
  437SOL    HW1 2210   6.854   0.311   6.741
  437SOL    HW2 2211   6.867   0.234   6.885
  438SOL     OW 2212   1.727   2.839   1.895
  438SOL    HW1 2213   1.731   2.909   1.966
  438SOL    HW2 2214   1.638   2.841   1.850
  439SOL     OW 2215   6.358   4.972   3.271
  439SOL    HW1 2216   6.281   5.014   3.222
  439SOL    HW2 2217   6.364   4.875   3.246
  440SOL     OW 2218   0.951   3.156   4.150
  440SOL    HW1 2219   1.044   3.159   4.187
  440SOL    HW2 2220   0.954   3.127   4.055
  441SOL     OW 2221   0.693   0.900   3.825
  441SOL    HW1 2222   0.609   0.953   3.828
  441SOL    HW2 2223   0.708   0.866   3.732
  442SOL     OW 2224   6.965   4.179   0.355
  442SOL    HW1 2225   6.894   4.239   0.393
  442SOL    HW2 2226   0.030   4.232   0.343
  443SOL     OW 2227   0.421   4.317   5.830
  443SOL    HW1 2228   0.434   4.409   5.867
  443SOL    HW2 2229   0.331   4.283   5.855
  444SOL     OW 2230   4.451   3.430   6.325
  444SOL    HW1 2231   4.479   3.405   6.232
  444SOL    HW2 2232   4.499   3.372   6.391
  445SOL     OW 2233   1.834   4.830   3.024
  445SOL    HW1 2234   1.876   4.742   3.002
  445SOL    HW2 2235   1.855   4.854   3.118
  446SOL     OW 2236   4.726   4.684   3.899
  446SOL    HW1 2237   4.759   4.632   3.978
  446SOL    HW2 2238   4.649   4.741   3.926
  447SOL     OW 2239   6.731   5.803   0.610
  447SOL    HW1 2240   6.667   5.733   0.579
  447SOL    HW2 2241   6.701   5.840   0.698
  448SOL     OW 2242   4.945   0.305   5.208
  448SOL    HW1 2243   4.933   0.360   5.291
  448SOL    HW2 2244   5.019   0.344   5.153
  449SOL     OW 2245   5.953   0.532   4.773
  449SOL    HW1 2246   5.996   0.454   4.728
  449SOL    HW2 2247   5.969   0.615   4.719
  450SOL     OW 2248   6.767   6.369   3.752
  450SOL    HW1 2249   6.729   6.277   3.746
  450SOL    HW2 2250   6.722   6.428   3.685
  451SOL     OW 2251   0.377   2.545   3.307
  451SOL    HW1 2252   0.363   2.643   3.322
  451SOL    HW2 2253   0.346   2.495   3.388
  452SOL     OW 2254   0.077   4.790   6.834
  452SOL    HW1 2255   0.068   4.771   6.736
  452SOL    HW2 2256   0.172   4.813   6.855
  453SOL     OW 2257   2.995   0.688   5.755
  453SOL    HW1 2258   2.933   0.693   5.833
  453SOL    HW2 2259   3.053   0.607   5.763
  454SOL     OW 2260   1.093   6.264   0.193
  454SOL    HW1 2261   1.170   6.231   0.248
  454SOL    HW2 2262   1.076   6.360   0.213
  455SOL     OW 2263   5.521   0.921   5.600
  455SOL    HW1 2264   5.568   0.952   5.683
  455SOL    HW2 2265   5.455   0.850   5.624
  456SOL     OW 2266   4.398   5.544   6.236
  456SOL    HW1 2267   4.414   5.627   6.289
  456SOL    HW2 2268   4.310   5.504   6.261
  457SOL     OW 2269   1.963   5.147   2.888
  457SOL    HW1 2270   1.951   5.172   2.792
  457SOL    HW2 2271   1.895   5.079   2.915
  458SOL     OW 2272   6.717   5.613   6.434
  458SOL    HW1 2273   6.724   5.621   6.335
  458SOL    HW2 2274   6.663   5.688   6.470
  459SOL     OW 2275   1.658   0.724   2.826
  459SOL    HW1 2276   1.650   0.667   2.745
  459SOL    HW2 2277   1.592   0.694   2.895
  460SOL     OW 2278   6.099   2.503   3.452
  460SOL    HW1 2279   6.081   2.443   3.374
  460SOL    HW2 2280   6.187   2.481   3.492
  461SOL     OW 2281   4.701   6.476   5.284
  461SOL    HW1 2282   4.750   6.497   5.199
  461SOL    HW2 2283   4.665   6.560   5.323
  462SOL     OW 2284   2.767   3.411   6.293
  462SOL    HW1 2285   2.833   3.468   6.243
  462SOL    HW2 2286   2.689   3.391   6.233
  463SOL     OW 2287   6.378   5.511   1.847
  463SOL    HW1 2288   6.314   5.490   1.921
  463SOL    HW2 2289   6.415   5.603   1.860
  464SOL     OW 2290   2.438   1.068   5.405
  464SOL    HW1 2291   2.514   1.060   5.340
  464SOL    HW2 2292   2.395   0.979   5.417
  465SOL     OW 2293   6.315   2.833   4.469
  465SOL    HW1 2294   6.352   2.761   4.410
  465SOL    HW2 2295   6.261   2.792   4.542
  466SOL     OW 2296   1.405   6.964   3.539
  466SOL    HW1 2297   1.350   0.012   3.490
  466SOL    HW2 2298   1.360   6.875   3.533
  467SOL     OW 2299   1.623   0.643   5.218
  467SOL    HW1 2300   1.638   0.569   5.152
  467SOL    HW2 2301   1.538   0.692   5.195
  468SOL     OW 2302   3.234   4.631   0.981
  468SOL    HW1 2303   3.206   4.608   1.074
  468SOL    HW2 2304   3.159   4.678   0.934
  469SOL     OW 2305   2.171   5.465   0.173
  469SOL    HW1 2306   2.082   5.465   0.127
  469SOL    HW2 2307   2.162   5.511   0.262
  470SOL     OW 2308   3.642   0.732   2.474
  470SOL    HW1 2309   3.561   0.704   2.423
  470SOL    HW2 2310   3.683   0.653   2.518
  471SOL     OW 2311   2.446   2.389   5.158
  471SOL    HW1 2312   2.470   2.478   5.118
  471SOL    HW2 2313   2.408   2.330   5.087
  472SOL     OW 2314   3.407   4.635   5.757
  472SOL    HW1 2315   3.403   4.658   5.660
  472SOL    HW2 2316   3.501   4.610   5.781
  473SOL     OW 2317   1.137   3.983   2.555
  473SOL    HW1 2318   1.192   4.056   2.516
  473SOL    HW2 2319   1.050   3.977   2.508
  474SOL     OW 2320   4.194   5.048   4.488
  474SOL    HW1 2321   4.183   4.981   4.415
  474SOL    HW2 2322   4.107   5.060   4.536
  475SOL     OW 2323   0.346   6.594   6.401
  475SOL    HW1 2324   0.252   6.612   6.429
  475SOL    HW2 2325   0.359   6.496   6.390
  476SOL     OW 2326   0.089   4.727   2.728
  476SOL    HW1 2327   0.063   4.668   2.651
  476SOL    HW2 2328   0.159   4.682   2.782
  477SOL     OW 2329   1.853   5.339   4.072
  477SOL    HW1 2330   1.803   5.303   4.151
  477SOL    HW2 2331   1.898   5.425   4.096
  478SOL     OW 2332   2.427   5.101   3.502
  478SOL    HW1 2333   2.391   5.075   3.592
  478SOL    HW2 2334   2.473   5.022   3.461
  479SOL     OW 2335   3.480   2.006   0.601
  479SOL    HW1 2336   3.526   2.093   0.618
  479SOL    HW2 2337   3.429   1.979   0.683
  480SOL     OW 2338   0.735   7.011   2.678
  480SOL    HW1 2339   0.792   6.965   2.610
  480SOL    HW2 2340   0.775   0.080   2.700
  481SOL     OW 2341   4.370   6.924   0.933
  481SOL    HW1 2342   4.311   6.846   0.916
  481SOL    HW2 2343   4.440   6.899   0.999
  482SOL     OW 2344   5.641   4.377   2.015
  482SOL    HW1 2345   5.731   4.337   1.995
  482SOL    HW2 2346   5.647   4.430   2.100
  483SOL     OW 2347   5.602   1.807   1.509
  483SOL    HW1 2348   5.656   1.815   1.425
  483SOL    HW2 2349   5.524   1.746   1.493
  484SOL     OW 2350   6.345   2.111   4.960
  484SOL    HW1 2351   6.332   2.181   4.889
  484SOL    HW2 2352   6.256   2.087   4.999
  485SOL     OW 2353   3.650   5.010   2.357
  485SOL    HW1 2354   3.697   5.020   2.269
  485SOL    HW2 2355   3.630   5.100   2.396
  486SOL     OW 2356   0.630   0.770   0.857
  486SOL    HW1 2357   0.679   0.832   0.918
  486SOL    HW2 2358   0.591   0.823   0.781
  487SOL     OW 2359   0.188   2.147   6.847
  487SOL    HW1 2360   0.179   2.098   6.761
  487SOL    HW2 2361   0.224   2.086   6.917
  488SOL     OW 2362   0.145   2.097   2.607
  488SOL    HW1 2363   0.165   2.161   2.682
  488SOL    HW2 2364   0.076   2.137   2.547
  489SOL     OW 2365   3.543   5.555   6.755
  489SOL    HW1 2366   3.474   5.565   6.683
  489SOL    HW2 2367   3.528   5.626   6.824
  490SOL     OW 2368   5.557   6.176   4.631
  490SOL    HW1 2369   5.536   6.248   4.697
  490SOL    HW2 2370   5.491   6.102   4.640
  491SOL     OW 2371   0.272   2.988   2.756
  491SOL    HW1 2372   0.302   3.045   2.679
  491SOL    HW2 2373   0.193   3.031   2.801
  492SOL     OW 2374   2.006   0.632   5.562
  492SOL    HW1 2375   2.010   0.634   5.462
  492SOL    HW2 2376   1.954   0.552   5.591
  493SOL     OW 2377   6.606   4.506   4.935
  493SOL    HW1 2378   6.611   4.594   4.983
  493SOL    HW2 2379   6.697   4.480   4.905
  494SOL     OW 2380   6.633   0.594   0.712
  494SOL    HW1 2381   6.539   0.613   0.686
  494SOL    HW2 2382   6.680   0.679   0.735
  495SOL     OW 2383   5.019   4.588   1.583
  495SOL    HW1 2384   5.064   4.647   1.516
  495SOL    HW2 2385   4.977   4.511   1.536
  496SOL     OW 2386   5.676   3.188   3.804
  496SOL    HW1 2387   5.666   3.283   3.833
  496SOL    HW2 2388   5.607   3.132   3.848
  497SOL     OW 2389   4.275   0.441   4.626
  497SOL    HW1 2390   4.291   0.352   4.583
  497SOL    HW2 2391   4.339   0.508   4.589
  498SOL     OW 2392   0.937   3.337   2.503
  498SOL    HW1 2393   0.853   3.317   2.554
  498SOL    HW2 2394   0.982   3.251   2.478
  499SOL     OW 2395   3.279   1.207   5.085
  499SOL    HW1 2396   3.213   1.149   5.037
  499SOL    HW2 2397   3.299   1.287   5.030
  500SOL     OW 2398   0.868   3.827   2.622
  500SOL    HW1 2399   0.815   3.833   2.707
  500SOL    HW2 2400   0.957   3.788   2.641
  501SOL     OW 2401   0.870   3.271   6.446
  501SOL    HW1 2402   0.963   3.235   6.446
  501SOL    HW2 2403   0.866   3.355   6.502
  502SOL     OW 2404   3.485   5.301   6.738
  502SOL    HW1 2405   3.517   5.395   6.748
  502SOL    HW2 2406   3.504   5.269   6.645
  503SOL     OW 2407   5.641   5.051   5.415
  503SOL    HW1 2408   5.542   5.057   5.418
  503SOL    HW2 2409   5.681   5.127   5.467
  504SOL     OW 2410   2.014   5.995   4.481
  504SOL    HW1 2411   2.006   5.921   4.414
  504SOL    HW2 2412   2.110   6.014   4.499
  505SOL     OW 2413   4.370   0.064   5.775
  505SOL    HW1 2414   4.366   7.016   5.848
  505SOL    HW2 2415   4.375   0.156   5.816
  506SOL     OW 2416   2.159   3.932   6.409
  506SOL    HW1 2417   2.116   3.862   6.352
  506SOL    HW2 2418   2.092   4.005   6.428
  507SOL     OW 2419   3.204   1.398   3.786
  507SOL    HW1 2420   3.256   1.433   3.864
  507SOL    HW2 2421   3.163   1.474   3.736
  508SOL     OW 2422   6.599   3.480   3.747
  508SOL    HW1 2423   6.534   3.439   3.811
  508SOL    HW2 2424   6.690   3.442   3.763
  509SOL     OW 2425   5.026   2.004   1.141
  509SOL    HW1 2426   4.928   1.983   1.136
  509SOL    HW2 2427   5.071   1.938   1.202
  510SOL     OW 2428   0.242   4.138   4.431
  510SOL    HW1 2429   0.234   4.075   4.354
  510SOL    HW2 2430   0.309   4.103   4.496
  511SOL     OW 2431   0.251   0.059   0.615
  511SOL    HW1 2432   0.195   0.007   0.679
  511SOL    HW2 2433   0.301   0.130   0.663
  512SOL     OW 2434   0.605   3.555   6.163
  512SOL    HW1 2435   0.657   3.640   6.160
  512SOL    HW2 2436   0.605   3.520   6.257
  513SOL     OW 2437   6.334   6.045   4.437
  513SOL    HW1 2438   6.416   6.033   4.492
  513SOL    HW2 2439   6.338   6.132   4.389
  514SOL     OW 2440   5.592   1.666   3.955
  514SOL    HW1 2441   5.558   1.760   3.945
  514SOL    HW2 2442   5.683   1.668   3.996
  515SOL     OW 2443   2.276   6.135   6.688
  515SOL    HW1 2444   2.370   6.157   6.714
  515SOL    HW2 2445   2.214   6.157   6.763
  516SOL     OW 2446   2.010   4.879   1.753
  516SOL    HW1 2447   2.079   4.806   1.758
  516SOL    HW2 2448   2.039   4.948   1.687
  517SOL     OW 2449   4.703   7.019   0.865
  517SOL    HW1 2450   4.613   0.018   0.825
  517SOL    HW2 2451   4.694   6.952   0.938
  518SOL     OW 2452   2.399   2.533   1.200
  518SOL    HW1 2453   2.478   2.590   1.227
  518SOL    HW2 2454   2.329   2.591   1.160
  519SOL     OW 2455   0.822   6.494   0.245
  519SOL    HW1 2456   0.899   6.489   0.181
  519SOL    HW2 2457   0.784   6.403   0.259
  520SOL     OW 2458   5.618   4.542   5.431
  520SOL    HW1 2459   5.566   4.586   5.357
  520SOL    HW2 2460   5.556   4.489   5.489
  521SOL     OW 2461   6.760   1.367   0.474
  521SOL    HW1 2462   6.854   1.398   0.490
  521SOL    HW2 2463   6.762   1.284   0.418
  522SOL     OW 2464   4.097   3.609   4.344
  522SOL    HW1 2465   4.090   3.568   4.253
  522SOL    HW2 2466   4.044   3.554   4.409
  523SOL     OW 2467   0.167   0.013   4.962
  523SOL    HW1 2468   0.177   0.112   4.975
  523SOL    HW2 2469   0.234   6.985   5.019
  524SOL     OW 2470   3.014   0.579   5.426
  524SOL    HW1 2471   3.062   0.591   5.339
  524SOL    HW2 2472   2.945   0.650   5.437
  525SOL     OW 2473   2.521   3.531   0.079
  525SOL    HW1 2474   2.541   3.461   0.011
  525SOL    HW2 2475   2.602   3.589   0.092
  526SOL     OW 2476   3.335   5.724   4.721
  526SOL    HW1 2477   3.266   5.659   4.689
  526SOL    HW2 2478   3.396   5.678   4.786
  527SOL     OW 2479   0.463   1.407   6.605
  527SOL    HW1 2480   0.543   1.348   6.600
  527SOL    HW2 2481   0.482   1.492   6.555
  528SOL     OW 2482   2.730   0.236   5.164
  528SOL    HW1 2483   2.708   0.219   5.068
  528SOL    HW2 2484   2.717   0.152   5.216
  529SOL     OW 2485   0.096   4.985   3.629
  529SOL    HW1 2486   0.098   4.967   3.728
  529SOL    HW2 2487   0.157   4.920   3.583
  530SOL     OW 2488   2.244   3.081   5.332
  530SOL    HW1 2489   2.223   3.023   5.411
  530SOL    HW2 2490   2.336   3.059   5.299
  531SOL     OW 2491   0.378   0.450   1.091
  531SOL    HW1 2492   0.292   0.447   1.041
  531SOL    HW2 2493   0.400   0.358   1.125
  532SOL     OW 2494   1.586   0.991   5.575
  532SOL    HW1 2495   1.537   1.062   5.627
  532SOL    HW2 2496   1.677   1.025   5.552
  533SOL     OW 2497   5.305   0.447   4.349
  533SOL    HW1 2498   5.379   0.477   4.288
  533SOL    HW2 2499   5.280   0.522   4.410
  534SOL     OW 2500   4.121   5.613   2.361
  534SOL    HW1 2501   4.202   5.560   2.333
  534SOL    HW2 2502   4.141   5.710   2.354
  535SOL     OW 2503   6.939   3.518   3.567
  535SOL    HW1 2504   6.854   3.485   3.525
  535SOL    HW2 2505   7.008   3.446   3.563
  536SOL     OW 2506   1.454   5.576   1.114
  536SOL    HW1 2507   1.374   5.636   1.114
  536SOL    HW2 2508   1.424   5.481   1.103
  537SOL     OW 2509   2.121   0.143   2.598
  537SOL    HW1 2510   2.212   0.180   2.616
  537SOL    HW2 2511   2.090   0.089   2.676
  538SOL     OW 2512   0.874   5.514   3.495
  538SOL    HW1 2513   0.876   5.559   3.406
  538SOL    HW2 2514   0.872   5.415   3.482
  539SOL     OW 2515   1.711   4.662   1.787
  539SOL    HW1 2516   1.800   4.693   1.822
  539SOL    HW2 2517   1.641   4.677   1.857
  540SOL     OW 2518   0.694   1.958   2.204
  540SOL    HW1 2519   0.665   1.930   2.295
  540SOL    HW2 2520   0.715   1.877   2.150
  541SOL     OW 2521   3.130   5.649   5.831
  541SOL    HW1 2522   3.043   5.614   5.867
  541SOL    HW2 2523   3.149   5.607   5.742
  542SOL     OW 2524   5.906   5.477   6.621
  542SOL    HW1 2525   5.831   5.530   6.581
  542SOL    HW2 2526   5.874   5.384   6.640
  543SOL     OW 2527   0.485   5.689   0.053
  543SOL    HW1 2528   0.438   5.765   0.008
  543SOL    HW2 2529   0.517   5.718   0.143
  544SOL     OW 2530   1.484   5.163   0.709
  544SOL    HW1 2531   1.411   5.106   0.671
  544SOL    HW2 2532   1.516   5.227   0.639
  545SOL     OW 2533   3.957   1.734   3.322
  545SOL    HW1 2534   4.036   1.792   3.301
  545SOL    HW2 2535   3.899   1.727   3.241
  546SOL     OW 2536   1.121   3.824   0.404
  546SOL    HW1 2537   1.123   3.922   0.383
  546SOL    HW2 2538   1.210   3.784   0.384
  547SOL     OW 2539   2.836   2.847   0.244
  547SOL    HW1 2540   2.885   2.869   0.160
  547SOL    HW2 2541   2.802   2.931   0.287
  548SOL     OW 2542   3.938   3.118   3.680
  548SOL    HW1 2543   3.890   3.202   3.705
  548SOL    HW2 2544   3.880   3.039   3.700
  549SOL     OW 2545   6.472   3.173   1.232
  549SOL    HW1 2546   6.509   3.257   1.270
  549SOL    HW2 2547   6.375   3.165   1.254
  550SOL     OW 2548   0.630   4.174   1.875
  550SOL    HW1 2549   0.719   4.148   1.914
  550SOL    HW2 2550   0.581   4.092   1.846
  551SOL     OW 2551   6.822   2.223   0.320
  551SOL    HW1 2552   6.773   2.190   0.239
  551SOL    HW2 2553   6.816   2.154   0.392
  552SOL     OW 2554   4.062   6.001   0.486
  552SOL    HW1 2555   4.043   6.036   0.578
  552SOL    HW2 2556   3.975   5.980   0.440
  553SOL     OW 2557   1.752   2.122   1.846
  553SOL    HW1 2558   1.729   2.117   1.943
  553SOL    HW2 2559   1.840   2.169   1.835
  554SOL     OW 2560   5.433   5.984   4.977
  554SOL    HW1 2561   5.418   5.994   4.879
  554SOL    HW2 2562   5.531   5.990   4.996
  555SOL     OW 2563   1.492   4.085   4.884
  555SOL    HW1 2564   1.558   4.069   4.811
  555SOL    HW2 2565   1.539   4.092   4.971
  556SOL     OW 2566   4.963   3.435   3.681
  556SOL    HW1 2567   5.029   3.466   3.613
  556SOL    HW2 2568   4.913   3.356   3.647
  557SOL     OW 2569   0.034   6.486   6.266
  557SOL    HW1 2570   0.095   6.408   6.255
  557SOL    HW2 2571   0.026   6.509   6.363
  558SOL     OW 2572   3.886   4.076   5.023
  558SOL    HW1 2573   3.954   4.138   4.983
  558SOL    HW2 2574   3.867   4.103   5.117
  559SOL     OW 2575   6.515   5.772   6.531
  559SOL    HW1 2576   6.519   5.767   6.631
  559SOL    HW2 2577   6.437   5.719   6.498
  560SOL     OW 2578   3.995   6.803   0.029
  560SOL    HW1 2579   4.074   6.791   0.088
  560SOL    HW2 2580   4.023   6.796   6.953
  561SOL     OW 2581   5.553   6.654   1.112
  561SOL    HW1 2582   5.510   6.587   1.051
  561SOL    HW2 2583   5.533   6.630   1.207
  562SOL     OW 2584   6.212   1.707   6.028
  562SOL    HW1 2585   6.144   1.707   6.102
  562SOL    HW2 2586   6.303   1.719   6.068
  563SOL     OW 2587   3.231   5.927   3.943
  563SOL    HW1 2588   3.174   5.845   3.953
  563SOL    HW2 2589   3.299   5.930   4.016
  564SOL     OW 2590   0.798   1.134   6.400
  564SOL    HW1 2591   0.797   1.141   6.300
  564SOL    HW2 2592   0.848   1.052   6.427
  565SOL     OW 2593   4.802   4.136   4.895
  565SOL    HW1 2594   4.742   4.164   4.970
  565SOL    HW2 2595   4.880   4.198   4.890
  566SOL     OW 2596   5.201   5.008   3.102
  566SOL    HW1 2597   5.199   5.020   3.201
  566SOL    HW2 2598   5.122   5.055   3.062
  567SOL     OW 2599   4.022   3.194   4.575
  567SOL    HW1 2600   4.061   3.212   4.485
  567SOL    HW2 2601   4.020   3.095   4.591
  568SOL     OW 2602   2.044   1.664   6.970
  568SOL    HW1 2603   2.073   1.574   7.001
  568SOL    HW2 2604   2.101   1.735   7.013
  569SOL     OW 2605   2.739   3.085   0.354
  569SOL    HW1 2606   2.719   3.109   0.449
  569SOL    HW2 2607   2.685   3.142   0.293
  570SOL     OW 2608   6.809   6.045   1.068
  570SOL    HW1 2609   6.781   6.141   1.076
  570SOL    HW2 2610   6.836   6.010   1.158
  571SOL     OW 2611   4.206   5.371   3.308
  571SOL    HW1 2612   4.198   5.469   3.327
  571SOL    HW2 2613   4.298   5.340   3.331
  572SOL     OW 2614   1.742   3.893   5.146
  572SOL    HW1 2615   1.674   3.820   5.143
  572SOL    HW2 2616   1.825   3.860   5.190
  573SOL     OW 2617   3.931   2.035   6.133
  573SOL    HW1 2618   3.857   2.066   6.193
  573SOL    HW2 2619   4.011   2.093   6.147
  574SOL     OW 2620   2.474   1.737   4.043
  574SOL    HW1 2621   2.438   1.704   4.131
  574SOL    HW2 2622   2.426   1.691   3.968
  575SOL     OW 2623   5.599   2.618   6.694
  575SOL    HW1 2624   5.595   2.596   6.792
  575SOL    HW2 2625   5.506   2.630   6.659
  576SOL     OW 2626   0.052   1.844   2.547
  576SOL    HW1 2627   0.072   1.942   2.546
  576SOL    HW2 2628   6.983   1.827   2.503
  577SOL     OW 2629   3.063   1.978   3.501
  577SOL    HW1 2630   3.012   2.053   3.544
  577SOL    HW2 2631   3.087   2.004   3.407
  578SOL     OW 2632   0.171   3.627   3.979
  578SOL    HW1 2633   0.270   3.630   3.967
  578SOL    HW2 2634   0.129   3.702   3.928
  579SOL     OW 2635   4.333   3.356   0.164
  579SOL    HW1 2636   4.414   3.314   0.123
  579SOL    HW2 2637   4.328   3.331   0.261
  580SOL     OW 2638   0.695   5.799   0.201
  580SOL    HW1 2639   0.677   5.883   0.149
  580SOL    HW2 2640   0.670   5.814   0.297
  581SOL     OW 2641   3.757   3.614   2.780
  581SOL    HW1 2642   3.720   3.669   2.706
  581SOL    HW2 2643   3.846   3.650   2.808
  582SOL     OW 2644   6.320   3.914   2.082
  582SOL    HW1 2645   6.243   3.920   2.018
  582SOL    HW2 2646   6.318   3.994   2.143
  583SOL     OW 2647   1.653   5.068   7.000
  583SOL    HW1 2648   1.634   5.071   6.902
  583SOL    HW2 2649   1.688   5.156   0.011
  584SOL     OW 2650   0.362   5.386   4.264
  584SOL    HW1 2651   0.284   5.438   4.300
  584SOL    HW2 2652   0.376   5.410   4.168
  585SOL     OW 2653   0.008   1.514   6.689
  585SOL    HW1 2654   7.012   1.416   6.676
  585SOL    HW2 2655   7.008   1.539   6.783
  586SOL     OW 2656   2.673   6.122   0.558
  586SOL    HW1 2657   2.753   6.170   0.522
  586SOL    HW2 2658   2.678   6.118   0.658
  587SOL     OW 2659   1.199   3.196   5.166
  587SOL    HW1 2660   1.231   3.201   5.071
  587SOL    HW2 2661   1.200   3.288   5.206
  588SOL     OW 2662   3.141   6.904   1.362
  588SOL    HW1 2663   3.089   6.832   1.315
  588SOL    HW2 2664   3.127   6.991   1.315
  589SOL     OW 2665   4.605   5.411   2.460
  589SOL    HW1 2666   4.674   5.455   2.518
  589SOL    HW2 2667   4.595   5.315   2.486
  590SOL     OW 2668   6.915   2.420   1.981
  590SOL    HW1 2669   6.881   2.486   2.048
  590SOL    HW2 2670   6.979   2.357   2.027
  591SOL     OW 2671   3.471   0.058   3.009
  591SOL    HW1 2672   3.520   0.122   3.068
  591SOL    HW2 2673   3.535   7.011   2.972
  592SOL     OW 2674   5.315   0.802   6.682
  592SOL    HW1 2675   5.265   0.881   6.719
  592SOL    HW2 2676   5.410   0.829   6.663
  593SOL     OW 2677   5.950   1.865   3.881
  593SOL    HW1 2678   5.991   1.928   3.815
  593SOL    HW2 2679   5.887   1.803   3.834
  594SOL     OW 2680   4.877   2.627   1.554
  594SOL    HW1 2681   4.874   2.659   1.649
  594SOL    HW2 2682   4.913   2.701   1.496
  595SOL     OW 2683   3.498   6.359   3.861
  595SOL    HW1 2684   3.515   6.260   3.859
  595SOL    HW2 2685   3.545   6.402   3.784
  596SOL     OW 2686   1.123   4.634   2.638
  596SOL    HW1 2687   1.090   4.545   2.608
  596SOL    HW2 2688   1.154   4.687   2.559
  597SOL     OW 2689   3.862   1.834   5.493
  597SOL    HW1 2690   3.887   1.739   5.473
  597SOL    HW2 2691   3.770   1.851   5.460
  598SOL     OW 2692   3.281   4.193   0.947
  598SOL    HW1 2693   3.224   4.244   0.883
  598SOL    HW2 2694   3.225   4.125   0.994
  599SOL     OW 2695   6.398   6.324   2.562
  599SOL    HW1 2696   6.417   6.226   2.571
  599SOL    HW2 2697   6.462   6.363   2.496
  600SOL     OW 2698   2.462   0.866   0.810
  600SOL    HW1 2699   2.477   0.960   0.777
  600SOL    HW2 2700   2.525   0.804   0.763
  601SOL     OW 2701   2.754   4.939   2.885
  601SOL    HW1 2702   2.796   4.977   2.803
  601SOL    HW2 2703   2.713   5.013   2.938
  602SOL     OW 2704   1.067   0.715   1.384
  602SOL    HW1 2705   1.164   0.703   1.402
  602SOL    HW2 2706   1.050   0.707   1.286
  603SOL     OW 2707   3.897   1.916   3.540
  603SOL    HW1 2708   3.811   1.968   3.535
  603SOL    HW2 2709   3.920   1.880   3.450
  604SOL     OW 2710   0.561   4.049   5.410
  604SOL    HW1 2711   0.536   4.100   5.493
  604SOL    HW2 2712   0.486   4.053   5.344
  605SOL     OW 2713   5.637   0.562   4.411
  605SOL    HW1 2714   5.696   0.482   4.416
  605SOL    HW2 2715   5.600   0.571   4.319
  606SOL     OW 2716   3.615   0.252   3.123
  606SOL    HW1 2717   3.714   0.238   3.119
  606SOL    HW2 2718   3.595   0.348   3.144
  607SOL     OW 2719   4.933   1.049   3.716
  607SOL    HW1 2720   4.944   1.119   3.786
  607SOL    HW2 2721   4.947   0.958   3.757
  608SOL     OW 2722   5.018   1.692   1.190
  608SOL    HW1 2723   4.971   1.702   1.102
  608SOL    HW2 2724   4.953   1.661   1.259
  609SOL     OW 2725   2.902   3.709   4.354
  609SOL    HW1 2726   2.862   3.640   4.293
  609SOL    HW2 2727   2.852   3.711   4.440
  610SOL     OW 2728   5.310   2.201   4.716
  610SOL    HW1 2729   5.335   2.182   4.621
  610SOL    HW2 2730   5.211   2.215   4.722
  611SOL     OW 2731   6.941   0.383   0.907
  611SOL    HW1 2732   6.910   0.453   0.971
  611SOL    HW2 2733   6.903   0.294   0.934
  612SOL     OW 2734   3.482   5.684   5.448
  612SOL    HW1 2735   3.431   5.603   5.420
  612SOL    HW2 2736   3.419   5.759   5.467
  613SOL     OW 2737   3.675   2.348   6.675
  613SOL    HW1 2738   3.586   2.393   6.670
  613SOL    HW2 2739   3.719   2.371   6.762
  614SOL     OW 2740   4.848   4.355   0.965
  614SOL    HW1 2741   4.876   4.345   0.870
  614SOL    HW2 2742   4.845   4.266   1.009
  615SOL     OW 2743   6.014   6.273   1.211
  615SOL    HW1 2744   5.956   6.321   1.145
  615SOL    HW2 2745   5.973   6.185   1.233
  616SOL     OW 2746   5.891   0.825   4.806
  616SOL    HW1 2747   5.947   0.897   4.765
  616SOL    HW2 2748   5.806   0.815   4.755
  617SOL     OW 2749   0.076   5.374   5.801
  617SOL    HW1 2750   0.073   5.463   5.848
  617SOL    HW2 2751   0.116   5.305   5.861
  618SOL     OW 2752   6.522   3.740   0.641
  618SOL    HW1 2753   6.571   3.677   0.700
  618SOL    HW2 2754   6.426   3.744   0.670
  619SOL     OW 2755   3.012   0.197   6.241
  619SOL    HW1 2756   2.988   0.150   6.156
  619SOL    HW2 2757   2.931   0.242   6.278
  620SOL     OW 2758   5.996   1.742   2.435
  620SOL    HW1 2759   6.005   1.660   2.378
  620SOL    HW2 2760   6.062   1.738   2.510
  621SOL     OW 2761   3.115   0.826   6.532
  621SOL    HW1 2762   3.110   0.925   6.521
  621SOL    HW2 2763   3.068   0.799   6.616
  622SOL     OW 2764   1.132   2.106   5.231
  622SOL    HW1 2765   1.037   2.079   5.214
  622SOL    HW2 2766   1.189   2.077   5.155
  623SOL     OW 2767   5.759   0.558   4.077
  623SOL    HW1 2768   5.847   0.530   4.115
  623SOL    HW2 2769   5.736   0.650   4.110
  624SOL     OW 2770   6.716   0.376   6.640
  624SOL    HW1 2771   6.678   0.453   6.692
  624SOL    HW2 2772   6.642   0.317   6.609
  625SOL     OW 2773   2.824   1.826   0.475
  625SOL    HW1 2774   2.779   1.828   0.564
  625SOL    HW2 2775   2.849   1.919   0.448
  626SOL     OW 2776   0.023   6.041   3.947
  626SOL    HW1 2777   6.970   6.102   3.978
  626SOL    HW2 2778   0.112   6.081   3.969
  627SOL     OW 2779   6.384   0.358   0.194
  627SOL    HW1 2780   6.467   0.374   0.246
  627SOL    HW2 2781   6.304   0.371   0.253
  628SOL     OW 2782   4.285   4.711   5.966
  628SOL    HW1 2783   4.368   4.765   5.951
  628SOL    HW2 2784   4.308   4.629   6.020
  629SOL     OW 2785   1.256   6.989   6.705
  629SOL    HW1 2786   1.242   6.979   6.606
  629SOL    HW2 2787   1.172   6.962   6.753
  630SOL     OW 2788   6.324   1.407   1.355
  630SOL    HW1 2789   6.235   1.365   1.340
  630SOL    HW2 2790   6.342   1.474   1.284
  631SOL     OW 2791   1.731   2.472   4.100
  631SOL    HW1 2792   1.700   2.555   4.053
  631SOL    HW2 2793   1.708   2.392   4.044
  632SOL     OW 2794   3.231   3.794   6.969
  632SOL    HW1 2795   3.188   3.755   6.888
  632SOL    HW2 2796   3.167   3.859   7.013
  633SOL     OW 2797   1.537   6.029   1.028
  633SOL    HW1 2798   1.477   6.093   0.980
  633SOL    HW2 2799   1.484   5.978   1.096
  634SOL     OW 2800   2.879   3.432   4.556
  634SOL    HW1 2801   2.946   3.372   4.600
  634SOL    HW2 2802   2.882   3.522   4.599
  635SOL     OW 2803   5.583   0.160   6.802
  635SOL    HW1 2804   5.659   0.224   6.786
  635SOL    HW2 2805   5.501   0.194   6.757
  636SOL     OW 2806   2.932   0.393   5.632
  636SOL    HW1 2807   2.977   0.443   5.558
  636SOL    HW2 2808   2.979   0.412   5.719
  637SOL     OW 2809   6.656   0.486   2.742
  637SOL    HW1 2810   6.642   0.536   2.657
  637SOL    HW2 2811   6.721   0.412   2.727
  638SOL     OW 2812   6.772   3.300   4.711
  638SOL    HW1 2813   6.700   3.266   4.651
  638SOL    HW2 2814   6.860   3.296   4.664
  639SOL     OW 2815   5.756   4.253   2.328
  639SOL    HW1 2816   5.786   4.251   2.423
  639SOL    HW2 2817   5.662   4.287   2.324
  640SOL     OW 2818   0.385   2.530   2.143
  640SOL    HW1 2819   0.406   2.534   2.046
  640SOL    HW2 2820   0.449   2.589   2.193
  641SOL     OW 2821   2.444   4.964   4.201
  641SOL    HW1 2822   2.364   4.903   4.197
  641SOL    HW2 2823   2.502   4.939   4.278
  642SOL     OW 2824   1.011   3.965   4.776
  642SOL    HW1 2825   0.918   3.976   4.742
  642SOL    HW2 2826   1.072   4.028   4.729
  643SOL     OW 2827   4.886   5.243   0.718
  643SOL    HW1 2828   4.916   5.249   0.814
  643SOL    HW2 2829   4.819   5.315   0.700
  644SOL     OW 2830   6.915   6.875   5.471
  644SOL    HW1 2831   6.885   6.893   5.565
  644SOL    HW2 2832   6.949   6.960   5.431
  645SOL     OW 2833   3.938   5.149   1.967
  645SOL    HW1 2834   3.962   5.195   2.052
  645SOL    HW2 2835   4.022   5.131   1.914
  646SOL     OW 2836   3.906   2.159   4.309
  646SOL    HW1 2837   3.870   2.146   4.401
  646SOL    HW2 2838   3.921   2.256   4.291
  647SOL     OW 2839   3.827   2.728   6.159
  647SOL    HW1 2840   3.828   2.827   6.148
  647SOL    HW2 2841   3.887   2.686   6.091
  648SOL     OW 2842   6.255   1.247   2.902
  648SOL    HW1 2843   6.233   1.189   2.824
  648SOL    HW2 2844   6.248   1.195   2.987
  649SOL     OW 2845   2.442   5.345   1.125
  649SOL    HW1 2846   2.472   5.310   1.214
  649SOL    HW2 2847   2.348   5.316   1.108
  650SOL     OW 2848   0.231   3.960   0.569
  650SOL    HW1 2849   0.212   3.901   0.490
  650SOL    HW2 2850   0.287   3.910   0.635
  651SOL     OW 2851   1.334   0.640   4.306
  651SOL    HW1 2852   1.395   0.587   4.365
  651SOL    HW2 2853   1.244   0.598   4.305
  652SOL     OW 2854   3.634   6.425   1.767
  652SOL    HW1 2855   3.620   6.432   1.866
  652SOL    HW2 2856   3.732   6.428   1.748
  653SOL     OW 2857   1.012   0.039   2.290
  653SOL    HW1 2858   1.005   0.136   2.263
  653SOL    HW2 2859   1.103   0.022   2.327
  654SOL     OW 2860   0.801   0.005   5.572
  654SOL    HW1 2861   0.875   6.959   5.557
  654SOL    HW2 2862   0.754   0.024   5.486
  655SOL     OW 2863   0.269   4.251   1.755
  655SOL    HW1 2864   0.233   4.162   1.782
  655SOL    HW2 2865   0.228   4.278   1.668
  656SOL     OW 2866   3.698   6.571   0.416
  656SOL    HW1 2867   3.747   6.635   0.356
  656SOL    HW2 2868   3.763   6.506   0.455
  657SOL     OW 2869   3.732   3.714   3.106
  657SOL    HW1 2870   3.680   3.731   3.190
  657SOL    HW2 2871   3.823   3.754   3.114
  658SOL     OW 2872   1.830   1.278   4.719
  658SOL    HW1 2873   1.857   1.373   4.710
  658SOL    HW2 2874   1.784   1.264   4.807
  659SOL     OW 2875   1.623   5.855   6.306
  659SOL    HW1 2876   1.678   5.781   6.344
  659SOL    HW2 2877   1.661   5.883   6.218
  660SOL     OW 2878   4.718   4.826   2.878
  660SOL    HW1 2879   4.626   4.794   2.854
  660SOL    HW2 2880   4.746   4.786   2.965
  661SOL     OW 2881   4.599   4.424   4.060
  661SOL    HW1 2882   4.519   4.481   4.079
  661SOL    HW2 2883   4.658   4.420   4.141
  662SOL     OW 2884   5.134   3.287   6.676
  662SOL    HW1 2885   5.097   3.207   6.723
  662SOL    HW2 2886   5.088   3.299   6.589
  663SOL     OW 2887   6.641   4.179   6.966
  663SOL    HW1 2888   6.727   4.162   7.015
  663SOL    HW2 2889   6.623   4.278   6.963
  664SOL     OW 2890   1.625   6.979   6.522
  664SOL    HW1 2891   1.719   6.973   6.488
  664SOL    HW2 2892   1.600   0.056   6.533
  665SOL     OW 2893   3.464   4.944   1.663
  665SOL    HW1 2894   3.408   5.013   1.709
  665SOL    HW2 2895   3.414   4.858   1.658
  666SOL     OW 2896   2.828   0.779   0.460
  666SOL    HW1 2897   2.816   0.842   0.384
  666SOL    HW2 2898   2.765   0.702   0.450
  667SOL     OW 2899   1.130   3.349   3.015
  667SOL    HW1 2900   1.082   3.338   2.928
  667SOL    HW2 2901   1.180   3.436   3.015
  668SOL     OW 2902   5.184   6.976   0.630
  668SOL    HW1 2903   5.085   6.976   0.642
  668SOL    HW2 2904   5.228   6.997   0.717
  669SOL     OW 2905   1.852   6.207   2.527
  669SOL    HW1 2906   1.926   6.140   2.530
  669SOL    HW2 2907   1.797   6.200   2.610
  670SOL     OW 2908   3.233   2.954   3.460
  670SOL    HW1 2909   3.295   2.877   3.451
  670SOL    HW2 2910   3.184   2.969   3.374
  671SOL     OW 2911   1.230   6.969   6.440
  671SOL    HW1 2912   1.286   6.889   6.421
  671SOL    HW2 2913   1.273   0.030   6.399
  672SOL     OW 2914   1.798   1.811   3.990
  672SOL    HW1 2915   1.739   1.755   3.931
  672SOL    HW2 2916   1.892   1.809   3.954
  673SOL     OW 2917   5.101   6.458   0.567
  673SOL    HW1 2918   5.156   6.541   0.572
  673SOL    HW2 2919   5.075   6.441   0.472
  674SOL     OW 2920   6.802   1.910   3.595
  674SOL    HW1 2921   6.898   1.887   3.607
  674SOL    HW2 2922   6.773   1.884   3.503
  675SOL     OW 2923   5.773   0.991   4.452
  675SOL    HW1 2924   5.776   0.985   4.352
  675SOL    HW2 2925   5.700   0.931   4.486
  676SOL     OW 2926   2.186   4.475   4.212
  676SOL    HW1 2927   2.108   4.450   4.269
  676SOL    HW2 2928   2.263   4.416   4.234
  677SOL     OW 2929   5.256   7.017   1.133
  677SOL    HW1 2930   5.292   0.049   1.210
  677SOL    HW2 2931   5.205   6.938   1.166
  678SOL     OW 2932   2.359   1.064   6.152
  678SOL    HW1 2933   2.266   1.053   6.189
  678SOL    HW2 2934   2.355   1.113   6.065
  679SOL     OW 2935   5.974   6.730   2.363
  679SOL    HW1 2936   6.041   6.666   2.401
  679SOL    HW2 2937   6.016   6.779   2.286
  680SOL     OW 2938   5.236   4.188   5.025
  680SOL    HW1 2939   5.267   4.220   5.115
  680SOL    HW2 2940   5.279   4.100   5.005
  681SOL     OW 2941   1.544   6.793   2.013
  681SOL    HW1 2942   1.582   6.701   2.026
  681SOL    HW2 2943   1.588   6.837   1.935
  682SOL     OW 2944   1.276   6.629   6.769
  682SOL    HW1 2945   1.215   6.651   6.693
  682SOL    HW2 2946   1.364   6.599   6.732
  683SOL     OW 2947   5.345   1.979   0.184
  683SOL    HW1 2948   5.305   2.067   0.209
  683SOL    HW2 2949   5.356   1.923   0.267
  684SOL     OW 2950   6.949   6.130   6.278
  684SOL    HW1 2951   6.871   6.140   6.216
  684SOL    HW2 2952   6.916   6.116   6.371
  685SOL     OW 2953   5.658   0.907   5.959
  685SOL    HW1 2954   5.716   0.958   5.895
  685SOL    HW2 2955   5.696   0.915   6.051
  686SOL     OW 2956   5.567   4.721   3.164
  686SOL    HW1 2957   5.555   4.622   3.165
  686SOL    HW2 2958   5.557   4.755   3.071
  687SOL     OW 2959   5.819   2.499   5.367
  687SOL    HW1 2960   5.794   2.435   5.440
  687SOL    HW2 2961   5.765   2.582   5.374
  688SOL     OW 2962   0.474   3.448   4.458
  688SOL    HW1 2963   0.545   3.510   4.425
  688SOL    HW2 2964   0.454   3.470   4.554
  689SOL     OW 2965   6.173   4.441   5.559
  689SOL    HW1 2966   6.260   4.475   5.523
  689SOL    HW2 2967   6.177   4.437   5.658
  690SOL     OW 2968   0.316   3.055   3.724
  690SOL    HW1 2969   0.380   2.978   3.721
  690SOL    HW2 2970   0.355   3.129   3.779
  691SOL     OW 2971   0.287   3.009   6.714
  691SOL    HW1 2972   0.332   3.076   6.774
  691SOL    HW2 2973   0.289   2.919   6.757
  692SOL     OW 2974   1.845   0.117   3.346
  692SOL    HW1 2975   1.764   0.124   3.404
  692SOL    HW2 2976   1.899   0.201   3.354
  693SOL     OW 2977   6.602   0.887   2.414
  693SOL    HW1 2978   6.648   0.973   2.393
  693SOL    HW2 2979   6.668   0.821   2.448
  694SOL     OW 2980   1.367   0.378   2.212
  694SOL    HW1 2981   1.274   0.381   2.175
  694SOL    HW2 2982   1.374   0.439   2.291
  695SOL     OW 2983   4.140   5.386   6.315
  695SOL    HW1 2984   4.050   5.417   6.286
  695SOL    HW2 2985   4.137   5.288   6.335
  696SOL     OW 2986   4.483   5.648   2.464
  696SOL    HW1 2987   4.493   5.699   2.379
  696SOL    HW2 2988   4.522   5.556   2.454
  697SOL     OW 2989   1.535   3.693   3.884
  697SOL    HW1 2990   1.504   3.648   3.968
  697SOL    HW2 2991   1.467   3.759   3.853
  698SOL     OW 2992   4.106   6.786   3.557
  698SOL    HW1 2993   4.191   6.753   3.599
  698SOL    HW2 2994   4.040   6.710   3.551
  699SOL     OW 2995   1.853   4.783   0.286
  699SOL    HW1 2996   1.844   4.803   0.188
  699SOL    HW2 2997   1.941   4.740   0.303
  700SOL     OW 2998   2.162   1.664   3.647
  700SOL    HW1 2999   2.081   1.637   3.595
  700SOL    HW2 3000   2.225   1.712   3.586
  701SOL     OW 3001   0.735   4.684   5.799
  701SOL    HW1 3002   0.777   4.735   5.874
  701SOL    HW2 3003   0.804   4.624   5.757
  702SOL     OW 3004   5.395   5.485   4.843
  702SOL    HW1 3005   5.465   5.514   4.908
  702SOL    HW2 3006   5.367   5.391   4.863
  703SOL     OW 3007   4.470   4.301   0.292
  703SOL    HW1 3008   4.514   4.285   0.204
  703SOL    HW2 3009   4.517   4.247   0.362
  704SOL     OW 3010   2.532   0.315   1.063
  704SOL    HW1 3011   2.475   0.392   1.036
  704SOL    HW2 3012   2.478   0.231   1.064
  705SOL     OW 3013   6.583   2.228   3.405
  705SOL    HW1 3014   6.484   2.235   3.392
  705SOL    HW2 3015   6.624   2.180   3.327
  706SOL     OW 3016   4.648   1.919   3.953
  706SOL    HW1 3017   4.675   1.970   4.035
  706SOL    HW2 3018   4.715   1.935   3.881
  707SOL     OW 3019   5.437   1.958   1.174
  707SOL    HW1 3020   5.381   1.876   1.180
  707SOL    HW2 3021   5.527   1.940   1.213
  708SOL     OW 3022   4.200   0.716   1.748
  708SOL    HW1 3023   4.198   0.633   1.804
  708SOL    HW2 3024   4.111   0.762   1.752
  709SOL     OW 3025   1.033   5.328   6.882
  709SOL    HW1 3026   1.078   5.275   6.810
  709SOL    HW2 3027   1.041   5.426   6.861
  710SOL     OW 3028   3.055   3.688   2.489
  710SOL    HW1 3029   3.021   3.735   2.407
  710SOL    HW2 3030   3.144   3.725   2.514
  711SOL     OW 3031   0.924   6.990   4.004
  711SOL    HW1 3032   0.922   6.904   3.954
  711SOL    HW2 3033   0.970   0.040   3.949
  712SOL     OW 3034   1.559   4.114   1.555
  712SOL    HW1 3035   1.587   4.057   1.632
  712SOL    HW2 3036   1.628   4.109   1.483
  713SOL     OW 3037   4.024   3.307   3.306
  713SOL    HW1 3038   4.026   3.223   3.359
  713SOL    HW2 3039   4.007   3.285   3.210
  714SOL     OW 3040   4.892   5.068   5.650
  714SOL    HW1 3041   4.799   5.088   5.619
  714SOL    HW2 3042   4.944   5.154   5.655
  715SOL     OW 3043   4.361   0.607   6.313
  715SOL    HW1 3044   4.356   0.706   6.298
  715SOL    HW2 3045   4.442   0.571   6.266
  716SOL     OW 3046   6.764   4.911   2.028
  716SOL    HW1 3047   6.851   4.957   2.041
  716SOL    HW2 3048   6.691   4.980   2.022
  717SOL     OW 3049   6.331   2.894   0.210
  717SOL    HW1 3050   6.422   2.936   0.201
  717SOL    HW2 3051   6.327   2.841   0.295
  718SOL     OW 3052   3.386   3.596   6.257
  718SOL    HW1 3053   3.339   3.540   6.326
  718SOL    HW2 3054   3.467   3.547   6.224
  719SOL     OW 3055   5.384   4.867   6.968
  719SOL    HW1 3056   5.328   4.948   6.983
  719SOL    HW2 3057   5.478   4.885   6.999
  720SOL     OW 3058   2.142   0.139   6.440
  720SOL    HW1 3059   2.096   0.088   6.512
  720SOL    HW2 3060   2.241   0.140   6.458
  721SOL     OW 3061   1.157   6.352   5.850
  721SOL    HW1 3062   1.242   6.313   5.814
  721SOL    HW2 3063   1.147   6.446   5.815
  722SOL     OW 3064   4.964   0.272   6.073
  722SOL    HW1 3065   4.913   0.347   6.031
  722SOL    HW2 3066   4.981   0.201   6.005
  723SOL     OW 3067   1.756   3.163   2.554
  723SOL    HW1 3068   1.771   3.261   2.567
  723SOL    HW2 3069   1.764   3.141   2.457
  724SOL     OW 3070   0.047   0.613   4.723
  724SOL    HW1 3071   6.991   0.658   4.675
  724SOL    HW2 3072   0.134   0.643   4.684
  725SOL     OW 3073   2.162   5.342   0.912
  725SOL    HW1 3074   2.082   5.291   0.943
  725SOL    HW2 3075   2.143   5.440   0.920
  726SOL     OW 3076   4.473   0.182   6.154
  726SOL    HW1 3077   4.543   0.181   6.226
  726SOL    HW2 3078   4.504   0.127   6.077
  727SOL     OW 3079   2.541   4.670   4.219
  727SOL    HW1 3080   2.578   4.751   4.264
  727SOL    HW2 3081   2.446   4.685   4.194
  728SOL     OW 3082   6.775   3.393   4.979
  728SOL    HW1 3083   6.788   3.323   5.049
  728SOL    HW2 3084   6.792   3.353   4.889
  729SOL     OW 3085   2.798   0.298   0.899
  729SOL    HW1 3086   2.865   0.231   0.867
  729SOL    HW2 3087   2.762   0.269   0.988
  730SOL     OW 3088   6.312   6.982   4.830
  730SOL    HW1 3089   6.374   0.039   4.813
  730SOL    HW2 3090   6.252   7.003   4.907
  731SOL     OW 3091   5.883   3.245   3.476
  731SOL    HW1 3092   5.866   3.172   3.542
  731SOL    HW2 3093   5.979   3.241   3.447
  732SOL     OW 3094   6.783   2.932   2.463
  732SOL    HW1 3095   6.777   3.006   2.395
  732SOL    HW2 3096   6.863   2.946   2.521
  733SOL     OW 3097   4.446   4.588   3.509
  733SOL    HW1 3098   4.506   4.668   3.510
  733SOL    HW2 3099   4.455   4.538   3.595
  734SOL     OW 3100   6.924   4.876   0.957
  734SOL    HW1 3101   6.989   4.819   0.906
  734SOL    HW2 3102   6.854   4.819   0.999
  735SOL     OW 3103   1.287   4.533   6.281
  735SOL    HW1 3104   1.248   4.502   6.194
  735SOL    HW2 3105   1.387   4.536   6.274
  736SOL     OW 3106   6.123   1.459   3.027
  736SOL    HW1 3107   6.184   1.384   3.004
  736SOL    HW2 3108   6.110   1.462   3.126
  737SOL     OW 3109   5.630   3.408   0.399
  737SOL    HW1 3110   5.665   3.371   0.485
  737SOL    HW2 3111   5.703   3.411   0.331
  738SOL     OW 3112   0.520   4.423   3.479
  738SOL    HW1 3113   0.477   4.344   3.435
  738SOL    HW2 3114   0.575   4.391   3.557
  739SOL     OW 3115   4.855   5.712   6.632
  739SOL    HW1 3116   4.826   5.801   6.596
  739SOL    HW2 3117   4.774   5.661   6.662
  740SOL     OW 3118   5.817   6.708   1.136
  740SOL    HW1 3119   5.838   6.783   1.072
  740SOL    HW2 3120   5.724   6.675   1.120
  741SOL     OW 3121   2.613   1.449   3.394
  741SOL    HW1 3122   2.626   1.367   3.450
  741SOL    HW2 3123   2.672   1.445   3.314
  742SOL     OW 3124   1.191   0.735   2.900
  742SOL    HW1 3125   1.284   0.703   2.918
  742SOL    HW2 3126   1.137   0.662   2.860
  743SOL     OW 3127   1.937   3.993   4.217
  743SOL    HW1 3128   2.011   3.941   4.175
  743SOL    HW2 3129   1.848   3.955   4.188
  744SOL     OW 3130   0.500   6.258   1.085
  744SOL    HW1 3131   0.487   6.239   0.988
  744SOL    HW2 3132   0.521   6.173   1.134
  745SOL     OW 3133   1.266   6.277   2.869
  745SOL    HW1 3134   1.329   6.217   2.919
  745SOL    HW2 3135   1.183   6.291   2.922
  746SOL     OW 3136   2.492   0.687   4.432
  746SOL    HW1 3137   2.442   0.664   4.515
  746SOL    HW2 3138   2.578   0.733   4.457
  747SOL     OW 3139   5.674   4.557   2.254
  747SOL    HW1 3140   5.762   4.521   2.284
  747SOL    HW2 3141   5.612   4.564   2.332
  748SOL     OW 3142   4.275   2.893   1.541
  748SOL    HW1 3143   4.341   2.834   1.494
  748SOL    HW2 3144   4.183   2.875   1.505
  749SOL     OW 3145   6.971   1.857   5.293
  749SOL    HW1 3146   6.980   1.823   5.199
  749SOL    HW2 3147   0.025   1.820   5.349
  750SOL     OW 3148   2.204   4.164   0.531
  750SOL    HW1 3149   2.266   4.151   0.454
  750SOL    HW2 3150   2.236   4.240   0.587
  751SOL     OW 3151   4.776   0.909   0.456
  751SOL    HW1 3152   4.775   0.893   0.555
  751SOL    HW2 3153   4.824   0.994   0.437
  752SOL     OW 3154   5.158   1.641   1.844
  752SOL    HW1 3155   5.135   1.544   1.860
  752SOL    HW2 3156   5.085   1.698   1.881
  753SOL     OW 3157   2.150   2.411   3.564
  753SOL    HW1 3158   2.098   2.389   3.482
  753SOL    HW2 3159   2.105   2.485   3.614
  754SOL     OW 3160   5.082   5.504   6.923
  754SOL    HW1 3161   5.159   5.499   6.986
  754SOL    HW2 3162   5.100   5.574   6.853
  755SOL     OW 3163   0.153   6.593   1.332
  755SOL    HW1 3164   0.133   6.625   1.240
  755SOL    HW2 3165   0.208   6.662   1.379
  756SOL     OW 3166   4.075   0.609   3.530
  756SOL    HW1 3167   4.051   0.516   3.558
  756SOL    HW2 3168   3.995   0.668   3.537
  757SOL     OW 3169   0.421   0.094   4.250
  757SOL    HW1 3170   0.482   0.016   4.237
  757SOL    HW2 3171   0.376   0.086   4.339
  758SOL     OW 3172   4.339   2.294   1.085
  758SOL    HW1 3173   4.436   2.298   1.108
  758SOL    HW2 3174   4.296   2.220   1.136
  759SOL     OW 3175   1.638   1.463   0.140
  759SOL    HW1 3176   1.664   1.467   0.043
  759SOL    HW2 3177   1.720   1.472   0.196
  760SOL     OW 3178   4.573   1.466   6.063
  760SOL    HW1 3179   4.630   1.497   5.987
  760SOL    HW2 3180   4.490   1.423   6.027
  761SOL     OW 3181   6.821   2.697   6.937
  761SOL    HW1 3182   6.820   2.746   6.850
  761SOL    HW2 3183   6.819   2.599   6.920
  762SOL     OW 3184   2.298   5.558   3.485
  762SOL    HW1 3185   2.339   5.475   3.447
  762SOL    HW2 3186   2.274   5.542   3.581
  763SOL     OW 3187   5.447   5.421   6.069
  763SOL    HW1 3188   5.356   5.409   6.028
  763SOL    HW2 3189   5.466   5.518   6.081
  764SOL     OW 3190   4.383   0.980   2.253
  764SOL    HW1 3191   4.446   0.905   2.233
  764SOL    HW2 3192   4.314   0.985   2.181
  765SOL     OW 3193   0.363   6.889   3.439
  765SOL    HW1 3194   0.280   6.844   3.473
  765SOL    HW2 3195   0.350   6.988   3.439
  766SOL     OW 3196   0.263   6.596   0.068
  766SOL    HW1 3197   0.295   6.674   0.121
  766SOL    HW2 3198   0.313   6.592   7.001
  767SOL     OW 3199   5.756   0.066   2.237
  767SOL    HW1 3200   5.715   7.012   2.185
  767SOL    HW2 3201   5.687   0.111   2.293
  768SOL     OW 3202   3.347   6.473   3.379
  768SOL    HW1 3203   3.310   6.457   3.287
  768SOL    HW2 3204   3.423   6.411   3.396
  769SOL     OW 3205   3.563   0.961   5.675
  769SOL    HW1 3206   3.615   1.029   5.727
  769SOL    HW2 3207   3.581   0.974   5.577
  770SOL     OW 3208   3.422   5.008   4.191
  770SOL    HW1 3209   3.434   5.070   4.114
  770SOL    HW2 3210   3.324   4.990   4.204
  771SOL     OW 3211   0.463   5.915   3.747
  771SOL    HW1 3212   0.557   5.907   3.714
  771SOL    HW2 3213   0.408   5.967   3.681
  772SOL     OW 3214   6.983   4.437   5.424
  772SOL    HW1 3215   0.013   4.356   5.393
  772SOL    HW2 3216   6.905   4.453   5.363
  773SOL     OW 3217   0.405   4.435   2.282
  773SOL    HW1 3218   0.439   4.517   2.235
  773SOL    HW2 3219   0.421   4.355   2.224
  774SOL     OW 3220   1.455   1.014   1.743
  774SOL    HW1 3221   1.390   1.030   1.669
  774SOL    HW2 3222   1.516   0.938   1.719
  775SOL     OW 3223   1.422   1.932   3.998
  775SOL    HW1 3224   1.338   1.902   3.953
  775SOL    HW2 3225   1.449   1.865   4.067
  776SOL     OW 3226   2.539   0.451   6.358
  776SOL    HW1 3227   2.453   0.425   6.402
  776SOL    HW2 3228   2.520   0.490   6.268
  777SOL     OW 3229   4.382   0.607   0.757
  777SOL    HW1 3230   4.391   0.697   0.799
  777SOL    HW2 3231   4.330   0.615   0.672
  778SOL     OW 3232   4.349   0.068   4.083
  778SOL    HW1 3233   4.448   0.073   4.066
  778SOL    HW2 3234   4.317   0.157   4.116
  779SOL     OW 3235   1.033   1.177   2.204
  779SOL    HW1 3236   1.008   1.082   2.219
  779SOL    HW2 3237   0.985   1.213   2.124
  780SOL     OW 3238   5.295   3.459   5.083
  780SOL    HW1 3239   5.329   3.385   5.141
  780SOL    HW2 3240   5.199   3.475   5.102
  781SOL     OW 3241   0.281   1.435   5.664
  781SOL    HW1 3242   0.305   1.380   5.744
  781SOL    HW2 3243   0.191   1.476   5.676
  782SOL     OW 3244   0.643   3.144   0.772
  782SOL    HW1 3245   0.577   3.218   0.777
  782SOL    HW2 3246   0.713   3.156   0.842
  783SOL     OW 3247   2.743   4.226   0.303
  783SOL    HW1 3248   2.698   4.198   0.388
  783SOL    HW2 3249   2.756   4.147   0.244
  784SOL     OW 3250   5.234   0.498   4.798
  784SOL    HW1 3251   5.323   0.544   4.793
  784SOL    HW2 3252   5.179   0.526   4.719
  785SOL     OW 3253   6.539   2.385   3.712
  785SOL    HW1 3254   6.515   2.288   3.708
  785SOL    HW2 3255   6.610   2.399   3.780
  786SOL     OW 3256   6.801   0.154   7.017
  786SOL    HW1 3257   6.771   0.159   0.092
  786SOL    HW2 3258   6.739   0.096   6.965
  787SOL     OW 3259   3.422   1.094   6.109
  787SOL    HW1 3260   3.337   1.048   6.083
  787SOL    HW2 3261   3.425   1.185   6.067
  788SOL     OW 3262   1.179   4.202   4.239
  788SOL    HW1 3263   1.243   4.271   4.271
  788SOL    HW2 3264   1.174   4.205   4.139
  789SOL     OW 3265   5.737   3.780   1.272
  789SOL    HW1 3266   5.728   3.874   1.239
  789SOL    HW2 3267   5.808   3.733   1.221
  790SOL     OW 3268   2.869   1.469   3.561
  790SOL    HW1 3269   2.898   1.527   3.485
  790SOL    HW2 3270   2.937   1.475   3.635
  791SOL     OW 3271   3.813   1.880   4.260
  791SOL    HW1 3272   3.829   1.820   4.338
  791SOL    HW2 3273   3.867   1.963   4.270
  792SOL     OW 3274   5.860   0.305   3.105
  792SOL    HW1 3275   5.945   0.285   3.056
  792SOL    HW2 3276   5.872   0.283   3.202
  793SOL     OW 3277   6.232   0.170   6.830
  793SOL    HW1 3278   6.224   0.125   6.741
  793SOL    HW2 3279   6.142   0.175   6.874
  794SOL     OW 3280   2.335   5.248   5.174
  794SOL    HW1 3281   2.382   5.175   5.224
  794SOL    HW2 3282   2.318   5.325   5.236
  795SOL     OW 3283   4.766   4.815   5.873
  795SOL    HW1 3284   4.771   4.803   5.774
  795SOL    HW2 3285   4.857   4.802   5.913
  796SOL     OW 3286   1.036   2.234   6.123
  796SOL    HW1 3287   1.115   2.251   6.064
  796SOL    HW2 3288   0.992   2.321   6.145
  797SOL     OW 3289   5.841   2.819   4.299
  797SOL    HW1 3290   5.800   2.876   4.370
  797SOL    HW2 3291   5.816   2.855   4.209
  798SOL     OW 3292   6.197   0.791   5.903
  798SOL    HW1 3293   6.282   0.821   5.946
  798SOL    HW2 3294   6.212   0.777   5.805
  799SOL     OW 3295   6.515   3.239   3.343
  799SOL    HW1 3296   6.467   3.291   3.414
  799SOL    HW2 3297   6.522   3.143   3.371
  800SOL     OW 3298   6.609   1.730   1.885
  800SOL    HW1 3299   6.553   1.806   1.917
  800SOL    HW2 3300   6.646   1.752   1.794
  801SOL     OW 3301   0.210   2.662   3.664
  801SOL    HW1 3302   0.298   2.703   3.689
  801SOL    HW2 3303   0.138   2.700   3.721
  802SOL     OW 3304   5.617   0.738   0.601
  802SOL    HW1 3305   5.619   0.826   0.553
  802SOL    HW2 3306   5.604   0.753   0.699
  803SOL     OW 3307   0.635   6.989   5.335
  803SOL    HW1 3308   0.624   6.890   5.340
  803SOL    HW2 3309   0.626   7.019   5.240
  804SOL     OW 3310   6.618   0.279   0.584
  804SOL    HW1 3311   6.630   0.297   0.487
  804SOL    HW2 3312   6.635   0.362   0.636
  805SOL     OW 3313   2.195   3.476   6.354
  805SOL    HW1 3314   2.145   3.439   6.432
  805SOL    HW2 3315   2.269   3.535   6.388
  806SOL     OW 3316   5.508   0.819   0.860
  806SOL    HW1 3317   5.455   0.752   0.912
  806SOL    HW2 3318   5.449   0.896   0.834
  807SOL     OW 3319   1.274   0.273   3.270
  807SOL    HW1 3320   1.178   0.292   3.293
  807SOL    HW2 3321   1.288   0.174   3.263
  808SOL     OW 3322   5.540   3.574   5.093
  808SOL    HW1 3323   5.595   3.496   5.123
  808SOL    HW2 3324   5.448   3.542   5.067
  809SOL     OW 3325   0.106   4.521   6.047
  809SOL    HW1 3326   0.179   4.476   6.098
  809SOL    HW2 3327   0.049   4.452   6.003
  810SOL     OW 3328   6.246   4.569   0.070
  810SOL    HW1 3329   6.305   4.636   0.025
  810SOL    HW2 3330   6.219   4.605   0.160
  811SOL     OW 3331   5.023   5.339   4.152
  811SOL    HW1 3332   5.006   5.335   4.251
  811SOL    HW2 3333   5.099   5.401   4.134
  812SOL     OW 3334   0.131   6.945   2.314
  812SOL    HW1 3335   0.079   6.938   2.399
  812SOL    HW2 3336   0.202   7.015   2.324
  813SOL     OW 3337   5.685   5.249   2.629
  813SOL    HW1 3338   5.755   5.278   2.695
  813SOL    HW2 3339   5.707   5.157   2.596
  814SOL     OW 3340   5.127   6.330   1.573
  814SOL    HW1 3341   5.052   6.329   1.640
  814SOL    HW2 3342   5.188   6.253   1.592
  815SOL     OW 3343   0.773   2.056   0.545
  815SOL    HW1 3344   0.790   2.126   0.475
  815SOL    HW2 3345   0.744   2.100   0.630
  816SOL     OW 3346   5.933   0.421   0.921
  816SOL    HW1 3347   5.857   0.443   0.983
  816SOL    HW2 3348   5.911   0.338   0.870
  817SOL     OW 3349   1.700   2.280   3.056
  817SOL    HW1 3350   1.700   2.210   2.985
  817SOL    HW2 3351   1.721   2.369   3.015
  818SOL     OW 3352   6.746   1.862   1.213
  818SOL    HW1 3353   6.743   1.929   1.139
  818SOL    HW2 3354   6.661   1.866   1.265
  819SOL     OW 3355   0.442   3.934   3.835
  819SOL    HW1 3356   0.517   3.945   3.901
  819SOL    HW2 3357   0.424   4.021   3.789
  820SOL     OW 3358   1.146   2.986   4.344
  820SOL    HW1 3359   1.056   2.970   4.384
  820SOL    HW2 3360   1.184   2.899   4.312
  821SOL     OW 3361   1.389   3.401   6.913
  821SOL    HW1 3362   1.353   3.309   6.896
  821SOL    HW2 3363   1.361   3.462   6.840
  822SOL     OW 3364   1.443   3.512   4.685
  822SOL    HW1 3365   1.488   3.602   4.689
  822SOL    HW2 3366   1.508   3.444   4.652
  823SOL     OW 3367   3.024   3.696   1.047
  823SOL    HW1 3368   2.945   3.742   1.006
  823SOL    HW2 3369   3.028   3.717   1.145
  824SOL     OW 3370   6.181   2.417   6.057
  824SOL    HW1 3371   6.202   2.456   6.147
  824SOL    HW2 3372   6.136   2.329   6.069
  825SOL     OW 3373   1.723   4.022   2.281
  825SOL    HW1 3374   1.795   3.983   2.338
  825SOL    HW2 3375   1.715   4.120   2.298
  826SOL     OW 3376   0.494   3.999   5.964
  826SOL    HW1 3377   0.487   4.035   5.871
  826SOL    HW2 3378   0.494   4.074   6.029
  827SOL     OW 3379   4.496   6.130   6.872
  827SOL    HW1 3380   4.533   6.039   6.853
  827SOL    HW2 3381   4.398   6.132   6.851
  828SOL     OW 3382   6.285   6.620   6.610
  828SOL    HW1 3383   6.231   6.699   6.640
  828SOL    HW2 3384   6.377   6.625   6.651
  829SOL     OW 3385   3.368   2.899   4.814
  829SOL    HW1 3386   3.330   2.889   4.906
  829SOL    HW2 3387   3.318   2.970   4.765
  830SOL     OW 3388   4.614   3.961   5.303
  830SOL    HW1 3389   4.643   3.868   5.327
  830SOL    HW2 3390   4.514   3.964   5.295
  831SOL     OW 3391   6.620   0.881   4.736
  831SOL    HW1 3392   6.587   0.890   4.830
  831SOL    HW2 3393   6.682   0.957   4.715
  832SOL     OW 3394   2.617   1.351   6.042
  832SOL    HW1 3395   2.641   1.255   6.060
  832SOL    HW2 3396   2.697   1.398   6.004
  833SOL     OW 3397   0.441   0.057   6.119
  833SOL    HW1 3398   0.525   0.003   6.115
  833SOL    HW2 3399   0.464   0.153   6.131
  834SOL     OW 3400   3.234   4.494   5.456
  834SOL    HW1 3401   3.180   4.413   5.432
  834SOL    HW2 3402   3.311   4.502   5.392
  835SOL     OW 3403   3.936   0.301   3.166
  835SOL    HW1 3404   4.025   0.330   3.201
  835SOL    HW2 3405   3.920   0.344   3.077
  836SOL     OW 3406   2.546   0.855   0.385
  836SOL    HW1 3407   2.536   0.782   0.453
  836SOL    HW2 3408   2.458   0.898   0.369
  837SOL     OW 3409   3.986   0.859   6.007
  837SOL    HW1 3410   3.962   0.954   5.990
  837SOL    HW2 3411   3.908   0.800   5.985
  838SOL     OW 3412   2.314   4.802   3.253
  838SOL    HW1 3413   2.264   4.724   3.215
  838SOL    HW2 3414   2.251   4.860   3.304
  839SOL     OW 3415   3.002   1.509   1.948
  839SOL    HW1 3416   3.031   1.475   2.037
  839SOL    HW2 3417   3.006   1.609   1.948
  840SOL     OW 3418   1.022   1.559   6.431
  840SOL    HW1 3419   1.011   1.548   6.530
  840SOL    HW2 3420   1.080   1.639   6.413
  841SOL     OW 3421   0.675   3.539   6.762
  841SOL    HW1 3422   0.577   3.543   6.784
  841SOL    HW2 3423   0.727   3.518   6.845
  842SOL     OW 3424   3.644   5.072   3.955
  842SOL    HW1 3425   3.710   5.048   4.027
  842SOL    HW2 3426   3.630   4.993   3.896
  843SOL     OW 3427   6.593   2.830   1.789
  843SOL    HW1 3428   6.532   2.773   1.734
  843SOL    HW2 3429   6.589   2.801   1.885
  844SOL     OW 3430   5.290   5.498   0.571
  844SOL    HW1 3431   5.342   5.525   0.490
  844SOL    HW2 3432   5.240   5.414   0.552
  845SOL     OW 3433   1.020   4.303   4.871
  845SOL    HW1 3434   1.089   4.273   4.805
  845SOL    HW2 3435   0.935   4.255   4.854
  846SOL     OW 3436   5.823   2.091   0.097
  846SOL    HW1 3437   5.909   2.045   0.122
  846SOL    HW2 3438   5.747   2.050   0.147
  847SOL     OW 3439   5.280   3.544   2.139
  847SOL    HW1 3440   5.241   3.457   2.168
  847SOL    HW2 3441   5.241   3.572   2.052
  848SOL     OW 3442   6.799   0.199   6.011
  848SOL    HW1 3443   6.807   0.291   5.973
  848SOL    HW2 3444   6.840   0.133   5.948
  849SOL     OW 3445   0.408   5.130   4.296
  849SOL    HW1 3446   0.363   5.103   4.381
  849SOL    HW2 3447   0.396   5.229   4.282
  850SOL     OW 3448   3.704   0.503   2.593
  850SOL    HW1 3449   3.694   0.414   2.547
  850SOL    HW2 3450   3.654   0.501   2.679
  851SOL     OW 3451   0.720   0.600   6.321
  851SOL    HW1 3452   0.684   0.566   6.234
  851SOL    HW2 3453   0.820   0.607   6.314
  852SOL     OW 3454   2.102   4.419   6.468
  852SOL    HW1 3455   2.187   4.450   6.425
  852SOL    HW2 3456   2.024   4.459   6.420
  853SOL     OW 3457   1.735   3.543   1.400
  853SOL    HW1 3458   1.720   3.608   1.326
  853SOL    HW2 3459   1.678   3.568   1.479
  854SOL     OW 3460   5.209   4.985   1.726
  854SOL    HW1 3461   5.190   5.081   1.705
  854SOL    HW2 3462   5.248   4.979   1.818
  855SOL     OW 3463   5.741   6.987   1.780
  855SOL    HW1 3464   5.642   6.983   1.792
  855SOL    HW2 3465   5.762   7.018   1.687
  856SOL     OW 3466   1.502   6.821   4.672
  856SOL    HW1 3467   1.592   6.781   4.652
  856SOL    HW2 3468   1.478   6.804   4.767
  857SOL     OW 3469   6.737   3.579   2.002
  857SOL    HW1 3470   6.683   3.622   2.074
  857SOL    HW2 3471   6.792   3.504   2.040
  858SOL     OW 3472   3.191   4.253   1.333
  858SOL    HW1 3473   3.187   4.190   1.255
  858SOL    HW2 3474   3.279   4.243   1.379
  859SOL     OW 3475   6.952   4.812   0.237
  859SOL    HW1 3476   6.948   4.715   0.260
  859SOL    HW2 3477   6.974   4.864   0.320
  860SOL     OW 3478   1.917   4.712   1.507
  860SOL    HW1 3479   1.923   4.760   1.594
  860SOL    HW2 3480   1.854   4.759   1.446
  861SOL     OW 3481   3.185   5.601   5.240
  861SOL    HW1 3482   3.104   5.594   5.182
  861SOL    HW2 3483   3.239   5.517   5.232
  862SOL     OW 3484   4.396   4.593   4.122
  862SOL    HW1 3485   4.407   4.683   4.080
  862SOL    HW2 3486   4.313   4.592   4.177
  863SOL     OW 3487   5.936   1.065   1.123
  863SOL    HW1 3488   5.858   1.035   1.068
  863SOL    HW2 3489   5.961   0.992   1.187
  864SOL     OW 3490   5.974   4.333   2.782
  864SOL    HW1 3491   5.885   4.299   2.752
  864SOL    HW2 3492   5.961   4.415   2.839
  865SOL     OW 3493   1.531   0.253   4.524
  865SOL    HW1 3494   1.541   0.177   4.587
  865SOL    HW2 3495   1.573   0.229   4.436
  866SOL     OW 3496   3.653   1.510   1.333
  866SOL    HW1 3497   3.720   1.530   1.261
  866SOL    HW2 3498   3.561   1.532   1.300
  867SOL     OW 3499   1.708   2.739   5.972
  867SOL    HW1 3500   1.765   2.796   5.912
  867SOL    HW2 3501   1.634   2.698   5.918
  868SOL     OW 3502   5.327   2.784   3.140
  868SOL    HW1 3503   5.264   2.800   3.065
  868SOL    HW2 3504   5.381   2.702   3.122
  869SOL     OW 3505   6.271   4.445   2.325
  869SOL    HW1 3506   6.357   4.424   2.372
  869SOL    HW2 3507   6.213   4.501   2.384
  870SOL     OW 3508   0.219   2.307   0.798
  870SOL    HW1 3509   0.236   2.270   0.890
  870SOL    HW2 3510   0.196   2.404   0.805
  871SOL     OW 3511   5.836   3.823   0.986
  871SOL    HW1 3512   5.768   3.894   0.968
  871SOL    HW2 3513   5.927   3.865   0.986
  872SOL     OW 3514   5.417   2.657   2.823
  872SOL    HW1 3515   5.476   2.724   2.869
  872SOL    HW2 3516   5.470   2.607   2.755
  873SOL     OW 3517   4.842   6.735   5.521
  873SOL    HW1 3518   4.849   6.720   5.422
  873SOL    HW2 3519   4.912   6.801   5.550
  874SOL     OW 3520   0.155   3.629   6.122
  874SOL    HW1 3521   0.230   3.670   6.174
  874SOL    HW2 3522   0.096   3.702   6.086
  875SOL     OW 3523   6.391   4.690   6.705
  875SOL    HW1 3524   6.434   4.711   6.793
  875SOL    HW2 3525   6.322   4.759   6.684
  876SOL     OW 3526   1.148   3.509   1.606
  876SOL    HW1 3527   1.206   3.582   1.644
  876SOL    HW2 3528   1.081   3.550   1.544
  877SOL     OW 3529   5.359   6.163   0.535
  877SOL    HW1 3530   5.408   6.106   0.601
  877SOL    HW2 3531   5.405   6.252   0.528
  878SOL     OW 3532   3.141   3.175   0.565
  878SOL    HW1 3533   3.117   3.078   0.573
  878SOL    HW2 3534   3.233   3.183   0.528
  879SOL     OW 3535   4.284   1.881   2.525
  879SOL    HW1 3536   4.224   1.944   2.476
  879SOL    HW2 3537   4.260   1.787   2.502
  880SOL     OW 3538   3.929   5.488   0.683
  880SOL    HW1 3539   3.977   5.550   0.621
  880SOL    HW2 3540   3.987   5.468   0.762
  881SOL     OW 3541   4.346   5.137   4.836
  881SOL    HW1 3542   4.379   5.226   4.805
  881SOL    HW2 3543   4.357   5.070   4.763
  882SOL     OW 3544   0.894   1.370   4.400
  882SOL    HW1 3545   0.925   1.324   4.316
  882SOL    HW2 3546   0.970   1.420   4.440
  883SOL     OW 3547   3.080   4.816   6.915
  883SOL    HW1 3548   3.051   4.729   6.874
  883SOL    HW2 3549   3.000   4.876   6.925
  884SOL     OW 3550   4.563   3.872   1.374
  884SOL    HW1 3551   4.478   3.924   1.374
  884SOL    HW2 3552   4.576   3.829   1.464
  885SOL     OW 3553   5.032   6.044   6.711
  885SOL    HW1 3554   5.084   6.099   6.646
  885SOL    HW2 3555   5.057   6.069   6.804
  886SOL     OW 3556   4.636   1.245   5.832
  886SOL    HW1 3557   4.703   1.282   5.897
  886SOL    HW2 3558   4.553   1.301   5.834
  887SOL     OW 3559   5.078   0.196   6.397
  887SOL    HW1 3560   5.028   0.110   6.392
  887SOL    HW2 3561   5.015   0.270   6.420
  888SOL     OW 3562   6.314   6.539   3.561
  888SOL    HW1 3563   6.361   6.616   3.605
  888SOL    HW2 3564   6.324   6.457   3.617
  889SOL     OW 3565   1.084   6.735   4.687
  889SOL    HW1 3566   1.105   6.681   4.769
  889SOL    HW2 3567   1.136   6.701   4.609
  890SOL     OW 3568   2.386   4.774   2.192
  890SOL    HW1 3569   2.427   4.684   2.208
  890SOL    HW2 3570   2.305   4.763   2.134
  891SOL     OW 3571   5.741   3.554   6.224
  891SOL    HW1 3572   5.786   3.532   6.311
  891SOL    HW2 3573   5.794   3.517   6.149
  892SOL     OW 3574   2.387   5.506   1.843
  892SOL    HW1 3575   2.480   5.470   1.832
  892SOL    HW2 3576   2.385   5.601   1.813
  893SOL     OW 3577   2.125   0.016   0.825
  893SOL    HW1 3578   2.215   0.012   0.782
  893SOL    HW2 3579   2.074   0.095   0.790
  894SOL     OW 3580   1.577   5.688   3.404
  894SOL    HW1 3581   1.606   5.621   3.473
  894SOL    HW2 3582   1.636   5.681   3.324
  895SOL     OW 3583   1.926   0.367   4.718
  895SOL    HW1 3584   1.950   0.303   4.645
  895SOL    HW2 3585   1.896   0.316   4.799
  896SOL     OW 3586   5.591   0.372   3.608
  896SOL    HW1 3587   5.662   0.393   3.675
  896SOL    HW2 3588   5.597   0.275   3.583
  897SOL     OW 3589   5.012   2.490   6.236
  897SOL    HW1 3590   5.038   2.587   6.232
  897SOL    HW2 3591   4.916   2.482   6.262
  898SOL     OW 3592   6.200   6.543   4.249
  898SOL    HW1 3593   6.262   6.466   4.264
  898SOL    HW2 3594   6.209   6.575   4.154
  899SOL     OW 3595   0.879   4.662   6.491
  899SOL    HW1 3596   0.794   4.699   6.455
  899SOL    HW2 3597   0.874   4.656   6.591
  900SOL     OW 3598   0.720   5.936   3.700
  900SOL    HW1 3599   0.736   6.000   3.776
  900SOL    HW2 3600   0.808   5.909   3.661
  901SOL     OW 3601   5.381   2.631   3.418
  901SOL    HW1 3602   5.397   2.532   3.415
  901SOL    HW2 3603   5.399   2.670   3.327
  902SOL     OW 3604   7.018   6.226   0.034
  902SOL    HW1 3605   6.955   6.298   0.009
  902SOL    HW2 3606   6.976   6.166   0.102
  903SOL     OW 3607   0.559   4.822   6.840
  903SOL    HW1 3608   0.553   4.747   6.905
  903SOL    HW2 3609   0.571   4.908   6.890
  904SOL     OW 3610   1.842   1.551   3.732
  904SOL    HW1 3611   1.796   1.539   3.820
  904SOL    HW2 3612   1.862   1.461   3.692
  905SOL     OW 3613   6.025   2.134   5.638
  905SOL    HW1 3614   5.974   2.219   5.646
  905SOL    HW2 3615   6.015   2.081   5.723
  906SOL     OW 3616   6.078   3.771   5.263
  906SOL    HW1 3617   5.978   3.780   5.270
  906SOL    HW2 3618   6.117   3.857   5.231
  907SOL     OW 3619   6.978   3.477   1.358
  907SOL    HW1 3620   6.987   3.389   1.405
  907SOL    HW2 3621   6.998   3.551   1.422
  908SOL     OW 3622   1.553   0.918   3.183
  908SOL    HW1 3623   1.630   0.955   3.131
  908SOL    HW2 3624   1.530   0.827   3.148
  909SOL     OW 3625   4.371   0.412   1.137
  909SOL    HW1 3626   4.321   0.495   1.112
  909SOL    HW2 3627   4.461   0.437   1.170
  910SOL     OW 3628   1.982   2.122   1.600
  910SOL    HW1 3629   2.014   2.065   1.524
  910SOL    HW2 3630   1.921   2.193   1.565
  911SOL     OW 3631   0.495   4.529   0.593
  911SOL    HW1 3632   0.452   4.512   0.504
  911SOL    HW2 3633   0.585   4.487   0.595
  912SOL     OW 3634   1.080   0.637   5.978
  912SOL    HW1 3635   1.077   0.687   5.891
  912SOL    HW2 3636   1.010   0.566   5.977
  913SOL     OW 3637   2.287   1.498   1.666
  913SOL    HW1 3638   2.353   1.570   1.645
  913SOL    HW2 3639   2.228   1.528   1.741
  914SOL     OW 3640   2.869   6.474   3.376
  914SOL    HW1 3641   2.834   6.381   3.385
  914SOL    HW2 3642   2.834   6.531   3.450
  915SOL     OW 3643   1.389   2.252   6.492
  915SOL    HW1 3644   1.364   2.306   6.573
  915SOL    HW2 3645   1.441   2.171   6.520
  916SOL     OW 3646   1.108   3.401   2.746
  916SOL    HW1 3647   1.088   3.499   2.735
  916SOL    HW2 3648   1.044   3.348   2.691
  917SOL     OW 3649   3.402   2.411   6.640
  917SOL    HW1 3650   3.412   2.313   6.620
  917SOL    HW2 3651   3.385   2.461   6.555
  918SOL     OW 3652   1.510   0.693   5.521
  918SOL    HW1 3653   1.556   0.781   5.533
  918SOL    HW2 3654   1.504   0.671   5.423
  919SOL     OW 3655   2.369   0.084   1.095
  919SOL    HW1 3656   2.365   0.012   1.026
  919SOL    HW2 3657   2.312   0.161   1.065
  920SOL     OW 3658   2.120   0.963   3.858
  920SOL    HW1 3659   2.172   0.912   3.789
  920SOL    HW2 3660   2.171   1.045   3.884
  921SOL     OW 3661   4.927   4.949   6.298
  921SOL    HW1 3662   4.999   4.924   6.234
  921SOL    HW2 3663   4.840   4.955   6.250
  922SOL     OW 3664   2.039   3.780   6.237
  922SOL    HW1 3665   1.996   3.853   6.185
  922SOL    HW2 3666   2.019   3.692   6.193
  923SOL     OW 3667   4.268   1.212   6.627
  923SOL    HW1 3668   4.202   1.284   6.604
  923SOL    HW2 3669   4.221   1.139   6.677
  924SOL     OW 3670   6.194   3.746   3.092
  924SOL    HW1 3671   6.266   3.767   3.157
  924SOL    HW2 3672   6.145   3.831   3.068
  925SOL     OW 3673   6.088   2.131   2.978
  925SOL    HW1 3674   6.029   2.055   2.954
  925SOL    HW2 3675   6.040   2.192   3.041
  926SOL     OW 3676   5.667   6.340   1.220
  926SOL    HW1 3677   5.606   6.412   1.256
  926SOL    HW2 3678   5.728   6.380   1.152
  927SOL     OW 3679   4.834   5.155   4.821
  927SOL    HW1 3680   4.763   5.089   4.847
  927SOL    HW2 3681   4.904   5.108   4.767
  928SOL     OW 3682   0.509   1.478   1.304
  928SOL    HW1 3683   0.573   1.519   1.240
  928SOL    HW2 3684   0.530   1.507   1.397
  929SOL     OW 3685   0.505   2.464   2.607
  929SOL    HW1 3686   0.582   2.490   2.666
  929SOL    HW2 3687   0.492   2.365   2.611
  930SOL     OW 3688   5.060   5.828   2.954
  930SOL    HW1 3689   5.038   5.778   3.038
  930SOL    HW2 3690   5.104   5.766   2.889
  931SOL     OW 3691   1.841   2.904   2.603
  931SOL    HW1 3692   1.872   2.860   2.518
  931SOL    HW2 3693   1.816   2.999   2.584
  932SOL     OW 3694   4.627   6.384   1.316
  932SOL    HW1 3695   4.658   6.330   1.238
  932SOL    HW2 3696   4.528   6.393   1.314
  933SOL     OW 3697   1.609   5.850   3.760
  933SOL    HW1 3698   1.700   5.811   3.745
  933SOL    HW2 3699   1.566   5.805   3.838
  934SOL     OW 3700   3.306   0.682   5.564
  934SOL    HW1 3701   3.402   0.706   5.579
  934SOL    HW2 3702   3.248   0.739   5.622
  935SOL     OW 3703   2.335   3.015   6.044
  935SOL    HW1 3704   2.318   3.092   6.105
  935SOL    HW2 3705   2.317   2.929   6.092
  936SOL     OW 3706   0.013   1.990   1.767
  936SOL    HW1 3707   6.968   2.065   1.756
  936SOL    HW2 3708   0.105   2.027   1.779
  937SOL     OW 3709   5.121   2.490   4.022
  937SOL    HW1 3710   5.114   2.402   3.975
  937SOL    HW2 3711   5.030   2.521   4.049
  938SOL     OW 3712   6.871   1.905   0.229
  938SOL    HW1 3713   6.882   1.888   0.327
  938SOL    HW2 3714   6.960   1.919   0.187
  939SOL     OW 3715   6.446   0.900   6.004
  939SOL    HW1 3716   6.478   0.947   5.922
  939SOL    HW2 3717   6.485   0.808   6.007
  940SOL     OW 3718   0.811   0.670   4.316
  940SOL    HW1 3719   0.861   0.756   4.308
  940SOL    HW2 3720   0.819   0.620   4.230
  941SOL     OW 3721   5.178   3.159   5.212
  941SOL    HW1 3722   5.259   3.206   5.246
  941SOL    HW2 3723   5.117   3.137   5.288
  942SOL     OW 3724   5.247   0.131   5.212
  942SOL    HW1 3725   5.166   0.086   5.249
  942SOL    HW2 3726   5.226   0.225   5.188
  943SOL     OW 3727   5.990   1.861   0.462
  943SOL    HW1 3728   5.901   1.845   0.419
  943SOL    HW2 3729   5.978   1.868   0.561
  944SOL     OW 3730   5.893   4.132   4.931
  944SOL    HW1 3731   5.935   4.121   4.841
  944SOL    HW2 3732   5.938   4.206   4.981
  945SOL     OW 3733   5.394   3.798   5.170
  945SOL    HW1 3734   5.382   3.870   5.101
  945SOL    HW2 3735   5.448   3.724   5.131
  946SOL     OW 3736   5.811   3.034   6.176
  946SOL    HW1 3737   5.904   3.069   6.169
  946SOL    HW2 3738   5.794   2.967   6.104
  947SOL     OW 3739   1.222   2.842   5.673
  947SOL    HW1 3740   1.317   2.862   5.697
  947SOL    HW2 3741   1.218   2.813   5.578
  948SOL     OW 3742   3.863   1.907   0.526
  948SOL    HW1 3743   3.902   1.825   0.567
  948SOL    HW2 3744   3.866   1.900   0.426
  949SOL     OW 3745   6.137   5.833   6.564
  949SOL    HW1 3746   6.200   5.757   6.546
  949SOL    HW2 3747   6.070   5.838   6.490
  950SOL     OW 3748   4.328   5.306   0.596
  950SOL    HW1 3749   4.356   5.394   0.634
  950SOL    HW2 3750   4.314   5.314   0.497
  951SOL     OW 3751   0.769   2.487   3.558
  951SOL    HW1 3752   0.763   2.420   3.484
  951SOL    HW2 3753   0.699   2.466   3.627
  952SOL     OW 3754   5.191   1.327   1.479
  952SOL    HW1 3755   5.284   1.352   1.505
  952SOL    HW2 3756   5.128   1.349   1.553
  953SOL     OW 3757   3.668   6.569   6.119
  953SOL    HW1 3758   3.709   6.657   6.095
  953SOL    HW2 3759   3.674   6.555   6.218
  954SOL     OW 3760   0.650   6.922   1.254
  954SOL    HW1 3761   0.643   6.822   1.250
  954SOL    HW2 3762   0.563   6.960   1.286
  955SOL     OW 3763   6.319   6.698   2.484
  955SOL    HW1 3764   6.312   6.670   2.388
  955SOL    HW2 3765   6.271   6.632   2.541
  956SOL     OW 3766   0.774   2.409   7.001
  956SOL    HW1 3767   0.733   2.452   6.920
  956SOL    HW2 3768   0.835   2.335   6.972
  957SOL     OW 3769   2.495   6.423   5.217
  957SOL    HW1 3770   2.403   6.389   5.197
  957SOL    HW2 3771   2.498   6.457   5.311
  958SOL     OW 3772   4.803   2.521   0.573
  958SOL    HW1 3773   4.841   2.430   0.554
  958SOL    HW2 3774   4.803   2.537   0.672
  959SOL     OW 3775   1.337   4.098   2.242
  959SOL    HW1 3776   1.296   4.171   2.297
  959SOL    HW2 3777   1.332   4.012   2.291
  960SOL     OW 3778   1.515   5.777   5.616
  960SOL    HW1 3779   1.497   5.685   5.651
  960SOL    HW2 3780   1.613   5.793   5.610
  961SOL     OW 3781   3.418   6.888   1.383
  961SOL    HW1 3782   3.458   6.828   1.313
  961SOL    HW2 3783   3.320   6.895   1.369
  962SOL     OW 3784   1.786   6.502   3.935
  962SOL    HW1 3785   1.753   6.430   3.996
  962SOL    HW2 3786   1.838   6.461   3.860
  963SOL     OW 3787   6.127   0.307   2.216
  963SOL    HW1 3788   6.048   0.334   2.162
  963SOL    HW2 3789   6.202   0.279   2.155
  964SOL     OW 3790   4.970   3.752   0.812
  964SOL    HW1 3791   4.980   3.696   0.729
  964SOL    HW2 3792   4.917   3.834   0.790
  965SOL     OW 3793   1.362   2.485   0.738
  965SOL    HW1 3794   1.272   2.512   0.703
  965SOL    HW2 3795   1.434   2.527   0.684
  966SOL     OW 3796   6.908   2.230   1.776
  966SOL    HW1 3797   6.910   2.306   1.842
  966SOL    HW2 3798   6.933   2.265   1.685
  967SOL     OW 3799   0.957   5.940   2.628
  967SOL    HW1 3800   0.899   5.987   2.695
  967SOL    HW2 3801   1.050   5.977   2.634
  968SOL     OW 3802   6.668   4.365   2.136
  968SOL    HW1 3803   6.701   4.292   2.077
  968SOL    HW2 3804   6.610   4.427   2.083
  969SOL     OW 3805   4.185   6.046   6.651
  969SOL    HW1 3806   4.260   5.982   6.663
  969SOL    HW2 3807   4.115   6.006   6.592
  970SOL     OW 3808   4.246   2.377   5.512
  970SOL    HW1 3809   4.299   2.338   5.587
  970SOL    HW2 3810   4.154   2.399   5.544
  971SOL     OW 3811   0.835   2.451   1.282
  971SOL    HW1 3812   0.793   2.361   1.268
  971SOL    HW2 3813   0.784   2.500   1.353
  972SOL     OW 3814   6.848   6.366   1.734
  972SOL    HW1 3815   6.774   6.299   1.739
  972SOL    HW2 3816   6.887   6.380   1.825
  973SOL     OW 3817   6.041   4.005   5.755
  973SOL    HW1 3818   6.116   4.045   5.807
  973SOL    HW2 3819   6.045   4.038   5.660
  974SOL     OW 3820   2.761   1.561   3.907
  974SOL    HW1 3821   2.690   1.614   3.860
  974SOL    HW2 3822   2.719   1.511   3.983
  975SOL     OW 3823   3.877   6.543   5.543
  975SOL    HW1 3824   3.930   6.617   5.585
  975SOL    HW2 3825   3.926   6.506   5.465
  976SOL     OW 3826   0.125   6.250   3.715
  976SOL    HW1 3827   0.099   6.325   3.775
  976SOL    HW2 3828   0.075   6.258   3.628
  977SOL     OW 3829   1.624   2.715   2.840
  977SOL    HW1 3830   1.665   2.631   2.804
  977SOL    HW2 3831   1.582   2.767   2.765
  978SOL     OW 3832   6.008   3.490   5.018
  978SOL    HW1 3833   6.091   3.523   5.062
  978SOL    HW2 3834   6.001   3.529   4.927
  979SOL     OW 3835   5.672   1.274   3.474
  979SOL    HW1 3836   5.612   1.288   3.395
  979SOL    HW2 3837   5.617   1.244   3.552
  980SOL     OW 3838   6.406   0.832   4.537
  980SOL    HW1 3839   6.412   0.927   4.505
  980SOL    HW2 3840   6.472   0.819   4.612
  981SOL     OW 3841   6.996   3.364   5.374
  981SOL    HW1 3842   0.067   3.365   5.416
  981SOL    HW2 3843   6.988   3.439   5.309
  982SOL     OW 3844   1.552   2.712   1.593
  982SOL    HW1 3845   1.634   2.658   1.613
  982SOL    HW2 3846   1.473   2.668   1.635
  983SOL     OW 3847   5.768   1.543   3.014
  983SOL    HW1 3848   5.850   1.574   2.966
  983SOL    HW2 3849   5.711   1.490   2.951
  984SOL     OW 3850   4.832   1.175   4.627
  984SOL    HW1 3851   4.802   1.218   4.542
  984SOL    HW2 3852   4.914   1.220   4.661
  985SOL     OW 3853   3.153   4.766   0.539
  985SOL    HW1 3854   3.065   4.722   0.522
  985SOL    HW2 3855   3.143   4.865   0.535
  986SOL     OW 3856   4.173   5.149   6.415
  986SOL    HW1 3857   4.257   5.190   6.452
  986SOL    HW2 3858   4.109   5.132   6.490
  987SOL     OW 3859   3.152   6.800   2.186
  987SOL    HW1 3860   3.236   6.839   2.148
  987SOL    HW2 3861   3.175   6.724   2.247
  988SOL     OW 3862   3.618   4.152   2.010
  988SOL    HW1 3863   3.588   4.238   2.051
  988SOL    HW2 3864   3.659   4.094   2.081
  989SOL     OW 3865   1.159   7.004   4.708
  989SOL    HW1 3866   1.125   0.009   4.799
  989SOL    HW2 3867   1.108   6.925   4.674
  990SOL     OW 3868   4.743   6.430   3.668
  990SOL    HW1 3869   4.812   6.494   3.633
  990SOL    HW2 3870   4.683   6.402   3.593
  991SOL     OW 3871   6.410   1.338   5.275
  991SOL    HW1 3872   6.383   1.379   5.363
  991SOL    HW2 3873   6.468   1.259   5.292
  992SOL     OW 3874   0.303   2.947   0.624
  992SOL    HW1 3875   0.402   2.944   0.638
  992SOL    HW2 3876   0.273   3.042   0.617
  993SOL     OW 3877   3.387   5.215   3.942
  993SOL    HW1 3878   3.482   5.186   3.937
  993SOL    HW2 3879   3.372   5.293   3.880
  994SOL     OW 3880   3.087   3.799   2.214
  994SOL    HW1 3881   3.182   3.785   2.242
  994SOL    HW2 3882   3.084   3.840   2.124
  995SOL     OW 3883   0.457   1.088   5.019
  995SOL    HW1 3884   0.481   1.183   5.039
  995SOL    HW2 3885   0.405   1.085   4.933
  996SOL     OW 3886   1.232   3.553   1.940
  996SOL    HW1 3887   1.278   3.641   1.947
  996SOL    HW2 3888   1.136   3.563   1.966
  997SOL     OW 3889   7.014   1.235   1.319
  997SOL    HW1 3890   0.071   1.299   1.311
  997SOL    HW2 3891   0.030   1.144   1.341
  998SOL     OW 3892   4.985   0.074   3.002
  998SOL    HW1 3893   5.023   0.166   3.014
  998SOL    HW2 3894   4.935   0.048   3.085
  999SOL     OW 3895   0.106   5.496   1.229
  999SOL    HW1 3896   0.201   5.468   1.239
  999SOL    HW2 3897   0.100   5.574   1.166
 1000SOL     OW 3898   4.274   2.035   4.084
 1000SOL    HW1 3899   4.226   1.965   4.031
 1000SOL    HW2 3900   4.367   2.046   4.047
 1001SOL     OW 3901   4.554   0.027   5.588
 1001SOL    HW1 3902   4.458   0.046   5.609
 1001SOL    HW2 3903   4.583   6.965   5.637
 1002SOL     OW 3904   6.656   1.538   0.301
 1002SOL    HW1 3905   6.687   1.454   0.344
 1002SOL    HW2 3906   6.719   1.563   0.228
 1003SOL     OW 3907   4.565   4.833   2.468
 1003SOL    HW1 3908   4.607   4.891   2.537
 1003SOL    HW2 3909   4.500   4.771   2.511
 1004SOL     OW 3910   5.985   5.471   0.368
 1004SOL    HW1 3911   6.058   5.438   0.429
 1004SOL    HW2 3912   5.899   5.428   0.394
 1005SOL     OW 3913   6.601   6.314   3.464
 1005SOL    HW1 3914   6.663   6.268   3.400
 1005SOL    HW2 3915   6.529   6.250   3.491
 1006SOL     OW 3916   2.322   4.332   0.919
 1006SOL    HW1 3917   2.288   4.346   1.012
 1006SOL    HW2 3918   2.389   4.258   0.919
 1007SOL     OW 3919   0.519   0.329   3.546
 1007SOL    HW1 3920   0.579   0.394   3.500
 1007SOL    HW2 3921   0.570   0.281   3.618
 1008SOL     OW 3922   2.323   2.758   3.690
 1008SOL    HW1 3923   2.235   2.744   3.644
 1008SOL    HW2 3924   2.379   2.822   3.638
 1009SOL     OW 3925   1.449   5.572   5.074
 1009SOL    HW1 3926   1.484   5.511   5.145
 1009SOL    HW2 3927   1.352   5.591   5.090
 1010SOL     OW 3928   4.666   1.110   6.513
 1010SOL    HW1 3929   4.695   1.113   6.417
 1010SOL    HW2 3930   4.681   1.018   6.549
 1011SOL     OW 3931   3.920   5.877   3.649
 1011SOL    HW1 3932   3.871   5.892   3.564
 1011SOL    HW2 3933   3.902   5.952   3.712
 1012SOL     OW 3934   4.720   5.733   0.160
 1012SOL    HW1 3935   4.620   5.741   0.156
 1012SOL    HW2 3936   4.746   5.637   0.155
 1013SOL     OW 3937   0.268   1.620   1.229
 1013SOL    HW1 3938   0.354   1.578   1.260
 1013SOL    HW2 3939   0.278   1.719   1.230
 1014SOL     OW 3940   5.257   0.758   6.125
 1014SOL    HW1 3941   5.288   0.844   6.085
 1014SOL    HW2 3942   5.273   0.760   6.224
 1015SOL     OW 3943   3.043   6.235   4.298
 1015SOL    HW1 3944   2.997   6.292   4.230
 1015SOL    HW2 3945   3.141   6.254   4.296
 1016SOL     OW 3946   4.393   2.777   1.272
 1016SOL    HW1 3947   4.379   2.710   1.200
 1016SOL    HW2 3948   4.408   2.729   1.359
 1017SOL     OW 3949   4.591   1.873   6.822
 1017SOL    HW1 3950   4.663   1.894   6.888
 1017SOL    HW2 3951   4.631   1.828   6.743
 1018SOL     OW 3952   1.779   3.451   2.579
 1018SOL    HW1 3953   1.765   3.550   2.580
 1018SOL    HW2 3954   1.851   3.429   2.513
 1019SOL     OW 3955   6.139   0.574   0.097
 1019SOL    HW1 3956   6.195   0.577   0.179
 1019SOL    HW2 3957   6.186   0.520   0.027
 1020SOL     OW 3958   3.010   1.873   1.389
 1020SOL    HW1 3959   3.102   1.909   1.399
 1020SOL    HW2 3960   3.012   1.773   1.394
 1021SOL     OW 3961   6.389   1.735   1.068
 1021SOL    HW1 3962   6.420   1.659   1.125
 1021SOL    HW2 3963   6.456   1.753   0.996
 1022SOL     OW 3964   4.073   2.723   6.643
 1022SOL    HW1 3965   4.087   2.719   6.544
 1022SOL    HW2 3966   4.130   2.654   6.688
 1023SOL     OW 3967   4.982   1.261   3.919
 1023SOL    HW1 3968   5.011   1.356   3.931
 1023SOL    HW2 3969   4.917   1.237   3.991
 1024SOL     OW 3970   6.120   1.687   3.579
 1024SOL    HW1 3971   6.076   1.630   3.648
 1024SOL    HW2 3972   6.178   1.630   3.521
 1025SOL     OW 3973   3.118   4.512   1.210
 1025SOL    HW1 3974   3.046   4.573   1.243
 1025SOL    HW2 3975   3.120   4.429   1.267
 1026SOL     OW 3976   1.259   2.920   6.603
 1026SOL    HW1 3977   1.179   2.859   6.603
 1026SOL    HW2 3978   1.338   2.871   6.638
 1027SOL     OW 3979   2.802   4.995   2.237
 1027SOL    HW1 3980   2.705   5.017   2.232
 1027SOL    HW2 3981   2.854   5.078   2.260
 1028SOL     OW 3982   1.943   5.853   0.815
 1028SOL    HW1 3983   2.031   5.900   0.807
 1028SOL    HW2 3984   1.881   5.908   0.870
 1029SOL     OW 3985   3.267   0.340   5.966
 1029SOL    HW1 3986   3.280   0.257   6.020
 1029SOL    HW2 3987   3.351   0.359   5.914
 1030SOL     OW 3988   3.278   4.152   4.802
 1030SOL    HW1 3989   3.200   4.101   4.839
 1030SOL    HW2 3990   3.277   4.148   4.702
 1031SOL     OW 3991   2.211   5.288   1.837
 1031SOL    HW1 3992   2.240   5.224   1.767
 1031SOL    HW2 3993   2.283   5.356   1.851
 1032SOL     OW 3994   1.876   0.868   4.195
 1032SOL    HW1 3995   1.916   0.789   4.241
 1032SOL    HW2 3996   1.946   0.938   4.182
 1033SOL     OW 3997   1.972   6.241   3.125
 1033SOL    HW1 3998   2.006   6.219   3.034
 1033SOL    HW2 3999   2.045   6.227   3.192
 1034SOL     OW 4000   1.390   5.687   2.946
 1034SOL    HW1 4001   1.342   5.761   2.899
 1034SOL    HW2 4002   1.487   5.689   2.921
 1035SOL     OW 4003   2.873   1.143   4.339
 1035SOL    HW1 4004   2.940   1.196   4.286
 1035SOL    HW2 4005   2.821   1.084   4.278
 1036SOL     OW 4006   4.648   0.864   6.656
 1036SOL    HW1 4007   4.661   0.775   6.612
 1036SOL    HW2 4008   4.572   0.858   6.721
 1037SOL     OW 4009   3.034   2.042   6.405
 1037SOL    HW1 4010   3.031   2.021   6.503
 1037SOL    HW2 4011   3.062   2.137   6.391
 1038SOL     OW 4012   2.780   1.316   4.526
 1038SOL    HW1 4013   2.684   1.303   4.549
 1038SOL    HW2 4014   2.809   1.244   4.462
 1039SOL     OW 4015   3.952   1.315   3.503
 1039SOL    HW1 4016   4.025   1.361   3.453
 1039SOL    HW2 4017   3.930   1.228   3.459
 1040SOL     OW 4018   6.413   3.886   3.660
 1040SOL    HW1 4019   6.508   3.854   3.665
 1040SOL    HW2 4020   6.399   3.958   3.727
 1041SOL     OW 4021   0.782   6.695   4.699
 1041SOL    HW1 4022   0.807   6.603   4.729
 1041SOL    HW2 4023   0.861   6.739   4.656
 1042SOL     OW 4024   5.265   3.937   0.808
 1042SOL    HW1 4025   5.281   3.943   0.906
 1042SOL    HW2 4026   5.236   3.844   0.784
 1043SOL     OW 4027   3.315   1.217   6.549
 1043SOL    HW1 4028   3.309   1.136   6.607
 1043SOL    HW2 4029   3.396   1.211   6.491
 1044SOL     OW 4030   4.119   3.739   1.912
 1044SOL    HW1 4031   4.206   3.765   1.871
 1044SOL    HW2 4032   4.135   3.689   1.997
 1045SOL     OW 4033   3.426   1.446   3.493
 1045SOL    HW1 4034   3.455   1.460   3.588
 1045SOL    HW2 4035   3.506   1.451   3.434
 1046SOL     OW 4036   3.990   0.867   1.799
 1046SOL    HW1 4037   3.943   0.944   1.842
 1046SOL    HW2 4038   3.947   0.845   1.712
 1047SOL     OW 4039   0.823   5.015   1.932
 1047SOL    HW1 4040   0.749   4.947   1.931
 1047SOL    HW2 4041   0.897   4.984   1.872
 1048SOL     OW 4042   6.626   4.754   5.510
 1048SOL    HW1 4043   6.542   4.711   5.476
 1048SOL    HW2 4044   6.678   4.791   5.433
 1049SOL     OW 4045   0.878   3.068   5.084
 1049SOL    HW1 4046   0.925   3.103   5.003
 1049SOL    HW2 4047   0.836   3.144   5.134
 1050SOL     OW 4048   3.297   0.733   6.781
 1050SOL    HW1 4049   3.217   0.680   6.752
 1050SOL    HW2 4050   3.319   0.710   6.876
 1051SOL     OW 4051   4.675   5.113   1.765
 1051SOL    HW1 4052   4.771   5.140   1.774
 1051SOL    HW2 4053   4.616   5.185   1.803
 1052SOL     OW 4054   3.069   6.878   4.041
 1052SOL    HW1 4055   3.165   6.850   4.046
 1052SOL    HW2 4056   3.014   6.803   4.004
 1053SOL     OW 4057   4.541   4.971   3.141
 1053SOL    HW1 4058   4.593   4.887   3.151
 1053SOL    HW2 4059   4.443   4.949   3.133
 1054SOL     OW 4060   3.829   6.201   3.956
 1054SOL    HW1 4061   3.889   6.252   3.895
 1054SOL    HW2 4062   3.797   6.118   3.910
 1055SOL     OW 4063   4.626   5.198   4.515
 1055SOL    HW1 4064   4.674   5.274   4.558
 1055SOL    HW2 4065   4.586   5.139   4.586
 1056SOL     OW 4066   1.369   6.009   5.600
 1056SOL    HW1 4067   1.419   5.922   5.609
 1056SOL    HW2 4068   1.286   5.994   5.546
 1057SOL     OW 4069   3.744   4.069   1.781
 1057SOL    HW1 4070   3.826   4.031   1.823
 1057SOL    HW2 4071   3.684   4.106   1.852
 1058SOL     OW 4072   3.790   0.293   1.389
 1058SOL    HW1 4073   3.790   0.325   1.294
 1058SOL    HW2 4074   3.719   0.224   1.401
 1059SOL     OW 4075   3.241   1.423   1.287
 1059SOL    HW1 4076   3.281   1.510   1.315
 1059SOL    HW2 4077   3.251   1.356   1.361
 1060SOL     OW 4078   2.737   2.083   5.118
 1060SOL    HW1 4079   2.689   2.134   5.047
 1060SOL    HW2 4080   2.679   2.078   5.200
 1061SOL     OW 4081   3.163   6.366   1.206
 1061SOL    HW1 4082   3.202   6.441   1.261
 1061SOL    HW2 4083   3.192   6.376   1.111
 1062SOL     OW 4084   4.913   4.372   5.343
 1062SOL    HW1 4085   4.911   4.298   5.410
 1062SOL    HW2 4086   4.960   4.340   5.260
 1063SOL     OW 4087   2.615   2.372   5.650
 1063SOL    HW1 4088   2.595   2.279   5.682
 1063SOL    HW2 4089   2.686   2.412   5.708
 1064SOL     OW 4090   0.210   3.671   1.602
 1064SOL    HW1 4091   0.181   3.744   1.541
 1064SOL    HW2 4092   0.279   3.614   1.556
 1065SOL     OW 4093   5.471   5.587   5.134
 1065SOL    HW1 4094   5.529   5.510   5.161
 1065SOL    HW2 4095   5.525   5.654   5.084
 1066SOL     OW 4096   3.612   0.698   3.691
 1066SOL    HW1 4097   3.598   0.658   3.782
 1066SOL    HW2 4098   3.535   0.672   3.632
 1067SOL     OW 4099   1.663   3.266   1.613
 1067SOL    HW1 4100   1.666   3.354   1.565
 1067SOL    HW2 4101   1.714   3.198   1.561
 1068SOL     OW 4102   0.735   4.031   1.280
 1068SOL    HW1 4103   0.685   4.095   1.221
 1068SOL    HW2 4104   0.742   3.942   1.234
 1069SOL     OW 4105   3.854   3.841   1.610
 1069SOL    HW1 4106   3.801   3.922   1.634
 1069SOL    HW2 4107   3.821   3.805   1.522
 1070SOL     OW 4108   2.385   0.630   0.220
 1070SOL    HW1 4109   2.354   0.725   0.212
 1070SOL    HW2 4110   2.479   0.623   0.186
 1071SOL     OW 4111   4.317   6.412   3.701
 1071SOL    HW1 4112   4.221   6.385   3.693
 1071SOL    HW2 4113   4.375   6.333   3.682
 1072SOL     OW 4114   3.408   5.798   3.117
 1072SOL    HW1 4115   3.308   5.809   3.123
 1072SOL    HW2 4116   3.451   5.888   3.122
 1073SOL     OW 4117   3.103   4.838   2.785
 1073SOL    HW1 4118   3.157   4.862   2.704
 1073SOL    HW2 4119   3.155   4.774   2.842
 1074SOL     OW 4120   1.434   5.101   2.329
 1074SOL    HW1 4121   1.387   5.147   2.404
 1074SOL    HW2 4122   1.513   5.052   2.365
 1075SOL     OW 4123   0.113   4.258   2.855
 1075SOL    HW1 4124   0.133   4.161   2.866
 1075SOL    HW2 4125   0.179   4.299   2.792
 1076SOL     OW 4126   0.237   4.672   3.282
 1076SOL    HW1 4127   0.197   4.613   3.212
 1076SOL    HW2 4128   0.244   4.765   3.247
 1077SOL     OW 4129   4.674   0.561   0.772
 1077SOL    HW1 4130   4.664   0.472   0.815
 1077SOL    HW2 4131   4.587   0.588   0.730
 1078SOL     OW 4132   0.761   3.037   1.825
 1078SOL    HW1 4133   0.805   3.005   1.741
 1078SOL    HW2 4134   0.805   2.994   1.904
 1079SOL     OW 4135   2.436   5.095   2.416
 1079SOL    HW1 4136   2.489   5.017   2.450
 1079SOL    HW2 4137   2.351   5.103   2.468
 1080SOL     OW 4138   1.390   5.398   4.370
 1080SOL    HW1 4139   1.332   5.430   4.295
 1080SOL    HW2 4140   1.338   5.335   4.428
 1081SOL     OW 4141   1.232   1.144   0.453
 1081SOL    HW1 4142   1.220   1.213   0.381
 1081SOL    HW2 4143   1.273   1.062   0.414
 1082SOL     OW 4144   2.065   6.873   6.863
 1082SOL    HW1 4145   2.129   6.814   6.813
 1082SOL    HW2 4146   2.019   6.934   6.798
 1083SOL     OW 4147   3.802   2.569   1.373
 1083SOL    HW1 4148   3.727   2.503   1.385
 1083SOL    HW2 4149   3.786   2.649   1.431
 1084SOL     OW 4150   6.466   3.681   0.297
 1084SOL    HW1 4151   6.436   3.624   0.222
 1084SOL    HW2 4152   6.408   3.665   0.377
 1085SOL     OW 4153   2.472   4.521   3.315
 1085SOL    HW1 4154   2.502   4.575   3.237
 1085SOL    HW2 4155   2.456   4.582   3.393
 1086SOL     OW 4156   4.224   5.164   1.952
 1086SOL    HW1 4157   4.251   5.107   2.029
 1086SOL    HW2 4158   4.290   5.152   1.877
 1087SOL     OW 4159   3.828   3.169   5.409
 1087SOL    HW1 4160   3.764   3.149   5.483
 1087SOL    HW2 4161   3.778   3.180   5.324
 1088SOL     OW 4162   5.602   4.239   3.611
 1088SOL    HW1 4163   5.558   4.167   3.556
 1088SOL    HW2 4164   5.533   4.304   3.642
 1089SOL     OW 4165   5.654   0.149   3.071
 1089SOL    HW1 4166   5.725   0.219   3.065
 1089SOL    HW2 4167   5.679   0.083   3.142
 1090SOL     OW 4168   0.927   1.789   5.334
 1090SOL    HW1 4169   0.934   1.825   5.241
 1090SOL    HW2 4170   1.019   1.767   5.368
 1091SOL     OW 4171   0.948   2.488   4.715
 1091SOL    HW1 4172   0.858   2.525   4.739
 1091SOL    HW2 4173   1.019   2.551   4.745
 1092SOL     OW 4174   2.081   4.436   1.216
 1092SOL    HW1 4175   2.003   4.498   1.205
 1092SOL    HW2 4176   2.164   4.490   1.232
 1093SOL     OW 4177   0.172   1.719   2.756
 1093SOL    HW1 4178   0.122   1.761   2.680
 1093SOL    HW2 4179   0.216   1.635   2.724
 1094SOL     OW 4180   0.655   6.363   1.497
 1094SOL    HW1 4181   0.737   6.307   1.484
 1094SOL    HW2 4182   0.639   6.376   1.594
 1095SOL     OW 4183   5.898   3.460   6.015
 1095SOL    HW1 4184   5.960   3.395   6.058
 1095SOL    HW2 4185   5.940   3.495   5.931
 1096SOL     OW 4186   3.796   4.288   1.559
 1096SOL    HW1 4187   3.759   4.226   1.629
 1096SOL    HW2 4188   3.893   4.306   1.578
 1097SOL     OW 4189   2.090   4.611   5.178
 1097SOL    HW1 4190   2.002   4.564   5.166
 1097SOL    HW2 4191   2.134   4.578   5.261
 1098SOL     OW 4192   4.175   1.387   3.357
 1098SOL    HW1 4193   4.229   1.309   3.389
 1098SOL    HW2 4194   4.146   1.371   3.263
 1099SOL     OW 4195   3.787   1.533   2.430
 1099SOL    HW1 4196   3.775   1.464   2.359
 1099SOL    HW2 4197   3.740   1.618   2.403
 1100SOL     OW 4198   0.478   0.545   0.841
 1100SOL    HW1 4199   0.535   0.625   0.859
 1100SOL    HW2 4200   0.458   0.497   0.926
 1101SOL     OW 4201   6.166   2.505   1.070
 1101SOL    HW1 4202   6.188   2.409   1.056
 1101SOL    HW2 4203   6.188   2.556   0.986
 1102SOL     OW 4204   0.723   4.486   3.905
 1102SOL    HW1 4205   0.734   4.392   3.873
 1102SOL    HW2 4206   0.777   4.499   3.988
 1103SOL     OW 4207   0.607   3.318   1.447
 1103SOL    HW1 4208   0.638   3.310   1.353
 1103SOL    HW2 4209   0.686   3.320   1.508
 1104SOL     OW 4210   2.914   5.135   5.581
 1104SOL    HW1 4211   2.859   5.139   5.664
 1104SOL    HW2 4212   2.878   5.063   5.521
 1105SOL     OW 4213   4.553   5.925   0.392
 1105SOL    HW1 4214   4.508   5.921   0.482
 1105SOL    HW2 4215   4.484   5.933   0.321
 1106SOL     OW 4216   1.454   1.906   5.434
 1106SOL    HW1 4217   1.484   1.837   5.500
 1106SOL    HW2 4218   1.409   1.981   5.483
 1107SOL     OW 4219   1.092   0.075   1.535
 1107SOL    HW1 4220   1.090   7.003   1.576
 1107SOL    HW2 4221   1.184   0.113   1.545
 1108SOL     OW 4222   1.417   1.512   5.758
 1108SOL    HW1 4223   1.323   1.480   5.743
 1108SOL    HW2 4224   1.445   1.493   5.852
 1109SOL     OW 4225   4.562   1.229   3.726
 1109SOL    HW1 4226   4.624   1.155   3.701
 1109SOL    HW2 4227   4.467   1.200   3.711
 1110SOL     OW 4228   3.395   2.803   2.039
 1110SOL    HW1 4229   3.341   2.743   1.980
 1110SOL    HW2 4230   3.483   2.822   1.995
 1111SOL     OW 4231   5.624   6.769   6.895
 1111SOL    HW1 4232   5.581   6.696   6.949
 1111SOL    HW2 4233   5.577   6.855   6.911
 1112SOL     OW 4234   0.258   1.174   2.799
 1112SOL    HW1 4235   0.353   1.160   2.829
 1112SOL    HW2 4236   0.253   1.256   2.741
 1113SOL     OW 4237   6.493   3.726   1.704
 1113SOL    HW1 4238   6.500   3.696   1.800
 1113SOL    HW2 4239   6.408   3.777   1.692
 1114SOL     OW 4240   5.819   1.606   5.141
 1114SOL    HW1 4241   5.852   1.682   5.086
 1114SOL    HW2 4242   5.770   1.642   5.221
 1115SOL     OW 4243   2.972   3.245   0.379
 1115SOL    HW1 4244   3.034   3.216   0.452
 1115SOL    HW2 4245   2.895   3.181   0.374
 1116SOL     OW 4246   4.403   5.517   5.272
 1116SOL    HW1 4247   4.395   5.610   5.310
 1116SOL    HW2 4248   4.459   5.462   5.334
 1117SOL     OW 4249   2.320   3.140   0.940
 1117SOL    HW1 4250   2.226   3.161   0.913
 1117SOL    HW2 4251   2.327   3.046   0.972
 1118SOL     OW 4252   1.789   3.491   3.423
 1118SOL    HW1 4253   1.799   3.395   3.398
 1118SOL    HW2 4254   1.730   3.537   3.356
 1119SOL     OW 4255   3.129   4.021   2.433
 1119SOL    HW1 4256   3.084   4.093   2.381
 1119SOL    HW2 4257   3.142   3.940   2.376
 1120SOL     OW 4258   4.336   0.316   4.176
 1120SOL    HW1 4259   4.429   0.350   4.192
 1120SOL    HW2 4260   4.274   0.393   4.167
 1121SOL     OW 4261   5.166   3.319   2.233
 1121SOL    HW1 4262   5.176   3.274   2.144
 1121SOL    HW2 4263   5.072   3.307   2.266
 1122SOL     OW 4264   4.980   5.019   0.055
 1122SOL    HW1 4265   4.930   5.053   0.135
 1122SOL    HW2 4266   4.916   5.000   7.001
 1123SOL     OW 4267   3.944   0.585   2.018
 1123SOL    HW1 4268   4.035   0.617   2.044
 1123SOL    HW2 4269   3.876   0.625   2.079
 1124SOL     OW 4270   0.671   4.707   4.719
 1124SOL    HW1 4271   0.636   4.640   4.784
 1124SOL    HW2 4272   0.597   4.740   4.662
 1125SOL     OW 4273   3.955   3.284   4.941
 1125SOL    HW1 4274   3.962   3.355   4.871
 1125SOL    HW2 4275   3.988   3.319   5.028
 1126SOL     OW 4276   5.521   0.193   2.419
 1126SOL    HW1 4277   5.443   0.184   2.358
 1126SOL    HW2 4278   5.506   0.136   2.500
 1127SOL     OW 4279   1.111   4.850   6.843
 1127SOL    HW1 4280   1.159   4.778   6.795
 1127SOL    HW2 4281   1.176   4.920   6.872
 1128SOL     OW 4282   3.131   1.574   4.341
 1128SOL    HW1 4283   3.082   1.658   4.364
 1128SOL    HW2 4284   3.132   1.562   4.241
 1129SOL     OW 4285   5.076   0.157   6.703
 1129SOL    HW1 4286   5.045   0.237   6.651
 1129SOL    HW2 4287   5.165   0.177   6.744
 1130SOL     OW 4288   0.266   4.732   6.003
 1130SOL    HW1 4289   0.188   4.673   6.023
 1130SOL    HW2 4290   0.261   4.815   6.059
 1131SOL     OW 4291   0.553   5.081   5.865
 1131SOL    HW1 4292   0.634   5.103   5.810
 1131SOL    HW2 4293   0.564   5.117   5.957
 1132SOL     OW 4294   5.202   0.370   5.050
 1132SOL    HW1 4295   5.267   0.438   5.083
 1132SOL    HW2 4296   5.193   0.376   4.951
 1133SOL     OW 4297   0.786   2.601   0.808
 1133SOL    HW1 4298   0.816   2.669   0.875
 1133SOL    HW2 4299   0.687   2.591   0.813
 1134SOL     OW 4300   6.531   2.827   5.868
 1134SOL    HW1 4301   6.498   2.739   5.904
 1134SOL    HW2 4302   6.480   2.850   5.785
 1135SOL     OW 4303   5.503   1.709   3.064
 1135SOL    HW1 4304   5.591   1.707   3.018
 1135SOL    HW2 4305   5.466   1.802   3.061
 1136SOL     OW 4306   3.952   5.522   4.453
 1136SOL    HW1 4307   3.937   5.423   4.451
 1136SOL    HW2 4308   3.865   5.568   4.473
 1137SOL     OW 4309   2.091   1.204   5.566
 1137SOL    HW1 4310   2.133   1.144   5.633
 1137SOL    HW2 4311   2.152   1.213   5.487
 1138SOL     OW 4312   0.617   4.166   5.690
 1138SOL    HW1 4313   0.543   4.227   5.717
 1138SOL    HW2 4314   0.696   4.220   5.659
 1139SOL     OW 4315   1.238   6.451   1.304
 1139SOL    HW1 4316   1.150   6.421   1.267
 1139SOL    HW2 4317   1.300   6.373   1.313
 1140SOL     OW 4318   3.538   1.526   3.731
 1140SOL    HW1 4319   3.637   1.513   3.723
 1140SOL    HW2 4320   3.515   1.620   3.707
 1141SOL     OW 4321   6.641   5.937   5.919
 1141SOL    HW1 4322   6.571   6.009   5.920
 1141SOL    HW2 4323   6.722   5.970   5.967
 1142SOL     OW 4324   5.795   0.972   4.177
 1142SOL    HW1 4325   5.878   0.916   4.167
 1142SOL    HW2 4326   5.720   0.930   4.126
 1143SOL     OW 4327   4.116   2.038   2.363
 1143SOL    HW1 4328   4.138   2.111   2.427
 1143SOL    HW2 4329   4.017   2.033   2.351
 1144SOL     OW 4330   1.149   6.571   5.688
 1144SOL    HW1 4331   1.120   6.661   5.722
 1144SOL    HW2 4332   1.081   6.536   5.623
 1145SOL     OW 4333   1.174   5.154   5.114
 1145SOL    HW1 4334   1.261   5.116   5.146
 1145SOL    HW2 4335   1.102   5.084   5.122
 1146SOL     OW 4336   6.234   2.143   0.829
 1146SOL    HW1 4337   6.253   2.046   0.811
 1146SOL    HW2 4338   6.152   2.171   0.779
 1147SOL     OW 4339   5.986   2.703   1.684
 1147SOL    HW1 4340   5.930   2.767   1.631
 1147SOL    HW2 4341   5.995   2.617   1.634
 1148SOL     OW 4342   4.295   0.415   0.147
 1148SOL    HW1 4343   4.383   0.424   0.099
 1148SOL    HW2 4344   4.224   0.462   0.094
 1149SOL     OW 4345   6.722   3.245   2.905
 1149SOL    HW1 4346   6.647   3.186   2.934
 1149SOL    HW2 4347   6.805   3.190   2.896
 1150SOL     OW 4348   0.842   5.151   5.830
 1150SOL    HW1 4349   0.844   5.077   5.762
 1150SOL    HW2 4350   0.907   5.130   5.903
 1151SOL     OW 4351   4.590   5.884   6.809
 1151SOL    HW1 4352   4.590   5.784   6.821
 1151SOL    HW2 4353   4.671   5.922   6.853
 1152SOL     OW 4354   0.479   0.711   5.039
 1152SOL    HW1 4355   0.481   0.611   5.042
 1152SOL    HW2 4356   0.537   0.748   5.112
 1153SOL     OW 4357   2.124   5.345   2.362
 1153SOL    HW1 4358   2.176   5.333   2.278
 1153SOL    HW2 4359   2.144   5.271   2.426
 1154SOL     OW 4360   2.265   4.435   1.692
 1154SOL    HW1 4361   2.228   4.346   1.662
 1154SOL    HW2 4362   2.349   4.420   1.744
 1155SOL     OW 4363   2.759   5.677   1.826
 1155SOL    HW1 4364   2.804   5.591   1.849
 1155SOL    HW2 4365   2.693   5.700   1.897
 1156SOL     OW 4366   1.773   1.139   4.112
 1156SOL    HW1 4367   1.742   1.104   4.200
 1156SOL    HW2 4368   1.717   1.100   4.039
 1157SOL     OW 4369   1.124   2.407   4.492
 1157SOL    HW1 4370   1.073   2.322   4.498
 1157SOL    HW2 4371   1.070   2.481   4.533
 1158SOL     OW 4372   4.635   5.191   5.610
 1158SOL    HW1 4373   4.552   5.201   5.665
 1158SOL    HW2 4374   4.626   5.246   5.527
 1159SOL     OW 4375   5.142   5.317   3.428
 1159SOL    HW1 4376   5.223   5.329   3.371
 1159SOL    HW2 4377   5.141   5.224   3.466
 1160SOL     OW 4378   2.433   2.469   0.612
 1160SOL    HW1 4379   2.393   2.524   0.539
 1160SOL    HW2 4380   2.378   2.386   0.626
 1161SOL     OW 4381   3.778   6.870   4.363
 1161SOL    HW1 4382   3.782   6.912   4.453
 1161SOL    HW2 4383   3.804   6.774   4.370
 1162SOL     OW 4384   3.945   4.611   1.711
 1162SOL    HW1 4385   4.027   4.668   1.707
 1162SOL    HW2 4386   3.971   4.515   1.718
 1163SOL     OW 4387   4.777   2.286   2.058
 1163SOL    HW1 4388   4.828   2.293   2.143
 1163SOL    HW2 4389   4.686   2.327   2.070
 1164SOL     OW 4390   5.736   3.448   3.903
 1164SOL    HW1 4391   5.727   3.547   3.908
 1164SOL    HW2 4392   5.812   3.424   3.842
 1165SOL     OW 4393   1.542   4.628   2.002
 1165SOL    HW1 4394   1.614   4.564   2.029
 1165SOL    HW2 4395   1.511   4.679   2.083
 1166SOL     OW 4396   3.589   3.017   6.439
 1166SOL    HW1 4397   3.579   2.923   6.469
 1166SOL    HW2 4398   3.634   3.020   6.349
 1167SOL     OW 4399   4.868   1.595   4.501
 1167SOL    HW1 4400   4.832   1.672   4.448
 1167SOL    HW2 4401   4.799   1.566   4.567
 1168SOL     OW 4402   6.357   6.183   3.522
 1168SOL    HW1 4403   6.270   6.193   3.474
 1168SOL    HW2 4404   6.352   6.105   3.584
 1169SOL     OW 4405   0.916   3.747   1.616
 1169SOL    HW1 4406   0.900   3.668   1.556
 1169SOL    HW2 4407   0.873   3.828   1.576
 1170SOL     OW 4408   2.711   0.527   0.737
 1170SOL    HW1 4409   2.752   0.452   0.788
 1170SOL    HW2 4410   2.773   0.556   0.664
 1171SOL     OW 4411   2.406   0.020   0.744
 1171SOL    HW1 4412   2.363   0.047   0.658
 1171SOL    HW2 4413   2.490   0.073   0.758
 1172SOL     OW 4414   3.012   3.286   4.801
 1172SOL    HW1 4415   2.976   3.265   4.891
 1172SOL    HW2 4416   2.983   3.216   4.736
 1173SOL     OW 4417   4.979   0.719   5.955
 1173SOL    HW1 4418   5.030   0.772   6.023
 1173SOL    HW2 4419   5.012   0.742   5.863
 1174SOL     OW 4420   3.165   6.492   0.670
 1174SOL    HW1 4421   3.067   6.509   0.673
 1174SOL    HW2 4422   3.211   6.567   0.623
 1175SOL     OW 4423   6.854   4.969   5.062
 1175SOL    HW1 4424   6.778   5.033   5.056
 1175SOL    HW2 4425   6.890   4.952   4.970
 1176SOL     OW 4426   6.747   3.847   1.019
 1176SOL    HW1 4427   6.814   3.830   0.947
 1176SOL    HW2 4428   6.795   3.854   1.107
 1177SOL     OW 4429   6.565   3.315   0.085
 1177SOL    HW1 4430   6.507   3.395   0.104
 1177SOL    HW2 4431   6.601   3.322   7.012
 1178SOL     OW 4432   5.514   4.015   1.822
 1178SOL    HW1 4433   5.532   3.929   1.774
 1178SOL    HW2 4434   5.489   3.996   1.917
 1179SOL     OW 4435   2.654   5.720   6.466
 1179SOL    HW1 4436   2.607   5.808   6.455
 1179SOL    HW2 4437   2.603   5.649   6.417
 1180SOL     OW 4438   2.569   1.934   3.705
 1180SOL    HW1 4439   2.574   1.836   3.725
 1180SOL    HW2 4440   2.502   1.977   3.767
 1181SOL     OW 4441   2.178   4.570   3.172
 1181SOL    HW1 4442   2.261   4.516   3.183
 1181SOL    HW2 4443   2.105   4.529   3.227
 1182SOL     OW 4444   1.423   4.421   3.527
 1182SOL    HW1 4445   1.399   4.517   3.520
 1182SOL    HW2 4446   1.375   4.369   3.456
 1183SOL     OW 4447   4.753   5.625   0.895
 1183SOL    HW1 4448   4.724   5.549   0.838
 1183SOL    HW2 4449   4.710   5.618   0.985
 1184SOL     OW 4450   3.172   2.605   5.596
 1184SOL    HW1 4451   3.270   2.612   5.613
 1184SOL    HW2 4452   3.155   2.536   5.525
 1185SOL     OW 4453   2.301   1.813   0.109
 1185SOL    HW1 4454   2.342   1.777   0.025
 1185SOL    HW2 4455   2.372   1.855   0.165
 1186SOL     OW 4456   4.189   0.890   5.040
 1186SOL    HW1 4457   4.241   0.857   5.119
 1186SOL    HW2 4458   4.121   0.823   5.014
 1187SOL     OW 4459   0.004   0.865   5.704
 1187SOL    HW1 4460   0.003   0.774   5.661
 1187SOL    HW2 4461   0.066   0.925   5.654
 1188SOL     OW 4462   1.584   6.823   5.656
 1188SOL    HW1 4463   1.677   6.815   5.693
 1188SOL    HW2 4464   1.556   6.735   5.618
 1189SOL     OW 4465   6.993   1.001   1.534
 1189SOL    HW1 4466   0.040   0.983   1.462
 1189SOL    HW2 4467   6.913   0.943   1.521
 1190SOL     OW 4468   4.508   4.464   2.807
 1190SOL    HW1 4469   4.457   4.550   2.814
 1190SOL    HW2 4470   4.515   4.439   2.711
 1191SOL     OW 4471   3.516   4.905   0.355
 1191SOL    HW1 4472   3.503   4.828   0.293
 1191SOL    HW2 4473   3.584   4.881   0.425
 1192SOL     OW 4474   4.649   5.091   2.217
 1192SOL    HW1 4475   4.594   5.009   2.203
 1192SOL    HW2 4476   4.597   5.172   2.189
 1193SOL     OW 4477   4.329   6.800   4.035
 1193SOL    HW1 4478   4.240   6.769   4.000
 1193SOL    HW2 4479   4.318   6.885   4.085
 1194SOL     OW 4480   6.246   0.367   1.601
 1194SOL    HW1 4481   6.305   0.398   1.526
 1194SOL    HW2 4482   6.168   0.317   1.563
 1195SOL     OW 4483   3.921   0.071   6.692
 1195SOL    HW1 4484   3.893   0.165   6.670
 1195SOL    HW2 4485   4.017   0.058   6.665
 1196SOL     OW 4486   0.222   5.491   2.986
 1196SOL    HW1 4487   0.143   5.456   3.037
 1196SOL    HW2 4488   0.223   5.452   2.894
 1197SOL     OW 4489   2.931   5.257   6.198
 1197SOL    HW1 4490   2.925   5.356   6.211
 1197SOL    HW2 4491   2.968   5.215   6.280
 1198SOL     OW 4492   3.426   1.544   2.564
 1198SOL    HW1 4493   3.376   1.623   2.531
 1198SOL    HW2 4494   3.436   1.549   2.663
 1199SOL     OW 4495   3.499   4.116   3.496
 1199SOL    HW1 4496   3.583   4.091   3.449
 1199SOL    HW2 4497   3.430   4.045   3.483
 1200SOL     OW 4498   3.954   3.840   0.710
 1200SOL    HW1 4499   3.931   3.747   0.682
 1200SOL    HW2 4500   3.891   3.904   0.666
 1201SOL     OW 4501   1.647   0.751   4.520
 1201SOL    HW1 4502   1.585   0.805   4.576
 1201SOL    HW2 4503   1.742   0.777   4.541
 1202SOL     OW 4504   5.788   0.306   4.948
 1202SOL    HW1 4505   5.781   0.307   4.848
 1202SOL    HW2 4506   5.775   0.399   4.983
 1203SOL     OW 4507   6.264   6.601   1.895
 1203SOL    HW1 4508   6.334   6.559   1.838
 1203SOL    HW2 4509   6.205   6.530   1.932
 1204SOL     OW 4510   3.165   6.777   6.986
 1204SOL    HW1 4511   3.217   6.693   7.001
 1204SOL    HW2 4512   3.178   6.808   6.892
 1205SOL     OW 4513   0.628   2.018   5.052
 1205SOL    HW1 4514   0.572   2.077   4.994
 1205SOL    HW2 4515   0.572   1.981   5.126
 1206SOL     OW 4516   0.626   1.613   4.623
 1206SOL    HW1 4517   0.673   1.573   4.702
 1206SOL    HW2 4518   0.690   1.671   4.573
 1207SOL     OW 4519   5.803   6.137   6.403
 1207SOL    HW1 4520   5.816   6.041   6.376
 1207SOL    HW2 4521   5.705   6.155   6.415
 1208SOL     OW 4522   3.812   4.001   3.653
 1208SOL    HW1 4523   3.721   4.034   3.628
 1208SOL    HW2 4524   3.819   3.903   3.632
 1209SOL     OW 4525   6.345   4.458   4.967
 1209SOL    HW1 4526   6.442   4.481   4.970
 1209SOL    HW2 4527   6.324   4.411   4.881
 1210SOL     OW 4528   2.988   6.507   2.630
 1210SOL    HW1 4529   3.003   6.566   2.710
 1210SOL    HW2 4530   2.934   6.557   2.562
 1211SOL     OW 4531   1.345   3.347   3.848
 1211SOL    HW1 4532   1.337   3.420   3.916
 1211SOL    HW2 4533   1.421   3.367   3.787
 1212SOL     OW 4534   2.195   4.043   4.831
 1212SOL    HW1 4535   2.254   4.124   4.831
 1212SOL    HW2 4536   2.231   3.977   4.897
 1213SOL     OW 4537   5.961   2.822   5.579
 1213SOL    HW1 4538   5.899   2.879   5.632
 1213SOL    HW2 4539   6.019   2.880   5.521
 1214SOL     OW 4540   1.571   2.942   2.694
 1214SOL    HW1 4541   1.582   3.003   2.772
 1214SOL    HW2 4542   1.659   2.933   2.647
 1215SOL     OW 4543   0.123   5.497   2.056
 1215SOL    HW1 4544   0.096   5.587   2.022
 1215SOL    HW2 4545   0.223   5.495   2.069
 1216SOL     OW 4546   3.191   0.417   1.727
 1216SOL    HW1 4547   3.201   0.366   1.642
 1216SOL    HW2 4548   3.122   0.373   1.784
 1217SOL     OW 4549   1.329   1.479   2.577
 1217SOL    HW1 4550   1.308   1.504   2.483
 1217SOL    HW2 4551   1.257   1.421   2.614
 1218SOL     OW 4552   0.479   3.700   4.189
 1218SOL    HW1 4553   0.467   3.619   4.130
 1218SOL    HW2 4554   0.539   3.765   4.143
 1219SOL     OW 4555   2.480   5.941   3.542
 1219SOL    HW1 4556   2.441   5.968   3.631
 1219SOL    HW2 4557   2.503   5.844   3.545
 1220SOL     OW 4558   6.396   4.126   2.497
 1220SOL    HW1 4559   6.461   4.196   2.469
 1220SOL    HW2 4560   6.341   4.160   2.574
 1221SOL     OW 4561   5.116   3.567   6.715
 1221SOL    HW1 4562   5.109   3.474   6.679
 1221SOL    HW2 4563   5.181   3.619   6.659
 1222SOL     OW 4564   5.362   5.566   1.297
 1222SOL    HW1 4565   5.299   5.490   1.309
 1222SOL    HW2 4566   5.356   5.600   1.203
 1223SOL     OW 4567   5.830   4.979   4.974
 1223SOL    HW1 4568   5.816   4.968   5.072
 1223SOL    HW2 4569   5.920   4.944   4.949
 1224SOL     OW 4570   4.467   4.913   2.013
 1224SOL    HW1 4571   4.411   4.846   1.963
 1224SOL    HW2 4572   4.560   4.912   1.978
 1225SOL     OW 4573   4.333   1.141   0.189
 1225SOL    HW1 4574   4.340   1.041   0.184
 1225SOL    HW2 4575   4.291   1.175   0.105
 1226SOL     OW 4576   4.987   5.050   0.415
 1226SOL    HW1 4577   4.914   5.069   0.349
 1226SOL    HW2 4578   4.958   4.980   0.479
 1227SOL     OW 4579   4.828   4.884   6.820
 1227SOL    HW1 4580   4.905   4.830   6.787
 1227SOL    HW2 4581   4.748   4.867   6.763
 1228SOL     OW 4582   3.875   3.610   4.101
 1228SOL    HW1 4583   3.822   3.525   4.099
 1228SOL    HW2 4584   3.972   3.590   4.086
 1229SOL     OW 4585   2.193   5.740   2.616
 1229SOL    HW1 4586   2.275   5.755   2.561
 1229SOL    HW2 4587   2.131   5.678   2.567
 1230SOL     OW 4588   5.288   4.975   1.988
 1230SOL    HW1 4589   5.202   5.009   2.026
 1230SOL    HW2 4590   5.288   4.875   1.990
 1231SOL     OW 4591   2.059   2.218   7.016
 1231SOL    HW1 4592   2.000   2.259   6.946
 1231SOL    HW2 4593   2.141   2.180   6.972
 1232SOL     OW 4594   2.996   1.249   4.717
 1232SOL    HW1 4595   3.046   1.324   4.762
 1232SOL    HW2 4596   2.898   1.259   4.735
 1233SOL     OW 4597   6.768   5.860   5.066
 1233SOL    HW1 4598   6.705   5.871   5.142
 1233SOL    HW2 4599   6.857   5.899   5.091
 1234SOL     OW 4600   6.214   3.708   0.019
 1234SOL    HW1 4601   6.202   3.805   0.038
 1234SOL    HW2 4602   6.145   3.678   6.973
 1235SOL     OW 4603   6.329   5.273   1.385
 1235SOL    HW1 4604   6.371   5.348   1.436
 1235SOL    HW2 4605   6.395   5.237   1.319
 1236SOL     OW 4606   1.382   1.715   2.727
 1236SOL    HW1 4607   1.447   1.660   2.780
 1236SOL    HW2 4608   1.349   1.662   2.649
 1237SOL     OW 4609   1.063   6.979   4.978
 1237SOL    HW1 4610   1.130   6.940   5.041
 1237SOL    HW2 4611   0.996   6.909   4.953
 1238SOL     OW 4612   0.800   0.460   4.579
 1238SOL    HW1 4613   0.875   0.525   4.581
 1238SOL    HW2 4614   0.818   0.391   4.508
 1239SOL     OW 4615   5.395   5.001   3.966
 1239SOL    HW1 4616   5.491   5.029   3.954
 1239SOL    HW2 4617   5.376   4.923   3.908
 1240SOL     OW 4618   1.089   3.832   2.214
 1240SOL    HW1 4619   1.028   3.754   2.199
 1240SOL    HW2 4620   1.049   3.893   2.282
 1241SOL     OW 4621   3.974   5.493   5.468
 1241SOL    HW1 4622   4.068   5.489   5.503
 1241SOL    HW2 4623   3.973   5.539   5.380
 1242SOL     OW 4624   2.217   4.646   0.895
 1242SOL    HW1 4625   2.248   4.646   0.990
 1242SOL    HW2 4626   2.223   4.553   0.858
 1243SOL     OW 4627   0.763   3.680   4.094
 1243SOL    HW1 4628   0.831   3.688   4.166
 1243SOL    HW2 4629   0.745   3.583   4.076
 1244SOL     OW 4630   6.369   0.344   5.703
 1244SOL    HW1 4631   6.327   0.256   5.683
 1244SOL    HW2 4632   6.465   0.343   5.676
 1245SOL     OW 4633   4.807   6.227   1.168
 1245SOL    HW1 4634   4.829   6.198   1.261
 1245SOL    HW2 4635   4.869   6.301   1.141
 1246SOL     OW 4636   5.168   0.886   0.770
 1246SOL    HW1 4637   5.225   0.934   0.837
 1246SOL    HW2 4638   5.118   0.952   0.715
 1247SOL     OW 4639   6.577   0.077   3.316
 1247SOL    HW1 4640   6.554   0.014   3.390
 1247SOL    HW2 4641   6.519   0.056   3.237
 1248SOL     OW 4642   1.013   6.368   4.355
 1248SOL    HW1 4643   0.967   6.457   4.354
 1248SOL    HW2 4644   1.107   6.379   4.386
 1249SOL     OW 4645   5.974   5.763   6.339
 1249SOL    HW1 4646   5.944   5.842   6.286
 1249SOL    HW2 4647   5.895   5.706   6.362
 1250SOL     OW 4648   0.425   2.774   5.178
 1250SOL    HW1 4649   0.377   2.836   5.116
 1250SOL    HW2 4650   0.500   2.822   5.222
 1251SOL     OW 4651   2.832   0.737   2.866
 1251SOL    HW1 4652   2.925   0.768   2.886
 1251SOL    HW2 4653   2.791   0.796   2.797
 1252SOL     OW 4654   1.929   5.872   6.480
 1252SOL    HW1 4655   2.010   5.876   6.538
 1252SOL    HW2 4656   1.949   5.913   6.391
 1253SOL     OW 4657   3.368   6.944   6.818
 1253SOL    HW1 4658   3.450   6.895   6.791
 1253SOL    HW2 4659   3.348   7.016   6.752
 1254SOL     OW 4660   5.663   0.521   3.162
 1254SOL    HW1 4661   5.725   0.591   3.196
 1254SOL    HW2 4662   5.714   0.435   3.148
 1255SOL     OW 4663   5.794   1.226   5.665
 1255SOL    HW1 4664   5.787   1.286   5.745
 1255SOL    HW2 4665   5.704   1.219   5.621
 1256SOL     OW 4666   0.032   5.760   4.649
 1256SOL    HW1 4667   0.060   5.782   4.556
 1256SOL    HW2 4668   6.953   5.744   4.651
 1257SOL     OW 4669   0.115   6.107   3.194
 1257SOL    HW1 4670   0.065   6.040   3.250
 1257SOL    HW2 4671   0.050   6.173   3.157
 1258SOL     OW 4672   4.609   5.855   5.952
 1258SOL    HW1 4673   4.573   5.761   5.954
 1258SOL    HW2 4674   4.532   5.919   5.952
 1259SOL     OW 4675   5.738   0.170   5.198
 1259SOL    HW1 4676   5.782   0.219   5.123
 1259SOL    HW2 4677   5.642   0.196   5.203
 1260SOL     OW 4678   2.988   1.272   1.445
 1260SOL    HW1 4679   3.080   1.277   1.484
 1260SOL    HW2 4680   2.929   1.338   1.491
 1261SOL     OW 4681   6.792   4.816   5.275
 1261SOL    HW1 4682   6.886   4.800   5.307
 1261SOL    HW2 4683   6.790   4.895   5.215
 1262SOL     OW 4684   4.024   4.998   1.187
 1262SOL    HW1 4685   3.943   5.032   1.140
 1262SOL    HW2 4686   3.996   4.948   1.269
 1263SOL     OW 4687   6.247   2.250   1.072
 1263SOL    HW1 4688   6.246   2.187   1.149
 1263SOL    HW2 4689   6.251   2.199   0.986
 1264SOL     OW 4690   6.508   2.696   4.269
 1264SOL    HW1 4691   6.602   2.715   4.297
 1264SOL    HW2 4692   6.500   2.600   4.244
 1265SOL     OW 4693   6.774   6.134   4.503
 1265SOL    HW1 4694   6.689   6.173   4.538
 1265SOL    HW2 4695   6.839   6.124   4.578
 1266SOL     OW 4696   2.513   1.251   4.625
 1266SOL    HW1 4697   2.506   1.162   4.581
 1266SOL    HW2 4698   2.424   1.277   4.663
 1267SOL     OW 4699   6.578   5.073   2.625
 1267SOL    HW1 4700   6.591   5.147   2.691
 1267SOL    HW2 4701   6.648   5.003   2.639
 1268SOL     OW 4702   5.891   3.383   0.300
 1268SOL    HW1 4703   5.955   3.455   0.272
 1268SOL    HW2 4704   5.940   3.315   0.355
 1269SOL     OW 4705   0.074   5.573   6.224
 1269SOL    HW1 4706   0.153   5.563   6.283
 1269SOL    HW2 4707   0.024   5.656   6.248
 1270SOL     OW 4708   1.927   2.627   5.052
 1270SOL    HW1 4709   1.841   2.671   5.079
 1270SOL    HW2 4710   1.991   2.697   5.020
 1271SOL     OW 4711   5.228   2.069   2.992
 1271SOL    HW1 4712   5.256   2.157   2.955
 1271SOL    HW2 4713   5.158   2.028   2.934
 1272SOL     OW 4714   6.977   6.669   2.041
 1272SOL    HW1 4715   6.932   6.748   1.999
 1272SOL    HW2 4716   6.948   6.585   1.995
 1273SOL     OW 4717   2.561   6.189   6.797
 1273SOL    HW1 4718   2.563   6.140   6.884
 1273SOL    HW2 4719   2.646   6.240   6.785
 1274SOL     OW 4720   6.327   2.500   1.458
 1274SOL    HW1 4721   6.292   2.421   1.508
 1274SOL    HW2 4722   6.427   2.502   1.463
 1275SOL     OW 4723   3.963   1.804   3.791
 1275SOL    HW1 4724   3.888   1.841   3.736
 1275SOL    HW2 4725   3.931   1.788   3.884
 1276SOL     OW 4726   6.118   0.332   3.305
 1276SOL    HW1 4727   6.119   0.339   3.205
 1276SOL    HW2 4728   6.133   0.237   3.331
 1277SOL     OW 4729   6.895   1.191   5.153
 1277SOL    HW1 4730   6.947   1.233   5.080
 1277SOL    HW2 4731   6.952   1.182   5.234
 1278SOL     OW 4732   2.902   1.705   5.127
 1278SOL    HW1 4733   2.913   1.790   5.178
 1278SOL    HW2 4734   2.891   1.628   5.190
 1279SOL     OW 4735   2.612   5.312   6.929
 1279SOL    HW1 4736   2.668   5.247   6.981
 1279SOL    HW2 4737   2.593   5.393   6.985
 1280SOL     OW 4738   1.774   6.472   3.205
 1280SOL    HW1 4739   1.726   6.559   3.192
 1280SOL    HW2 4740   1.817   6.445   3.119
 1281SOL     OW 4741   0.827   6.607   4.072
 1281SOL    HW1 4742   0.793   6.579   3.982
 1281SOL    HW2 4743   0.910   6.663   4.060
 1282SOL     OW 4744   1.049   0.618   2.370
 1282SOL    HW1 4745   1.007   0.544   2.423
 1282SOL    HW2 4746   1.043   0.596   2.273
 1283SOL     OW 4747   5.360   5.098   5.392
 1283SOL    HW1 4748   5.305   5.015   5.384
 1283SOL    HW2 4749   5.301   5.178   5.376
 1284SOL     OW 4750   2.529   1.928   2.351
 1284SOL    HW1 4751   2.577   1.922   2.263
 1284SOL    HW2 4752   2.517   1.836   2.389
 1285SOL     OW 4753   5.130   2.325   5.736
 1285SOL    HW1 4754   5.147   2.310   5.834
 1285SOL    HW2 4755   5.163   2.245   5.685
 1286SOL     OW 4756   6.122   5.621   1.487
 1286SOL    HW1 4757   6.193   5.576   1.542
 1286SOL    HW2 4758   6.112   5.574   1.400
 1287SOL     OW 4759   6.247   5.168   6.082
 1287SOL    HW1 4760   6.189   5.095   6.117
 1287SOL    HW2 4761   6.288   5.218   6.158
 1288SOL     OW 4762   6.564   2.333   2.751
 1288SOL    HW1 4763   6.613   2.406   2.799
 1288SOL    HW2 4764   6.472   2.365   2.726
 1289SOL     OW 4765   6.257   5.840   2.520
 1289SOL    HW1 4766   6.346   5.830   2.474
 1289SOL    HW2 4767   6.247   5.768   2.589
 1290SOL     OW 4768   0.762   6.845   1.520
 1290SOL    HW1 4769   0.678   6.882   1.560
 1290SOL    HW2 4770   0.819   6.920   1.487
 1291SOL     OW 4771   2.287   0.064   0.512
 1291SOL    HW1 4772   2.294   0.162   0.494
 1291SOL    HW2 4773   2.201   0.030   0.475
 1292SOL     OW 4774   1.329   6.126   6.955
 1292SOL    HW1 4775   1.392   6.134   0.012
 1292SOL    HW2 4776   1.282   6.214   6.942
 1293SOL     OW 4777   0.474   2.506   5.834
 1293SOL    HW1 4778   0.564   2.521   5.793
 1293SOL    HW2 4779   0.453   2.408   5.833
 1294SOL     OW 4780   6.744   1.586   2.792
 1294SOL    HW1 4781   6.827   1.595   2.846
 1294SOL    HW2 4782   6.666   1.568   2.853
 1295SOL     OW 4783   5.962   3.130   1.751
 1295SOL    HW1 4784   6.061   3.116   1.755
 1295SOL    HW2 4785   5.917   3.045   1.723
 1296SOL     OW 4786   3.646   2.762   6.499
 1296SOL    HW1 4787   3.662   2.722   6.409
 1296SOL    HW2 4788   3.710   2.724   6.565
 1297SOL     OW 4789   6.686   1.579   6.407
 1297SOL    HW1 4790   6.664   1.506   6.472
 1297SOL    HW2 4791   6.777   1.564   6.369
 1298SOL     OW 4792   5.552   2.992   3.338
 1298SOL    HW1 4793   5.624   3.050   3.301
 1298SOL    HW2 4794   5.536   3.017   3.434
 1299SOL     OW 4795   1.037   3.800   4.018
 1299SOL    HW1 4796   0.988   3.838   3.939
 1299SOL    HW2 4797   1.043   3.868   4.090
 1300SOL     OW 4798   2.627   3.248   1.397
 1300SOL    HW1 4799   2.630   3.348   1.401
 1300SOL    HW2 4800   2.613   3.219   1.302
 1301SOL     OW 4801   0.323   0.353   3.019
 1301SOL    HW1 4802   0.350   0.262   2.988
 1301SOL    HW2 4803   0.238   0.346   3.071
 1302SOL     OW 4804   2.453   5.830   4.848
 1302SOL    HW1 4805   2.506   5.883   4.915
 1302SOL    HW2 4806   2.383   5.778   4.895
 1303SOL     OW 4807   3.893   1.066   1.419
 1303SOL    HW1 4808   3.796   1.073   1.395
 1303SOL    HW2 4809   3.948   1.087   1.338
 1304SOL     OW 4810   2.945   0.687   6.354
 1304SOL    HW1 4811   3.024   0.637   6.317
 1304SOL    HW2 4812   2.977   0.759   6.415
 1305SOL     OW 4813   5.183   6.839   4.567
 1305SOL    HW1 4814   5.141   6.909   4.625
 1305SOL    HW2 4815   5.126   6.824   4.486
 1306SOL     OW 4816   0.957   4.646   3.825
 1306SOL    HW1 4817   0.885   4.593   3.870
 1306SOL    HW2 4818   0.936   4.743   3.831
 1307SOL     OW 4819   1.977   1.728   4.393
 1307SOL    HW1 4820   2.036   1.774   4.327
 1307SOL    HW2 4821   1.882   1.753   4.376
 1308SOL     OW 4822   4.661   5.772   2.727
 1308SOL    HW1 4823   4.673   5.679   2.692
 1308SOL    HW2 4824   4.751   5.814   2.740
 1309SOL     OW 4825   5.876   2.637   4.793
 1309SOL    HW1 4826   5.874   2.616   4.891
 1309SOL    HW2 4827   5.814   2.576   4.744
 1310SOL     OW 4828   4.837   3.775   5.308
 1310SOL    HW1 4829   4.935   3.786   5.293
 1310SOL    HW2 4830   4.802   3.704   5.247
 1311SOL     OW 4831   4.957   5.699   5.426
 1311SOL    HW1 4832   5.051   5.722   5.449
 1311SOL    HW2 4833   4.953   5.670   5.330
 1312SOL     OW 4834   0.376   6.908   1.328
 1312SOL    HW1 4835   0.377   6.848   1.409
 1312SOL    HW2 4836   0.310   6.873   1.262
 1313SOL     OW 4837   3.597   5.284   5.230
 1313SOL    HW1 4838   3.545   5.198   5.223
 1313SOL    HW2 4839   3.650   5.283   5.315
 1314SOL     OW 4840   6.064   1.525   4.838
 1314SOL    HW1 4841   6.106   1.437   4.859
 1314SOL    HW2 4842   5.982   1.510   4.783
 1315SOL     OW 4843   1.572   1.251   2.998
 1315SOL    HW1 4844   1.625   1.229   2.916
 1315SOL    HW2 4845   1.477   1.224   2.984
 1316SOL     OW 4846   2.879   6.727   2.511
 1316SOL    HW1 4847   2.811   6.704   2.442
 1316SOL    HW2 4848   2.912   6.820   2.496
 1317SOL     OW 4849   6.838   5.649   3.756
 1317SOL    HW1 4850   6.881   5.661   3.846
 1317SOL    HW2 4851   6.908   5.655   3.685
 1318SOL     OW 4852   0.328   6.520   0.755
 1318SOL    HW1 4853   0.274   6.450   0.800
 1318SOL    HW2 4854   0.312   6.609   0.799
 1319SOL     OW 4855   6.511   1.057   0.377
 1319SOL    HW1 4856   6.430   1.081   0.324
 1319SOL    HW2 4857   6.484   1.035   0.471
 1320SOL     OW 4858   5.401   4.869   6.213
 1320SOL    HW1 4859   5.392   4.966   6.235
 1320SOL    HW2 4860   5.476   4.829   6.266
 1321SOL     OW 4861   3.945   2.401   6.539
 1321SOL    HW1 4862   3.860   2.359   6.571
 1321SOL    HW2 4863   4.021   2.367   6.594
 1322SOL     OW 4864   6.191   1.279   4.880
 1322SOL    HW1 4865   6.264   1.286   4.813
 1322SOL    HW2 4866   6.228   1.292   4.972
 1323SOL     OW 4867   6.025   1.055   4.512
 1323SOL    HW1 4868   6.054   1.089   4.422
 1323SOL    HW2 4869   5.928   1.030   4.508
 1324SOL     OW 4870   0.848   3.743   0.419
 1324SOL    HW1 4871   0.870   3.657   0.373
 1324SOL    HW2 4872   0.904   3.816   0.381
 1325SOL     OW 4873   3.327   5.730   2.803
 1325SOL    HW1 4874   3.382   5.764   2.880
 1325SOL    HW2 4875   3.387   5.706   2.727
 1326SOL     OW 4876   5.140   3.367   4.138
 1326SOL    HW1 4877   5.061   3.371   4.199
 1326SOL    HW2 4878   5.133   3.439   4.069
 1327SOL     OW 4879   2.873   5.274   2.927
 1327SOL    HW1 4880   2.881   5.289   3.026
 1327SOL    HW2 4881   2.948   5.217   2.895
 1328SOL     OW 4882   2.018   2.433   6.731
 1328SOL    HW1 4883   1.990   2.509   6.672
 1328SOL    HW2 4884   2.113   2.448   6.761
 1329SOL     OW 4885   1.125   0.381   1.489
 1329SOL    HW1 4886   1.189   0.417   1.422
 1329SOL    HW2 4887   1.031   0.395   1.456
 1330SOL     OW 4888   5.980   6.507   1.404
 1330SOL    HW1 4889   6.000   6.416   1.366
 1330SOL    HW2 4890   5.988   6.576   1.332
 1331SOL     OW 4891   5.953   0.328   2.647
 1331SOL    HW1 4892   5.890   0.334   2.569
 1331SOL    HW2 4893   5.913   0.375   2.726
 1332SOL     OW 4894   4.554   1.659   1.422
 1332SOL    HW1 4895   4.531   1.568   1.455
 1332SOL    HW2 4896   4.569   1.720   1.500
 1333SOL     OW 4897   3.747   4.014   5.442
 1333SOL    HW1 4898   3.709   4.056   5.360
 1333SOL    HW2 4899   3.748   4.081   5.516
 1334SOL     OW 4900   0.576   3.983   4.267
 1334SOL    HW1 4901   0.477   3.994   4.274
 1334SOL    HW2 4902   0.617   3.985   4.358
 1335SOL     OW 4903   2.420   4.475   2.624
 1335SOL    HW1 4904   2.342   4.487   2.563
 1335SOL    HW2 4905   2.505   4.483   2.572
 1336SOL     OW 4906   0.630   0.568   5.397
 1336SOL    HW1 4907   0.575   0.489   5.426
 1336SOL    HW2 4908   0.723   0.559   5.433
 1337SOL     OW 4909   2.700   1.077   6.032
 1337SOL    HW1 4910   2.694   0.981   6.061
 1337SOL    HW2 4911   2.796   1.104   6.026
 1338SOL     OW 4912   3.743   5.978   0.436
 1338SOL    HW1 4913   3.761   5.980   0.535
 1338SOL    HW2 4914   3.735   5.883   0.406
 1339SOL     OW 4915   0.047   4.877   4.630
 1339SOL    HW1 4916   0.110   4.943   4.671
 1339SOL    HW2 4917   0.099   4.800   4.594
 1340SOL     OW 4918   1.997   1.576   6.228
 1340SOL    HW1 4919   1.914   1.621   6.259
 1340SOL    HW2 4920   1.994   1.479   6.253
 1341SOL     OW 4921   4.499   1.657   3.727
 1341SOL    HW1 4922   4.517   1.701   3.814
 1341SOL    HW2 4923   4.584   1.615   3.692
 1342SOL     OW 4924   0.673   6.151   0.670
 1342SOL    HW1 4925   0.764   6.135   0.632
 1342SOL    HW2 4926   0.617   6.069   0.658
 1343SOL     OW 4927   4.345   4.679   3.135
 1343SOL    HW1 4928   4.319   4.747   3.067
 1343SOL    HW2 4929   4.283   4.685   3.214
 1344SOL     OW 4930   5.900   1.303   2.701
 1344SOL    HW1 4931   5.930   1.209   2.716
 1344SOL    HW2 4932   5.893   1.321   2.603
 1345SOL     OW 4933   1.179   0.036   3.410
 1345SOL    HW1 4934   1.113   0.111   3.398
 1345SOL    HW2 4935   1.141   6.987   3.471
 1346SOL     OW 4936   0.085   0.790   3.957
 1346SOL    HW1 4937   0.151   0.714   3.957
 1346SOL    HW2 4938   0.089   0.838   3.870
 1347SOL     OW 4939   5.870   0.524   2.810
 1347SOL    HW1 4940   5.783   0.475   2.810
 1347SOL    HW2 4941   5.877   0.580   2.893
 1348SOL     OW 4942   4.800   4.710   4.349
 1348SOL    HW1 4943   4.855   4.751   4.276
 1348SOL    HW2 4944   4.854   4.702   4.432
 1349SOL     OW 4945   4.652   2.595   0.048
 1349SOL    HW1 4946   4.705   2.547   0.118
 1349SOL    HW2 4947   4.630   2.687   0.082
 1350SOL     OW 4948   3.386   6.646   6.142
 1350SOL    HW1 4949   3.474   6.598   6.144
 1350SOL    HW2 4950   3.374   6.688   6.052
 1351SOL     OW 4951   1.004   0.645   4.566
 1351SOL    HW1 4952   1.031   0.615   4.474
 1351SOL    HW2 4953   1.079   0.695   4.609
 1352SOL     OW 4954   0.443   6.890   3.869
 1352SOL    HW1 4955   0.427   6.961   3.937
 1352SOL    HW2 4956   0.455   6.802   3.914
 1353SOL     OW 4957   1.678   4.000   3.853
 1353SOL    HW1 4958   1.683   3.945   3.769
 1353SOL    HW2 4959   1.767   4.042   3.870
 1354SOL     OW 4960   6.973   0.357   1.285
 1354SOL    HW1 4961   6.973   0.279   1.223
 1354SOL    HW2 4962   0.043   0.363   1.330
 1355SOL     OW 4963   4.841   2.883   6.895
 1355SOL    HW1 4964   4.891   2.956   6.848
 1355SOL    HW2 4965   4.866   2.795   6.854
 1356SOL     OW 4966   3.092   3.894   1.970
 1356SOL    HW1 4967   3.092   3.842   1.885
 1356SOL    HW2 4968   3.149   3.975   1.961
 1357SOL     OW 4969   2.845   2.861   5.714
 1357SOL    HW1 4970   2.851   2.766   5.744
 1357SOL    HW2 4971   2.759   2.901   5.745
 1358SOL     OW 4972   2.880   2.858   5.392
 1358SOL    HW1 4973   2.782   2.861   5.377
 1358SOL    HW2 4974   2.899   2.854   5.491
 1359SOL     OW 4975   6.786   1.042   0.439
 1359SOL    HW1 4976   6.839   0.963   0.407
 1359SOL    HW2 4977   6.695   1.040   0.397
 1360SOL     OW 4978   2.887   3.530   4.139
 1360SOL    HW1 4979   2.826   3.529   4.060
 1360SOL    HW2 4980   2.982   3.522   4.108
 1361SOL     OW 4981   1.081   5.981   0.884
 1361SOL    HW1 4982   1.023   6.029   0.818
 1361SOL    HW2 4983   1.025   5.914   0.934
 1362SOL     OW 4984   3.148   2.883   6.045
 1362SOL    HW1 4985   3.204   2.961   6.074
 1362SOL    HW2 4986   3.206   2.803   6.034
 1363SOL     OW 4987   5.886   6.460   2.193
 1363SOL    HW1 4988   5.829   6.410   2.258
 1363SOL    HW2 4989   5.913   6.548   2.232
 1364SOL     OW 4990   0.720   3.870   0.621
 1364SOL    HW1 4991   0.777   3.866   0.703
 1364SOL    HW2 4992   0.767   3.826   0.545
 1365SOL     OW 4993   0.361   3.741   5.226
 1365SOL    HW1 4994   0.340   3.643   5.214
 1365SOL    HW2 4995   0.446   3.751   5.277
 1366SOL     OW 4996   5.338   0.575   1.342
 1366SOL    HW1 4997   5.307   0.662   1.305
 1366SOL    HW2 4998   5.383   0.522   1.269
 1367SOL     OW 4999   0.974   6.312   4.690
 1367SOL    HW1 5000   0.957   6.215   4.674
 1367SOL    HW2 5001   1.050   6.342   4.632
 1368SOL     OW 5002   1.348   6.312   5.399
 1368SOL    HW1 5003   1.438   6.297   5.440
 1368SOL    HW2 5004   1.277   6.274   5.459
 1369SOL     OW 5005   2.445   6.541   3.472
 1369SOL    HW1 5006   2.508   6.491   3.531
 1369SOL    HW2 5007   2.415   6.483   3.397
 1370SOL     OW 5008   6.888   2.235   2.762
 1370SOL    HW1 5009   6.850   2.255   2.672
 1370SOL    HW2 5010   6.861   2.307   2.826
 1371SOL     OW 5011   6.030   2.416   5.832
 1371SOL    HW1 5012   5.948   2.367   5.862
 1371SOL    HW2 5013   6.084   2.442   5.912
 1372SOL     OW 5014   6.619   2.739   0.367
 1372SOL    HW1 5015   6.667   2.683   0.434
 1372SOL    HW2 5016   6.629   2.698   0.276
 1373SOL     OW 5017   5.445   2.173   1.363
 1373SOL    HW1 5018   5.417   2.113   1.288
 1373SOL    HW2 5019   5.482   2.258   1.325
 1374SOL     OW 5020   3.976   3.841   0.997
 1374SOL    HW1 5021   3.958   3.756   1.046
 1374SOL    HW2 5022   3.986   3.821   0.899
 1375SOL     OW 5023   5.588   5.890   3.964
 1375SOL    HW1 5024   5.686   5.907   3.972
 1375SOL    HW2 5025   5.543   5.920   4.048
 1376SOL     OW 5026   2.658   4.610   6.033
 1376SOL    HW1 5027   2.721   4.535   6.051
 1376SOL    HW2 5028   2.710   4.692   6.008
 1377SOL     OW 5029   1.806   1.334   2.676
 1377SOL    HW1 5030   1.707   1.321   2.674
 1377SOL    HW2 5031   1.845   1.307   2.588
 1378SOL     OW 5032   4.912   2.470   4.527
 1378SOL    HW1 5033   4.814   2.460   4.539
 1378SOL    HW2 5034   4.950   2.385   4.489
 1379SOL     OW 5035   4.943   5.888   1.449
 1379SOL    HW1 5036   4.899   5.812   1.497
 1379SOL    HW2 5037   5.042   5.880   1.459
 1380SOL     OW 5038   6.935   6.377   1.993
 1380SOL    HW1 5039   6.959   6.378   2.090
 1380SOL    HW2 5040   7.014   6.349   1.939
 1381SOL     OW 5041   6.582   2.396   5.750
 1381SOL    HW1 5042   6.604   2.427   5.658
 1381SOL    HW2 5043   6.666   2.367   5.796
 1382SOL     OW 5044   4.722   2.540   0.313
 1382SOL    HW1 5045   4.746   2.524   0.408
 1382SOL    HW2 5046   4.682   2.631   0.303
 1383SOL     OW 5047   0.403   1.628   1.762
 1383SOL    HW1 5048   0.447   1.557   1.817
 1383SOL    HW2 5049   0.338   1.586   1.699
 1384SOL     OW 5050   6.002   1.670   1.916
 1384SOL    HW1 5051   6.020   1.758   1.961
 1384SOL    HW2 5052   5.914   1.634   1.949
 1385SOL     OW 5053   0.952   5.799   1.034
 1385SOL    HW1 5054   0.932   5.702   1.050
 1385SOL    HW2 5055   0.894   5.856   1.092
 1386SOL     OW 5056   2.209   5.800   3.868
 1386SOL    HW1 5057   2.110   5.788   3.855
 1386SOL    HW2 5058   2.258   5.724   3.826
 1387SOL     OW 5059   2.620   5.977   1.960
 1387SOL    HW1 5060   2.678   5.896   1.962
 1387SOL    HW2 5061   2.674   6.058   1.980
 1388SOL     OW 5062   6.762   0.772   2.032
 1388SOL    HW1 5063   6.763   0.866   1.996
 1388SOL    HW2 5064   6.692   0.719   1.985
 1389SOL     OW 5065   5.937   0.783   3.033
 1389SOL    HW1 5066   5.994   0.826   2.963
 1389SOL    HW2 5067   5.842   0.810   3.018
 1390SOL     OW 5068   1.145   1.729   6.082
 1390SOL    HW1 5069   1.068   1.722   6.019
 1390SOL    HW2 5070   1.196   1.813   6.064
 1391SOL     OW 5071   0.197   3.047   3.187
 1391SOL    HW1 5072   0.237   3.094   3.266
 1391SOL    HW2 5073   0.249   2.964   3.169
 1392SOL     OW 5074   4.657   4.492   5.372
 1392SOL    HW1 5075   4.740   4.445   5.342
 1392SOL    HW2 5076   4.604   4.431   5.431
 1393SOL     OW 5077   3.524   6.559   5.755
 1393SOL    HW1 5078   3.453   6.599   5.812
 1393SOL    HW2 5079   3.576   6.632   5.711
 1394SOL     OW 5080   1.918   6.280   6.211
 1394SOL    HW1 5081   1.884   6.203   6.265
 1394SOL    HW2 5082   1.843   6.341   6.189
 1395SOL     OW 5083   3.570   4.262   5.577
 1395SOL    HW1 5084   3.539   4.171   5.605
 1395SOL    HW2 5085   3.496   4.310   5.531
 1396SOL     OW 5086   5.476   5.511   4.157
 1396SOL    HW1 5087   5.488   5.524   4.059
 1396SOL    HW2 5088   5.565   5.507   4.201
 1397SOL     OW 5089   4.488   6.183   4.948
 1397SOL    HW1 5090   4.577   6.222   4.972
 1397SOL    HW2 5091   4.450   6.235   4.871
 1398SOL     OW 5092   1.650   1.556   4.578
 1398SOL    HW1 5093   1.634   1.653   4.561
 1398SOL    HW2 5094   1.577   1.520   4.636
 1399SOL     OW 5095   3.021   6.690   1.262
 1399SOL    HW1 5096   3.037   6.623   1.334
 1399SOL    HW2 5097   3.005   6.644   1.175
 1400SOL     OW 5098   0.848   6.971   2.003
 1400SOL    HW1 5099   0.875   7.010   2.091
 1400SOL    HW2 5100   0.828   0.025   1.939
 1401SOL     OW 5101   6.853   1.406   4.659
 1401SOL    HW1 5102   6.942   1.359   4.660
 1401SOL    HW2 5103   6.809   1.391   4.570
 1402SOL     OW 5104   0.059   3.277   0.314
 1402SOL    HW1 5105   0.157   3.261   0.303
 1402SOL    HW2 5106   0.012   3.189   0.322
 1403SOL     OW 5107   2.871   1.103   2.317
 1403SOL    HW1 5108   2.862   1.174   2.247
 1403SOL    HW2 5109   2.784   1.056   2.328
 1404SOL     OW 5110   5.399   0.359   0.544
 1404SOL    HW1 5111   5.381   0.453   0.515
 1404SOL    HW2 5112   5.314   0.306   0.540
 1405SOL     OW 5113   2.149   3.788   1.071
 1405SOL    HW1 5114   2.213   3.799   0.995
 1405SOL    HW2 5115   2.070   3.847   1.057
 1406SOL     OW 5116   1.389   4.093   1.194
 1406SOL    HW1 5117   1.433   4.172   1.238
 1406SOL    HW2 5118   1.444   4.063   1.116
 1407SOL     OW 5119   6.490   2.060   2.655
 1407SOL    HW1 5120   6.521   2.149   2.686
 1407SOL    HW2 5121   6.505   2.052   2.557
 1408SOL     OW 5122   6.453   0.513   6.473
 1408SOL    HW1 5123   6.461   0.600   6.425
 1408SOL    HW2 5124   6.482   0.439   6.413
 1409SOL     OW 5125   0.250   0.805   4.508
 1409SOL    HW1 5126   0.216   0.750   4.432
 1409SOL    HW2 5127   0.350   0.810   4.503
 1410SOL     OW 5128   0.542   2.806   6.926
 1410SOL    HW1 5129   0.452   2.803   6.881
 1410SOL    HW2 5130   0.537   2.758   7.014
 1411SOL     OW 5131   1.647   6.833   1.440
 1411SOL    HW1 5132   1.701   6.915   1.456
 1411SOL    HW2 5133   1.550   6.855   1.446
 1412SOL     OW 5134   1.031   2.761   6.970
 1412SOL    HW1 5135   0.963   2.701   7.012
 1412SOL    HW2 5136   1.007   2.777   6.874
 1413SOL     OW 5137   2.558   0.715   3.668
 1413SOL    HW1 5138   2.630   0.776   3.634
 1413SOL    HW2 5139   2.594   0.623   3.679
 1414SOL     OW 5140   1.875   1.869   1.753
 1414SOL    HW1 5141   1.824   1.952   1.776
 1414SOL    HW2 5142   1.971   1.883   1.776
 1415SOL     OW 5143   4.048   6.039   5.912
 1415SOL    HW1 5144   4.024   6.087   5.996
 1415SOL    HW2 5145   4.128   5.981   5.928
 1416SOL     OW 5146   4.317   5.393   1.761
 1416SOL    HW1 5147   4.280   5.328   1.695
 1416SOL    HW2 5148   4.395   5.351   1.809
 1417SOL     OW 5149   3.000   1.685   6.108
 1417SOL    HW1 5150   2.912   1.720   6.140
 1417SOL    HW2 5151   3.074   1.739   6.149
 1418SOL     OW 5152   3.718   3.952   2.720
 1418SOL    HW1 5153   3.781   4.028   2.733
 1418SOL    HW2 5154   3.708   3.934   2.622
 1419SOL     OW 5155   4.028   6.682   4.708
 1419SOL    HW1 5156   3.941   6.682   4.756
 1419SOL    HW2 5157   4.085   6.757   4.741
 1420SOL     OW 5158   0.693   5.994   2.190
 1420SOL    HW1 5159   0.714   5.999   2.092
 1420SOL    HW2 5160   0.777   6.009   2.243
 1421SOL     OW 5161   3.526   1.428   2.304
 1421SOL    HW1 5162   3.480   1.473   2.381
 1421SOL    HW2 5163   3.470   1.438   2.221
 1422SOL     OW 5164   2.835   5.607   0.175
 1422SOL    HW1 5165   2.799   5.562   0.257
 1422SOL    HW2 5166   2.761   5.626   0.112
 1423SOL     OW 5167   5.279   6.942   2.691
 1423SOL    HW1 5168   5.216   6.887   2.636
 1423SOL    HW2 5169   5.273   6.914   2.786
 1424SOL     OW 5170   6.585   4.725   5.067
 1424SOL    HW1 5171   6.641   4.737   5.148
 1424SOL    HW2 5172   6.489   4.720   5.093
 1425SOL     OW 5173   2.654   0.002   4.073
 1425SOL    HW1 5174   2.573   6.979   4.032
 1425SOL    HW2 5175   2.723   0.017   4.001
 1426SOL     OW 5176   0.758   1.447   5.608
 1426SOL    HW1 5177   0.688   1.382   5.637
 1426SOL    HW2 5178   0.714   1.524   5.561
 1427SOL     OW 5179   5.999   0.697   4.437
 1427SOL    HW1 5180   6.072   0.677   4.504
 1427SOL    HW2 5181   5.922   0.740   4.484
 1428SOL     OW 5182   5.500   1.603   6.541
 1428SOL    HW1 5183   5.594   1.637   6.538
 1428SOL    HW2 5184   5.437   1.679   6.551
 1429SOL     OW 5185   0.137   0.888   0.442
 1429SOL    HW1 5186   0.173   0.798   0.419
 1429SOL    HW2 5187   0.092   0.928   0.362
 1430SOL     OW 5188   1.819   5.211   3.707
 1430SOL    HW1 5189   1.881   5.144   3.748
 1430SOL    HW2 5190   1.732   5.209   3.755
 1431SOL     OW 5191   1.939   0.985   0.973
 1431SOL    HW1 5192   1.920   1.053   0.902
 1431SOL    HW2 5193   1.986   0.906   0.933
 1432SOL     OW 5194   1.908   1.579   2.189
 1432SOL    HW1 5195   1.955   1.666   2.175
 1432SOL    HW2 5196   1.822   1.579   2.137
 1433SOL     OW 5197   4.195   0.984   4.308
 1433SOL    HW1 5198   4.138   0.988   4.225
 1433SOL    HW2 5199   4.140   1.011   4.387
 1434SOL     OW 5200   1.389   1.170   5.717
 1434SOL    HW1 5201   1.321   1.110   5.759
 1434SOL    HW2 5202   1.352   1.263   5.709
 1435SOL     OW 5203   6.344   1.814   2.679
 1435SOL    HW1 5204   6.344   1.763   2.765
 1435SOL    HW2 5205   6.396   1.899   2.691
 1436SOL     OW 5206   4.128   3.581   0.398
 1436SOL    HW1 5207   4.203   3.609   0.459
 1436SOL    HW2 5208   4.081   3.503   0.438
 1437SOL     OW 5209   3.393   0.757   2.302
 1437SOL    HW1 5210   3.402   0.661   2.276
 1437SOL    HW2 5211   3.332   0.803   2.237
 1438SOL     OW 5212   2.857   0.043   1.075
 1438SOL    HW1 5213   2.884   0.023   0.980
 1438SOL    HW2 5214   2.939   0.058   1.130
 1439SOL     OW 5215   0.445   5.929   2.549
 1439SOL    HW1 5216   0.518   5.862   2.533
 1439SOL    HW2 5217   0.485   6.021   2.548
 1440SOL     OW 5218   2.991   3.503   1.618
 1440SOL    HW1 5219   2.973   3.556   1.535
 1440SOL    HW2 5220   3.017   3.410   1.594
 1441SOL     OW 5221   5.877   6.457   1.049
 1441SOL    HW1 5222   5.887   6.447   0.950
 1441SOL    HW2 5223   5.886   6.554   1.073
 1442SOL     OW 5224   6.164   5.322   0.491
 1442SOL    HW1 5225   6.259   5.297   0.473
 1442SOL    HW2 5226   6.151   5.338   0.589
 1443SOL     OW 5227   0.268   2.805   3.026
 1443SOL    HW1 5228   0.250   2.834   2.933
 1443SOL    HW2 5229   0.185   2.766   3.066
 1444SOL     OW 5230   5.987   5.291   6.917
 1444SOL    HW1 5231   6.040   5.312   6.998
 1444SOL    HW2 5232   6.048   5.278   6.839
 1445SOL     OW 5233   1.534   3.219   2.325
 1445SOL    HW1 5234   1.634   3.222   2.323
 1445SOL    HW2 5235   1.498   3.253   2.238
 1446SOL     OW 5236   0.010   0.326   0.043
 1446SOL    HW1 5237   0.052   0.294   0.129
 1446SOL    HW2 5238   6.946   0.274   0.026
 1447SOL     OW 5239   5.951   5.113   4.640
 1447SOL    HW1 5240   5.935   5.016   4.661
 1447SOL    HW2 5241   6.044   5.138   4.665
 1448SOL     OW 5242   1.394   3.298   5.830
 1448SOL    HW1 5243   1.444   3.350   5.761
 1448SOL    HW2 5244   1.439   3.308   5.919
 1449SOL     OW 5245   2.137   3.877   4.057
 1449SOL    HW1 5246   2.144   3.819   4.138
 1449SOL    HW2 5247   2.128   3.819   3.976
 1450SOL     OW 5248   2.350   2.674   4.510
 1450SOL    HW1 5249   2.387   2.646   4.599
 1450SOL    HW2 5250   2.276   2.613   4.484
 1451SOL     OW 5251   2.137   0.443   2.086
 1451SOL    HW1 5252   2.085   0.371   2.133
 1451SOL    HW2 5253   2.230   0.412   2.070
 1452SOL     OW 5254   4.938   2.997   5.790
 1452SOL    HW1 5255   5.031   2.977   5.759
 1452SOL    HW2 5256   4.942   3.046   5.878
 1453SOL     OW 5257   0.486   4.971   5.452
 1453SOL    HW1 5258   0.448   4.931   5.536
 1453SOL    HW2 5259   0.497   5.069   5.463
 1454SOL     OW 5260   3.550   1.773   3.938
 1454SOL    HW1 5261   3.610   1.842   3.896
 1454SOL    HW2 5262   3.467   1.764   3.885
 1455SOL     OW 5263   0.997   6.017   1.646
 1455SOL    HW1 5264   1.013   6.068   1.730
 1455SOL    HW2 5265   1.013   5.920   1.661
 1456SOL     OW 5266   6.126   5.447   5.556
 1456SOL    HW1 5267   6.095   5.352   5.555
 1456SOL    HW2 5268   6.143   5.476   5.650
 1457SOL     OW 5269   1.113   4.380   5.932
 1457SOL    HW1 5270   1.025   4.348   5.898
 1457SOL    HW2 5271   1.110   4.389   6.032
 1458SOL     OW 5272   4.961   5.510   4.915
 1458SOL    HW1 5273   5.015   5.430   4.890
 1458SOL    HW2 5274   5.017   5.592   4.905
 1459SOL     OW 5275   5.077   6.344   5.017
 1459SOL    HW1 5276   5.045   6.323   5.109
 1459SOL    HW2 5277   5.016   6.304   4.950
 1460SOL     OW 5278   1.545   6.419   5.595
 1460SOL    HW1 5279   1.620   6.399   5.532
 1460SOL    HW2 5280   1.505   6.507   5.573
 1461SOL     OW 5281   0.096   3.339   3.593
 1461SOL    HW1 5282   0.188   3.355   3.559
 1461SOL    HW2 5283   0.059   3.255   3.552
 1462SOL     OW 5284   1.032   0.424   1.202
 1462SOL    HW1 5285   0.981   0.470   1.274
 1462SOL    HW2 5286   0.981   0.431   1.115
 1463SOL     OW 5287   1.992   5.754   0.043
 1463SOL    HW1 5288   1.925   5.823   0.073
 1463SOL    HW2 5289   1.995   5.752   6.963
 1464SOL     OW 5290   0.785   4.210   3.926
 1464SOL    HW1 5291   0.865   4.246   3.877
 1464SOL    HW2 5292   0.771   4.114   3.901
 1465SOL     OW 5293   1.190   2.536   3.489
 1465SOL    HW1 5294   1.159   2.631   3.487
 1465SOL    HW2 5295   1.120   2.479   3.533
 1466SOL     OW 5296   4.905   2.230   1.730
 1466SOL    HW1 5297   4.955   2.310   1.697
 1466SOL    HW2 5298   4.807   2.247   1.723
 1467SOL     OW 5299   1.015   1.248   4.124
 1467SOL    HW1 5300   1.071   1.287   4.051
 1467SOL    HW2 5301   0.969   1.166   4.090
 1468SOL     OW 5302   2.402   5.635   2.452
 1468SOL    HW1 5303   2.424   5.539   2.433
 1468SOL    HW2 5304   2.387   5.683   2.365
 1469SOL     OW 5305   6.208   4.164   3.504
 1469SOL    HW1 5306   6.242   4.204   3.588
 1469SOL    HW2 5307   6.240   4.069   3.497
 1470SOL     OW 5308   6.605   1.693   0.874
 1470SOL    HW1 5309   6.705   1.691   0.880
 1470SOL    HW2 5310   6.573   1.616   0.819
 1471SOL     OW 5311   5.132   0.278   1.705
 1471SOL    HW1 5312   5.113   0.266   1.802
 1471SOL    HW2 5313   5.062   0.233   1.651
 1472SOL     OW 5314   1.784   6.699   6.082
 1472SOL    HW1 5315   1.758   6.674   6.175
 1472SOL    HW2 5316   1.702   6.715   6.027
 1473SOL     OW 5317   2.425   5.624   4.164
 1473SOL    HW1 5318   2.368   5.548   4.132
 1473SOL    HW2 5319   2.458   5.603   4.256
 1474SOL     OW 5320   3.259   4.928   1.281
 1474SOL    HW1 5321   3.281   5.013   1.328
 1474SOL    HW2 5322   3.208   4.867   1.341
 1475SOL     OW 5323   4.947   0.076   0.260
 1475SOL    HW1 5324   4.894   0.020   0.196
 1475SOL    HW2 5325   4.898   0.162   0.277
 1476SOL     OW 5326   4.906   0.564   1.417
 1476SOL    HW1 5327   4.995   0.527   1.442
 1476SOL    HW2 5328   4.887   0.644   1.474
 1477SOL     OW 5329   3.649   4.849   1.482
 1477SOL    HW1 5330   3.620   4.865   1.388
 1477SOL    HW2 5331   3.581   4.889   1.545
 1478SOL     OW 5332   5.132   5.383   6.003
 1478SOL    HW1 5333   5.112   5.307   6.064
 1478SOL    HW2 5334   5.088   5.368   5.914
 1479SOL     OW 5335   3.821   3.847   1.327
 1479SOL    HW1 5336   3.850   3.769   1.271
 1479SOL    HW2 5337   3.902   3.898   1.358
 1480SOL     OW 5338   2.915   0.125   4.798
 1480SOL    HW1 5339   2.836   0.129   4.737
 1480SOL    HW2 5340   2.952   0.032   4.799
 1481SOL     OW 5341   5.358   2.612   6.590
 1481SOL    HW1 5342   5.271   2.659   6.596
 1481SOL    HW2 5343   5.393   2.617   6.497
 1482SOL     OW 5344   4.769   1.248   0.637
 1482SOL    HW1 5345   4.750   1.241   0.539
 1482SOL    HW2 5346   4.855   1.200   0.657
 1483SOL     OW 5347   5.620   1.548   5.680
 1483SOL    HW1 5348   5.616   1.645   5.703
 1483SOL    HW2 5349   5.649   1.537   5.585
 1484SOL     OW 5350   3.003   5.707   4.888
 1484SOL    HW1 5351   3.014   5.781   4.821
 1484SOL    HW2 5352   2.910   5.710   4.925
 1485SOL     OW 5353   5.236   2.362   3.259
 1485SOL    HW1 5354   5.150   2.403   3.229
 1485SOL    HW2 5355   5.230   2.342   3.357
 1486SOL     OW 5356   5.105   0.021   3.979
 1486SOL    HW1 5357   5.132   0.001   3.885
 1486SOL    HW2 5358   5.187   0.042   4.033
 1487SOL     OW 5359   6.632   0.448   0.961
 1487SOL    HW1 5360   6.620   0.502   0.877
 1487SOL    HW2 5361   6.707   0.488   1.015
 1488SOL     OW 5362   5.935   0.912   2.434
 1488SOL    HW1 5363   6.030   0.881   2.445
 1488SOL    HW2 5364   5.873   0.844   2.473
 1489SOL     OW 5365   3.701   4.399   0.232
 1489SOL    HW1 5366   3.792   4.441   0.236
 1489SOL    HW2 5367   3.667   4.402   0.138
 1490SOL     OW 5368   6.799   2.257   2.513
 1490SOL    HW1 5369   6.773   2.354   2.510
 1490SOL    HW2 5370   6.720   2.201   2.486
 1491SOL     OW 5371   6.412   2.763   3.201
 1491SOL    HW1 5372   6.338   2.732   3.141
 1491SOL    HW2 5373   6.495   2.711   3.182
 1492SOL     OW 5374   5.814   1.250   3.020
 1492SOL    HW1 5375   5.842   1.344   3.005
 1492SOL    HW2 5376   5.828   1.197   2.936
 1493SOL     OW 5377   4.434   2.532   5.757
 1493SOL    HW1 5378   4.351   2.587   5.770
 1493SOL    HW2 5379   4.419   2.441   5.795
 1494SOL     OW 5380   6.697   4.465   5.490
 1494SOL    HW1 5381   6.716   4.491   5.395
 1494SOL    HW2 5382   6.674   4.547   5.542
 1495SOL     OW 5383   6.504   3.969   4.444
 1495SOL    HW1 5384   6.422   3.945   4.497
 1495SOL    HW2 5385   6.514   4.068   4.441
 1496SOL     OW 5386   6.293   5.622   6.484
 1496SOL    HW1 5387   6.348   5.542   6.510
 1496SOL    HW2 5388   6.265   5.613   6.388
 1497SOL     OW 5389   6.082   3.063   2.957
 1497SOL    HW1 5390   6.155   3.064   3.025
 1497SOL    HW2 5391   6.091   3.143   2.897
 1498SOL     OW 5392   3.520   4.561   0.760
 1498SOL    HW1 5393   3.427   4.553   0.723
 1498SOL    HW2 5394   3.576   4.486   0.725
 1499SOL     OW 5395   0.485   4.234   5.116
 1499SOL    HW1 5396   0.409   4.254   5.178
 1499SOL    HW2 5397   0.542   4.316   5.105
 1500SOL     OW 5398   0.743   5.752   1.977
 1500SOL    HW1 5399   0.708   5.822   1.914
 1500SOL    HW2 5400   0.704   5.664   1.952
 1501SOL     OW 5401   5.636   2.002   0.278
 1501SOL    HW1 5402   5.544   1.984   0.243
 1501SOL    HW2 5403   5.659   1.933   0.346
 1502SOL     OW 5404   6.230   0.077   6.560
 1502SOL    HW1 5405   6.329   0.065   6.554
 1502SOL    HW2 5406   6.190   0.065   6.469
 1503SOL     OW 5407   0.396   4.895   2.043
 1503SOL    HW1 5408   0.336   4.910   1.964
 1503SOL    HW2 5409   0.487   4.871   2.011
 1504SOL     OW 5410   0.605   0.052   2.317
 1504SOL    HW1 5411   0.658   0.091   2.242
 1504SOL    HW2 5412   0.616   6.973   2.319
 1505SOL     OW 5413   4.991   6.088   5.165
 1505SOL    HW1 5414   4.912   6.071   5.106
 1505SOL    HW2 5415   4.961   6.100   5.259
 1506SOL     OW 5416   1.066   1.596   1.160
 1506SOL    HW1 5417   1.026   1.525   1.218
 1506SOL    HW2 5418   1.135   1.646   1.213
 1507SOL     OW 5419   1.628   2.856   4.355
 1507SOL    HW1 5420   1.706   2.918   4.360
 1507SOL    HW2 5421   1.659   2.762   4.350
 1508SOL     OW 5422   1.180   0.603   0.869
 1508SOL    HW1 5423   1.266   0.556   0.890
 1508SOL    HW2 5424   1.142   0.566   0.784
 1509SOL     OW 5425   4.915   0.886   4.219
 1509SOL    HW1 5426   4.964   0.909   4.303
 1509SOL    HW2 5427   4.958   0.805   4.177
 1510SOL     OW 5428   3.576   5.505   4.140
 1510SOL    HW1 5429   3.671   5.476   4.124
 1510SOL    HW2 5430   3.576   5.599   4.172
 1511SOL     OW 5431   3.356   3.333   4.603
 1511SOL    HW1 5432   3.424   3.310   4.533
 1511SOL    HW2 5433   3.305   3.414   4.575
 1512SOL     OW 5434   6.136   6.286   0.756
 1512SOL    HW1 5435   6.212   6.314   0.697
 1512SOL    HW2 5436   6.167   6.216   0.820
 1513SOL     OW 5437   3.184   6.907   6.108
 1513SOL    HW1 5438   3.107   6.971   6.099
 1513SOL    HW2 5439   3.149   6.816   6.127
 1514SOL     OW 5440   3.436   2.272   5.726
 1514SOL    HW1 5441   3.407   2.361   5.763
 1514SOL    HW2 5442   3.517   2.284   5.668
 1515SOL     OW 5443   5.529   1.864   2.067
 1515SOL    HW1 5444   5.460   1.928   2.102
 1515SOL    HW2 5445   5.492   1.816   1.988
 1516SOL     OW 5446   5.925   0.047   4.711
 1516SOL    HW1 5447   5.939   7.018   4.797
 1516SOL    HW2 5448   5.950   7.008   4.634
 1517SOL     OW 5449   4.469   6.164   3.709
 1517SOL    HW1 5450   4.555   6.157   3.760
 1517SOL    HW2 5451   4.489   6.185   3.614
 1518SOL     OW 5452   0.462   2.423   6.963
 1518SOL    HW1 5453   0.429   2.492   6.900
 1518SOL    HW2 5454   0.470   2.462   0.035
 1519SOL     OW 5455   6.984   4.359   6.669
 1519SOL    HW1 5456   6.995   4.260   6.674
 1519SOL    HW2 5457   0.054   4.402   6.658
 1520SOL     OW 5458   0.020   5.913   2.600
 1520SOL    HW1 5459   0.065   5.987   2.550
 1520SOL    HW2 5460   0.083   5.875   2.668
 1521SOL     OW 5461   1.953   5.637   6.284
 1521SOL    HW1 5462   1.906   5.638   6.373
 1521SOL    HW2 5463   1.973   5.731   6.256
 1522SOL     OW 5464   4.406   5.973   4.160
 1522SOL    HW1 5465   4.460   5.958   4.077
 1522SOL    HW2 5466   4.444   5.917   4.234
 1523SOL     OW 5467   3.882   6.356   0.554
 1523SOL    HW1 5468   3.821   6.310   0.489
 1523SOL    HW2 5469   3.933   6.287   0.606
 1524SOL     OW 5470   2.257   1.789   2.287
 1524SOL    HW1 5471   2.281   1.753   2.377
 1524SOL    HW2 5472   2.261   1.889   2.288
 1525SOL     OW 5473   5.875   2.441   6.821
 1525SOL    HW1 5474   5.966   2.460   6.857
 1525SOL    HW2 5475   5.806   2.485   6.879
 1526SOL     OW 5476   1.077   1.299   0.587
 1526SOL    HW1 5477   1.040   1.307   0.680
 1526SOL    HW2 5478   1.102   1.203   0.570
 1527SOL     OW 5479   3.800   0.988   3.931
 1527SOL    HW1 5480   3.763   1.080   3.947
 1527SOL    HW2 5481   3.785   0.963   3.836
 1528SOL     OW 5482   4.301   3.944   1.212
 1528SOL    HW1 5483   4.298   3.864   1.272
 1528SOL    HW2 5484   4.217   3.950   1.159
 1529SOL     OW 5485   4.852   1.316   5.418
 1529SOL    HW1 5486   4.795   1.264   5.482
 1529SOL    HW2 5487   4.816   1.306   5.326
 1530SOL     OW 5488   3.449   6.300   1.591
 1530SOL    HW1 5489   3.502   6.285   1.507
 1530SOL    HW2 5490   3.504   6.352   1.656
 1531SOL     OW 5491   3.868   6.870   3.995
 1531SOL    HW1 5492   3.831   6.889   3.904
 1531SOL    HW2 5493   3.794   6.860   4.061
 1532SOL     OW 5494   2.359   5.299   6.260
 1532SOL    HW1 5495   2.296   5.340   6.194
 1532SOL    HW2 5496   2.312   5.225   6.308
 1533SOL     OW 5497   5.984   5.308   1.541
 1533SOL    HW1 5498   6.005   5.382   1.478
 1533SOL    HW2 5499   5.888   5.282   1.532
 1534SOL     OW 5500   3.403   5.408   6.276
 1534SOL    HW1 5501   3.409   5.505   6.252
 1534SOL    HW2 5502   3.371   5.356   6.197
 1535SOL     OW 5503   5.837   6.495   4.784
 1535SOL    HW1 5504   5.836   6.566   4.854
 1535SOL    HW2 5505   5.768   6.515   4.714
 1536SOL     OW 5506   4.537   4.082   6.784
 1536SOL    HW1 5507   4.475   4.034   6.846
 1536SOL    HW2 5508   4.485   4.131   6.715
 1537SOL     OW 5509   3.254   5.419   3.550
 1537SOL    HW1 5510   3.178   5.450   3.494
 1537SOL    HW2 5511   3.340   5.435   3.501
 1538SOL     OW 5512   3.048   1.302   6.911
 1538SOL    HW1 5513   3.119   1.346   6.856
 1538SOL    HW2 5514   2.961   1.305   6.862
 1539SOL     OW 5515   6.089   3.421   0.531
 1539SOL    HW1 5516   6.100   3.515   0.498
 1539SOL    HW2 5517   6.042   3.421   0.619
 1540SOL     OW 5518   3.242   6.724   4.500
 1540SOL    HW1 5519   3.249   6.823   4.508
 1540SOL    HW2 5520   3.177   6.701   4.427
 1541SOL     OW 5521   3.217   3.169   5.123
 1541SOL    HW1 5522   3.130   3.196   5.081
 1541SOL    HW2 5523   3.242   3.077   5.091
 1542SOL     OW 5524   6.778   0.210   2.779
 1542SOL    HW1 5525   6.684   0.204   2.813
 1542SOL    HW2 5526   6.780   0.181   2.683
 1543SOL     OW 5527   2.552   4.431   6.999
 1543SOL    HW1 5528   2.580   4.504   6.936
 1543SOL    HW2 5529   2.487   4.371   6.954
 1544SOL     OW 5530   4.035   3.457   4.730
 1544SOL    HW1 5531   4.063   3.372   4.686
 1544SOL    HW2 5532   3.993   3.517   4.661
 1545SOL     OW 5533   6.107   6.545   2.567
 1545SOL    HW1 5534   6.011   6.559   2.595
 1545SOL    HW2 5535   6.114   6.458   2.518
 1546SOL     OW 5536   5.460   6.440   5.836
 1546SOL    HW1 5537   5.535   6.406   5.779
 1546SOL    HW2 5538   5.386   6.372   5.838
 1547SOL     OW 5539   1.719   3.350   6.757
 1547SOL    HW1 5540   1.691   3.428   6.701
 1547SOL    HW2 5541   1.731   3.270   6.699
 1548SOL     OW 5542   6.277   2.486   6.716
 1548SOL    HW1 5543   6.318   2.497   6.626
 1548SOL    HW2 5544   6.342   2.515   6.786
 1549SOL     OW 5545   4.662   0.668   5.282
 1549SOL    HW1 5546   4.629   0.688   5.374
 1549SOL    HW2 5547   4.584   0.651   5.222
 1550SOL     OW 5548   3.107   3.042   3.238
 1550SOL    HW1 5549   3.034   3.072   3.176
 1550SOL    HW2 5550   3.187   3.099   3.227
 1551SOL     OW 5551   6.902   5.214   6.375
 1551SOL    HW1 5552   6.822   5.209   6.435
 1551SOL    HW2 5553   6.983   5.234   6.430
 1552SOL     OW 5554   2.197   4.400   2.074
 1552SOL    HW1 5555   2.113   4.432   2.116
 1552SOL    HW2 5556   2.258   4.362   2.144
 1553SOL     OW 5557   0.955   1.809   5.825
 1553SOL    HW1 5558   0.932   1.888   5.881
 1553SOL    HW2 5559   0.872   1.772   5.783
 1554SOL     OW 5560   2.922   1.774   3.425
 1554SOL    HW1 5561   2.968   1.850   3.470
 1554SOL    HW2 5562   2.944   1.775   3.327
 1555SOL     OW 5563   6.887   3.599   6.272
 1555SOL    HW1 5564   6.973   3.575   6.229
 1555SOL    HW2 5565   6.871   3.539   6.351
 1556SOL     OW 5566   2.338   1.160   5.885
 1556SOL    HW1 5567   2.411   1.166   5.817
 1556SOL    HW2 5568   2.260   1.112   5.846
 1557SOL     OW 5569   0.515   2.788   6.425
 1557SOL    HW1 5570   0.597   2.797   6.368
 1557SOL    HW2 5571   0.451   2.861   6.402
 1558SOL     OW 5572   6.800   7.011   4.971
 1558SOL    HW1 5573   6.712   6.964   4.979
 1558SOL    HW2 5574   6.856   6.964   4.903
 1559SOL     OW 5575   0.487   1.649   6.487
 1559SOL    HW1 5576   0.535   1.711   6.549
 1559SOL    HW2 5577   0.534   1.647   6.399
 1560SOL     OW 5578   6.968   0.809   6.605
 1560SOL    HW1 5579   6.914   0.793   6.688
 1560SOL    HW2 5580   6.910   0.797   6.525
 1561SOL     OW 5581   5.366   5.708   3.107
 1561SOL    HW1 5582   5.380   5.675   3.013
 1561SOL    HW2 5583   5.368   5.808   3.108
 1562SOL     OW 5584   5.784   1.030   3.428
 1562SOL    HW1 5585   5.741   1.117   3.452
 1562SOL    HW2 5586   5.845   1.044   3.350
 1563SOL     OW 5587   3.708   0.363   5.339
 1563SOL    HW1 5588   3.675   0.310   5.417
 1563SOL    HW2 5589   3.808   0.366   5.341
 1564SOL     OW 5590   1.537   2.130   2.877
 1564SOL    HW1 5591   1.481   2.050   2.894
 1564SOL    HW2 5592   1.575   2.126   2.784
 1565SOL     OW 5593   5.125   3.583   1.901
 1565SOL    HW1 5594   5.130   3.560   1.804
 1565SOL    HW2 5595   5.062   3.520   1.948
 1566SOL     OW 5596   5.786   4.092   3.776
 1566SOL    HW1 5597   5.758   3.996   3.771
 1566SOL    HW2 5598   5.728   4.147   3.716
 1567SOL     OW 5599   6.775   5.595   5.947
 1567SOL    HW1 5600   6.742   5.555   5.861
 1567SOL    HW2 5601   6.874   5.585   5.953
 1568SOL     OW 5602   0.191   0.464   0.865
 1568SOL    HW1 5603   0.096   0.437   0.878
 1568SOL    HW2 5604   0.204   0.499   0.772
 1569SOL     OW 5605   3.781   5.969   5.237
 1569SOL    HW1 5606   3.835   5.920   5.169
 1569SOL    HW2 5607   3.695   5.921   5.253
 1570SOL     OW 5608   3.818   1.968   1.674
 1570SOL    HW1 5609   3.880   1.904   1.628
 1570SOL    HW2 5610   3.730   1.923   1.691
 1571SOL     OW 5611   6.620   4.557   1.703
 1571SOL    HW1 5612   6.697   4.603   1.747
 1571SOL    HW2 5613   6.634   4.458   1.705
 1572SOL     OW 5614   1.540   6.723   2.384
 1572SOL    HW1 5615   1.454   6.672   2.383
 1572SOL    HW2 5616   1.522   6.820   2.367
 1573SOL     OW 5617   4.092   0.147   0.990
 1573SOL    HW1 5618   4.181   0.160   1.035
 1573SOL    HW2 5619   4.096   0.184   0.897
 1574SOL     OW 5620   6.538   2.733   2.029
 1574SOL    HW1 5621   6.550   2.635   2.046
 1574SOL    HW2 5622   6.548   2.783   2.115
 1575SOL     OW 5623   2.657   2.444   0.257
 1575SOL    HW1 5624   2.634   2.534   0.294
 1575SOL    HW2 5625   2.702   2.455   0.168
 1576SOL     OW 5626   6.559   6.242   4.067
 1576SOL    HW1 5627   6.495   6.224   3.993
 1576SOL    HW2 5628   6.616   6.321   4.044
 1577SOL     OW 5629   2.151   0.339   7.015
 1577SOL    HW1 5630   2.115   0.326   6.923
 1577SOL    HW2 5631   2.172   0.435   0.010
 1578SOL     OW 5632   5.528   4.843   5.049
 1578SOL    HW1 5633   5.453   4.867   4.988
 1578SOL    HW2 5634   5.567   4.927   5.087
 1579SOL     OW 5635   1.063   0.512   3.821
 1579SOL    HW1 5636   0.988   0.562   3.778
 1579SOL    HW2 5637   1.148   0.565   3.814
 1580SOL     OW 5638   3.257   4.101   5.577
 1580SOL    HW1 5639   3.350   4.073   5.598
 1580SOL    HW2 5640   3.210   4.029   5.526
 1581SOL     OW 5641   6.681   3.798   4.540
 1581SOL    HW1 5642   6.696   3.826   4.635
 1581SOL    HW2 5643   6.611   3.855   4.498
 1582SOL     OW 5644   6.422   5.166   4.303
 1582SOL    HW1 5645   6.331   5.160   4.344
 1582SOL    HW2 5646   6.471   5.080   4.318
 1583SOL     OW 5647   1.576   2.878   3.063
 1583SOL    HW1 5648   1.573   2.804   2.996
 1583SOL    HW2 5649   1.563   2.965   3.016
 1584SOL     OW 5650   2.440   0.026   6.384
 1584SOL    HW1 5651   2.482   6.991   6.456
 1584SOL    HW2 5652   2.399   6.986   6.315
 1585SOL     OW 5653   5.437   1.758   5.474
 1585SOL    HW1 5654   5.448   1.780   5.571
 1585SOL    HW2 5655   5.370   1.820   5.433
 1586SOL     OW 5656   3.916   3.953   2.917
 1586SOL    HW1 5657   3.821   3.930   2.938
 1586SOL    HW2 5658   3.975   3.921   2.992
 1587SOL     OW 5659   2.795   6.300   6.691
 1587SOL    HW1 5660   2.853   6.219   6.677
 1587SOL    HW2 5661   2.823   6.372   6.629
 1588SOL     OW 5662   6.027   3.343   1.918
 1588SOL    HW1 5663   5.994   3.264   1.866
 1588SOL    HW2 5664   6.041   3.317   2.014
 1589SOL     OW 5665   5.551   3.754   4.174
 1589SOL    HW1 5666   5.480   3.800   4.120
 1589SOL    HW2 5667   5.566   3.805   4.259
 1590SOL     OW 5668   1.968   0.826   6.083
 1590SOL    HW1 5669   1.897   0.780   6.029
 1590SOL    HW2 5670   2.056   0.780   6.067
 1591SOL     OW 5671   1.305   4.745   1.527
 1591SOL    HW1 5672   1.334   4.716   1.619
 1591SOL    HW2 5673   1.307   4.667   1.465
 1592SOL     OW 5674   3.095   3.605   2.759
 1592SOL    HW1 5675   3.019   3.554   2.800
 1592SOL    HW2 5676   3.084   3.607   2.660
 1593SOL     OW 5677   0.842   5.550   5.524
 1593SOL    HW1 5678   0.938   5.561   5.500
 1593SOL    HW2 5679   0.825   5.455   5.552
 1594SOL     OW 5680   6.618   5.226   2.843
 1594SOL    HW1 5681   6.681   5.192   2.913
 1594SOL    HW2 5682   6.534   5.258   2.887
 1595SOL     OW 5683   6.943   4.746   6.128
 1595SOL    HW1 5684   6.992   4.682   6.068
 1595SOL    HW2 5685   6.940   4.709   6.221
 1596SOL     OW 5686   2.805   5.056   6.614
 1596SOL    HW1 5687   2.876   5.003   6.660
 1596SOL    HW2 5688   2.741   4.994   6.569
 1597SOL     OW 5689   2.600   6.839   1.432
 1597SOL    HW1 5690   2.684   6.822   1.483
 1597SOL    HW2 5691   2.619   6.898   1.354
 1598SOL     OW 5692   0.364   5.365   1.268
 1598SOL    HW1 5693   0.440   5.422   1.300
 1598SOL    HW2 5694   0.398   5.303   1.196
 1599SOL     OW 5695   3.654   4.907   0.033
 1599SOL    HW1 5696   3.672   4.961   6.971
 1599SOL    HW2 5697   3.706   4.946   0.110
 1600SOL     OW 5698   3.922   1.374   4.268
 1600SOL    HW1 5699   3.894   1.278   4.278
 1600SOL    HW2 5700   3.911   1.421   4.355
 1601SOL     OW 5701   0.591   4.826   3.558
 1601SOL    HW1 5702   0.593   4.742   3.504
 1601SOL    HW2 5703   0.680   4.840   3.601
 1602SOL     OW 5704   0.847   4.917   3.672
 1602SOL    HW1 5705   0.829   4.906   3.770
 1602SOL    HW2 5706   0.823   5.010   3.644
 1603SOL     OW 5707   6.689   6.740   1.311
 1603SOL    HW1 5708   6.768   6.681   1.326
 1603SOL    HW2 5709   6.679   6.803   1.388
 1604SOL     OW 5710   0.899   5.495   5.918
 1604SOL    HW1 5711   0.822   5.555   5.896
 1604SOL    HW2 5712   0.866   5.416   5.969
 1605SOL     OW 5713   5.149   6.474   3.214
 1605SOL    HW1 5714   5.050   6.485   3.220
 1605SOL    HW2 5715   5.188   6.551   3.163
 1606SOL     OW 5716   5.082   6.804   6.174
 1606SOL    HW1 5717   5.124   6.886   6.213
 1606SOL    HW2 5718   5.072   6.734   6.245
 1607SOL     OW 5719   4.129   2.205   0.648
 1607SOL    HW1 5720   4.132   2.133   0.718
 1607SOL    HW2 5721   4.169   2.289   0.685
 1608SOL     OW 5722   2.626   0.234   0.710
 1608SOL    HW1 5723   2.683   0.214   0.631
 1608SOL    HW2 5724   2.685   0.254   0.789
 1609SOL     OW 5725   4.965   1.914   5.532
 1609SOL    HW1 5726   4.920   1.883   5.615
 1609SOL    HW2 5727   5.020   1.840   5.494
 1610SOL     OW 5728   5.939   5.540   4.554
 1610SOL    HW1 5729   5.860   5.520   4.611
 1610SOL    HW2 5730   5.916   5.525   4.458
 1611SOL     OW 5731   2.681   3.559   1.412
 1611SOL    HW1 5732   2.721   3.626   1.349
 1611SOL    HW2 5733   2.666   3.602   1.501
 1612SOL     OW 5734   3.279   0.850   4.281
 1612SOL    HW1 5735   3.291   0.890   4.372
 1612SOL    HW2 5736   3.324   0.909   4.214
 1613SOL     OW 5737   2.170   5.901   0.589
 1613SOL    HW1 5738   2.120   5.829   0.637
 1613SOL    HW2 5739   2.116   5.985   0.588
 1614SOL     OW 5740   6.570   2.353   6.818
 1614SOL    HW1 5741   6.482   2.363   6.865
 1614SOL    HW2 5742   6.577   2.260   6.781
 1615SOL     OW 5743   6.434   5.094   6.566
 1615SOL    HW1 5744   6.390   5.014   6.606
 1615SOL    HW2 5745   6.486   5.066   6.485
 1616SOL     OW 5746   2.865   1.885   5.728
 1616SOL    HW1 5747   2.848   1.983   5.727
 1616SOL    HW2 5748   2.896   1.855   5.638
 1617SOL     OW 5749   4.436   0.721   3.937
 1617SOL    HW1 5750   4.375   0.697   4.012
 1617SOL    HW2 5751   4.426   0.654   3.863
 1618SOL     OW 5752   5.789   2.432   0.799
 1618SOL    HW1 5753   5.708   2.488   0.784
 1618SOL    HW2 5754   5.778   2.379   0.884
 1619SOL     OW 5755   1.623   3.300   4.596
 1619SOL    HW1 5756   1.594   3.288   4.501
 1619SOL    HW2 5757   1.704   3.244   4.613
 1620SOL     OW 5758   3.538   5.274   1.052
 1620SOL    HW1 5759   3.512   5.226   1.135
 1620SOL    HW2 5760   3.601   5.218   0.998
 1621SOL     OW 5761   1.698   0.875   1.691
 1621SOL    HW1 5762   1.738   0.798   1.643
 1621SOL    HW2 5763   1.728   0.961   1.649
 1622SOL     OW 5764   2.224   1.852   4.293
 1622SOL    HW1 5765   2.283   1.861   4.213
 1622SOL    HW2 5766   2.273   1.886   4.374
 1623SOL     OW 5767   2.724   1.965   4.780
 1623SOL    HW1 5768   2.749   1.921   4.694
 1623SOL    HW2 5769   2.803   2.014   4.816
 1624SOL     OW 5770   2.270   0.879   0.188
 1624SOL    HW1 5771   2.172   0.882   0.166
 1624SOL    HW2 5772   2.287   0.933   0.270
 1625SOL     OW 5773   0.004   5.291   2.180
 1625SOL    HW1 5774   0.072   5.352   2.140
 1625SOL    HW2 5775   0.032   5.265   2.273
 1626SOL     OW 5776   2.133   2.235   6.101
 1626SOL    HW1 5777   2.212   2.227   6.162
 1626SOL    HW2 5778   2.146   2.313   6.040
 1627SOL     OW 5779   5.261   2.840   3.934
 1627SOL    HW1 5780   5.248   2.814   4.029
 1627SOL    HW2 5781   5.354   2.818   3.905
 1628SOL     OW 5782   3.102   3.186   0.142
 1628SOL    HW1 5783   3.059   3.204   0.231
 1628SOL    HW2 5784   3.196   3.155   0.155
 1629SOL     OW 5785   4.598   2.658   3.703
 1629SOL    HW1 5786   4.558   2.660   3.794
 1629SOL    HW2 5787   4.661   2.734   3.692
 1630SOL     OW 5788   0.158   4.900   4.149
 1630SOL    HW1 5789   0.231   4.950   4.194
 1630SOL    HW2 5790   0.100   4.856   4.218
 1631SOL     OW 5791   0.525   6.912   5.596
 1631SOL    HW1 5792   0.449   6.850   5.576
 1631SOL    HW2 5793   0.582   6.922   5.514
 1632SOL     OW 5794   6.313   0.589   1.792
 1632SOL    HW1 5795   6.293   0.539   1.707
 1632SOL    HW2 5796   6.232   0.641   1.820
 1633SOL     OW 5797   5.207   3.010   3.699
 1633SOL    HW1 5798   5.275   3.083   3.701
 1633SOL    HW2 5799   5.210   2.959   3.784
 1634SOL     OW 5800   3.347   1.017   6.704
 1634SOL    HW1 5801   3.292   0.934   6.693
 1634SOL    HW2 5802   3.376   1.025   6.799
 1635SOL     OW 5803   0.390   5.550   4.037
 1635SOL    HW1 5804   0.333   5.614   3.985
 1635SOL    HW2 5805   0.470   5.524   3.982
 1636SOL     OW 5806   1.888   5.963   1.168
 1636SOL    HW1 5807   1.860   6.054   1.197
 1636SOL    HW2 5808   1.943   5.920   1.239
 1637SOL     OW 5809   0.071   3.203   2.159
 1637SOL    HW1 5810   0.071   3.149   2.074
 1637SOL    HW2 5811   0.159   3.249   2.169
 1638SOL     OW 5812   1.534   3.099   5.149
 1638SOL    HW1 5813   1.441   3.089   5.114
 1638SOL    HW2 5814   1.540   3.181   5.206
 1639SOL     OW 5815   4.893   4.797   2.130
 1639SOL    HW1 5816   4.939   4.862   2.190
 1639SOL    HW2 5817   4.884   4.709   2.177
 1640SOL     OW 5818   5.913   0.467   1.762
 1640SOL    HW1 5819   5.905   0.468   1.662
 1640SOL    HW2 5820   5.912   0.373   1.795
 1641SOL     OW 5821   6.272   2.407   5.675
 1641SOL    HW1 5822   6.342   2.463   5.718
 1641SOL    HW2 5823   6.184   2.424   5.719
 1642SOL     OW 5824   0.389   2.560   1.866
 1642SOL    HW1 5825   0.293   2.569   1.837
 1642SOL    HW2 5826   0.440   2.642   1.842
 1643SOL     OW 5827   3.976   0.415   5.362
 1643SOL    HW1 5828   4.066   0.374   5.341
 1643SOL    HW2 5829   3.964   0.498   5.308
 1644SOL     OW 5830   3.084   0.731   0.831
 1644SOL    HW1 5831   3.070   0.827   0.854
 1644SOL    HW2 5832   3.181   0.709   0.839
 1645SOL     OW 5833   1.888   7.019   6.446
 1645SOL    HW1 5834   1.962   6.951   6.439
 1645SOL    HW2 5835   1.856   0.023   6.355
 1646SOL     OW 5836   1.099   3.204   1.142
 1646SOL    HW1 5837   1.192   3.172   1.121
 1646SOL    HW2 5838   1.090   3.215   1.241
 1647SOL     OW 5839   5.890   2.782   3.914
 1647SOL    HW1 5840   5.839   2.741   3.838
 1647SOL    HW2 5841   5.841   2.862   3.947
 1648SOL     OW 5842   4.383   6.699   2.263
 1648SOL    HW1 5843   4.460   6.676   2.322
 1648SOL    HW2 5844   4.318   6.755   2.313
 1649SOL     OW 5845   3.364   0.985   3.114
 1649SOL    HW1 5846   3.303   0.949   3.185
 1649SOL    HW2 5847   3.417   0.911   3.075
 1650SOL     OW 5848   2.379   6.204   3.530
 1650SOL    HW1 5849   2.317   6.227   3.604
 1650SOL    HW2 5850   2.404   6.108   3.535
 1651SOL     OW 5851   1.701   6.705   0.843
 1651SOL    HW1 5852   1.794   6.717   0.879
 1651SOL    HW2 5853   1.674   6.610   0.852
 1652SOL     OW 5854   2.933   2.663   1.468
 1652SOL    HW1 5855   2.979   2.749   1.491
 1652SOL    HW2 5856   2.879   2.633   1.546
 1653SOL     OW 5857   1.055   5.526   1.031
 1653SOL    HW1 5858   1.062   5.458   0.958
 1653SOL    HW2 5859   1.145   5.538   1.074
 1654SOL     OW 5860   0.071   3.424   3.201
 1654SOL    HW1 5861   0.040   3.512   3.237
 1654SOL    HW2 5862   7.019   3.356   3.215
 1655SOL     OW 5863   4.676   4.761   5.420
 1655SOL    HW1 5864   4.743   4.764   5.494
 1655SOL    HW2 5865   4.688   4.677   5.367
 1656SOL     OW 5866   0.278   4.949   3.235
 1656SOL    HW1 5867   0.325   4.940   3.148
 1656SOL    HW2 5868   0.330   5.009   3.296
 1657SOL     OW 5869   1.256   0.335   5.574
 1657SOL    HW1 5870   1.179   0.393   5.600
 1657SOL    HW2 5871   1.294   0.367   5.487
 1658SOL     OW 5872   6.034   6.199   2.705
 1658SOL    HW1 5873   6.059   6.148   2.623
 1658SOL    HW2 5874   6.055   6.296   2.691
 1659SOL     OW 5875   4.305   2.038   5.571
 1659SOL    HW1 5876   4.397   2.061   5.538
 1659SOL    HW2 5877   4.241   2.040   5.494
 1660SOL     OW 5878   1.760   5.708   3.192
 1660SOL    HW1 5879   1.699   5.750   3.125
 1660SOL    HW2 5880   1.837   5.664   3.145
 1661SOL     OW 5881   2.698   0.192   2.203
 1661SOL    HW1 5882   2.748   0.248   2.137
 1661SOL    HW2 5883   2.683   0.243   2.287
 1662SOL     OW 5884   0.411   0.562   3.175
 1662SOL    HW1 5885   0.378   0.484   3.122
 1662SOL    HW2 5886   0.362   0.645   3.147
 1663SOL     OW 5887   2.838   6.971   3.575
 1663SOL    HW1 5888   2.861   0.019   3.506
 1663SOL    HW2 5889   2.915   6.909   3.590
 1664SOL     OW 5890   2.166   5.667   4.485
 1664SOL    HW1 5891   2.218   5.592   4.526
 1664SOL    HW2 5892   2.227   5.743   4.463
 1665SOL     OW 5893   0.288   6.884   4.715
 1665SOL    HW1 5894   0.263   6.935   4.797
 1665SOL    HW2 5895   0.386   6.865   4.716
 1666SOL     OW 5896   6.105   2.701   5.995
 1666SOL    HW1 5897   6.191   2.650   6.005
 1666SOL    HW2 5898   6.103   2.776   6.061
 1667SOL     OW 5899   6.590   0.441   6.116
 1667SOL    HW1 5900   6.544   0.354   6.134
 1667SOL    HW2 5901   6.674   0.447   6.171
 1668SOL     OW 5902   3.593   1.028   4.985
 1668SOL    HW1 5903   3.687   1.010   5.016
 1668SOL    HW2 5904   3.544   1.080   5.054
 1669SOL     OW 5905   5.875   0.204   6.499
 1669SOL    HW1 5906   5.812   0.135   6.464
 1669SOL    HW2 5907   5.948   0.219   6.432
 1670SOL     OW 5908   5.545   4.292   5.807
 1670SOL    HW1 5909   5.580   4.356   5.875
 1670SOL    HW2 5910   5.459   4.326   5.770
 1671SOL     OW 5911   5.341   4.095   0.328
 1671SOL    HW1 5912   5.297   4.107   0.416
 1671SOL    HW2 5913   5.420   4.156   0.320
 1672SOL     OW 5914   1.611   5.724   2.507
 1672SOL    HW1 5915   1.542   5.792   2.483
 1672SOL    HW2 5916   1.683   5.724   2.438
 1673SOL     OW 5917   6.487   2.042   4.180
 1673SOL    HW1 5918   6.517   1.964   4.234
 1673SOL    HW2 5919   6.518   2.031   4.085
 1674SOL     OW 5920   0.648   4.670   6.352
 1674SOL    HW1 5921   0.556   4.653   6.387
 1674SOL    HW2 5922   0.664   4.614   6.271
 1675SOL     OW 5923   4.879   2.257   6.905
 1675SOL    HW1 5924   4.878   2.198   6.986
 1675SOL    HW2 5925   4.927   2.342   6.927
 1676SOL     OW 5926   1.536   0.660   3.074
 1676SOL    HW1 5927   1.482   0.580   3.049
 1676SOL    HW2 5928   1.628   0.632   3.101
 1677SOL     OW 5929   6.703   1.561   5.777
 1677SOL    HW1 5930   6.619   1.510   5.798
 1677SOL    HW2 5931   6.740   1.600   5.861
 1678SOL     OW 5932   5.442   6.975   1.726
 1678SOL    HW1 5933   5.386   6.897   1.699
 1678SOL    HW2 5934   5.418   0.034   1.669
 1679SOL     OW 5935   0.130   3.830   6.808
 1679SOL    HW1 5936   0.140   3.733   6.789
 1679SOL    HW2 5937   0.189   3.856   6.884
 1680SOL     OW 5938   1.281   1.560   4.323
 1680SOL    HW1 5939   1.252   1.604   4.239
 1680SOL    HW2 5940   1.203   1.549   4.384
 1681SOL     OW 5941   6.106   5.419   1.296
 1681SOL    HW1 5942   6.189   5.374   1.328
 1681SOL    HW2 5943   6.119   5.452   1.203
 1682SOL     OW 5944   6.616   3.484   5.601
 1682SOL    HW1 5945   6.647   3.427   5.677
 1682SOL    HW2 5946   6.516   3.485   5.598
 1683SOL     OW 5947   5.404   5.784   0.510
 1683SOL    HW1 5948   5.323   5.806   0.563
 1683SOL    HW2 5949   5.443   5.868   0.472
 1684SOL     OW 5950   0.393   5.790   5.010
 1684SOL    HW1 5951   0.376   5.823   5.102
 1684SOL    HW2 5952   0.406   5.691   5.012
 1685SOL     OW 5953   0.996   1.890   6.852
 1685SOL    HW1 5954   0.946   1.977   6.855
 1685SOL    HW2 5955   0.954   1.829   6.786
 1686SOL     OW 5956   1.841   6.205   0.163
 1686SOL    HW1 5957   1.776   6.198   0.088
 1686SOL    HW2 5958   1.857   6.114   0.201
 1687SOL     OW 5959   1.835   0.218   1.651
 1687SOL    HW1 5960   1.741   0.184   1.654
 1687SOL    HW2 5961   1.868   0.217   1.557
 1688SOL     OW 5962   0.601   1.887   3.516
 1688SOL    HW1 5963   0.566   1.894   3.609
 1688SOL    HW2 5964   0.648   1.799   3.505
 1689SOL     OW 5965   2.304   1.431   2.509
 1689SOL    HW1 5966   2.244   1.441   2.429
 1689SOL    HW2 5967   2.249   1.434   2.592
 1690SOL     OW 5968   1.050   2.163   0.915
 1690SOL    HW1 5969   1.010   2.254   0.902
 1690SOL    HW2 5970   1.082   2.154   1.010
 1691SOL     OW 5971   5.364   4.712   2.279
 1691SOL    HW1 5972   5.443   4.687   2.336
 1691SOL    HW2 5973   5.309   4.630   2.262
 1692SOL     OW 5974   1.372   0.778   3.839
 1692SOL    HW1 5975   1.469   0.800   3.828
 1692SOL    HW2 5976   1.360   0.718   3.919
 1693SOL     OW 5977   2.672   2.427   3.419
 1693SOL    HW1 5978   2.711   2.380   3.339
 1693SOL    HW2 5979   2.666   2.362   3.495
 1694SOL     OW 5980   4.869   6.106   5.401
 1694SOL    HW1 5981   4.850   6.007   5.405
 1694SOL    HW2 5982   4.784   6.156   5.388
 1695SOL     OW 5983   2.791   2.060   6.123
 1695SOL    HW1 5984   2.791   2.155   6.155
 1695SOL    HW2 5985   2.880   2.040   6.081
 1696SOL     OW 5986   3.331   5.356   0.872
 1696SOL    HW1 5987   3.395   5.326   0.942
 1696SOL    HW2 5988   3.312   5.453   0.883
 1697SOL     OW 5989   0.822   1.078   1.962
 1697SOL    HW1 5990   0.788   0.994   1.921
 1697SOL    HW2 5991   0.813   1.153   1.896
 1698SOL     OW 5992   4.769   2.244   0.915
 1698SOL    HW1 5993   4.759   2.229   1.013
 1698SOL    HW2 5994   4.680   2.262   0.875
 1699SOL     OW 5995   2.291   3.441   0.734
 1699SOL    HW1 5996   2.252   3.486   0.654
 1699SOL    HW2 5997   2.369   3.495   0.767
 1700SOL     OW 5998   6.285   3.081   4.359
 1700SOL    HW1 5999   6.305   2.989   4.393
 1700SOL    HW2 6000   6.275   3.143   4.437
 1701SOL     OW 6001   5.650   3.493   4.695
 1701SOL    HW1 6002   5.686   3.517   4.605
 1701SOL    HW2 6003   5.693   3.552   4.764
 1702SOL     OW 6004   4.827   3.145   0.630
 1702SOL    HW1 6005   4.817   3.238   0.663
 1702SOL    HW2 6006   4.921   3.114   0.644
 1703SOL     OW 6007   2.057   3.835   0.318
 1703SOL    HW1 6008   2.107   3.828   0.231
 1703SOL    HW2 6009   2.004   3.919   0.319
 1704SOL     OW 6010   1.188   0.893   1.762
 1704SOL    HW1 6011   1.280   0.900   1.801
 1704SOL    HW2 6012   1.144   0.810   1.796
 1705SOL     OW 6013   3.589   3.108   1.868
 1705SOL    HW1 6014   3.630   3.143   1.785
 1705SOL    HW2 6015   3.580   3.009   1.863
 1706SOL     OW 6016   3.048   1.078   6.514
 1706SOL    HW1 6017   3.053   1.117   6.606
 1706SOL    HW2 6018   2.958   1.093   6.475
 1707SOL     OW 6019   5.907   1.933   3.034
 1707SOL    HW1 6020   5.834   1.914   3.099
 1707SOL    HW2 6021   5.993   1.894   3.067
 1708SOL     OW 6022   6.723   4.857   2.646
 1708SOL    HW1 6023   6.734   4.786   2.716
 1708SOL    HW2 6024   6.810   4.871   2.599
 1709SOL     OW 6025   3.272   6.131   3.305
 1709SOL    HW1 6026   3.264   6.041   3.262
 1709SOL    HW2 6027   3.180   6.169   3.319
 1710SOL     OW 6028   6.966   6.333   3.495
 1710SOL    HW1 6029   6.939   6.396   3.567
 1710SOL    HW2 6030   6.886   6.283   3.462
 1711SOL     OW 6031   1.585   4.665   5.793
 1711SOL    HW1 6032   1.666   4.677   5.736
 1711SOL    HW2 6033   1.530   4.590   5.757
 1712SOL     OW 6034   1.210   5.049   0.804
 1712SOL    HW1 6035   1.171   4.978   0.745
 1712SOL    HW2 6036   1.293   5.013   0.848
 1713SOL     OW 6037   1.435   3.367   0.817
 1713SOL    HW1 6038   1.452   3.367   0.718
 1713SOL    HW2 6039   1.337   3.374   0.834
 1714SOL     OW 6040   3.680   1.573   0.668
 1714SOL    HW1 6041   3.584   1.546   0.680
 1714SOL    HW2 6042   3.740   1.498   0.695
 1715SOL     OW 6043   0.311   3.417   4.126
 1715SOL    HW1 6044   0.285   3.398   4.221
 1715SOL    HW2 6045   0.241   3.475   4.083
 1716SOL     OW 6046   0.611   0.128   0.364
 1716SOL    HW1 6047   0.653   0.061   0.424
 1716SOL    HW2 6048   0.682   0.184   0.321
 1717SOL     OW 6049   3.279   0.394   0.296
 1717SOL    HW1 6050   3.211   0.468   0.302
 1717SOL    HW2 6051   3.355   0.424   0.237
 1718SOL     OW 6052   1.135   4.981   5.411
 1718SOL    HW1 6053   1.098   5.058   5.359
 1718SOL    HW2 6054   1.132   4.899   5.355
 1719SOL     OW 6055   2.174   3.407   1.485
 1719SOL    HW1 6056   2.240   3.348   1.532
 1719SOL    HW2 6057   2.121   3.353   1.420
 1720SOL     OW 6058   6.882   1.630   1.158
 1720SOL    HW1 6059   6.893   1.579   1.243
 1720SOL    HW2 6060   6.829   1.713   1.176
 1721SOL     OW 6061   1.670   6.253   4.050
 1721SOL    HW1 6062   1.699   6.289   4.138
 1721SOL    HW2 6063   1.716   6.166   4.032
 1722SOL     OW 6064   5.869   6.375   1.818
 1722SOL    HW1 6065   5.816   6.456   1.840
 1722SOL    HW2 6066   5.958   6.380   1.863
 1723SOL     OW 6067   6.220   1.331   2.183
 1723SOL    HW1 6068   6.281   1.410   2.194
 1723SOL    HW2 6069   6.160   1.347   2.104
 1724SOL     OW 6070   4.587   0.587   0.201
 1724SOL    HW1 6071   4.599   0.685   0.221
 1724SOL    HW2 6072   4.560   0.539   0.284
 1725SOL     OW 6073   4.147   4.958   1.473
 1725SOL    HW1 6074   4.092   5.008   1.541
 1725SOL    HW2 6075   4.086   4.909   1.411
 1726SOL     OW 6076   0.613   5.042   4.641
 1726SOL    HW1 6077   0.578   5.016   4.731
 1726SOL    HW2 6078   0.573   5.130   4.614
 1727SOL     OW 6079   3.220   3.894   5.400
 1727SOL    HW1 6080   3.292   3.825   5.397
 1727SOL    HW2 6081   3.131   3.849   5.393
 1728SOL     OW 6082   4.753   4.310   2.973
 1728SOL    HW1 6083   4.774   4.243   3.044
 1728SOL    HW2 6084   4.678   4.369   3.003
 1729SOL     OW 6085   1.705   3.668   3.223
 1729SOL    HW1 6086   1.753   3.632   3.143
 1729SOL    HW2 6087   1.646   3.745   3.195
 1730SOL     OW 6088   5.951   2.711   5.085
 1730SOL    HW1 6089   5.946   2.643   5.158
 1730SOL    HW2 6090   6.046   2.740   5.071
 1731SOL     OW 6091   1.533   5.143   0.317
 1731SOL    HW1 6092   1.626   5.118   0.291
 1731SOL    HW2 6093   1.535   5.225   0.375
 1732SOL     OW 6094   0.276   4.715   0.060
 1732SOL    HW1 6095   0.295   4.727   0.158
 1732SOL    HW2 6096   0.201   4.649   0.049
 1733SOL     OW 6097   1.467   4.193   0.589
 1733SOL    HW1 6098   1.470   4.099   0.621
 1733SOL    HW2 6099   1.422   4.251   0.657
 1734SOL     OW 6100   5.073   3.437   0.504
 1734SOL    HW1 6101   4.988   3.477   0.470
 1734SOL    HW2 6102   5.058   3.400   0.596
 1735SOL     OW 6103   5.870   5.423   1.755
 1735SOL    HW1 6104   5.945   5.417   1.690
 1735SOL    HW2 6105   5.832   5.331   1.770
 1736SOL     OW 6106   3.565   3.790   0.851
 1736SOL    HW1 6107   3.597   3.880   0.882
 1736SOL    HW2 6108   3.492   3.803   0.784
 1737SOL     OW 6109   1.589   6.374   3.607
 1737SOL    HW1 6110   1.672   6.419   3.639
 1737SOL    HW2 6111   1.594   6.277   3.630
 1738SOL     OW 6112   1.256   2.548   2.133
 1738SOL    HW1 6113   1.282   2.641   2.106
 1738SOL    HW2 6114   1.305   2.521   2.215
 1739SOL     OW 6115   4.111   1.921   5.355
 1739SOL    HW1 6116   4.057   1.978   5.417
 1739SOL    HW2 6117   4.067   1.832   5.345
 1740SOL     OW 6118   0.603   1.200   5.624
 1740SOL    HW1 6119   0.556   1.244   5.701
 1740SOL    HW2 6120   0.613   1.102   5.642
 1741SOL     OW 6121   1.499   0.015   2.999
 1741SOL    HW1 6122   1.428   0.002   3.068
 1741SOL    HW2 6123   1.577   0.061   3.041
 1742SOL     OW 6124   5.791   0.334   4.437
 1742SOL    HW1 6125   5.745   0.271   4.374
 1742SOL    HW2 6126   5.890   0.322   4.431
 1743SOL     OW 6127   4.437   0.881   0.875
 1743SOL    HW1 6128   4.491   0.958   0.841
 1743SOL    HW2 6129   4.476   0.847   0.960
 1744SOL     OW 6130   2.548   0.695   1.471
 1744SOL    HW1 6131   2.506   0.613   1.432
 1744SOL    HW2 6132   2.610   0.669   1.546
 1745SOL     OW 6133   6.991   2.299   4.106
 1745SOL    HW1 6134   7.001   2.367   4.180
 1745SOL    HW2 6135   6.939   2.221   4.140
 1746SOL     OW 6136   3.245   0.325   6.291
 1746SOL    HW1 6137   3.296   0.247   6.328
 1746SOL    HW2 6138   3.151   0.297   6.272
 1747SOL     OW 6139   4.269   0.706   1.186
 1747SOL    HW1 6140   4.189   0.670   1.138
 1747SOL    HW2 6141   4.238   0.762   1.263
 1748SOL     OW 6142   5.589   2.327   2.139
 1748SOL    HW1 6143   5.500   2.299   2.104
 1748SOL    HW2 6144   5.612   2.418   2.103
 1749SOL     OW 6145   4.292   6.605   6.010
 1749SOL    HW1 6146   4.224   6.598   5.937
 1749SOL    HW2 6147   4.247   6.590   6.098
 1750SOL     OW 6148   5.267   0.682   3.942
 1750SOL    HW1 6149   5.323   0.608   3.904
 1750SOL    HW2 6150   5.171   0.667   3.918
 1751SOL     OW 6151   1.848   5.786   3.568
 1751SOL    HW1 6152   1.829   5.857   3.500
 1751SOL    HW2 6153   1.802   5.702   3.542
 1752SOL     OW 6154   6.040   2.382   0.532
 1752SOL    HW1 6155   5.969   2.324   0.571
 1752SOL    HW2 6156   6.102   2.327   0.476
 1753SOL     OW 6157   2.408   0.553   2.380
 1753SOL    HW1 6158   2.343   0.477   2.385
 1753SOL    HW2 6159   2.486   0.526   2.324
 1754SOL     OW 6160   3.995   2.764   0.714
 1754SOL    HW1 6161   3.900   2.778   0.741
 1754SOL    HW2 6162   4.055   2.819   0.772
 1755SOL     OW 6163   5.228   3.702   0.380
 1755SOL    HW1 6164   5.304   3.767   0.380
 1755SOL    HW2 6165   5.197   3.688   0.473
 1756SOL     OW 6166   6.331   5.840   4.253
 1756SOL    HW1 6167   6.358   5.897   4.176
 1756SOL    HW2 6168   6.271   5.892   4.314
 1757SOL     OW 6169   2.855   6.406   4.170
 1757SOL    HW1 6170   2.873   6.365   4.081
 1757SOL    HW2 6171   2.847   6.506   4.160
 1758SOL     OW 6172   1.923   1.054   3.120
 1758SOL    HW1 6173   1.841   1.077   3.172
 1758SOL    HW2 6174   1.921   1.100   3.031
 1759SOL     OW 6175   0.932   5.760   6.219
 1759SOL    HW1 6176   0.912   5.674   6.266
 1759SOL    HW2 6177   0.971   5.740   6.129
 1760SOL     OW 6178   5.759   0.298   2.463
 1760SOL    HW1 6179   5.667   0.260   2.459
 1760SOL    HW2 6180   5.772   0.362   2.387
 1761SOL     OW 6181   6.510   2.649   1.135
 1761SOL    HW1 6182   6.503   2.720   1.065
 1761SOL    HW2 6183   6.542   2.690   1.221
 1762SOL     OW 6184   6.028   1.770   6.527
 1762SOL    HW1 6185   6.116   1.747   6.568
 1762SOL    HW2 6186   5.982   1.839   6.582
 1763SOL     OW 6187   2.276   4.103   4.034
 1763SOL    HW1 6188   2.253   4.118   3.937
 1763SOL    HW2 6189   2.240   4.015   4.064
 1764SOL     OW 6190   6.420   2.820   4.002
 1764SOL    HW1 6191   6.323   2.839   4.011
 1764SOL    HW2 6192   6.447   2.751   4.069
 1765SOL     OW 6193   2.969   2.878   6.265
 1765SOL    HW1 6194   2.873   2.901   6.250
 1765SOL    HW2 6195   3.015   2.869   6.177
 1766SOL     OW 6196   5.415   3.303   5.279
 1766SOL    HW1 6197   5.396   3.341   5.369
 1766SOL    HW2 6198   5.510   3.322   5.255
 1767SOL     OW 6199   5.761   3.591   2.306
 1767SOL    HW1 6200   5.715   3.678   2.323
 1767SOL    HW2 6201   5.743   3.528   2.383
 1768SOL     OW 6202   6.012   0.042   4.423
 1768SOL    HW1 6203   6.066   6.988   4.382
 1768SOL    HW2 6204   5.915   0.024   4.409
 1769SOL     OW 6205   4.646   1.750   2.566
 1769SOL    HW1 6206   4.701   1.830   2.540
 1769SOL    HW2 6207   4.593   1.719   2.487
 1770SOL     OW 6208   2.484   5.579   5.137
 1770SOL    HW1 6209   2.421   5.555   5.063
 1770SOL    HW2 6210   2.577   5.549   5.113
 1771SOL     OW 6211   4.956   6.006   6.094
 1771SOL    HW1 6212   4.965   5.962   6.005
 1771SOL    HW2 6213   4.894   5.952   6.151
 1772SOL     OW 6214   3.384   6.804   2.796
 1772SOL    HW1 6215   3.327   6.839   2.722
 1772SOL    HW2 6216   3.471   6.853   2.798
 1773SOL     OW 6217   0.868   5.133   6.948
 1773SOL    HW1 6218   0.915   5.219   6.926
 1773SOL    HW2 6219   0.920   5.084   7.018
 1774SOL     OW 6220   3.802   5.450   1.691
 1774SOL    HW1 6221   3.776   5.378   1.754
 1774SOL    HW2 6222   3.898   5.475   1.705
 1775SOL     OW 6223   0.797   4.629   1.958
 1775SOL    HW1 6224   0.782   4.661   2.052
 1775SOL    HW2 6225   0.895   4.617   1.943
 1776SOL     OW 6226   2.718   5.704   4.890
 1776SOL    HW1 6227   2.664   5.753   4.958
 1776SOL    HW2 6228   2.688   5.730   4.798
 1777SOL     OW 6229   4.139   6.093   0.879
 1777SOL    HW1 6230   4.219   6.074   0.822
 1777SOL    HW2 6231   4.125   6.017   0.942
 1778SOL     OW 6232   5.453   3.785   5.435
 1778SOL    HW1 6233   5.440   3.809   5.339
 1778SOL    HW2 6234   5.384   3.717   5.462
 1779SOL     OW 6235   2.982   6.426   4.986
 1779SOL    HW1 6236   3.036   6.486   5.045
 1779SOL    HW2 6237   3.037   6.394   4.910
 1780SOL     OW 6238   3.329   3.291   6.693
 1780SOL    HW1 6239   3.371   3.342   6.768
 1780SOL    HW2 6240   3.335   3.193   6.712
 1781SOL     OW 6241   3.471   5.471   3.351
 1781SOL    HW1 6242   3.489   5.558   3.305
 1781SOL    HW2 6243   3.397   5.423   3.304
 1782SOL     OW 6244   3.381   1.782   3.695
 1782SOL    HW1 6245   3.369   1.773   3.596
 1782SOL    HW2 6246   3.325   1.858   3.728
 1783SOL     OW 6247   1.998   5.862   0.354
 1783SOL    HW1 6248   2.063   5.938   0.359
 1783SOL    HW2 6249   1.952   5.852   0.442
 1784SOL     OW 6250   3.511   6.765   5.123
 1784SOL    HW1 6251   3.510   6.704   5.202
 1784SOL    HW2 6252   3.558   6.720   5.047
 1785SOL     OW 6253   6.677   4.119   2.749
 1785SOL    HW1 6254   6.679   4.061   2.831
 1785SOL    HW2 6255   6.630   4.070   2.675
 1786SOL     OW 6256   3.149   2.552   1.334
 1786SOL    HW1 6257   3.160   2.590   1.242
 1786SOL    HW2 6258   3.083   2.607   1.386
 1787SOL     OW 6259   3.689   0.286   5.888
 1787SOL    HW1 6260   3.601   0.321   5.856
 1787SOL    HW2 6261   3.762   0.320   5.829
 1788SOL     OW 6262   2.005   5.150   5.120
 1788SOL    HW1 6263   2.024   5.059   5.157
 1788SOL    HW2 6264   1.999   5.216   5.194
 1789SOL     OW 6265   6.419   1.472   0.191
 1789SOL    HW1 6266   6.498   1.491   0.248
 1789SOL    HW2 6267   6.449   1.430   0.105
 1790SOL     OW 6268   3.611   0.076   3.801
 1790SOL    HW1 6269   3.555   0.071   3.718
 1790SOL    HW2 6270   3.701   0.036   3.784
 1791SOL     OW 6271   6.779   6.701   2.653
 1791SOL    HW1 6272   6.778   6.795   2.688
 1791SOL    HW2 6273   6.783   6.637   2.730
 1792SOL     OW 6274   1.188   2.894   4.624
 1792SOL    HW1 6275   1.280   2.854   4.628
 1792SOL    HW2 6276   1.180   2.950   4.542
 1793SOL     OW 6277   6.992   0.105   3.936
 1793SOL    HW1 6278   6.992   0.059   4.025
 1793SOL    HW2 6279   0.017   0.194   3.945
 1794SOL     OW 6280   4.026   5.202   6.121
 1794SOL    HW1 6281   3.952   5.136   6.111
 1794SOL    HW2 6282   3.991   5.294   6.106
 1795SOL     OW 6283   0.838   2.899   0.720
 1795SOL    HW1 6284   0.910   2.851   0.670
 1795SOL    HW2 6285   0.749   2.857   0.700
 1796SOL     OW 6286   3.238   0.582   6.518
 1796SOL    HW1 6287   3.170   0.521   6.477
 1796SOL    HW2 6288   3.212   0.677   6.500
 1797SOL     OW 6289   1.263   6.984   1.102
 1797SOL    HW1 6290   1.266   6.900   1.047
 1797SOL    HW2 6291   1.217   0.036   1.052
 1798SOL     OW 6292   5.014   2.524   3.172
 1798SOL    HW1 6293   5.025   2.555   3.078
 1798SOL    HW2 6294   4.940   2.575   3.216
 1799SOL     OW 6295   1.447   1.833   6.706
 1799SOL    HW1 6296   1.485   1.923   6.729
 1799SOL    HW2 6297   1.350   1.843   6.683
 1800SOL     OW 6298   3.928   5.079   1.628
 1800SOL    HW1 6299   3.841   5.127   1.635
 1800SOL    HW2 6300   3.926   4.997   1.685
 1801SOL     OW 6301   6.405   6.494   1.250
 1801SOL    HW1 6302   6.338   6.537   1.310
 1801SOL    HW2 6303   6.361   6.472   1.163
 1802SOL     OW 6304   5.068   5.735   4.380
 1802SOL    HW1 6305   5.094   5.695   4.468
 1802SOL    HW2 6306   4.992   5.798   4.393
 1803SOL     OW 6307   0.326   5.947   0.942
 1803SOL    HW1 6308   0.399   5.957   1.010
 1803SOL    HW2 6309   0.238   5.969   0.984
 1804SOL     OW 6310   2.875   3.408   5.296
 1804SOL    HW1 6311   2.861   3.320   5.339
 1804SOL    HW2 6312   2.793   3.465   5.308
 1805SOL     OW 6313   4.786   3.158   6.480
 1805SOL    HW1 6314   4.860   3.225   6.493
 1805SOL    HW2 6315   4.707   3.185   6.534
 1806SOL     OW 6316   0.519   6.902   1.666
 1806SOL    HW1 6317   0.452   6.974   1.647
 1806SOL    HW2 6318   0.565   6.921   1.753
 1807SOL     OW 6319   5.985   1.091   5.144
 1807SOL    HW1 6320   6.079   1.122   5.134
 1807SOL    HW2 6321   5.922   1.167   5.131
 1808SOL     OW 6322   1.481   4.651   4.132
 1808SOL    HW1 6323   1.561   4.665   4.190
 1808SOL    HW2 6324   1.489   4.707   4.050
 1809SOL     OW 6325   3.512   1.222   6.363
 1809SOL    HW1 6326   3.491   1.156   6.290
 1809SOL    HW2 6327   3.548   1.306   6.322
 1810SOL     OW 6328   2.713   6.382   2.842
 1810SOL    HW1 6329   2.721   6.406   2.939
 1810SOL    HW2 6330   2.798   6.337   2.812
 1811SOL     OW 6331   5.960   5.430   3.554
 1811SOL    HW1 6332   5.922   5.460   3.467
 1811SOL    HW2 6333   5.894   5.446   3.627
 1812SOL     OW 6334   4.159   5.499   6.577
 1812SOL    HW1 6335   4.144   5.450   6.490
 1812SOL    HW2 6336   4.090   5.570   6.587
 1813SOL     OW 6337   6.617   4.692   6.530
 1813SOL    HW1 6338   6.548   4.668   6.599
 1813SOL    HW2 6339   6.586   4.772   6.479
 1814SOL     OW 6340   4.248   6.673   2.615
 1814SOL    HW1 6341   4.342   6.688   2.585
 1814SOL    HW2 6342   4.203   6.609   2.553
 1815SOL     OW 6343   0.319   0.139   3.409
 1815SOL    HW1 6344   0.318   0.198   3.328
 1815SOL    HW2 6345   0.387   0.172   3.474
 1816SOL     OW 6346   0.894   4.201   0.145
 1816SOL    HW1 6347   0.900   4.188   0.244
 1816SOL    HW2 6348   0.919   4.116   0.098
 1817SOL     OW 6349   2.117   5.954   2.408
 1817SOL    HW1 6350   2.076   5.998   2.328
 1817SOL    HW2 6351   2.191   5.893   2.378
 1818SOL     OW 6352   1.720   1.195   3.237
 1818SOL    HW1 6353   1.671   1.218   3.153
 1818SOL    HW2 6354   1.723   1.274   3.298
 1819SOL     OW 6355   1.620   5.208   1.908
 1819SOL    HW1 6356   1.672   5.294   1.907
 1819SOL    HW2 6357   1.677   5.134   1.873
 1820SOL     OW 6358   4.777   0.235   2.633
 1820SOL    HW1 6359   4.799   0.177   2.555
 1820SOL    HW2 6360   4.704   0.299   2.608
 1821SOL     OW 6361   3.210   2.000   2.619
 1821SOL    HW1 6362   3.262   2.052   2.687
 1821SOL    HW2 6363   3.153   2.064   2.567
 1822SOL     OW 6364   3.243   3.331   1.706
 1822SOL    HW1 6365   3.278   3.347   1.798
 1822SOL    HW2 6366   3.151   3.292   1.712
 1823SOL     OW 6367   3.920   6.531   2.395
 1823SOL    HW1 6368   3.860   6.611   2.392
 1823SOL    HW2 6369   3.938   6.499   2.302
 1824SOL     OW 6370   5.268   2.895   1.520
 1824SOL    HW1 6371   5.271   2.860   1.614
 1824SOL    HW2 6372   5.273   2.995   1.521
 1825SOL     OW 6373   1.105   0.641   1.849
 1825SOL    HW1 6374   1.180   0.581   1.819
 1825SOL    HW2 6375   1.018   0.595   1.834
 1826SOL     OW 6376   3.702   6.400   6.590
 1826SOL    HW1 6377   3.718   6.375   6.685
 1826SOL    HW2 6378   3.667   6.321   6.539
 1827SOL     OW 6379   6.637   6.402   1.347
 1827SOL    HW1 6380   6.556   6.454   1.320
 1827SOL    HW2 6381   6.691   6.455   1.411
 1828SOL     OW 6382   1.184   2.081   6.333
 1828SOL    HW1 6383   1.154   2.137   6.255
 1828SOL    HW2 6384   1.254   2.130   6.384
 1829SOL     OW 6385   5.208   5.408   2.138
 1829SOL    HW1 6386   5.300   5.441   2.119
 1829SOL    HW2 6387   5.178   5.440   2.228
 1830SOL     OW 6388   4.952   6.606   3.617
 1830SOL    HW1 6389   4.907   6.674   3.675
 1830SOL    HW2 6390   5.003   6.653   3.545
 1831SOL     OW 6391   5.340   6.628   2.485
 1831SOL    HW1 6392   5.362   6.722   2.460
 1831SOL    HW2 6393   5.424   6.575   2.490
 1832SOL     OW 6394   4.703   2.915   0.689
 1832SOL    HW1 6395   4.747   2.988   0.637
 1832SOL    HW2 6396   4.654   2.954   0.767
 1833SOL     OW 6397   5.317   1.319   5.418
 1833SOL    HW1 6398   5.366   1.400   5.383
 1833SOL    HW2 6399   5.267   1.275   5.343
 1834SOL     OW 6400   2.697   3.220   1.105
 1834SOL    HW1 6401   2.625   3.264   1.052
 1834SOL    HW2 6402   2.762   3.289   1.136
 1835SOL     OW 6403   1.797   4.981   0.854
 1835SOL    HW1 6404   1.736   5.058   0.837
 1835SOL    HW2 6405   1.826   4.941   0.767
 1836SOL     OW 6406   0.455   6.836   0.761
 1836SOL    HW1 6407   0.544   6.821   0.804
 1836SOL    HW2 6408   0.462   6.819   0.662
 1837SOL     OW 6409   1.009   2.241   4.840
 1837SOL    HW1 6410   0.972   2.326   4.801
 1837SOL    HW2 6411   1.094   2.261   4.889
 1838SOL     OW 6412   6.590   2.250   4.349
 1838SOL    HW1 6413   6.562   2.174   4.291
 1838SOL    HW2 6414   6.623   2.325   4.292
 1839SOL     OW 6415   6.956   2.547   5.476
 1839SOL    HW1 6416   6.946   2.605   5.557
 1839SOL    HW2 6417   0.032   2.520   5.466
 1840SOL     OW 6418   1.735   6.058   0.856
 1840SOL    HW1 6419   1.658   6.061   0.920
 1840SOL    HW2 6420   1.800   6.130   0.878
 1841SOL     OW 6421   1.509   2.820   3.457
 1841SOL    HW1 6422   1.428   2.864   3.495
 1841SOL    HW2 6423   1.489   2.725   3.435
 1842SOL     OW 6424   0.866   4.692   0.006
 1842SOL    HW1 6425   0.904   4.772   0.053
 1842SOL    HW2 6426   0.937   4.623   7.017
 1843SOL     OW 6427   3.027   2.204   4.465
 1843SOL    HW1 6428   3.108   2.149   4.484
 1843SOL    HW2 6429   3.051   2.281   4.406
 1844SOL     OW 6430   4.768   2.775   4.005
 1844SOL    HW1 6431   4.750   2.817   4.094
 1844SOL    HW2 6432   4.780   2.846   3.936
 1845SOL     OW 6433   4.170   0.589   6.812
 1845SOL    HW1 6434   4.075   0.557   6.807
 1845SOL    HW2 6435   4.206   0.603   6.720
 1846SOL     OW 6436   3.310   1.568   5.645
 1846SOL    HW1 6437   3.359   1.506   5.584
 1846SOL    HW2 6438   3.260   1.636   5.591
 1847SOL     OW 6439   0.203   0.592   0.623
 1847SOL    HW1 6440   0.276   0.613   0.558
 1847SOL    HW2 6441   0.171   0.676   0.666
 1848SOL     OW 6442   2.755   7.019   2.384
 1848SOL    HW1 6443   2.748   0.057   2.303
 1848SOL    HW2 6444   2.694   6.941   2.374
 1849SOL     OW 6445   2.854   1.705   6.515
 1849SOL    HW1 6446   2.786   1.765   6.558
 1849SOL    HW2 6447   2.921   1.677   6.584
 1850SOL     OW 6448   5.850   2.523   2.594
 1850SOL    HW1 6449   5.922   2.573   2.547
 1850SOL    HW2 6450   5.868   2.425   2.589
 1851SOL     OW 6451   6.775   2.564   2.848
 1851SOL    HW1 6452   6.745   2.658   2.865
 1851SOL    HW2 6453   6.866   2.550   2.888
 1852SOL     OW 6454   4.861   2.943   0.363
 1852SOL    HW1 6455   4.938   2.998   0.331
 1852SOL    HW2 6456   4.895   2.869   0.421
 1853SOL     OW 6457   1.290   4.732   0.951
 1853SOL    HW1 6458   1.326   4.778   0.871
 1853SOL    HW2 6459   1.363   4.683   0.998
 1854SOL     OW 6460   2.598   5.732   4.379
 1854SOL    HW1 6461   2.675   5.694   4.430
 1854SOL    HW2 6462   2.626   5.754   4.286
 1855SOL     OW 6463   5.119   5.041   1.424
 1855SOL    HW1 6464   5.050   5.096   1.473
 1855SOL    HW2 6465   5.176   5.102   1.369
 1856SOL     OW 6466   5.003   2.367   5.498
 1856SOL    HW1 6467   4.942   2.446   5.498
 1856SOL    HW2 6468   5.052   2.362   5.586
 1857SOL     OW 6469   4.268   1.109   3.399
 1857SOL    HW1 6470   4.360   1.077   3.423
 1857SOL    HW2 6471   4.227   1.047   3.332
 1858SOL     OW 6472   5.037   3.741   3.320
 1858SOL    HW1 6473   5.115   3.696   3.364
 1858SOL    HW2 6474   4.962   3.749   3.386
 1859SOL     OW 6475   4.896   1.831   3.039
 1859SOL    HW1 6476   4.951   1.880   3.107
 1859SOL    HW2 6477   4.799   1.839   3.064
 1860SOL     OW 6478   5.561   1.019   4.812
 1860SOL    HW1 6479   5.502   1.050   4.886
 1860SOL    HW2 6480   5.657   1.039   4.835
 1861SOL     OW 6481   5.589   6.568   2.985
 1861SOL    HW1 6482   5.605   6.611   2.896
 1861SOL    HW2 6483   5.632   6.477   2.987
 1862SOL     OW 6484   2.170   1.602   0.260
 1862SOL    HW1 6485   2.153   1.647   0.348
 1862SOL    HW2 6486   2.188   1.672   0.190
 1863SOL     OW 6487   3.079   2.920   1.497
 1863SOL    HW1 6488   3.152   2.873   1.448
 1863SOL    HW2 6489   3.088   3.019   1.484
 1864SOL     OW 6490   1.749   6.580   4.214
 1864SOL    HW1 6491   1.827   6.567   4.275
 1864SOL    HW2 6492   1.778   6.567   4.119
 1865SOL     OW 6493   4.566   2.429   6.439
 1865SOL    HW1 6494   4.498   2.494   6.407
 1865SOL    HW2 6495   4.530   2.379   6.518
 1866SOL     OW 6496   4.971   5.015   2.533
 1866SOL    HW1 6497   5.015   4.959   2.463
 1866SOL    HW2 6498   4.922   4.957   2.597
 1867SOL     OW 6499   0.806   3.888   6.750
 1867SOL    HW1 6500   0.811   3.849   6.657
 1867SOL    HW2 6501   0.760   3.977   6.746
 1868SOL     OW 6502   6.179   4.442   5.824
 1868SOL    HW1 6503   6.086   4.468   5.851
 1868SOL    HW2 6504   6.189   4.343   5.834
 1869SOL     OW 6505   6.253   1.135   5.188
 1869SOL    HW1 6506   6.279   1.063   5.253
 1869SOL    HW2 6507   6.311   1.215   5.203
 1870SOL     OW 6508   1.648   5.616   4.132
 1870SOL    HW1 6509   1.669   5.567   4.216
 1870SOL    HW2 6510   1.731   5.659   4.097
 1871SOL     OW 6511   1.717   0.136   0.960
 1871SOL    HW1 6512   1.736   0.104   1.053
 1871SOL    HW2 6513   1.639   0.086   0.923
 1872SOL     OW 6514   2.104   4.551   0.184
 1872SOL    HW1 6515   2.023   4.493   0.200
 1872SOL    HW2 6516   2.187   4.496   0.195
 1873SOL     OW 6517   4.648   1.265   6.730
 1873SOL    HW1 6518   4.568   1.325   6.724
 1873SOL    HW2 6519   4.665   1.222   6.641
 1874SOL     OW 6520   1.153   2.200   2.916
 1874SOL    HW1 6521   1.172   2.252   2.999
 1874SOL    HW2 6522   1.176   2.255   2.836
 1875SOL     OW 6523   0.679   6.737   0.232
 1875SOL    HW1 6524   0.687   6.744   0.133
 1875SOL    HW2 6525   0.717   6.649   0.263
 1876SOL     OW 6526   2.733   0.393   4.245
 1876SOL    HW1 6527   2.759   0.300   4.218
 1876SOL    HW2 6528   2.690   0.438   4.167
 1877SOL     OW 6529   0.717   0.021   3.327
 1877SOL    HW1 6530   0.663   6.958   3.314
 1877SOL    HW2 6531   0.727   0.040   3.425
 1878SOL     OW 6532   6.351   2.477   5.151
 1878SOL    HW1 6533   6.377   2.380   5.142
 1878SOL    HW2 6534   6.299   2.490   5.235
 1879SOL     OW 6535   1.059   3.788   5.350
 1879SOL    HW1 6536   1.050   3.775   5.251
 1879SOL    HW2 6537   1.005   3.868   5.377
 1880SOL     OW 6538   6.175   0.515   5.600
 1880SOL    HW1 6539   6.233   0.439   5.630
 1880SOL    HW2 6540   6.122   0.486   5.520
 1881SOL     OW 6541   6.634   2.078   0.725
 1881SOL    HW1 6542   6.649   2.169   0.766
 1881SOL    HW2 6543   6.704   2.061   0.656
 1882SOL     OW 6544   0.643   4.469   6.142
 1882SOL    HW1 6545   0.562   4.480   6.084
 1882SOL    HW2 6546   0.707   4.406   6.097
 1883SOL     OW 6547   0.081   2.310   3.736
 1883SOL    HW1 6548   0.121   2.226   3.699
 1883SOL    HW2 6549   0.144   2.350   3.802
 1884SOL     OW 6550   0.538   2.533   1.229
 1884SOL    HW1 6551   0.535   2.626   1.192
 1884SOL    HW2 6552   0.592   2.533   1.314
 1885SOL     OW 6553   1.927   1.874   4.988
 1885SOL    HW1 6554   1.830   1.863   4.967
 1885SOL    HW2 6555   1.938   1.911   5.080
 1886SOL     OW 6556   1.130   6.411   3.190
 1886SOL    HW1 6557   1.185   6.495   3.183
 1886SOL    HW2 6558   1.191   6.333   3.202
 1887SOL     OW 6559   1.771   5.943   6.672
 1887SOL    HW1 6560   1.746   6.038   6.655
 1887SOL    HW2 6561   1.820   5.907   6.592
 1888SOL     OW 6562   2.332   0.853   1.542
 1888SOL    HW1 6563   2.270   0.806   1.605
 1888SOL    HW2 6564   2.412   0.794   1.524
 1889SOL     OW 6565   0.666   3.228   3.585
 1889SOL    HW1 6566   0.645   3.161   3.513
 1889SOL    HW2 6567   0.588   3.289   3.597
 1890SOL     OW 6568   0.284   6.001   3.587
 1890SOL    HW1 6569   0.270   6.075   3.521
 1890SOL    HW2 6570   0.305   5.916   3.538
 1891SOL     OW 6571   3.533   3.119   2.906
 1891SOL    HW1 6572   3.591   3.054   2.857
 1891SOL    HW2 6573   3.438   3.109   2.875
 1892SOL     OW 6574   0.414   0.930   2.472
 1892SOL    HW1 6575   0.475   0.936   2.393
 1892SOL    HW2 6576   0.465   0.898   2.551
 1893SOL     OW 6577   3.030   3.189   3.718
 1893SOL    HW1 6578   3.055   3.097   3.747
 1893SOL    HW2 6579   3.108   3.232   3.672
 1894SOL     OW 6580   3.121   3.852   4.268
 1894SOL    HW1 6581   3.132   3.934   4.324
 1894SOL    HW2 6582   3.035   3.806   4.291
 1895SOL     OW 6583   2.654   5.680   6.734
 1895SOL    HW1 6584   2.642   5.691   6.635
 1895SOL    HW2 6585   2.566   5.688   6.780
 1896SOL     OW 6586   5.472   2.638   1.102
 1896SOL    HW1 6587   5.446   2.698   1.027
 1896SOL    HW2 6588   5.430   2.669   1.187
 1897SOL     OW 6589   2.087   5.101   4.167
 1897SOL    HW1 6590   2.009   5.093   4.229
 1897SOL    HW2 6591   2.167   5.133   4.217
 1898SOL     OW 6592   1.523   5.997   3.476
 1898SOL    HW1 6593   1.467   5.920   3.507
 1898SOL    HW2 6594   1.486   6.033   3.390
 1899SOL     OW 6595   0.018   0.309   2.376
 1899SOL    HW1 6596   6.938   0.317   2.373
 1899SOL    HW2 6597   0.047   0.296   2.471
 1900SOL     OW 6598   2.845   0.057   0.177
 1900SOL    HW1 6599   2.897   0.010   0.106
 1900SOL    HW2 6600   2.778   0.118   0.134
 1901SOL     OW 6601   3.017   3.913   1.394
 1901SOL    HW1 6602   3.113   3.889   1.407
 1901SOL    HW2 6603   2.979   3.949   1.479
 1902SOL     OW 6604   1.414   6.622   4.181
 1902SOL    HW1 6605   1.386   6.650   4.089
 1902SOL    HW2 6606   1.513   6.612   4.185
 1903SOL     OW 6607   1.139   2.664   4.772
 1903SOL    HW1 6608   1.224   2.619   4.801
 1903SOL    HW2 6609   1.161   2.739   4.709
 1904SOL     OW 6610   5.447   5.450   2.649
 1904SOL    HW1 6611   5.514   5.376   2.643
 1904SOL    HW2 6612   5.466   5.517   2.577
 1905SOL     OW 6613   6.825   0.308   3.861
 1905SOL    HW1 6614   6.875   0.352   3.786
 1905SOL    HW2 6615   6.873   0.225   3.890
 1906SOL     OW 6616   2.051   0.122   5.350
 1906SOL    HW1 6617   2.133   0.171   5.380
 1906SOL    HW2 6618   2.074   0.027   5.329
 1907SOL     OW 6619   5.655   2.344   0.232
 1907SOL    HW1 6620   5.752   2.343   0.255
 1907SOL    HW2 6621   5.645   2.351   0.132
 1908SOL     OW 6622   3.317   1.000   1.184
 1908SOL    HW1 6623   3.313   1.099   1.167
 1908SOL    HW2 6624   3.225   0.961   1.182
 1909SOL     OW 6625   6.907   4.629   5.041
 1909SOL    HW1 6626   6.886   4.605   4.946
 1909SOL    HW2 6627   6.924   4.727   5.049
 1910SOL     OW 6628   6.955   6.388   5.903
 1910SOL    HW1 6629   6.934   6.376   5.806
 1910SOL    HW2 6630   0.028   6.355   5.921
 1911SOL     OW 6631   0.179   5.010   3.906
 1911SOL    HW1 6632   0.177   4.959   3.992
 1911SOL    HW2 6633   0.223   5.098   3.920
 1912SOL     OW 6634   2.651   5.710   2.087
 1912SOL    HW1 6635   2.578   5.677   2.148
 1912SOL    HW2 6636   2.715   5.635   2.069
 1913SOL     OW 6637   2.848   4.420   5.771
 1913SOL    HW1 6638   2.882   4.349   5.709
 1913SOL    HW2 6639   2.917   4.491   5.783
 1914SOL     OW 6640   2.295   4.672   6.461
 1914SOL    HW1 6641   2.214   4.688   6.518
 1914SOL    HW2 6642   2.273   4.691   6.365
 1915SOL     OW 6643   4.032   2.109   5.548
 1915SOL    HW1 6644   3.943   2.148   5.522
 1915SOL    HW2 6645   4.073   2.164   5.620
 1916SOL     OW 6646   4.163   0.909   2.055
 1916SOL    HW1 6647   4.112   0.878   1.975
 1916SOL    HW2 6648   4.116   0.879   2.138
 1917SOL     OW 6649   2.438   4.057   1.760
 1917SOL    HW1 6650   2.384   4.007   1.692
 1917SOL    HW2 6651   2.389   4.056   1.848
 1918SOL     OW 6652   5.585   2.667   4.233
 1918SOL    HW1 6653   5.684   2.686   4.229
 1918SOL    HW2 6654   5.568   2.597   4.302
 1919SOL     OW 6655   0.643   2.215   1.269
 1919SOL    HW1 6656   0.682   2.171   1.350
 1919SOL    HW2 6657   0.623   2.145   1.200
 1920SOL     OW 6658   5.085   2.610   0.771
 1920SOL    HW1 6659   5.141   2.554   0.832
 1920SOL    HW2 6660   4.992   2.617   0.808
 1921SOL     OW 6661   1.718   2.724   0.113
 1921SOL    HW1 6662   1.682   2.754   0.024
 1921SOL    HW2 6663   1.797   2.664   0.098
 1922SOL     OW 6664   3.419   3.213   2.353
 1922SOL    HW1 6665   3.444   3.245   2.261
 1922SOL    HW2 6666   3.460   3.123   2.368
 1923SOL     OW 6667   4.123   0.359   5.112
 1923SOL    HW1 6668   4.222   0.350   5.112
 1923SOL    HW2 6669   4.097   0.455   5.113
 1924SOL     OW 6670   3.740   0.244   0.120
 1924SOL    HW1 6671   3.733   0.155   0.164
 1924SOL    HW2 6672   3.698   0.240   0.029
 1925SOL     OW 6673   1.327   4.340   0.780
 1925SOL    HW1 6674   1.400   4.386   0.829
 1925SOL    HW2 6675   1.305   4.253   0.825
 1926SOL     OW 6676   3.514   0.205   2.106
 1926SOL    HW1 6677   3.471   0.246   2.025
 1926SOL    HW2 6678   3.601   0.164   2.081
 1927SOL     OW 6679   2.377   5.263   2.201
 1927SOL    HW1 6680   2.344   5.199   2.132
 1927SOL    HW2 6681   2.425   5.213   2.273
 1928SOL     OW 6682   5.253   4.526   3.068
 1928SOL    HW1 6683   5.342   4.518   3.113
 1928SOL    HW2 6684   5.261   4.586   2.989
 1929SOL     OW 6685   3.329   6.975   3.257
 1929SOL    HW1 6686   3.421   6.968   3.296
 1929SOL    HW2 6687   3.336   6.996   3.159
 1930SOL     OW 6688   4.545   2.892   6.678
 1930SOL    HW1 6689   4.541   2.812   6.738
 1930SOL    HW2 6690   4.572   2.863   6.586
 1931SOL     OW 6691   0.219   1.828   4.569
 1931SOL    HW1 6692   0.173   1.885   4.501
 1931SOL    HW2 6693   0.285   1.768   4.522
 1932SOL     OW 6694   4.299   2.524   1.694
 1932SOL    HW1 6695   4.351   2.603   1.663
 1932SOL    HW2 6696   4.361   2.449   1.716
 1933SOL     OW 6697   1.084   1.119   1.230
 1933SOL    HW1 6698   1.066   1.068   1.314
 1933SOL    HW2 6699   1.040   1.072   1.153
 1934SOL     OW 6700   0.395   0.237   6.819
 1934SOL    HW1 6701   0.317   0.299   6.807
 1934SOL    HW2 6702   0.439   0.222   6.730
 1935SOL     OW 6703   6.562   5.207   4.085
 1935SOL    HW1 6704   6.649   5.239   4.121
 1935SOL    HW2 6705   6.498   5.191   4.160
 1936SOL     OW 6706   4.621   2.710   5.694
 1936SOL    HW1 6707   4.557   2.634   5.696
 1936SOL    HW2 6708   4.698   2.691   5.755
 1937SOL     OW 6709   5.460   5.328   6.693
 1937SOL    HW1 6710   5.406   5.255   6.651
 1937SOL    HW2 6711   5.494   5.298   6.782
 1938SOL     OW 6712   7.009   3.219   6.514
 1938SOL    HW1 6713   0.081   3.256   6.504
 1938SOL    HW2 6714   6.942   3.292   6.497
 1939SOL     OW 6715   1.165   0.349   4.836
 1939SOL    HW1 6716   1.234   0.394   4.893
 1939SOL    HW2 6717   1.206   0.324   4.748
 1940SOL     OW 6718   6.835   5.148   0.495
 1940SOL    HW1 6719   6.869   5.072   0.439
 1940SOL    HW2 6720   6.786   5.111   0.574
 1941SOL     OW 6721   5.798   1.730   4.161
 1941SOL    HW1 6722   5.703   1.759   4.176
 1941SOL    HW2 6723   5.858   1.810   4.161
 1942SOL     OW 6724   6.220   3.556   2.653
 1942SOL    HW1 6725   6.315   3.575   2.629
 1942SOL    HW2 6726   6.167   3.540   2.570
 1943SOL     OW 6727   0.581   1.972   2.624
 1943SOL    HW1 6728   0.570   1.931   2.534
 1943SOL    HW2 6729   0.562   1.903   2.695
 1944SOL     OW 6730   6.732   2.655   3.643
 1944SOL    HW1 6731   6.787   2.572   3.642
 1944SOL    HW2 6732   6.681   2.660   3.729
 1945SOL     OW 6733   4.874   1.570   1.627
 1945SOL    HW1 6734   4.782   1.607   1.640
 1945SOL    HW2 6735   4.882   1.535   1.533
 1946SOL     OW 6736   6.051   5.210   1.104
 1946SOL    HW1 6737   6.127   5.255   1.057
 1946SOL    HW2 6738   6.084   5.168   1.188
 1947SOL     OW 6739   6.020   4.727   3.654
 1947SOL    HW1 6740   5.966   4.811   3.663
 1947SOL    HW2 6741   6.113   4.745   3.684
 1948SOL     OW 6742   4.891   3.576   3.174
 1948SOL    HW1 6743   4.880   3.601   3.078
 1948SOL    HW2 6744   4.909   3.659   3.228
 1949SOL     OW 6745   3.795   5.047   0.249
 1949SOL    HW1 6746   3.826   4.958   0.285
 1949SOL    HW2 6747   3.723   5.083   0.308
 1950SOL     OW 6748   3.245   3.814   3.369
 1950SOL    HW1 6749   3.180   3.744   3.399
 1950SOL    HW2 6750   3.199   3.903   3.367
 1951SOL     OW 6751   5.996   4.929   5.683
 1951SOL    HW1 6752   6.059   4.938   5.761
 1951SOL    HW2 6753   6.011   4.840   5.639
 1952SOL     OW 6754   5.673   5.130   0.597
 1952SOL    HW1 6755   5.641   5.064   0.529
 1952SOL    HW2 6756   5.735   5.195   0.554
 1953SOL     OW 6757   0.627   1.222   6.920
 1953SOL    HW1 6758   0.708   1.187   6.967
 1953SOL    HW2 6759   0.636   1.208   6.822
 1954SOL     OW 6760   4.387   6.846   2.022
 1954SOL    HW1 6761   4.409   6.943   2.031
 1954SOL    HW2 6762   4.384   6.804   2.113
 1955SOL     OW 6763   0.039   2.160   3.366
 1955SOL    HW1 6764   7.013   2.241   3.329
 1955SOL    HW2 6765   7.007   2.079   3.342
 1956SOL     OW 6766   5.621   0.360   1.977
 1956SOL    HW1 6767   5.566   0.402   2.049
 1956SOL    HW2 6768   5.593   0.265   1.964
 1957SOL     OW 6769   5.976   2.003   4.523
 1957SOL    HW1 6770   6.054   1.979   4.465
 1957SOL    HW2 6771   5.988   1.961   4.613
 1958SOL     OW 6772   4.309   1.941   0.380
 1958SOL    HW1 6773   4.323   1.862   0.440
 1958SOL    HW2 6774   4.356   1.926   0.293
 1959SOL     OW 6775   0.616   0.763   4.822
 1959SOL    HW1 6776   0.677   0.840   4.839
 1959SOL    HW2 6777   0.559   0.747   4.903
 1960SOL     OW 6778   6.186   4.179   4.219
 1960SOL    HW1 6779   6.283   4.204   4.221
 1960SOL    HW2 6780   6.149   4.182   4.312
 1961SOL     OW 6781   0.010   3.743   4.299
 1961SOL    HW1 6782   7.010   3.829   4.346
 1961SOL    HW2 6783   0.106   3.742   4.270
 1962SOL     OW 6784   0.993   0.428   2.581
 1962SOL    HW1 6785   1.073   0.373   2.605
 1962SOL    HW2 6786   0.928   0.371   2.530
 1963SOL     OW 6787   0.218   2.891   0.930
 1963SOL    HW1 6788   0.173   2.977   0.955
 1963SOL    HW2 6789   0.267   2.855   1.010
 1964SOL     OW 6790   6.041   3.666   1.238
 1964SOL    HW1 6791   6.126   3.614   1.225
 1964SOL    HW2 6792   6.052   3.758   1.200
 1965SOL     OW 6793   6.738   4.125   4.103
 1965SOL    HW1 6794   6.797   4.091   4.029
 1965SOL    HW2 6795   6.681   4.051   4.137
 1966SOL     OW 6796   1.461   4.862   0.128
 1966SOL    HW1 6797   1.485   4.833   0.220
 1966SOL    HW2 6798   1.536   4.917   0.090
 1967SOL     OW 6799   6.352   3.305   3.933
 1967SOL    HW1 6800   6.299   3.265   4.008
 1967SOL    HW2 6801   6.296   3.308   3.851
 1968SOL     OW 6802   2.798   1.388   4.963
 1968SOL    HW1 6803   2.862   1.399   5.039
 1968SOL    HW2 6804   2.792   1.474   4.912
 1969SOL     OW 6805   2.537   6.530   0.080
 1969SOL    HW1 6806   2.587   6.522   7.014
 1969SOL    HW2 6807   2.602   6.533   0.156
 1970SOL     OW 6808   5.674   5.417   4.969
 1970SOL    HW1 6809   5.699   5.337   4.915
 1970SOL    HW2 6810   5.652   5.389   5.062
 1971SOL     OW 6811   1.789   5.557   5.219
 1971SOL    HW1 6812   1.759   5.587   5.129
 1971SOL    HW2 6813   1.716   5.504   5.263
 1972SOL     OW 6814   6.174   3.025   2.613
 1972SOL    HW1 6815   6.096   2.985   2.661
 1972SOL    HW2 6816   6.248   3.043   2.678
 1973SOL     OW 6817   2.380   2.875   0.655
 1973SOL    HW1 6818   2.361   2.972   0.644
 1973SOL    HW2 6819   2.479   2.859   0.653
 1974SOL     OW 6820   2.660   5.925   4.597
 1974SOL    HW1 6821   2.695   5.942   4.505
 1974SOL    HW2 6822   2.560   5.937   4.597
 1975SOL     OW 6823   2.208   2.706   3.357
 1975SOL    HW1 6824   2.203   2.771   3.433
 1975SOL    HW2 6825   2.289   2.649   3.368
 1976SOL     OW 6826   0.420   6.792   5.896
 1976SOL    HW1 6827   0.480   6.873   5.893
 1976SOL    HW2 6828   0.345   6.803   5.831
 1977SOL     OW 6829   1.813   4.699   5.611
 1977SOL    HW1 6830   1.863   4.785   5.611
 1977SOL    HW2 6831   1.783   4.678   5.518
 1978SOL     OW 6832   2.989   0.256   1.832
 1978SOL    HW1 6833   3.013   0.159   1.827
 1978SOL    HW2 6834   2.895   0.269   1.799
 1979SOL     OW 6835   6.525   4.915   6.356
 1979SOL    HW1 6836   6.495   4.901   6.261
 1979SOL    HW2 6837   6.625   4.914   6.359
 1980SOL     OW 6838   3.393   1.640   0.988
 1980SOL    HW1 6839   3.411   1.722   1.041
 1980SOL    HW2 6840   3.443   1.563   1.028
 1981SOL     OW 6841   3.355   2.104   2.822
 1981SOL    HW1 6842   3.353   2.115   2.921
 1981SOL    HW2 6843   3.449   2.088   2.791
 1982SOL     OW 6844   0.958   2.565   5.428
 1982SOL    HW1 6845   0.930   2.656   5.399
 1982SOL    HW2 6846   0.921   2.497   5.364
 1983SOL     OW 6847   0.065   0.577   2.534
 1983SOL    HW1 6848   0.147   0.630   2.514
 1983SOL    HW2 6849   0.021   0.550   2.448
 1984SOL     OW 6850   4.332   2.903   5.974
 1984SOL    HW1 6851   4.292   2.872   5.887
 1984SOL    HW2 6852   4.262   2.951   6.027
 1985SOL     OW 6853   6.478   3.500   2.509
 1985SOL    HW1 6854   6.428   3.437   2.450
 1985SOL    HW2 6855   6.532   3.563   2.453
 1986SOL     OW 6856   3.622   2.839   1.895
 1986SOL    HW1 6857   3.599   2.756   1.844
 1986SOL    HW2 6858   3.720   2.840   1.915
 1987SOL     OW 6859   2.633   1.272   1.082
 1987SOL    HW1 6860   2.716   1.258   1.137
 1987SOL    HW2 6861   2.658   1.310   0.993
 1988SOL     OW 6862   0.267   2.225   1.850
 1988SOL    HW1 6863   0.238   2.263   1.762
 1988SOL    HW2 6864   0.366   2.213   1.851
 1989SOL     OW 6865   2.874   4.826   4.606
 1989SOL    HW1 6866   2.912   4.836   4.698
 1989SOL    HW2 6867   2.803   4.756   4.607
 1990SOL     OW 6868   3.813   0.489   0.212
 1990SOL    HW1 6869   3.905   0.512   0.180
 1990SOL    HW2 6870   3.780   0.409   0.161
 1991SOL     OW 6871   2.584   5.045   0.667
 1991SOL    HW1 6872   2.657   4.979   0.685
 1991SOL    HW2 6873   2.617   5.114   0.603
 1992SOL     OW 6874   0.388   6.712   1.515
 1992SOL    HW1 6875   0.452   6.674   1.449
 1992SOL    HW2 6876   0.438   6.766   1.583
 1993SOL     OW 6877   2.405   2.491   3.348
 1993SOL    HW1 6878   2.494   2.460   3.380
 1993SOL    HW2 6879   2.334   2.453   3.407
 1994SOL     OW 6880   2.931   2.880   1.075
 1994SOL    HW1 6881   2.834   2.895   1.055
 1994SOL    HW2 6882   2.986   2.950   1.030
 1995SOL     OW 6883   5.566   1.867   4.225
 1995SOL    HW1 6884   5.531   1.794   4.285
 1995SOL    HW2 6885   5.624   1.928   4.278
 1996SOL     OW 6886   4.432   1.171   1.094
 1996SOL    HW1 6887   4.382   1.163   1.008
 1996SOL    HW2 6888   4.455   1.267   1.110
 1997SOL     OW 6889   3.832   0.378   4.150
 1997SOL    HW1 6890   3.797   0.467   4.180
 1997SOL    HW2 6891   3.779   0.305   4.193
 1998SOL     OW 6892   1.976   3.681   1.376
 1998SOL    HW1 6893   1.946   3.763   1.326
 1998SOL    HW2 6894   1.897   3.621   1.391
 1999SOL     OW 6895   1.551   0.226   0.678
 1999SOL    HW1 6896   1.554   0.135   0.721
 1999SOL    HW2 6897   1.591   0.293   0.740
 2000SOL     OW 6898   3.940   4.282   5.904
 2000SOL    HW1 6899   3.903   4.291   5.812
 2000SOL    HW2 6900   3.904   4.198   5.946
 2001SOL     OW 6901   2.270   1.883   0.585
 2001SOL    HW1 6902   2.250   1.950   0.657
 2001SOL    HW2 6903   2.369   1.879   0.570
 2002SOL     OW 6904   0.197   5.124   0.231
 2002SOL    HW1 6905   0.129   5.192   0.258
 2002SOL    HW2 6906   0.158   5.064   0.161
 2003SOL     OW 6907   6.275   4.417   2.651
 2003SOL    HW1 6908   6.229   4.395   2.737
 2003SOL    HW2 6909   6.370   4.443   2.670
 2004SOL     OW 6910   3.589   6.951   3.313
 2004SOL    HW1 6911   3.607   0.026   3.339
 2004SOL    HW2 6912   3.648   6.926   3.237
 2005SOL     OW 6913   1.629   6.279   7.013
 2005SOL    HW1 6914   1.609   6.262   6.917
 2005SOL    HW2 6915   1.662   6.372   0.005
 2006SOL     OW 6916   5.689   5.891   2.551
 2006SOL    HW1 6917   5.649   5.877   2.642
 2006SOL    HW2 6918   5.640   5.964   2.504
 2007SOL     OW 6919   5.377   4.371   0.021
 2007SOL    HW1 6920   5.317   4.451   0.032
 2007SOL    HW2 6921   5.441   4.388   6.967
 2008SOL     OW 6922   1.777   3.243   3.746
 2008SOL    HW1 6923   1.832   3.268   3.826
 2008SOL    HW2 6924   1.748   3.147   3.754
 2009SOL     OW 6925   6.180   0.231   2.780
 2009SOL    HW1 6926   6.266   0.255   2.735
 2009SOL    HW2 6927   6.103   0.261   2.724
 2010SOL     OW 6928   0.809   2.054   1.432
 2010SOL    HW1 6929   0.868   2.027   1.356
 2010SOL    HW2 6930   0.762   1.974   1.468
 2011SOL     OW 6931   1.256   6.850   5.148
 2011SOL    HW1 6932   1.239   6.772   5.208
 2011SOL    HW2 6933   1.304   6.921   5.199
 2012SOL     OW 6934   1.488   2.930   1.803
 2012SOL    HW1 6935   1.490   2.909   1.706
 2012SOL    HW2 6936   1.480   3.028   1.817
 2013SOL     OW 6937   0.855   3.329   2.126
 2013SOL    HW1 6938   0.819   3.355   2.036
 2013SOL    HW2 6939   0.785   3.345   2.195
 2014SOL     OW 6940   3.944   0.890   4.529
 2014SOL    HW1 6941   3.942   0.796   4.495
 2014SOL    HW2 6942   4.038   0.914   4.553
 2015SOL     OW 6943   4.375   0.508   1.939
 2015SOL    HW1 6944   4.438   0.446   1.892
 2015SOL    HW2 6945   4.408   0.602   1.932
 2016SOL     OW 6946   1.943   0.407   5.041
 2016SOL    HW1 6947   1.942   0.310   5.015
 2016SOL    HW2 6948   1.993   0.418   5.127
 2017SOL     OW 6949   3.849   6.342   3.526
 2017SOL    HW1 6950   3.942   6.307   3.518
 2017SOL    HW2 6951   3.788   6.288   3.467
 2018SOL     OW 6952   1.620   0.874   4.107
 2018SOL    HW1 6953   1.609   0.929   4.024
 2018SOL    HW2 6954   1.717   0.873   4.133
 2019SOL     OW 6955   5.651   5.325   6.493
 2019SOL    HW1 6956   5.593   5.356   6.569
 2019SOL    HW2 6957   5.628   5.230   6.470
 2020SOL     OW 6958   2.136   6.196   6.924
 2020SOL    HW1 6959   2.136   6.254   7.005
 2020SOL    HW2 6960   2.051   6.142   6.921
 2021SOL     OW 6961   6.827   5.964   4.310
 2021SOL    HW1 6962   6.816   6.040   4.374
 2021SOL    HW2 6963   6.811   5.878   4.359
 2022SOL     OW 6964   1.886   4.074   4.473
 2022SOL    HW1 6965   1.969   4.053   4.524
 2022SOL    HW2 6966   1.899   4.051   4.376
 2023SOL     OW 6967   6.679   6.728   0.476
 2023SOL    HW1 6968   6.690   6.667   0.555
 2023SOL    HW2 6969   6.744   6.702   0.405
 2024SOL     OW 6970   0.426   5.740   4.494
 2024SOL    HW1 6971   0.514   5.787   4.502
 2024SOL    HW2 6972   0.422   5.665   4.559
 2025SOL     OW 6973   1.494   6.042   4.229
 2025SOL    HW1 6974   1.558   6.091   4.170
 2025SOL    HW2 6975   1.429   6.106   4.269
 2026SOL     OW 6976   0.161   0.260   6.150
 2026SOL    HW1 6977   0.071   0.223   6.129
 2026SOL    HW2 6978   0.197   0.215   6.232
 2027SOL     OW 6979   6.451   6.063   2.030
 2027SOL    HW1 6980   6.431   5.978   1.981
 2027SOL    HW2 6981   6.492   6.042   2.119
 2028SOL     OW 6982   3.149   5.486   4.726
 2028SOL    HW1 6983   3.063   5.501   4.774
 2028SOL    HW2 6984   3.214   5.440   4.787
 2029SOL     OW 6985   6.818   2.839   6.703
 2029SOL    HW1 6986   6.741   2.897   6.678
 2029SOL    HW2 6987   6.903   2.881   6.671
 2030SOL     OW 6988   2.001   6.933   1.981
 2030SOL    HW1 6989   2.061   6.853   1.972
 2030SOL    HW2 6990   1.964   6.956   1.891
 2031SOL     OW 6991   0.066   6.110   4.465
 2031SOL    HW1 6992   0.116   6.023   4.467
 2031SOL    HW2 6993   6.993   6.094   4.432
 2032SOL     OW 6994   2.637   2.093   5.799
 2032SOL    HW1 6995   2.566   2.077   5.729
 2032SOL    HW2 6996   2.609   2.050   5.885
 2033SOL     OW 6997   2.888   2.238   0.878
 2033SOL    HW1 6998   2.970   2.186   0.901
 2033SOL    HW2 6999   2.904   2.289   0.793
 2034SOL     OW 7000   0.333   3.718   4.677
 2034SOL    HW1 7001   0.394   3.640   4.683
 2034SOL    HW2 7002   0.247   3.697   4.725
 2035SOL     OW 7003   5.341   6.908   2.964
 2035SOL    HW1 7004   5.374   6.991   3.010
 2035SOL    HW2 7005   5.369   6.828   3.017
 2036SOL     OW 7006   0.372   4.542   6.857
 2036SOL    HW1 7007   0.307   4.610   6.892
 2036SOL    HW2 7008   0.457   4.547   6.908
 2037SOL     OW 7009   0.816   2.271   6.593
 2037SOL    HW1 7010   0.728   2.307   6.560
 2037SOL    HW2 7011   0.835   2.183   6.548
 2038SOL     OW 7012   1.001   0.933   6.402
 2038SOL    HW1 7013   1.023   0.922   6.499
 2038SOL    HW2 7014   1.056   0.871   6.347
 2039SOL     OW 7015   5.199   6.466   3.478
 2039SOL    HW1 7016   5.191   6.494   3.382
 2039SOL    HW2 7017   5.114   6.422   3.507
 2040SOL     OW 7018   2.010   2.569   0.630
 2040SOL    HW1 7019   1.920   2.608   0.610
 2040SOL    HW2 7020   1.999   2.481   0.676
 2041SOL     OW 7021   2.620   0.998   6.576
 2041SOL    HW1 7022   2.584   1.051   6.653
 2041SOL    HW2 7023   2.607   1.049   6.492
 2042SOL     OW 7024   6.282   1.406   6.044
 2042SOL    HW1 7025   6.284   1.505   6.033
 2042SOL    HW2 7026   6.195   1.371   6.009
 2043SOL     OW 7027   0.534   4.096   1.097
 2043SOL    HW1 7028   0.550   4.007   1.054
 2043SOL    HW2 7029   0.461   4.087   1.165
 2044SOL     OW 7030   4.165   0.849   1.402
 2044SOL    HW1 7031   4.230   0.891   1.464
 2044SOL    HW2 7032   4.086   0.815   1.454
 2045SOL     OW 7033   1.251   6.412   4.498
 2045SOL    HW1 7034   1.290   6.392   4.588
 2045SOL    HW2 7035   1.275   6.505   4.471
 2046SOL     OW 7036   0.733   1.866   4.843
 2046SOL    HW1 7037   0.723   1.925   4.923
 2046SOL    HW2 7038   0.645   1.858   4.796
 2047SOL     OW 7039   0.177   0.911   0.705
 2047SOL    HW1 7040   0.268   0.944   0.730
 2047SOL    HW2 7041   0.164   0.919   0.606
 2048SOL     OW 7042   1.004   2.155   4.080
 2048SOL    HW1 7043   1.063   2.216   4.132
 2048SOL    HW2 7044   0.927   2.126   4.136
 2049SOL     OW 7045   4.686   2.192   4.710
 2049SOL    HW1 7046   4.749   2.115   4.718
 2049SOL    HW2 7047   4.592   2.158   4.706
 2050SOL     OW 7048   0.690   0.999   4.127
 2050SOL    HW1 7049   0.679   0.957   4.037
 2050SOL    HW2 7050   0.717   1.095   4.116
 2051SOL     OW 7051   2.792   6.402   6.967
 2051SOL    HW1 7052   2.802   6.350   6.882
 2051SOL    HW2 7053   2.874   6.389   0.004
 2052SOL     OW 7054   1.018   4.116   6.729
 2052SOL    HW1 7055   1.074   4.070   6.660
 2052SOL    HW2 7056   0.984   4.049   6.795
 2053SOL     OW 7057   6.930   5.713   3.194
 2053SOL    HW1 7058   6.892   5.621   3.182
 2053SOL    HW2 7059   6.959   5.748   3.105
 2054SOL     OW 7060   3.114   3.954   3.090
 2054SOL    HW1 7061   3.089   3.931   2.996
 2054SOL    HW2 7062   3.150   4.047   3.092
 2055SOL     OW 7063   3.654   2.341   5.563
 2055SOL    HW1 7064   3.632   2.416   5.501
 2055SOL    HW2 7065   3.676   2.378   5.654
 2056SOL     OW 7066   3.434   4.675   1.195
 2056SOL    HW1 7067   3.465   4.598   1.250
 2056SOL    HW2 7068   3.341   4.699   1.220
 2057SOL     OW 7069   5.287   2.829   4.830
 2057SOL    HW1 7070   5.265   2.905   4.892
 2057SOL    HW2 7071   5.385   2.812   4.831
 2058SOL     OW 7072   6.844   0.008   3.335
 2058SOL    HW1 7073   6.765   0.066   3.317
 2058SOL    HW2 7074   6.835   6.987   3.426
 2059SOL     OW 7075   1.380   1.063   5.416
 2059SOL    HW1 7076   1.369   1.137   5.482
 2059SOL    HW2 7077   1.475   1.029   5.419
 2060SOL     OW 7078   1.858   2.860   6.782
 2060SOL    HW1 7079   1.769   2.850   6.828
 2060SOL    HW2 7080   1.930   2.828   6.843
 2061SOL     OW 7081   1.789   2.502   2.509
 2061SOL    HW1 7082   1.822   2.479   2.601
 2061SOL    HW2 7083   1.865   2.539   2.456
 2062SOL     OW 7084   0.102   5.022   5.127
 2062SOL    HW1 7085   0.176   4.980   5.181
 2062SOL    HW2 7086   0.015   4.978   5.150
 2063SOL     OW 7087   1.091   1.510   4.514
 2063SOL    HW1 7088   1.135   1.444   4.575
 2063SOL    HW2 7089   1.037   1.574   4.569
 2064SOL     OW 7090   0.954   3.537   3.757
 2064SOL    HW1 7091   0.964   3.483   3.840
 2064SOL    HW2 7092   0.962   3.478   3.676
 2065SOL     OW 7093   4.063   3.696   5.632
 2065SOL    HW1 7094   4.087   3.604   5.664
 2065SOL    HW2 7095   4.015   3.689   5.545
 2066SOL     OW 7096   0.927   3.227   5.804
 2066SOL    HW1 7097   0.881   3.187   5.724
 2066SOL    HW2 7098   0.948   3.323   5.785
 2067SOL     OW 7099   6.415   5.522   1.543
 2067SOL    HW1 7100   6.413   5.517   1.643
 2067SOL    HW2 7101   6.472   5.599   1.515
 2068SOL     OW 7102   4.619   0.592   4.868
 2068SOL    HW1 7103   4.597   0.688   4.849
 2068SOL    HW2 7104   4.612   0.539   4.784
 2069SOL     OW 7105   0.133   1.020   3.459
 2069SOL    HW1 7106   0.185   1.067   3.387
 2069SOL    HW2 7107   0.053   0.976   3.418
 2070SOL     OW 7108   1.036   4.972   1.024
 2070SOL    HW1 7109   0.942   4.999   1.044
 2070SOL    HW2 7110   1.062   5.006   0.934
 2071SOL     OW 7111   0.319   1.967   5.193
 2071SOL    HW1 7112   0.318   1.873   5.159
 2071SOL    HW2 7113   0.273   2.027   5.127
 2072SOL     OW 7114   5.240   4.358   5.743
 2072SOL    HW1 7115   5.188   4.308   5.812
 2072SOL    HW2 7116   5.180   4.380   5.665
 2073SOL     OW 7117   3.110   5.457   6.891
 2073SOL    HW1 7118   3.130   5.362   6.916
 2073SOL    HW2 7119   3.022   5.460   6.842
 2074SOL     OW 7120   1.550   4.699   6.117
 2074SOL    HW1 7121   1.532   4.675   6.022
 2074SOL    HW2 7122   1.628   4.762   6.122
 2075SOL     OW 7123   6.210   2.890   1.264
 2075SOL    HW1 7124   6.170   2.799   1.278
 2075SOL    HW2 7125   6.167   2.933   1.185
 2076SOL     OW 7126   6.278   6.847   4.574
 2076SOL    HW1 7127   6.326   6.907   4.509
 2076SOL    HW2 7128   6.282   6.888   4.665
 2077SOL     OW 7129   6.378   4.995   0.998
 2077SOL    HW1 7130   6.290   4.955   1.024
 2077SOL    HW2 7131   6.447   4.970   1.065
 2078SOL     OW 7132   0.767   3.165   5.579
 2078SOL    HW1 7133   0.785   3.228   5.504
 2078SOL    HW2 7134   0.757   3.072   5.543
 2079SOL     OW 7135   5.401   1.063   2.413
 2079SOL    HW1 7136   5.400   0.965   2.393
 2079SOL    HW2 7137   5.425   1.114   2.331
 2080SOL     OW 7138   2.491   3.370   6.162
 2080SOL    HW1 7139   2.396   3.380   6.194
 2080SOL    HW2 7140   2.491   3.318   6.076
 2081SOL     OW 7141   5.793   5.963   2.036
 2081SOL    HW1 7142   5.847   5.958   1.952
 2081SOL    HW2 7143   5.854   5.979   2.114
 2082SOL     OW 7144   6.404   6.316   4.285
 2082SOL    HW1 7145   6.451   6.356   4.363
 2082SOL    HW2 7146   6.470   6.300   4.211
 2083SOL     OW 7147   0.251   6.635   3.689
 2083SOL    HW1 7148   0.205   6.557   3.732
 2083SOL    HW2 7149   0.265   6.707   3.756
 2084SOL     OW 7150   6.475   2.449   0.494
 2084SOL    HW1 7151   6.397   2.482   0.547
 2084SOL    HW2 7152   6.559   2.490   0.529
 2085SOL     OW 7153   5.932   5.811   0.998
 2085SOL    HW1 7154   6.002   5.859   1.051
 2085SOL    HW2 7155   5.974   5.731   0.954
 2086SOL     OW 7156   4.696   0.937   0.005
 2086SOL    HW1 7157   4.619   0.939   6.960
 2086SOL    HW2 7158   4.713   1.030   0.038
 2087SOL     OW 7159   3.981   1.458   0.013
 2087SOL    HW1 7160   3.975   1.501   0.103
 2087SOL    HW2 7161   3.954   1.524   6.962
 2088SOL     OW 7162   1.105   5.503   5.719
 2088SOL    HW1 7163   1.034   5.521   5.788
 2088SOL    HW2 7164   1.130   5.406   5.722
 2089SOL     OW 7165   2.484   3.310   6.642
 2089SOL    HW1 7166   2.523   3.218   6.634
 2089SOL    HW2 7167   2.463   3.345   6.551
 2090SOL     OW 7168   5.486   2.921   6.014
 2090SOL    HW1 7169   5.566   2.864   5.996
 2090SOL    HW2 7170   5.407   2.862   6.029
 2091SOL     OW 7171   5.392   6.411   1.393
 2091SOL    HW1 7172   5.312   6.437   1.339
 2091SOL    HW2 7173   5.459   6.485   1.392
 2092SOL     OW 7174   3.893   3.389   1.347
 2092SOL    HW1 7175   3.817   3.341   1.304
 2092SOL    HW2 7176   3.862   3.431   1.432
 2093SOL     OW 7177   4.482   1.039   1.322
 2093SOL    HW1 7178   4.573   1.063   1.358
 2093SOL    HW2 7179   4.469   1.083   1.233
 2094SOL     OW 7180   5.501   1.969   6.467
 2094SOL    HW1 7181   5.441   1.906   6.516
 2094SOL    HW2 7182   5.496   2.060   6.509
 2095SOL     OW 7183   4.864   5.744   3.856
 2095SOL    HW1 7184   4.948   5.703   3.892
 2095SOL    HW2 7185   4.800   5.759   3.931
 2096SOL     OW 7186   3.938   6.667   1.502
 2096SOL    HW1 7187   4.015   6.729   1.512
 2096SOL    HW2 7188   3.966   6.586   1.450
 2097SOL     OW 7189   0.757   6.168   6.099
 2097SOL    HW1 7190   0.847   6.179   6.056
 2097SOL    HW2 7191   0.742   6.244   6.163
 2098SOL     OW 7192   2.866   5.941   3.492
 2098SOL    HW1 7193   2.961   5.909   3.492
 2098SOL    HW2 7194   2.805   5.864   3.512
 2099SOL     OW 7195   4.561   1.736   6.185
 2099SOL    HW1 7196   4.541   1.640   6.201
 2099SOL    HW2 7197   4.658   1.754   6.201
 2100SOL     OW 7198   5.263   6.733   1.677
 2100SOL    HW1 7199   5.347   6.689   1.709
 2100SOL    HW2 7200   5.223   6.678   1.603
 2101SOL     OW 7201   0.680   0.312   2.791
 2101SOL    HW1 7202   0.747   0.269   2.851
 2101SOL    HW2 7203   0.627   0.380   2.842
 2102SOL     OW 7204   3.764   2.285   1.115
 2102SOL    HW1 7205   3.705   2.363   1.098
 2102SOL    HW2 7206   3.746   2.249   1.207
 2103SOL     OW 7207   2.363   6.434   0.563
 2103SOL    HW1 7208   2.309   6.488   0.499
 2103SOL    HW2 7209   2.439   6.489   0.597
 2104SOL     OW 7210   1.914   4.294   3.571
 2104SOL    HW1 7211   1.916   4.239   3.487
 2104SOL    HW2 7212   1.841   4.362   3.563
 2105SOL     OW 7213   5.232   6.568   4.839
 2105SOL    HW1 7214   5.240   6.552   4.741
 2105SOL    HW2 7215   5.174   6.497   4.880
 2106SOL     OW 7216   4.287   3.199   0.964
 2106SOL    HW1 7217   4.300   3.149   1.049
 2106SOL    HW2 7218   4.219   3.271   0.977
 2107SOL     OW 7219   5.229   4.914   5.035
 2107SOL    HW1 7220   5.166   4.990   5.049
 2107SOL    HW2 7221   5.229   4.855   5.116
 2108SOL     OW 7222   4.777   0.276   4.964
 2108SOL    HW1 7223   4.835   0.270   4.883
 2108SOL    HW2 7224   4.815   0.344   5.028
 2109SOL     OW 7225   2.963   6.541   2.139
 2109SOL    HW1 7226   3.007   6.618   2.093
 2109SOL    HW2 7227   3.031   6.469   2.154
 2110SOL     OW 7228   3.228   6.206   6.876
 2110SOL    HW1 7229   3.240   6.260   6.793
 2110SOL    HW2 7230   3.152   6.143   6.864
 2111SOL     OW 7231   1.211   2.303   5.914
 2111SOL    HW1 7232   1.271   2.382   5.908
 2111SOL    HW2 7233   1.210   2.255   5.826
 2112SOL     OW 7234   1.154   0.389   0.369
 2112SOL    HW1 7235   1.159   0.408   0.271
 2112SOL    HW2 7236   1.078   0.327   0.388
 2113SOL     OW 7237   6.763   0.975   4.383
 2113SOL    HW1 7238   6.776   0.993   4.285
 2113SOL    HW2 7239   6.714   1.052   4.425
 2114SOL     OW 7240   1.735   1.513   6.019
 2114SOL    HW1 7241   1.812   1.475   5.969
 2114SOL    HW2 7242   1.733   1.612   6.007
 2115SOL     OW 7243   6.191   6.123   3.231
 2115SOL    HW1 7244   6.171   6.218   3.252
 2115SOL    HW2 7245   6.213   6.114   3.133
 2116SOL     OW 7246   1.780   2.122   6.863
 2116SOL    HW1 7247   1.752   2.201   6.918
 2116SOL    HW2 7248   1.770   2.039   6.918
 2117SOL     OW 7249   6.171   1.511   2.585
 2117SOL    HW1 7250   6.235   1.584   2.562
 2117SOL    HW2 7251   6.213   1.448   2.650
 2118SOL     OW 7252   6.997   2.578   3.190
 2118SOL    HW1 7253   6.948   2.498   3.226
 2118SOL    HW2 7254   6.938   2.659   3.198
 2119SOL     OW 7255   1.155   1.555   0.606
 2119SOL    HW1 7256   1.140   1.587   0.512
 2119SOL    HW2 7257   1.130   1.459   0.612
 2120SOL     OW 7258   5.508   1.446   0.597
 2120SOL    HW1 7259   5.494   1.393   0.681
 2120SOL    HW2 7260   5.542   1.537   0.621
 2121SOL     OW 7261   1.761   0.392   0.336
 2121SOL    HW1 7262   1.678   0.340   0.315
 2121SOL    HW2 7263   1.841   0.333   0.322
 2122SOL     OW 7264   6.591   0.466   4.232
 2122SOL    HW1 7265   6.581   0.371   4.261
 2122SOL    HW2 7266   6.507   0.516   4.252
 2123SOL     OW 7267   1.587   4.948   2.891
 2123SOL    HW1 7268   1.656   4.901   2.947
 2123SOL    HW2 7269   1.578   5.042   2.922
 2124SOL     OW 7270   4.372   3.761   6.706
 2124SOL    HW1 7271   4.333   3.672   6.682
 2124SOL    HW2 7272   4.468   3.763   6.678
 2125SOL     OW 7273   1.751   5.836   4.482
 2125SOL    HW1 7274   1.831   5.832   4.423
 2125SOL    HW2 7275   1.670   5.806   4.431
 2126SOL     OW 7276   2.679   3.967   6.748
 2126SOL    HW1 7277   2.722   3.896   6.804
 2126SOL    HW2 7278   2.740   4.045   6.741
 2127SOL     OW 7279   0.922   2.709   4.340
 2127SOL    HW1 7280   0.993   2.709   4.270
 2127SOL    HW2 7281   0.924   2.795   4.390
 2128SOL     OW 7282   5.352   3.242   1.996
 2128SOL    HW1 7283   5.433   3.186   1.980
 2128SOL    HW2 7284   5.326   3.289   1.912
 2129SOL     OW 7285   5.242   4.578   4.496
 2129SOL    HW1 7286   5.214   4.539   4.408
 2129SOL    HW2 7287   5.335   4.612   4.490
 2130SOL     OW 7288   3.027   1.008   1.212
 2130SOL    HW1 7289   2.985   0.980   1.298
 2130SOL    HW2 7290   2.984   1.092   1.180
 2131SOL     OW 7291   5.416   0.488   5.606
 2131SOL    HW1 7292   5.471   0.535   5.537
 2131SOL    HW2 7293   5.320   0.517   5.597
 2132SOL     OW 7294   2.359   2.313   0.158
 2132SOL    HW1 7295   2.296   2.302   0.081
 2132SOL    HW2 7296   2.426   2.385   0.137
 2133SOL     OW 7297   3.109   2.447   1.667
 2133SOL    HW1 7298   3.046   2.501   1.611
 2133SOL    HW2 7299   3.064   2.420   1.752
 2134SOL     OW 7300   2.246   6.148   5.352
 2134SOL    HW1 7301   2.208   6.209   5.422
 2134SOL    HW2 7302   2.200   6.166   5.265
 2135SOL     OW 7303   0.771   6.046   3.927
 2135SOL    HW1 7304   0.835   6.111   3.967
 2135SOL    HW2 7305   0.757   5.970   3.991
 2136SOL     OW 7306   1.300   4.396   3.758
 2136SOL    HW1 7307   1.360   4.378   3.680
 2136SOL    HW2 7308   1.301   4.494   3.778
 2137SOL     OW 7309   1.230   1.341   4.660
 2137SOL    HW1 7310   1.199   1.298   4.745
 2137SOL    HW2 7311   1.264   1.271   4.598
 2138SOL     OW 7312   1.363   2.549   5.949
 2138SOL    HW1 7313   1.366   2.643   5.981
 2138SOL    HW2 7314   1.416   2.491   6.011
 2139SOL     OW 7315   2.674   0.566   4.888
 2139SOL    HW1 7316   2.740   0.557   4.814
 2139SOL    HW2 7317   2.606   0.637   4.864
 2140SOL     OW 7318   1.785   5.990   3.367
 2140SOL    HW1 7319   1.794   5.915   3.302
 2140SOL    HW2 7320   1.691   5.992   3.402
 2141SOL     OW 7321   0.021   1.459   0.291
 2141SOL    HW1 7322   0.074   1.544   0.287
 2141SOL    HW2 7323   0.044   1.410   0.376
 2142SOL     OW 7324   2.605   1.717   3.477
 2142SOL    HW1 7325   2.602   1.623   3.443
 2142SOL    HW2 7326   2.700   1.745   3.491
 2143SOL     OW 7327   3.880   6.118   6.332
 2143SOL    HW1 7328   3.804   6.152   6.388
 2143SOL    HW2 7329   3.880   6.164   6.244
 2144SOL     OW 7330   0.282   0.731   2.339
 2144SOL    HW1 7331   0.311   0.801   2.405
 2144SOL    HW2 7332   0.281   0.771   2.247
 2145SOL     OW 7333   4.002   5.730   3.036
 2145SOL    HW1 7334   3.979   5.659   3.103
 2145SOL    HW2 7335   4.034   5.812   3.083
 2146SOL     OW 7336   3.274   2.950   1.061
 2146SOL    HW1 7337   3.242   2.859   1.085
 2146SOL    HW2 7338   3.330   2.987   1.136
 2147SOL     OW 7339   0.027   0.869   5.366
 2147SOL    HW1 7340   0.050   0.785   5.415
 2147SOL    HW2 7341   0.048   0.948   5.423
 2148SOL     OW 7342   5.193   2.988   2.830
 2148SOL    HW1 7343   5.239   3.054   2.890
 2148SOL    HW2 7344   5.246   2.978   2.745
 2149SOL     OW 7345   3.521   0.946   2.836
 2149SOL    HW1 7346   3.602   0.967   2.781
 2149SOL    HW2 7347   3.505   1.019   2.902
 2150SOL     OW 7348   3.596   1.178   1.833
 2150SOL    HW1 7349   3.529   1.171   1.907
 2150SOL    HW2 7350   3.556   1.142   1.749
 2151SOL     OW 7351   3.588   2.965   5.805
 2151SOL    HW1 7352   3.488   2.977   5.809
 2151SOL    HW2 7353   3.609   2.890   5.742
 2152SOL     OW 7354   5.755   5.966   1.578
 2152SOL    HW1 7355   5.728   5.893   1.641
 2152SOL    HW2 7356   5.827   5.932   1.517
 2153SOL     OW 7357   4.809   2.465   2.292
 2153SOL    HW1 7358   4.802   2.430   2.385
 2153SOL    HW2 7359   4.905   2.468   2.264
 2154SOL     OW 7360   4.017   6.298   5.121
 2154SOL    HW1 7361   3.931   6.253   5.096
 2154SOL    HW2 7362   4.093   6.235   5.104
 2155SOL     OW 7363   5.811   3.994   6.657
 2155SOL    HW1 7364   5.848   3.939   6.732
 2155SOL    HW2 7365   5.821   3.943   6.571
 2156SOL     OW 7366   0.541   0.965   1.542
 2156SOL    HW1 7367   0.453   1.011   1.529
 2156SOL    HW2 7368   0.532   0.867   1.524
 2157SOL     OW 7369   6.807   1.354   4.380
 2157SOL    HW1 7370   6.882   1.295   4.350
 2157SOL    HW2 7371   6.842   1.446   4.398
 2158SOL     OW 7372   4.195   6.286   2.591
 2158SOL    HW1 7373   4.166   6.305   2.685
 2158SOL    HW2 7374   4.219   6.372   2.546
 2159SOL     OW 7375   2.189   6.405   5.155
 2159SOL    HW1 7376   2.225   6.464   5.083
 2159SOL    HW2 7377   2.171   6.460   5.237
 2160SOL     OW 7378   2.696   2.974   0.996
 2160SOL    HW1 7379   2.686   3.062   1.043
 2160SOL    HW2 7380   2.606   2.945   0.962
 2161SOL     OW 7381   4.739   2.078   4.145
 2161SOL    HW1 7382   4.774   2.158   4.097
 2161SOL    HW2 7383   4.724   2.100   4.242
 2162SOL     OW 7384   2.007   1.404   0.093
 2162SOL    HW1 7385   1.970   1.451   0.174
 2162SOL    HW2 7386   2.099   1.370   0.114
 2163SOL     OW 7387   2.981   1.528   1.265
 2163SOL    HW1 7388   2.909   1.499   1.328
 2163SOL    HW2 7389   3.071   1.507   1.305
 2164SOL     OW 7390   0.606   0.580   1.743
 2164SOL    HW1 7391   0.586   0.613   1.651
 2164SOL    HW2 7392   0.546   0.504   1.766
 2165SOL     OW 7393   3.038   6.994   1.694
 2165SOL    HW1 7394   3.035   6.988   1.594
 2165SOL    HW2 7395   2.965   6.938   1.732
 2166SOL     OW 7396   6.278   2.806   6.511
 2166SOL    HW1 7397   6.220   2.729   6.485
 2166SOL    HW2 7398   6.332   2.835   6.432
 2167SOL     OW 7399   2.473   0.789   2.078
 2167SOL    HW1 7400   2.456   0.831   1.988
 2167SOL    HW2 7401   2.391   0.800   2.135
 2168SOL     OW 7402   5.650   5.684   4.936
 2168SOL    HW1 7403   5.732   5.740   4.926
 2168SOL    HW2 7404   5.676   5.589   4.955
 2169SOL     OW 7405   6.409   1.552   5.480
 2169SOL    HW1 7406   6.458   1.571   5.565
 2169SOL    HW2 7407   6.338   1.622   5.466
 2170SOL     OW 7408   5.649   5.129   4.249
 2170SOL    HW1 7409   5.627   5.187   4.171
 2170SOL    HW2 7410   5.657   5.034   4.219
 2171SOL     OW 7411   0.030   2.706   0.397
 2171SOL    HW1 7412   0.056   2.661   0.482
 2171SOL    HW2 7413   6.960   2.674   0.368
 2172SOL     OW 7414   2.736   0.436   1.192
 2172SOL    HW1 7415   2.754   0.532   1.168
 2172SOL    HW2 7416   2.656   0.403   1.142
 2173SOL     OW 7417   5.128   1.981   4.852
 2173SOL    HW1 7418   5.225   1.960   4.840
 2173SOL    HW2 7419   5.107   2.070   4.813
 2174SOL     OW 7420   1.362   5.354   4.775
 2174SOL    HW1 7421   1.352   5.452   4.795
 2174SOL    HW2 7422   1.457   5.327   4.791
 2175SOL     OW 7423   1.819   6.326   5.460
 2175SOL    HW1 7424   1.797   6.231   5.438
 2175SOL    HW2 7425   1.888   6.329   5.532
 2176SOL     OW 7426   1.926   2.808   2.368
 2176SOL    HW1 7427   2.009   2.767   2.331
 2176SOL    HW2 7428   1.846   2.770   2.320
 2177SOL     OW 7429   6.909   1.144   2.576
 2177SOL    HW1 7430   6.991   1.124   2.522
 2177SOL    HW2 7431   6.900   1.243   2.585
 2178SOL     OW 7432   0.719   5.232   0.905
 2178SOL    HW1 7433   0.739   5.318   0.951
 2178SOL    HW2 7434   0.649   5.247   0.836
 2179SOL     OW 7435   1.296   4.143   3.939
 2179SOL    HW1 7436   1.309   4.061   3.883
 2179SOL    HW2 7437   1.364   4.211   3.913
 2180SOL     OW 7438   4.051   2.828   1.394
 2180SOL    HW1 7439   4.066   2.780   1.307
 2180SOL    HW2 7440   4.044   2.761   1.467
 2181SOL     OW 7441   4.248   6.558   1.128
 2181SOL    HW1 7442   4.168   6.616   1.112
 2181SOL    HW2 7443   4.314   6.571   1.054
 2182SOL     OW 7444   5.381   2.059   0.499
 2182SOL    HW1 7445   5.475   2.047   0.529
 2182SOL    HW2 7446   5.329   1.975   0.514
 2183SOL     OW 7447   2.939   2.387   0.343
 2183SOL    HW1 7448   2.847   2.384   0.304
 2183SOL    HW2 7449   2.939   2.446   0.424
 2184SOL     OW 7450   4.087   2.919   6.099
 2184SOL    HW1 7451   4.034   2.926   6.184
 2184SOL    HW2 7452   4.027   2.936   6.021
 2185SOL     OW 7453   1.005   0.310   1.750
 2185SOL    HW1 7454   0.975   0.274   1.661
 2185SOL    HW2 7455   1.093   0.357   1.739
 2186SOL     OW 7456   0.098   5.152   2.407
 2186SOL    HW1 7457   0.039   5.193   2.477
 2186SOL    HW2 7458   0.132   5.064   2.439
 2187SOL     OW 7459   6.388   1.265   6.524
 2187SOL    HW1 7460   6.400   1.275   6.425
 2187SOL    HW2 7461   6.470   1.223   6.563
 2188SOL     OW 7462   4.953   1.180   3.194
 2188SOL    HW1 7463   4.995   1.253   3.139
 2188SOL    HW2 7464   4.974   1.195   3.290
 2189SOL     OW 7465   3.149   0.047   6.425
 2189SOL    HW1 7466   3.084   0.105   6.377
 2189SOL    HW2 7467   3.242   0.069   6.395
 2190SOL     OW 7468   5.040   2.199   0.918
 2190SOL    HW1 7469   4.946   2.212   0.885
 2190SOL    HW2 7470   5.039   2.164   1.012
 2191SOL     OW 7471   3.436   1.481   0.344
 2191SOL    HW1 7472   3.421   1.521   0.435
 2191SOL    HW2 7473   3.458   1.384   0.353
 2192SOL     OW 7474   3.904   5.698   3.399
 2192SOL    HW1 7475   4.000   5.676   3.383
 2192SOL    HW2 7476   3.853   5.613   3.416
 2193SOL     OW 7477   6.774   5.484   5.407
 2193SOL    HW1 7478   6.850   5.433   5.367
 2193SOL    HW2 7479   6.688   5.454   5.366
 2194SOL     OW 7480   3.389   6.865   1.010
 2194SOL    HW1 7481   3.338   6.945   1.040
 2194SOL    HW2 7482   3.466   6.894   0.952
 2195SOL     OW 7483   1.176   5.008   2.713
 2195SOL    HW1 7484   1.152   5.080   2.778
 2195SOL    HW2 7485   1.218   4.932   2.762
 2196SOL     OW 7486   4.855   2.682   6.630
 2196SOL    HW1 7487   4.760   2.708   6.648
 2196SOL    HW2 7488   4.857   2.596   6.579
 2197SOL     OW 7489   4.338   4.418   6.815
 2197SOL    HW1 7490   4.315   4.480   6.890
 2197SOL    HW2 7491   4.281   4.336   6.821
 2198SOL     OW 7492   6.234   4.499   0.777
 2198SOL    HW1 7493   6.239   4.510   0.678
 2198SOL    HW2 7494   6.233   4.589   0.821
 2199SOL     OW 7495   4.262   0.341   2.102
 2199SOL    HW1 7496   4.190   0.389   2.152
 2199SOL    HW2 7497   4.289   0.394   2.022
 2200SOL     OW 7498   2.010   6.786   4.218
 2200SOL    HW1 7499   1.993   6.862   4.280
 2200SOL    HW2 7500   2.028   6.703   4.270
 2201SOL     OW 7501   4.782   4.129   3.194
 2201SOL    HW1 7502   4.869   4.080   3.196
 2201SOL    HW2 7503   4.751   4.147   3.288
 2202SOL     OW 7504   4.890   6.170   3.661
 2202SOL    HW1 7505   4.855   6.118   3.739
 2202SOL    HW2 7506   4.833   6.252   3.648
 2203SOL     OW 7507   3.639   1.965   3.007
 2203SOL    HW1 7508   3.553   1.925   3.037
 2203SOL    HW2 7509   3.632   1.994   2.912
 2204SOL     OW 7510   2.447   2.946   1.297
 2204SOL    HW1 7511   2.532   2.931   1.347
 2204SOL    HW2 7512   2.451   2.897   1.210
 2205SOL     OW 7513   2.162   0.655   1.641
 2205SOL    HW1 7514   2.234   0.585   1.641
 2205SOL    HW2 7515   2.091   0.630   1.706
 2206SOL     OW 7516   2.531   3.135   0.134
 2206SOL    HW1 7517   2.554   3.189   0.053
 2206SOL    HW2 7518   2.448   3.170   0.176
 2207SOL     OW 7519   0.822   4.728   4.339
 2207SOL    HW1 7520   0.742   4.788   4.334
 2207SOL    HW2 7521   0.894   4.774   4.391
 2208SOL     OW 7522   6.575   4.715   2.201
 2208SOL    HW1 7523   6.668   4.742   2.227
 2208SOL    HW2 7524   6.537   4.784   2.139
 2209SOL     OW 7525   1.774   6.444   1.422
 2209SOL    HW1 7526   1.851   6.384   1.442
 2209SOL    HW2 7527   1.724   6.464   1.506
 2210SOL     OW 7528   2.043   5.018   3.701
 2210SOL    HW1 7529   2.059   5.040   3.797
 2210SOL    HW2 7530   1.965   4.956   3.694
 2211SOL     OW 7531   6.801   1.444   5.511
 2211SOL    HW1 7532   6.753   1.493   5.439
 2211SOL    HW2 7533   6.766   1.472   5.600
 2212SOL     OW 7534   2.066   6.817   6.387
 2212SOL    HW1 7535   2.087   6.809   6.289
 2212SOL    HW2 7536   2.130   6.760   6.439
 2213SOL     OW 7537   3.540   0.913   3.451
 2213SOL    HW1 7538   3.504   0.996   3.407
 2213SOL    HW2 7539   3.637   0.904   3.429
 2214SOL     OW 7540   3.930   6.929   5.554
 2214SOL    HW1 7541   3.988   7.010   5.560
 2214SOL    HW2 7542   3.988   6.847   5.543
 2215SOL     OW 7543   5.808   2.876   5.326
 2215SOL    HW1 7544   5.841   2.838   5.412
 2215SOL    HW2 7545   5.884   2.917   5.276
 2216SOL     OW 7546   2.638   0.931   2.268
 2216SOL    HW1 7547   2.576   0.880   2.209
 2216SOL    HW2 7548   2.613   0.916   2.364
 2217SOL     OW 7549   4.638   1.009   1.899
 2217SOL    HW1 7550   4.539   0.999   1.889
 2217SOL    HW2 7551   4.673   1.066   1.824
 2218SOL     OW 7552   1.331   6.621   3.154
 2218SOL    HW1 7553   1.300   6.667   3.070
 2218SOL    HW2 7554   1.407   6.672   3.194
 2219SOL     OW 7555   1.420   2.379   2.874
 2219SOL    HW1 7556   1.454   2.287   2.895
 2219SOL    HW2 7557   1.457   2.408   2.786
 2220SOL     OW 7558   0.554   0.293   1.402
 2220SOL    HW1 7559   0.530   0.208   1.356
 2220SOL    HW2 7560   0.512   0.370   1.355
 2221SOL     OW 7561   0.950   1.477   6.677
 2221SOL    HW1 7562   1.039   1.454   6.716
 2221SOL    HW2 7563   0.895   1.394   6.669
 2222SOL     OW 7564   6.074   5.999   2.869
 2222SOL    HW1 7565   6.048   5.916   2.821
 2222SOL    HW2 7566   6.050   6.079   2.814
 2223SOL     OW 7567   6.260   5.851   1.511
 2223SOL    HW1 7568   6.201   5.770   1.519
 2223SOL    HW2 7569   6.215   5.918   1.452
 2224SOL     OW 7570   1.183   4.917   2.052
 2224SOL    HW1 7571   1.172   4.917   1.952
 2224SOL    HW2 7572   1.195   5.010   2.084
 2225SOL     OW 7573   0.041   4.771   1.229
 2225SOL    HW1 7574   6.977   4.792   1.178
 2225SOL    HW2 7575   0.084   4.690   1.188
 2226SOL     OW 7576   4.154   3.739   1.574
 2226SOL    HW1 7577   4.220   3.736   1.649
 2226SOL    HW2 7578   4.080   3.803   1.598
 2227SOL     OW 7579   0.408   2.953   4.670
 2227SOL    HW1 7580   0.309   2.952   4.655
 2227SOL    HW2 7581   0.443   3.046   4.654
 2228SOL     OW 7582   3.085   4.937   4.505
 2228SOL    HW1 7583   3.017   4.868   4.530
 2228SOL    HW2 7584   3.061   5.025   4.547
 2229SOL     OW 7585   5.626   0.139   3.469
 2229SOL    HW1 7586   5.576   0.053   3.477
 2229SOL    HW2 7587   5.671   0.143   3.380
 2230SOL     OW 7588   2.433   5.309   1.410
 2230SOL    HW1 7589   2.525   5.342   1.431
 2230SOL    HW2 7590   2.422   5.217   1.448
 2231SOL     OW 7591   2.416   5.633   1.086
 2231SOL    HW1 7592   2.431   5.534   1.094
 2231SOL    HW2 7593   2.414   5.674   1.177
 2232SOL     OW 7594   5.530   3.035   3.973
 2232SOL    HW1 7595   5.514   2.939   3.997
 2232SOL    HW2 7596   5.454   3.091   4.008
 2233SOL     OW 7597   2.836   2.439   6.489
 2233SOL    HW1 7598   2.752   2.434   6.543
 2233SOL    HW2 7599   2.827   2.381   6.409
 2234SOL     OW 7600   3.888   2.133   1.352
 2234SOL    HW1 7601   3.876   2.151   1.450
 2234SOL    HW2 7602   3.935   2.210   1.310
 2235SOL     OW 7603   2.611   1.604   1.101
 2235SOL    HW1 7604   2.618   1.509   1.132
 2235SOL    HW2 7605   2.525   1.616   1.052
 2236SOL     OW 7606   0.165   4.208   5.879
 2236SOL    HW1 7607   0.172   4.181   5.783
 2236SOL    HW2 7608   0.107   4.290   5.886
 2237SOL     OW 7609   6.178   3.146   4.121
 2237SOL    HW1 7610   6.146   3.068   4.069
 2237SOL    HW2 7611   6.210   3.116   4.211
 2238SOL     OW 7612   6.434   6.290   1.537
 2238SOL    HW1 7613   6.422   6.362   1.469
 2238SOL    HW2 7614   6.359   6.225   1.530
 2239SOL     OW 7615   5.381   5.664   2.814
 2239SOL    HW1 7616   5.291   5.685   2.776
 2239SOL    HW2 7617   5.416   5.581   2.772
 2240SOL     OW 7618   5.874   3.589   1.970
 2240SOL    HW1 7619   5.883   3.609   2.068
 2240SOL    HW2 7620   5.923   3.505   1.949
 2241SOL     OW 7621   0.914   6.876   2.483
 2241SOL    HW1 7622   0.862   6.805   2.435
 2241SOL    HW2 7623   0.950   6.941   2.416
 2242SOL     OW 7624   4.018   1.657   2.935
 2242SOL    HW1 7625   4.019   1.561   2.905
 2242SOL    HW2 7626   3.940   1.671   2.997
 2243SOL     OW 7627   2.636   6.473   5.483
 2243SOL    HW1 7628   2.696   6.398   5.512
 2243SOL    HW2 7629   2.611   6.528   5.563
 2244SOL     OW 7630   3.062   1.083   4.931
 2244SOL    HW1 7631   3.077   1.008   4.867
 2244SOL    HW2 7632   3.041   1.166   4.880
 2245SOL     OW 7633   0.261   2.067   2.294
 2245SOL    HW1 7634   0.184   2.122   2.326
 2245SOL    HW2 7635   0.339   2.127   2.278
 2246SOL     OW 7636   1.867   4.816   4.980
 2246SOL    HW1 7637   1.931   4.815   4.903
 2246SOL    HW2 7638   1.784   4.865   4.954
 2247SOL     OW 7639   2.239   1.678   5.147
 2247SOL    HW1 7640   2.216   1.683   5.050
 2247SOL    HW2 7641   2.267   1.768   5.180
 2248SOL     OW 7642   4.420   4.288   5.294
 2248SOL    HW1 7643   4.390   4.193   5.287
 2248SOL    HW2 7644   4.351   4.348   5.254
 2249SOL     OW 7645   3.965   4.964   4.634
 2249SOL    HW1 7646   3.871   4.939   4.614
 2249SOL    HW2 7647   3.972   4.989   4.731
 2250SOL     OW 7648   5.149   4.836   0.846
 2250SOL    HW1 7649   5.096   4.866   0.767
 2250SOL    HW2 7650   5.246   4.833   0.822
 2251SOL     OW 7651   0.497   0.562   6.104
 2251SOL    HW1 7652   0.442   0.575   6.021
 2251SOL    HW2 7653   0.465   0.624   6.175
 2252SOL     OW 7654   3.641   0.952   6.063
 2252SOL    HW1 7655   3.551   0.993   6.077
 2252SOL    HW2 7656   3.688   0.943   6.150
 2253SOL     OW 7657   1.585   2.432   6.089
 2253SOL    HW1 7658   1.567   2.517   6.139
 2253SOL    HW2 7659   1.656   2.380   6.136
 2254SOL     OW 7660   1.527   3.876   5.734
 2254SOL    HW1 7661   1.569   3.915   5.653
 2254SOL    HW2 7662   1.439   3.921   5.751
 2255SOL     OW 7663   5.288   3.262   0.575
 2255SOL    HW1 7664   5.218   3.321   0.535
 2255SOL    HW2 7665   5.314   3.191   0.510
 2256SOL     OW 7666   3.436   4.946   2.138
 2256SOL    HW1 7667   3.439   4.910   2.232
 2256SOL    HW2 7668   3.513   4.908   2.087
 2257SOL     OW 7669   2.138   3.637   4.245
 2257SOL    HW1 7670   2.087   3.613   4.328
 2257SOL    HW2 7671   2.196   3.560   4.219
 2258SOL     OW 7672   1.939   4.942   5.656
 2258SOL    HW1 7673   1.921   4.979   5.747
 2258SOL    HW2 7674   1.912   5.008   5.587
 2259SOL     OW 7675   6.534   3.364   6.475
 2259SOL    HW1 7676   6.513   3.281   6.423
 2259SOL    HW2 7677   6.463   3.379   6.544
 2260SOL     OW 7678   4.639   3.791   1.132
 2260SOL    HW1 7679   4.572   3.742   1.076
 2260SOL    HW2 7680   4.599   3.812   1.221
 2261SOL     OW 7681   3.591   6.391   4.558
 2261SOL    HW1 7682   3.543   6.305   4.577
 2261SOL    HW2 7683   3.647   6.381   4.476
 2262SOL     OW 7684   3.527   1.729   3.256
 2262SOL    HW1 7685   3.607   1.726   3.316
 2262SOL    HW2 7686   3.447   1.760   3.308
 2263SOL     OW 7687   0.115   3.998   5.146
 2263SOL    HW1 7688   0.033   3.961   5.103
 2263SOL    HW2 7689   0.195   3.943   5.121
 2264SOL     OW 7690   3.191   4.097   3.429
 2264SOL    HW1 7691   3.256   4.171   3.413
 2264SOL    HW2 7692   3.161   4.100   3.525
 2265SOL     OW 7693   0.555   6.811   3.235
 2265SOL    HW1 7694   0.510   6.823   3.147
 2265SOL    HW2 7695   0.490   6.828   3.309
 2266SOL     OW 7696   6.193   0.394   6.505
 2266SOL    HW1 7697   6.191   0.313   6.563
 2266SOL    HW2 7698   6.276   0.394   6.449
 2267SOL     OW 7699   5.825   1.952   5.523
 2267SOL    HW1 7700   5.786   1.899   5.447
 2267SOL    HW2 7701   5.813   2.049   5.505
 2268SOL     OW 7702   6.585   5.177   0.209
 2268SOL    HW1 7703   6.599   5.201   0.305
 2268SOL    HW2 7704   6.529   5.247   0.164
 2269SOL     OW 7705   0.356   5.771   3.436
 2269SOL    HW1 7706   0.453   5.792   3.447
 2269SOL    HW2 7707   0.334   5.760   3.339
 2270SOL     OW 7708   3.676   3.029   2.684
 2270SOL    HW1 7709   3.733   3.110   2.678
 2270SOL    HW2 7710   3.661   2.991   2.592
 2271SOL     OW 7711   0.710   4.189   2.249
 2271SOL    HW1 7712   0.635   4.128   2.273
 2271SOL    HW2 7713   0.696   4.224   2.156
 2272SOL     OW 7714   5.157   2.287   6.008
 2272SOL    HW1 7715   5.163   2.192   6.039
 2272SOL    HW2 7716   5.111   2.342   6.077
 2273SOL     OW 7717   0.638   0.535   3.424
 2273SOL    HW1 7718   0.559   0.575   3.377
 2273SOL    HW2 7719   0.722   0.562   3.376
 2274SOL     OW 7720   1.111   3.934   2.963
 2274SOL    HW1 7721   1.151   4.015   2.920
 2274SOL    HW2 7722   1.172   3.856   2.949
 2275SOL     OW 7723   4.436   6.514   3.400
 2275SOL    HW1 7724   4.379   6.549   3.474
 2275SOL    HW2 7725   4.459   6.589   3.338
 2276SOL     OW 7726   3.367   5.579   1.604
 2276SOL    HW1 7727   3.334   5.589   1.510
 2276SOL    HW2 7728   3.335   5.491   1.641
 2277SOL     OW 7729   3.392   3.911   1.195
 2277SOL    HW1 7730   3.458   3.856   1.247
 2277SOL    HW2 7731   3.436   3.946   1.112
 2278SOL     OW 7732   5.227   6.519   1.174
 2278SOL    HW1 7733   5.280   6.503   1.091
 2278SOL    HW2 7734   5.198   6.615   1.177
 2279SOL     OW 7735   5.162   4.036   5.380
 2279SOL    HW1 7736   5.133   4.122   5.422
 2279SOL    HW2 7737   5.198   3.975   5.450
 2280SOL     OW 7738   6.223   6.701   5.940
 2280SOL    HW1 7739   6.273   6.720   6.024
 2280SOL    HW2 7740   6.255   6.614   5.901
 2281SOL     OW 7741   3.351   2.482   0.469
 2281SOL    HW1 7742   3.392   2.393   0.447
 2281SOL    HW2 7743   3.256   2.469   0.497
 2282SOL     OW 7744   4.329   5.550   2.164
 2282SOL    HW1 7745   4.428   5.548   2.152
 2282SOL    HW2 7746   4.286   5.592   2.084
 2283SOL     OW 7747   0.262   3.996   1.812
 2283SOL    HW1 7748   0.353   3.974   1.776
 2283SOL    HW2 7749   0.226   3.915   1.859
 2284SOL     OW 7750   2.736   2.216   2.212
 2284SOL    HW1 7751   2.714   2.121   2.188
 2284SOL    HW2 7752   2.785   2.259   2.137
 2285SOL     OW 7753   1.774   3.635   6.360
 2285SOL    HW1 7754   1.753   3.683   6.275
 2285SOL    HW2 7755   1.873   3.621   6.367
 2286SOL     OW 7756   5.731   0.056   4.377
 2286SOL    HW1 7757   5.684   0.027   4.293
 2286SOL    HW2 7758   5.664   0.075   4.448
 2287SOL     OW 7759   2.307   2.145   1.112
 2287SOL    HW1 7760   2.330   2.065   1.056
 2287SOL    HW2 7761   2.388   2.176   1.161
 2288SOL     OW 7762   1.747   5.746   4.756
 2288SOL    HW1 7763   1.836   5.702   4.742
 2288SOL    HW2 7764   1.736   5.820   4.690
 2289SOL     OW 7765   4.655   1.195   0.144
 2289SOL    HW1 7766   4.617   1.279   0.107
 2289SOL    HW2 7767   4.581   1.138   0.181
 2290SOL     OW 7768   3.366   3.456   3.437
 2290SOL    HW1 7769   3.435   3.522   3.466
 2290SOL    HW2 7770   3.275   3.496   3.449
 2291SOL     OW 7771   1.036   2.544   6.045
 2291SOL    HW1 7772   1.037   2.583   5.952
 2291SOL    HW2 7773   1.125   2.502   6.063
 2292SOL     OW 7774   4.792   1.983   2.553
 2292SOL    HW1 7775   4.824   2.007   2.462
 2292SOL    HW2 7776   4.727   2.052   2.585
 2293SOL     OW 7777   0.577   0.819   6.951
 2293SOL    HW1 7778   0.599   0.795   0.025
 2293SOL    HW2 7779   0.486   0.859   6.947
 2294SOL     OW 7780   6.850   0.901   5.939
 2294SOL    HW1 7781   6.907   0.893   5.857
 2294SOL    HW2 7782   6.909   0.910   6.019
 2295SOL     OW 7783   6.209   5.863   0.881
 2295SOL    HW1 7784   6.148   5.862   0.801
 2295SOL    HW2 7785   6.243   5.956   0.896
 2296SOL     OW 7786   4.031   5.064   3.933
 2296SOL    HW1 7787   3.995   5.122   3.860
 2296SOL    HW2 7788   4.123   5.094   3.958
 2297SOL     OW 7789   5.171   3.822   5.607
 2297SOL    HW1 7790   5.218   3.770   5.678
 2297SOL    HW2 7791   5.075   3.792   5.601
 2298SOL     OW 7792   3.057   3.901   4.591
 2298SOL    HW1 7793   3.088   3.964   4.520
 2298SOL    HW2 7794   3.059   3.947   4.680
 2299SOL     OW 7795   5.443   2.876   4.301
 2299SOL    HW1 7796   5.482   2.785   4.285
 2299SOL    HW2 7797   5.509   2.933   4.348
 2300SOL     OW 7798   4.976   6.967   2.113
 2300SOL    HW1 7799   5.008   6.967   2.207
 2300SOL    HW2 7800   4.898   0.010   2.104
 2301SOL     OW 7801   3.845   3.059   4.817
 2301SOL    HW1 7802   3.908   3.115   4.871
 2301SOL    HW2 7803   3.795   3.116   4.753
 2302SOL     OW 7804   6.361   3.076   6.054
 2302SOL    HW1 7805   6.366   3.021   5.971
 2302SOL    HW2 7806   6.379   3.172   6.033
 2303SOL     OW 7807   2.981   2.541   0.027
 2303SOL    HW1 7808   3.065   2.491   0.009
 2303SOL    HW2 7809   2.907   2.476   0.048
 2304SOL     OW 7810   6.794   6.223   2.310
 2304SOL    HW1 7811   6.854   6.293   2.273
 2304SOL    HW2 7812   6.848   6.153   2.356
 2305SOL     OW 7813   2.555   7.008   4.957
 2305SOL    HW1 7814   2.572   0.086   4.969
 2305SOL    HW2 7815   2.542   6.988   4.860
 2306SOL     OW 7816   1.798   4.795   4.538
 2306SOL    HW1 7817   1.729   4.841   4.593
 2306SOL    HW2 7818   1.881   4.781   4.593
 2307SOL     OW 7819   6.363   3.447   5.571
 2307SOL    HW1 7820   6.317   3.358   5.562
 2307SOL    HW2 7821   6.297   3.520   5.555
 2308SOL     OW 7822   1.244   5.176   2.119
 2308SOL    HW1 7823   1.321   5.174   2.183
 2308SOL    HW2 7824   1.220   5.271   2.100
 2309SOL     OW 7825   2.191   0.513   4.433
 2309SOL    HW1 7826   2.152   0.541   4.520
 2309SOL    HW2 7827   2.256   0.582   4.402
 2310SOL     OW 7828   4.600   6.861   1.047
 2310SOL    HW1 7829   4.601   6.768   1.082
 2310SOL    HW2 7830   4.629   6.924   1.119
 2311SOL     OW 7831   2.461   5.024   1.147
 2311SOL    HW1 7832   2.447   5.018   1.048
 2311SOL    HW2 7833   2.556   5.053   1.165
 2312SOL     OW 7834   3.259   4.877   1.945
 2312SOL    HW1 7835   3.326   4.815   1.903
 2312SOL    HW2 7836   3.304   4.930   2.017
 2313SOL     OW 7837   4.732   5.217   1.157
 2313SOL    HW1 7838   4.710   5.140   1.097
 2313SOL    HW2 7839   4.828   5.243   1.145
 2314SOL     OW 7840   2.649   4.890   4.380
 2314SOL    HW1 7841   2.647   4.831   4.461
 2314SOL    HW2 7842   2.701   4.973   4.401
 2315SOL     OW 7843   4.366   2.610   6.500
 2315SOL    HW1 7844   4.288   2.601   6.438
 2315SOL    HW2 7845   4.341   2.574   6.590
 2316SOL     OW 7846   5.450   3.709   1.974
 2316SOL    HW1 7847   5.428   3.612   1.981
 2316SOL    HW2 7848   5.370   3.764   2.000
 2317SOL     OW 7849   0.271   5.975   3.014
 2317SOL    HW1 7850   0.214   6.021   3.082
 2317SOL    HW2 7851   0.232   5.989   2.923
 2318SOL     OW 7852   6.716   0.519   3.988
 2318SOL    HW1 7853   6.737   0.428   3.952
 2318SOL    HW2 7854   6.682   0.511   4.081
 2319SOL     OW 7855   0.928   5.685   2.588
 2319SOL    HW1 7856   0.943   5.784   2.594
 2319SOL    HW2 7857   1.012   5.641   2.555
 2320SOL     OW 7858   6.333   5.050   5.138
 2320SOL    HW1 7859   6.283   5.125   5.096
 2320SOL    HW2 7860   6.319   5.053   5.237
 2321SOL     OW 7861   3.587   4.967   4.579
 2321SOL    HW1 7862   3.619   4.997   4.489
 2321SOL    HW2 7863   3.573   4.868   4.578
 2322SOL     OW 7864   3.383   0.454   5.118
 2322SOL    HW1 7865   3.390   0.479   5.022
 2322SOL    HW2 7866   3.402   0.356   5.128
 2323SOL     OW 7867   5.319   3.720   2.329
 2323SOL    HW1 7868   5.315   3.651   2.257
 2323SOL    HW2 7869   5.273   3.686   2.411
 2324SOL     OW 7870   0.007   5.058   3.204
 2324SOL    HW1 7871   7.004   5.112   3.285
 2324SOL    HW2 7872   0.104   5.033   3.207
 2325SOL     OW 7873   0.809   2.511   0.525
 2325SOL    HW1 7874   0.768   2.575   0.461
 2325SOL    HW2 7875   0.827   2.557   0.612
 2326SOL     OW 7876   1.008   4.235   0.479
 2326SOL    HW1 7877   0.986   4.231   0.577
 2326SOL    HW2 7878   1.016   4.330   0.450
 2327SOL     OW 7879   5.494   1.910   3.903
 2327SOL    HW1 7880   5.508   1.924   4.001
 2327SOL    HW2 7881   5.516   1.994   3.853
 2328SOL     OW 7882   6.046   6.619   3.589
 2328SOL    HW1 7883   5.994   6.553   3.643
 2328SOL    HW2 7884   6.140   6.586   3.577
 2329SOL     OW 7885   6.635   5.665   3.415
 2329SOL    HW1 7886   6.672   5.587   3.365
 2329SOL    HW2 7887   6.676   5.749   3.380
 2330SOL     OW 7888   0.557   3.647   1.413
 2330SOL    HW1 7889   0.505   3.731   1.421
 2330SOL    HW2 7890   0.636   3.661   1.353
 2331SOL     OW 7891   0.894   4.942   5.646
 2331SOL    HW1 7892   0.978   4.962   5.595
 2331SOL    HW2 7893   0.846   4.866   5.602
 2332SOL     OW 7894   5.260   2.303   5.335
 2332SOL    HW1 7895   5.291   2.359   5.258
 2332SOL    HW2 7896   5.164   2.323   5.354
 2333SOL     OW 7897   2.715   4.674   3.560
 2333SOL    HW1 7898   2.656   4.601   3.593
 2333SOL    HW2 7899   2.659   4.753   3.533
 2334SOL     OW 7900   2.704   0.306   0.114
 2334SOL    HW1 7901   2.664   0.336   0.027
 2334SOL    HW2 7902   2.634   0.308   0.185
 2335SOL     OW 7903   4.473   5.753   4.361
 2335SOL    HW1 7904   4.558   5.708   4.335
 2335SOL    HW2 7905   4.431   5.704   4.437
 2336SOL     OW 7906   3.916   2.763   5.698
 2336SOL    HW1 7907   3.831   2.717   5.672
 2336SOL    HW2 7908   3.941   2.829   5.628
 2337SOL     OW 7909   6.205   0.564   4.040
 2337SOL    HW1 7910   6.120   0.553   4.091
 2337SOL    HW2 7911   6.281   0.576   4.105
 2338SOL     OW 7912   1.246   0.562   6.518
 2338SOL    HW1 7913   1.346   0.566   6.515
 2338SOL    HW2 7914   1.210   0.654   6.536
 2339SOL     OW 7915   4.250   4.980   6.202
 2339SOL    HW1 7916   4.277   5.021   6.115
 2339SOL    HW2 7917   4.201   5.048   6.258
 2340SOL     OW 7918   4.065   4.944   3.195
 2340SOL    HW1 7919   4.045   4.913   3.288
 2340SOL    HW2 7920   3.984   4.929   3.138
 2341SOL     OW 7921   5.833   4.853   6.222
 2341SOL    HW1 7922   5.893   4.806   6.158
 2341SOL    HW2 7923   5.790   4.787   6.283
 2342SOL     OW 7924   6.719   0.093   5.465
 2342SOL    HW1 7925   6.786   0.095   5.391
 2342SOL    HW2 7926   6.646   0.029   5.442
 2343SOL     OW 7927   0.997   0.086   0.727
 2343SOL    HW1 7928   1.033   0.067   0.818
 2343SOL    HW2 7929   1.048   0.161   0.686
 2344SOL     OW 7930   2.785   1.481   3.166
 2344SOL    HW1 7931   2.759   1.513   3.075
 2344SOL    HW2 7932   2.853   1.409   3.158
 2345SOL     OW 7933   1.110   1.587   3.354
 2345SOL    HW1 7934   1.037   1.655   3.356
 2345SOL    HW2 7935   1.194   1.629   3.319
 2346SOL     OW 7936   5.027   3.088   5.447
 2346SOL    HW1 7937   4.986   3.176   5.422
 2346SOL    HW2 7938   5.095   3.103   5.519
 2347SOL     OW 7939   1.514   3.462   1.056
 2347SOL    HW1 7940   1.596   3.411   1.081
 2347SOL    HW2 7941   1.478   3.429   0.969
 2348SOL     OW 7942   2.456   6.003   1.730
 2348SOL    HW1 7943   2.547   5.995   1.688
 2348SOL    HW2 7944   2.464   5.995   1.829
 2349SOL     OW 7945   4.489   4.578   6.320
 2349SOL    HW1 7946   4.540   4.529   6.391
 2349SOL    HW2 7947   4.501   4.677   6.332
 2350SOL     OW 7948   2.341   5.642   5.345
 2350SOL    HW1 7949   2.388   5.706   5.404
 2350SOL    HW2 7950   2.392   5.631   5.259
 2351SOL     OW 7951   2.394   5.136   2.857
 2351SOL    HW1 7952   2.423   5.105   2.767
 2351SOL    HW2 7953   2.449   5.091   2.928
 2352SOL     OW 7954   6.274   4.156   1.529
 2352SOL    HW1 7955   6.229   4.178   1.616
 2352SOL    HW2 7956   6.337   4.230   1.505
 2353SOL     OW 7957   2.733   3.762   6.216
 2353SOL    HW1 7958   2.662   3.806   6.270
 2353SOL    HW2 7959   2.762   3.823   6.142
 2354SOL     OW 7960   3.874   2.479   1.707
 2354SOL    HW1 7961   3.795   2.434   1.750
 2354SOL    HW2 7962   3.913   2.418   1.638
 2355SOL     OW 7963   6.871   1.458   1.420
 2355SOL    HW1 7964   6.781   1.431   1.454
 2355SOL    HW2 7965   6.925   1.376   1.399
 2356SOL     OW 7966   2.896   5.271   3.210
 2356SOL    HW1 7967   2.820   5.255   3.273
 2356SOL    HW2 7968   2.981   5.244   3.254
 2357SOL     OW 7969   6.714   4.672   0.988
 2357SOL    HW1 7970   6.657   4.620   1.051
 2357SOL    HW2 7971   6.782   4.612   0.947
 2358SOL     OW 7972   3.428   1.448   5.185
 2358SOL    HW1 7973   3.516   1.480   5.150
 2358SOL    HW2 7974   3.413   1.354   5.154
 2359SOL     OW 7975   1.995   1.455   5.894
 2359SOL    HW1 7976   2.005   1.551   5.919
 2359SOL    HW2 7977   1.964   1.448   5.799
 2360SOL     OW 7978   3.231   5.157   0.266
 2360SOL    HW1 7979   3.246   5.249   0.302
 2360SOL    HW2 7980   3.319   5.117   0.240
 2361SOL     OW 7981   3.492   5.901   1.580
 2361SOL    HW1 7982   3.538   5.818   1.611
 2361SOL    HW2 7983   3.527   5.926   1.489
 2362SOL     OW 7984   3.467   4.931   3.798
 2362SOL    HW1 7985   3.448   5.027   3.819
 2362SOL    HW2 7986   3.382   4.879   3.806
 2363SOL     OW 7987   2.036   3.456   0.270
 2363SOL    HW1 7988   2.089   3.498   0.196
 2363SOL    HW2 7989   1.980   3.525   0.314
 2364SOL     OW 7990   3.808   1.611   2.689
 2364SOL    HW1 7991   3.903   1.604   2.720
 2364SOL    HW2 7992   3.801   1.577   2.595
 2365SOL     OW 7993   5.011   4.412   3.153
 2365SOL    HW1 7994   5.080   4.483   3.144
 2365SOL    HW2 7995   4.946   4.418   3.077
 2366SOL     OW 7996   2.853   4.933   5.424
 2366SOL    HW1 7997   2.838   4.886   5.511
 2366SOL    HW2 7998   2.923   4.884   5.372
 2367SOL     OW 7999   5.742   4.961   5.746
 2367SOL    HW1 8000   5.749   5.030   5.818
 2367SOL    HW2 8001   5.834   4.938   5.714
 2368SOL     OW 8002   5.943   6.890   4.913
 2368SOL    HW1 8003   6.016   6.822   4.906
 2368SOL    HW2 8004   5.859   6.846   4.944
 2369SOL     OW 8005   3.610   2.035   4.145
 2369SOL    HW1 8006   3.659   1.960   4.190
 2369SOL    HW2 8007   3.672   2.084   4.084
 2370SOL     OW 8008   5.340   2.435   1.541
 2370SOL    HW1 8009   5.244   2.407   1.546
 2370SOL    HW2 8010   5.399   2.360   1.572
 2371SOL     OW 8011   0.857   6.199   1.910
 2371SOL    HW1 8012   0.878   6.233   2.002
 2371SOL    HW2 8013   0.904   6.255   1.842
 2372SOL     OW 8014   6.498   6.825   0.056
 2372SOL    HW1 8015   6.493   6.756   0.128
 2372SOL    HW2 8016   6.407   6.840   0.017
 2373SOL     OW 8017   6.499   4.959   6.819
 2373SOL    HW1 8018   6.546   4.933   6.903
 2373SOL    HW2 8019   6.555   5.027   6.770
 2374SOL     OW 8020   5.707   6.327   2.344
 2374SOL    HW1 8021   5.639   6.279   2.288
 2374SOL    HW2 8022   5.726   6.273   2.426
 2375SOL     OW 8023   1.973   0.640   4.271
 2375SOL    HW1 8024   1.921   0.597   4.345
 2375SOL    HW2 8025   1.974   0.579   4.192
 2376SOL     OW 8026   5.268   2.298   2.845
 2376SOL    HW1 8027   5.242   2.256   2.758
 2376SOL    HW2 8028   5.361   2.333   2.839
 2377SOL     OW 8029   4.678   3.677   5.724
 2377SOL    HW1 8030   4.652   3.773   5.729
 2377SOL    HW2 8031   4.753   3.659   5.787
 2378SOL     OW 8032   0.358   1.119   0.463
 2378SOL    HW1 8033   0.324   1.147   0.374
 2378SOL    HW2 8034   0.382   1.022   0.460
 2379SOL     OW 8035   0.108   5.598   2.631
 2379SOL    HW1 8036   0.014   5.613   2.661
 2379SOL    HW2 8037   0.108   5.571   2.535
 2380SOL     OW 8038   4.796   5.560   6.201
 2380SOL    HW1 8039   4.773   5.483   6.260
 2380SOL    HW2 8040   4.826   5.526   6.112
 2381SOL     OW 8041   2.358   4.294   4.238
 2381SOL    HW1 8042   2.316   4.232   4.172
 2381SOL    HW2 8043   2.387   4.242   4.319
 2382SOL     OW 8044   6.904   5.339   2.601
 2382SOL    HW1 8045   6.903   5.396   2.519
 2382SOL    HW2 8046   6.847   5.380   2.671
 2383SOL     OW 8047   5.215   4.298   6.034
 2383SOL    HW1 8048   5.189   4.385   6.077
 2383SOL    HW2 8049   5.292   4.258   6.084
 2384SOL     OW 8050   6.979   1.588   2.911
 2384SOL    HW1 8051   0.032   1.643   2.869
 2384SOL    HW2 8052   7.018   1.502   2.945
 2385SOL     OW 8053   0.671   1.321   1.006
 2385SOL    HW1 8054   0.577   1.355   1.005
 2385SOL    HW2 8055   0.732   1.392   0.969
 2386SOL     OW 8056   5.910   5.806   4.935
 2386SOL    HW1 8057   5.970   5.736   4.897
 2386SOL    HW2 8058   5.909   5.886   4.875
 2387SOL     OW 8059   0.848   1.488   3.895
 2387SOL    HW1 8060   0.859   1.566   3.956
 2387SOL    HW2 8061   0.801   1.517   3.812
 2388SOL     OW 8062   0.306   2.621   5.666
 2388SOL    HW1 8063   0.360   2.574   5.735
 2388SOL    HW2 8064   0.251   2.693   5.709
 2389SOL     OW 8065   3.788   5.192   3.466
 2389SOL    HW1 8066   3.740   5.278   3.452
 2389SOL    HW2 8067   3.862   5.183   3.400
 2390SOL     OW 8068   4.490   2.699   6.133
 2390SOL    HW1 8069   4.422   2.706   6.205
 2390SOL    HW2 8070   4.477   2.774   6.068
 2391SOL     OW 8071   3.476   4.176   6.333
 2391SOL    HW1 8072   3.432   4.265   6.347
 2391SOL    HW2 8073   3.568   4.178   6.373
 2392SOL     OW 8074   4.272   4.141   5.646
 2392SOL    HW1 8075   4.212   4.086   5.703
 2392SOL    HW2 8076   4.368   4.122   5.669
 2393SOL     OW 8077   4.840   4.597   1.085
 2393SOL    HW1 8078   4.762   4.605   1.146
 2393SOL    HW2 8079   4.849   4.502   1.054
 2394SOL     OW 8080   0.259   1.937   3.697
 2394SOL    HW1 8081   0.345   1.900   3.732
 2394SOL    HW2 8082   0.277   2.016   3.639
 2395SOL     OW 8083   1.193   2.733   4.210
 2395SOL    HW1 8084   1.251   2.671   4.264
 2395SOL    HW2 8085   1.242   2.758   4.126
 2396SOL     OW 8086   1.017   0.393   5.891
 2396SOL    HW1 8087   1.014   0.415   5.794
 2396SOL    HW2 8088   0.930   0.353   5.919
 2397SOL     OW 8089   0.595   3.686   4.970
 2397SOL    HW1 8090   0.646   3.665   4.886
 2397SOL    HW2 8091   0.639   3.641   5.048
 2398SOL     OW 8092   3.820   6.890   3.728
 2398SOL    HW1 8093   3.876   6.820   3.684
 2398SOL    HW2 8094   3.723   6.874   3.709
 2399SOL     OW 8095   3.393   2.093   3.305
 2399SOL    HW1 8096   3.481   2.105   3.259
 2399SOL    HW2 8097   3.406   2.102   3.404
 2400SOL     OW 8098   1.779   3.904   0.630
 2400SOL    HW1 8099   1.679   3.903   0.636
 2400SOL    HW2 8100   1.806   3.905   0.534
 2401SOL     OW 8101   1.482   0.104   6.743
 2401SOL    HW1 8102   1.545   0.040   6.787
 2401SOL    HW2 8103   1.399   0.056   6.716
 2402SOL     OW 8104   1.039   4.201   2.218
 2402SOL    HW1 8105   0.987   4.136   2.274
 2402SOL    HW2 8106   1.051   4.286   2.269
 2403SOL     OW 8107   3.592   3.930   4.411
 2403SOL    HW1 8108   3.690   3.914   4.413
 2403SOL    HW2 8109   3.544   3.852   4.451
 2404SOL     OW 8110   6.021   1.480   0.930
 2404SOL    HW1 8111   5.927   1.492   0.898
 2404SOL    HW2 8112   6.065   1.569   0.938
 2405SOL     OW 8113   1.318   3.067   0.586
 2405SOL    HW1 8114   1.315   3.133   0.662
 2405SOL    HW2 8115   1.412   3.055   0.555
 2406SOL     OW 8116   2.565   6.172   4.248
 2406SOL    HW1 8117   2.586   6.264   4.278
 2406SOL    HW2 8118   2.468   6.166   4.223
 2407SOL     OW 8119   2.785   1.142   3.241
 2407SOL    HW1 8120   2.743   1.143   3.331
 2407SOL    HW2 8121   2.845   1.063   3.232
 2408SOL     OW 8122   2.921   6.298   5.560
 2408SOL    HW1 8123   2.905   6.222   5.623
 2408SOL    HW2 8124   2.882   6.277   5.471
 2409SOL     OW 8125   1.094   3.344   0.169
 2409SOL    HW1 8126   1.075   3.245   0.166
 2409SOL    HW2 8127   1.192   3.359   0.179
 2410SOL     OW 8128   0.278   2.631   4.471
 2410SOL    HW1 8129   0.198   2.618   4.529
 2410SOL    HW2 8130   0.272   2.569   4.392
 2411SOL     OW 8131   3.344   1.763   6.939
 2411SOL    HW1 8132   3.329   1.721   0.009
 2411SOL    HW2 8133   3.365   1.860   6.951
 2412SOL     OW 8134   3.141   1.718   5.483
 2412SOL    HW1 8135   3.185   1.675   5.404
 2412SOL    HW2 8136   3.042   1.711   5.474
 2413SOL     OW 8137   0.307   2.988   0.132
 2413SOL    HW1 8138   0.295   2.957   0.226
 2413SOL    HW2 8139   0.262   2.923   0.070
 2414SOL     OW 8140   6.725   1.541   4.851
 2414SOL    HW1 8141   6.734   1.458   4.796
 2414SOL    HW2 8142   6.628   1.564   4.860
 2415SOL     OW 8143   2.507   4.889   6.507
 2415SOL    HW1 8144   2.551   4.832   6.577
 2415SOL    HW2 8145   2.564   4.891   6.425
 2416SOL     OW 8146   7.006   3.094   2.822
 2416SOL    HW1 8147   7.001   3.023   2.893
 2416SOL    HW2 8148   7.015   3.184   2.864
 2417SOL     OW 8149   2.737   2.907   1.715
 2417SOL    HW1 8150   2.689   2.821   1.732
 2417SOL    HW2 8151   2.824   2.906   1.765
 2418SOL     OW 8152   4.888   3.698   6.812
 2418SOL    HW1 8153   4.953   3.762   6.854
 2418SOL    HW2 8154   4.937   3.618   6.778
 2419SOL     OW 8155   2.796   0.843   3.565
 2419SOL    HW1 8156   2.828   0.786   3.490
 2419SOL    HW2 8157   2.839   0.933   3.560
 2420SOL     OW 8158   1.709   4.167   2.677
 2420SOL    HW1 8159   1.660   4.235   2.732
 2420SOL    HW2 8160   1.648   4.092   2.654
 2421SOL     OW 8161   2.793   6.624   3.610
 2421SOL    HW1 8162   2.837   6.713   3.618
 2421SOL    HW2 8163   2.695   6.633   3.631
 2422SOL     OW 8164   4.197   5.277   1.250
 2422SOL    HW1 8165   4.197   5.191   1.201
 2422SOL    HW2 8166   4.112   5.287   1.301
 2423SOL     OW 8167   2.461   5.910   2.801
 2423SOL    HW1 8168   2.374   5.864   2.821
 2423SOL    HW2 8169   2.470   5.923   2.702
 2424SOL     OW 8170   5.220   6.987   6.285
 2424SOL    HW1 8171   5.271   6.965   6.368
 2424SOL    HW2 8172   5.208   0.066   6.279
 2425SOL     OW 8173   4.736   5.701   4.517
 2425SOL    HW1 8174   4.825   5.693   4.562
 2425SOL    HW2 8175   4.678   5.624   4.543
 2426SOL     OW 8176   2.236   2.705   5.484
 2426SOL    HW1 8177   2.281   2.721   5.396
 2426SOL    HW2 8178   2.299   2.655   5.544
 2427SOL     OW 8179   5.159   0.628   0.708
 2427SOL    HW1 8180   5.092   0.573   0.757
 2427SOL    HW2 8181   5.145   0.725   0.728
 2428SOL     OW 8182   0.870   1.067   2.947
 2428SOL    HW1 8183   0.955   1.066   3.000
 2428SOL    HW2 8184   0.792   1.063   3.010
 2429SOL     OW 8185   5.602   5.175   1.700
 2429SOL    HW1 8186   5.574   5.082   1.676
 2429SOL    HW2 8187   5.538   5.212   1.767
 2430SOL     OW 8188   5.978   0.554   6.469
 2430SOL    HW1 8189   5.997   0.635   6.414
 2430SOL    HW2 8190   6.056   0.491   6.462
 2431SOL     OW 8191   0.574   3.501   1.686
 2431SOL    HW1 8192   0.506   3.428   1.690
 2431SOL    HW2 8193   0.578   3.538   1.593
 2432SOL     OW 8194   2.048   5.391   1.999
 2432SOL    HW1 8195   2.081   5.339   1.921
 2432SOL    HW2 8196   2.088   5.483   1.997
 2433SOL     OW 8197   7.004   4.261   5.156
 2433SOL    HW1 8198   0.034   4.177   5.173
 2433SOL    HW2 8199   6.909   4.250   5.185
 2434SOL     OW 8200   4.043   0.427   2.264
 2434SOL    HW1 8201   4.061   0.506   2.323
 2434SOL    HW2 8202   4.048   0.344   2.320
 2435SOL     OW 8203   5.910   0.014   6.719
 2435SOL    HW1 8204   5.900   0.076   6.796
 2435SOL    HW2 8205   5.915   0.067   6.634
 2436SOL     OW 8206   0.899   2.449   1.763
 2436SOL    HW1 8207   0.864   2.538   1.790
 2436SOL    HW2 8208   0.875   2.381   1.833
 2437SOL     OW 8209   7.010   4.098   3.091
 2437SOL    HW1 8210   6.948   4.027   3.058
 2437SOL    HW2 8211   7.012   4.173   3.026
 2438SOL     OW 8212   3.829   1.712   4.693
 2438SOL    HW1 8213   3.736   1.747   4.703
 2438SOL    HW2 8214   3.878   1.722   4.779
 2439SOL     OW 8215   1.535   5.857   1.602
 2439SOL    HW1 8216   1.576   5.800   1.530
 2439SOL    HW2 8217   1.545   5.954   1.578
 2440SOL     OW 8218   5.978   1.338   5.451
 2440SOL    HW1 8219   5.881   1.329   5.428
 2440SOL    HW2 8220   5.986   1.367   5.547
 2441SOL     OW 8221   5.952   0.265   0.429
 2441SOL    HW1 8222   6.016   0.337   0.404
 2441SOL    HW2 8223   5.874   0.266   0.367
 2442SOL     OW 8224   5.502   3.030   1.160
 2442SOL    HW1 8225   5.420   2.981   1.189
 2442SOL    HW2 8226   5.573   2.964   1.135
 2443SOL     OW 8227   1.055   3.163   2.004
 2443SOL    HW1 8228   1.147   3.161   2.043
 2443SOL    HW2 8229   1.000   3.231   2.052
 2444SOL     OW 8230   3.514   5.808   2.258
 2444SOL    HW1 8231   3.599   5.758   2.248
 2444SOL    HW2 8232   3.522   5.872   2.334
 2445SOL     OW 8233   0.642   2.586   1.463
 2445SOL    HW1 8234   0.635   2.545   1.554
 2445SOL    HW2 8235   0.597   2.675   1.463
 2446SOL     OW 8236   1.006   5.522   1.933
 2446SOL    HW1 8237   1.005   5.480   1.842
 2446SOL    HW2 8238   0.912   5.539   1.963
 2447SOL     OW 8239   2.129   6.770   0.088
 2447SOL    HW1 8240   2.228   6.766   0.107
 2447SOL    HW2 8241   2.114   6.811   7.018
 2448SOL     OW 8242   5.744   1.230   4.626
 2448SOL    HW1 8243   5.752   1.154   4.562
 2448SOL    HW2 8244   5.751   1.196   4.720
 2449SOL     OW 8245   1.462   4.316   1.914
 2449SOL    HW1 8246   1.418   4.236   1.952
 2449SOL    HW2 8247   1.425   4.335   1.823
 2450SOL     OW 8248   1.029   6.846   5.490
 2450SOL    HW1 8249   1.034   6.829   5.589
 2450SOL    HW2 8250   1.077   6.931   5.469
 2451SOL     OW 8251   0.909   6.515   5.185
 2451SOL    HW1 8252   0.977   6.451   5.148
 2451SOL    HW2 8253   0.823   6.505   5.135
 2452SOL     OW 8254   1.948   2.364   3.302
 2452SOL    HW1 8255   1.887   2.292   3.269
 2452SOL    HW2 8256   2.042   2.343   3.277
 2453SOL     OW 8257   0.626   0.908   5.660
 2453SOL    HW1 8258   0.559   0.856   5.607
 2453SOL    HW2 8259   0.595   0.916   5.755
 2454SOL     OW 8260   3.699   5.603   0.780
 2454SOL    HW1 8261   3.762   5.541   0.733
 2454SOL    HW2 8262   3.633   5.638   0.714
 2455SOL     OW 8263   4.068   2.533   0.280
 2455SOL    HW1 8264   4.073   2.604   0.350
 2455SOL    HW2 8265   4.059   2.443   0.323
 2456SOL     OW 8266   0.736   2.969   6.395
 2456SOL    HW1 8267   0.674   3.046   6.382
 2456SOL    HW2 8268   0.751   2.953   6.492
 2457SOL     OW 8269   4.753   2.086   5.201
 2457SOL    HW1 8270   4.831   2.098   5.263
 2457SOL    HW2 8271   4.718   2.176   5.174
 2458SOL     OW 8272   0.792   0.274   2.430
 2458SOL    HW1 8273   0.726   0.203   2.404
 2458SOL    HW2 8274   0.769   0.359   2.382
 2459SOL     OW 8275   2.467   6.991   0.246
 2459SOL    HW1 8276   2.468   7.007   0.345
 2459SOL    HW2 8277   2.443   0.056   0.199
 2460SOL     OW 8278   1.143   1.224   4.902
 2460SOL    HW1 8279   1.100   1.300   4.949
 2460SOL    HW2 8280   1.075   1.173   4.851
 2461SOL     OW 8281   4.779   0.109   3.712
 2461SOL    HW1 8282   4.741   0.201   3.709
 2461SOL    HW2 8283   4.708   0.043   3.690
 2462SOL     OW 8284   0.073   4.518   0.279
 2462SOL    HW1 8285   0.075   4.478   0.187
 2462SOL    HW2 8286   0.163   4.507   0.322
 2463SOL     OW 8287   6.350   0.653   0.540
 2463SOL    HW1 8288   6.354   0.680   0.444
 2463SOL    HW2 8289   6.344   0.554   0.547
 2464SOL     OW 8290   0.737   2.418   4.159
 2464SOL    HW1 8291   0.736   2.464   4.248
 2464SOL    HW2 8292   0.818   2.446   4.107
 2465SOL     OW 8293   0.138   6.615   5.786
 2465SOL    HW1 8294   0.224   6.564   5.776
 2465SOL    HW2 8295   0.068   6.556   5.826
 2466SOL     OW 8296   0.658   2.213   2.103
 2466SOL    HW1 8297   0.692   2.129   2.145
 2466SOL    HW2 8298   0.585   2.251   2.160
 2467SOL     OW 8299   6.208   2.517   5.416
 2467SOL    HW1 8300   6.140   2.470   5.359
 2467SOL    HW2 8301   6.226   2.463   5.498
 2468SOL     OW 8302   3.271   6.516   5.045
 2468SOL    HW1 8303   3.337   6.441   5.041
 2468SOL    HW2 8304   3.242   6.531   5.140
 2469SOL     OW 8305   3.604   1.820   5.955
 2469SOL    HW1 8306   3.644   1.875   5.881
 2469SOL    HW2 8307   3.518   1.779   5.925
 2470SOL     OW 8308   2.912   4.451   6.501
 2470SOL    HW1 8309   2.834   4.389   6.516
 2470SOL    HW2 8310   2.950   4.478   6.589
 2471SOL     OW 8311   2.757   5.843   2.297
 2471SOL    HW1 8312   2.726   5.938   2.290
 2471SOL    HW2 8313   2.720   5.790   2.221
 2472SOL     OW 8314   5.026   1.723   3.391
 2472SOL    HW1 8315   5.106   1.686   3.437
 2472SOL    HW2 8316   5.047   1.814   3.356
 2473SOL     OW 8317   0.737   4.250   4.977
 2473SOL    HW1 8318   0.731   4.282   4.883
 2473SOL    HW2 8319   0.706   4.155   4.983
 2474SOL     OW 8320   1.282   6.135   1.814
 2474SOL    HW1 8321   1.221   6.115   1.890
 2474SOL    HW2 8322   1.377   6.132   1.844
 2475SOL     OW 8323   5.334   0.693   1.012
 2475SOL    HW1 8324   5.297   0.727   1.099
 2475SOL    HW2 8325   5.278   0.616   0.981
 2476SOL     OW 8326   5.161   0.792   0.031
 2476SOL    HW1 8327   5.072   0.758   0.061
 2476SOL    HW2 8328   5.150   0.847   6.968
 2477SOL     OW 8329   3.776   0.307   3.428
 2477SOL    HW1 8330   3.836   0.280   3.352
 2477SOL    HW2 8331   3.831   0.325   3.509
 2478SOL     OW 8332   4.378   6.876   4.744
 2478SOL    HW1 8333   4.285   6.910   4.731
 2478SOL    HW2 8334   4.376   6.776   4.754
 2479SOL     OW 8335   5.837   2.996   0.008
 2479SOL    HW1 8336   5.800   3.084   0.039
 2479SOL    HW2 8337   5.927   2.981   0.049
 2480SOL     OW 8338   3.303   2.605   1.760
 2480SOL    HW1 8339   3.289   2.698   1.727
 2480SOL    HW2 8340   3.220   2.551   1.745
 2481SOL     OW 8341   3.219   0.356   1.142
 2481SOL    HW1 8342   3.297   0.412   1.171
 2481SOL    HW2 8343   3.139   0.415   1.131
 2482SOL     OW 8344   5.948   3.232   6.597
 2482SOL    HW1 8345   5.904   3.155   6.643
 2482SOL    HW2 8346   6.012   3.197   6.528
 2483SOL     OW 8347   1.115   2.505   0.611
 2483SOL    HW1 8348   1.088   2.584   0.557
 2483SOL    HW2 8349   1.035   2.469   0.661
 2484SOL     OW 8350   5.120   1.205   0.955
 2484SOL    HW1 8351   5.142   1.268   1.030
 2484SOL    HW2 8352   5.051   1.139   0.986
 2485SOL     OW 8353   6.537   2.180   6.436
 2485SOL    HW1 8354   6.587   2.263   6.413
 2485SOL    HW2 8355   6.534   2.170   6.536
 2486SOL     OW 8356   0.028   4.719   5.359
 2486SOL    HW1 8357   0.011   4.769   5.444
 2486SOL    HW2 8358   0.021   4.621   5.376
 2487SOL     OW 8359   5.149   5.694   6.729
 2487SOL    HW1 8360   5.055   5.718   6.707
 2487SOL    HW2 8361   5.187   5.637   6.657
 2488SOL     OW 8362   6.640   4.088   0.969
 2488SOL    HW1 8363   6.681   4.002   1.000
 2488SOL    HW2 8364   6.590   4.072   0.884
 2489SOL     OW 8365   0.289   6.556   4.426
 2489SOL    HW1 8366   0.252   6.488   4.489
 2489SOL    HW2 8367   0.387   6.568   4.443
 2490SOL     OW 8368   2.581   6.061   2.312
 2490SOL    HW1 8369   2.484   6.063   2.339
 2490SOL    HW2 8370   2.606   6.149   2.272
 2491SOL     OW 8371   3.712   4.536   1.502
 2491SOL    HW1 8372   3.772   4.550   1.423
 2491SOL    HW2 8373   3.716   4.440   1.531
 2492SOL     OW 8374   0.034   4.716   1.769
 2492SOL    HW1 8375   0.106   4.785   1.782
 2492SOL    HW2 8376   0.059   4.632   1.818
 2493SOL     OW 8377   6.443   6.959   1.184
 2493SOL    HW1 8378   6.362   6.934   1.236
 2493SOL    HW2 8379   6.448   6.904   1.101
 2494SOL     OW 8380   6.349   3.466   1.950
 2494SOL    HW1 8381   6.325   3.517   2.033
 2494SOL    HW2 8382   6.272   3.468   1.886
 2495SOL     OW 8383   6.351   4.738   4.055
 2495SOL    HW1 8384   6.341   4.685   3.970
 2495SOL    HW2 8385   6.448   4.753   4.073
 2496SOL     OW 8386   6.272   4.853   6.405
 2496SOL    HW1 8387   6.364   4.892   6.402
 2496SOL    HW2 8388   6.236   4.859   6.497
 2497SOL     OW 8389   0.223   0.313   2.213
 2497SOL    HW1 8390   0.139   0.320   2.267
 2497SOL    HW2 8391   0.270   0.227   2.237
 2498SOL     OW 8392   1.968   3.547   6.099
 2498SOL    HW1 8393   1.873   3.517   6.091
 2498SOL    HW2 8394   1.996   3.592   6.014
 2499SOL     OW 8395   6.939   3.607   1.620
 2499SOL    HW1 8396   0.015   3.589   1.642
 2499SOL    HW2 8397   6.896   3.522   1.589
 2500SOL     OW 8398   3.980   3.981   6.810
 2500SOL    HW1 8399   3.952   4.054   6.871
 2500SOL    HW2 8400   3.981   3.894   6.860
 2501SOL     OW 8401   5.823   5.668   0.245
 2501SOL    HW1 8402   5.873   5.582   0.257
 2501SOL    HW2 8403   5.874   5.743   0.288
 2502SOL     OW 8404   2.875   5.067   4.150
 2502SOL    HW1 8405   2.822   4.982   4.146
 2502SOL    HW2 8406   2.867   5.115   4.063
 2503SOL     OW 8407   2.420   6.439   5.955
 2503SOL    HW1 8408   2.356   6.435   6.031
 2503SOL    HW2 8409   2.435   6.348   5.919
 2504SOL     OW 8410   3.396   6.195   2.951
 2504SOL    HW1 8411   3.465   6.228   2.887
 2504SOL    HW2 8412   3.437   6.125   3.010
 2505SOL     OW 8413   6.856   5.195   3.000
 2505SOL    HW1 8414   6.879   5.124   3.067
 2505SOL    HW2 8415   6.930   5.203   2.933
 2506SOL     OW 8416   5.110   5.287   5.656
 2506SOL    HW1 8417   5.017   5.321   5.667
 2506SOL    HW2 8418   5.175   5.356   5.688
 2507SOL     OW 8419   6.824   3.393   0.323
 2507SOL    HW1 8420   6.918   3.375   0.352
 2507SOL    HW2 8421   6.808   3.492   0.321
 2508SOL     OW 8422   4.499   1.705   4.002
 2508SOL    HW1 8423   4.562   1.781   3.988
 2508SOL    HW2 8424   4.479   1.695   4.099
 2509SOL     OW 8425   0.189   3.522   5.219
 2509SOL    HW1 8426   0.091   3.538   5.217
 2509SOL    HW2 8427   0.223   3.511   5.126
 2510SOL     OW 8428   3.345   4.067   1.934
 2510SOL    HW1 8429   3.435   4.061   1.976
 2510SOL    HW2 8430   3.334   4.157   1.891
 2511SOL     OW 8431   2.107   0.443   5.245
 2511SOL    HW1 8432   2.167   0.385   5.300
 2511SOL    HW2 8433   2.135   0.539   5.253
 2512SOL     OW 8434   3.826   4.931   4.078
 2512SOL    HW1 8435   3.908   4.987   4.070
 2512SOL    HW2 8436   3.839   4.844   4.030
 2513SOL     OW 8437   2.329   6.183   6.095
 2513SOL    HW1 8438   2.373   6.114   6.038
 2513SOL    HW2 8439   2.390   6.208   6.170
 2514SOL     OW 8440   1.099   2.885   3.238
 2514SOL    HW1 8441   1.187   2.848   3.208
 2514SOL    HW2 8442   1.104   2.985   3.243
 2515SOL     OW 8443   1.581   1.554   1.681
 2515SOL    HW1 8444   1.496   1.544   1.629
 2515SOL    HW2 8445   1.565   1.529   1.777
 2516SOL     OW 8446   5.753   1.821   3.705
 2516SOL    HW1 8447   5.686   1.752   3.679
 2516SOL    HW2 8448   5.711   1.912   3.699
 2517SOL     OW 8449   1.456   1.345   4.379
 2517SOL    HW1 8450   1.406   1.429   4.361
 2517SOL    HW2 8451   1.405   1.266   4.343
 2518SOL     OW 8452   2.947   4.364   1.449
 2518SOL    HW1 8453   2.923   4.350   1.545
 2518SOL    HW2 8454   3.025   4.306   1.425
 2519SOL     OW 8455   1.730   1.506   0.579
 2519SOL    HW1 8456   1.736   1.453   0.664
 2519SOL    HW2 8457   1.764   1.599   0.595
 2520SOL     OW 8458   3.402   2.308   1.151
 2520SOL    HW1 8459   3.452   2.283   1.233
 2520SOL    HW2 8460   3.451   2.380   1.101
 2521SOL     OW 8461   5.219   1.747   5.081
 2521SOL    HW1 8462   5.282   1.812   5.037
 2521SOL    HW2 8463   5.190   1.784   5.170
 2522SOL     OW 8464   0.735   1.957   5.413
 2522SOL    HW1 8465   0.772   2.050   5.418
 2522SOL    HW2 8466   0.808   1.894   5.388
 2523SOL     OW 8467   1.823   4.857   0.017
 2523SOL    HW1 8468   1.915   4.894   0.003
 2523SOL    HW2 8469   1.756   4.931   0.006
 2524SOL     OW 8470   1.052   6.519   3.865
 2524SOL    HW1 8471   1.091   6.481   3.949
 2524SOL    HW2 8472   1.049   6.449   3.794
 2525SOL     OW 8473   6.835   2.081   4.269
 2525SOL    HW1 8474   6.862   1.998   4.316
 2525SOL    HW2 8475   6.746   2.066   4.224
 2526SOL     OW 8476   1.390   6.656   0.695
 2526SOL    HW1 8477   1.374   6.611   0.608
 2526SOL    HW2 8478   1.465   6.610   0.744
 2527SOL     OW 8479   5.165   4.902   6.510
 2527SOL    HW1 8480   5.165   4.900   6.610
 2527SOL    HW2 8481   5.074   4.927   6.477
 2528SOL     OW 8482   4.632   5.088   6.368
 2528SOL    HW1 8483   4.603   5.003   6.412
 2528SOL    HW2 8484   4.618   5.081   6.269
 2529SOL     OW 8485   0.246   0.078   6.592
 2529SOL    HW1 8486   0.229   0.139   6.669
 2529SOL    HW2 8487   0.239   7.003   6.624
 2530SOL     OW 8488   2.516   5.830   5.455
 2530SOL    HW1 8489   2.496   5.923   5.486
 2530SOL    HW2 8490   2.610   5.825   5.421
 2531SOL     OW 8491   6.552   5.452   6.055
 2531SOL    HW1 8492   6.604   5.388   6.111
 2531SOL    HW2 8493   6.612   5.525   6.023
 2532SOL     OW 8494   0.174   6.794   1.152
 2532SOL    HW1 8495   0.199   6.805   1.056
 2532SOL    HW2 8496   0.091   6.847   1.171
 2533SOL     OW 8497   5.016   0.972   3.033
 2533SOL    HW1 8498   4.989   1.029   3.110
 2533SOL    HW2 8499   5.017   0.876   3.060
 2534SOL     OW 8500   4.491   1.999   2.395
 2534SOL    HW1 8501   4.451   1.956   2.476
 2534SOL    HW2 8502   4.489   2.098   2.406
 2535SOL     OW 8503   3.561   2.850   6.079
 2535SOL    HW1 8504   3.566   2.879   5.983
 2535SOL    HW2 8505   3.619   2.909   6.135
 2536SOL     OW 8506   1.594   0.613   6.666
 2536SOL    HW1 8507   1.589   0.518   6.696
 2536SOL    HW2 8508   1.636   0.669   6.737
 2537SOL     OW 8509   4.054   0.954   0.039
 2537SOL    HW1 8510   3.969   0.924   7.016
 2537SOL    HW2 8511   4.041   1.045   0.078
 2538SOL     OW 8512   6.862   3.559   4.153
 2538SOL    HW1 8513   6.933   3.628   4.167
 2538SOL    HW2 8514   6.884   3.503   4.074
 2539SOL     OW 8515   5.186   1.502   4.955
 2539SOL    HW1 8516   5.104   1.460   4.993
 2539SOL    HW2 8517   5.185   1.601   4.975
 2540SOL     OW 8518   3.748   1.273   2.251
 2540SOL    HW1 8519   3.797   1.304   2.170
 2540SOL    HW2 8520   3.665   1.327   2.264
 2541SOL     OW 8521   3.560   6.282   5.367
 2541SOL    HW1 8522   3.561   6.347   5.291
 2541SOL    HW2 8523   3.653   6.267   5.400
 2542SOL     OW 8524   0.969   4.942   6.633
 2542SOL    HW1 8525   0.981   4.879   6.556
 2542SOL    HW2 8526   1.014   4.905   6.714
 2543SOL     OW 8527   1.652   1.496   4.252
 2543SOL    HW1 8528   1.740   1.492   4.299
 2543SOL    HW2 8529   1.586   1.438   4.300
 2544SOL     OW 8530   0.954   5.556   0.383
 2544SOL    HW1 8531   1.045   5.517   0.377
 2544SOL    HW2 8532   0.902   5.533   0.300
 2545SOL     OW 8533   2.184   6.397   2.786
 2545SOL    HW1 8534   2.232   6.324   2.737
 2545SOL    HW2 8535   2.118   6.440   2.725
 2546SOL     OW 8536   6.378   1.913   0.775
 2546SOL    HW1 8537   6.436   1.980   0.728
 2546SOL    HW2 8538   6.408   1.821   0.751
 2547SOL     OW 8539   0.227   3.824   4.930
 2547SOL    HW1 8540   0.304   3.765   4.956
 2547SOL    HW2 8541   0.148   3.768   4.905
 2548SOL     OW 8542   0.346   6.324   4.079
 2548SOL    HW1 8543   0.323   6.253   4.013
 2548SOL    HW2 8544   0.438   6.308   4.115
 2549SOL     OW 8545   0.678   1.146   1.228
 2549SOL    HW1 8546   0.679   1.208   1.307
 2549SOL    HW2 8547   0.690   1.199   1.144
 2550SOL     OW 8548   5.889   6.363   0.741
 2550SOL    HW1 8549   5.977   6.317   0.740
 2550SOL    HW2 8550   5.900   6.457   0.707
 2551SOL     OW 8551   1.642   4.002   6.614
 2551SOL    HW1 8552   1.684   4.091   6.632
 2551SOL    HW2 8553   1.641   3.985   6.515
 2552SOL     OW 8554   2.467   5.420   2.984
 2552SOL    HW1 8555   2.403   5.345   2.969
 2552SOL    HW2 8556   2.493   5.459   2.895
 2553SOL     OW 8557   4.249   3.558   6.574
 2553SOL    HW1 8558   4.323   3.567   6.508
 2553SOL    HW2 8559   4.232   3.461   6.592
 2554SOL     OW 8560   1.524   1.452   0.415
 2554SOL    HW1 8561   1.546   1.386   0.343
 2554SOL    HW2 8562   1.607   1.479   0.462
 2555SOL     OW 8563   5.858   2.453   6.542
 2555SOL    HW1 8564   5.853   2.437   6.640
 2555SOL    HW2 8565   5.768   2.435   6.500
 2556SOL     OW 8566   3.466   6.075   0.910
 2556SOL    HW1 8567   3.525   6.007   0.954
 2556SOL    HW2 8568   3.419   6.128   0.979
 2557SOL     OW 8569   1.936   4.122   6.908
 2557SOL    HW1 8570   1.891   4.039   6.943
 2557SOL    HW2 8571   1.912   4.136   6.812
 2558SOL     OW 8572   4.571   0.729   5.557
 2558SOL    HW1 8573   4.572   0.641   5.604
 2558SOL    HW2 8574   4.660   0.773   5.567
 2559SOL     OW 8575   0.498   4.582   4.895
 2559SOL    HW1 8576   0.409   4.622   4.917
 2559SOL    HW2 8577   0.484   4.489   4.859
 2560SOL     OW 8578   5.953   2.069   5.902
 2560SOL    HW1 8579   5.921   2.164   5.908
 2560SOL    HW2 8580   5.984   2.039   5.992
 2561SOL     OW 8581   2.745   5.396   4.886
 2561SOL    HW1 8582   2.736   5.345   4.971
 2561SOL    HW2 8583   2.748   5.494   4.904
 2562SOL     OW 8584   1.732   3.554   0.177
 2562SOL    HW1 8585   1.768   3.487   0.112
 2562SOL    HW2 8586   1.661   3.609   0.133
 2563SOL     OW 8587   2.829   1.358   6.708
 2563SOL    HW1 8588   2.865   1.451   6.710
 2563SOL    HW2 8589   2.747   1.352   6.765
 2564SOL     OW 8590   1.301   5.398   1.822
 2564SOL    HW1 8591   1.348   5.328   1.876
 2564SOL    HW2 8592   1.228   5.439   1.877
 2565SOL     OW 8593   1.442   0.440   1.557
 2565SOL    HW1 8594   1.459   0.420   1.461
 2565SOL    HW2 8595   1.526   0.423   1.610
 2566SOL     OW 8596   1.819   6.740   0.013
 2566SOL    HW1 8597   1.883   6.800   6.984
 2566SOL    HW2 8598   1.755   6.795   0.066
 2567SOL     OW 8599   1.412   6.391   0.526
 2567SOL    HW1 8600   1.463   6.430   0.449
 2567SOL    HW2 8601   1.476   6.363   0.597
 2568SOL     OW 8602   4.626   2.368   6.868
 2568SOL    HW1 8603   4.650   2.437   6.937
 2568SOL    HW2 8604   4.705   2.309   6.851
 2569SOL     OW 8605   3.261   0.267   3.654
 2569SOL    HW1 8606   3.287   0.173   3.676
 2569SOL    HW2 8607   3.294   0.291   3.563
 2570SOL     OW 8608   5.311   1.699   6.039
 2570SOL    HW1 8609   5.278   1.661   6.125
 2570SOL    HW2 8610   5.331   1.624   5.975
 2571SOL     OW 8611   1.169   4.890   3.657
 2571SOL    HW1 8612   1.088   4.843   3.691
 2571SOL    HW2 8613   1.140   4.965   3.597
 2572SOL     OW 8614   2.487   4.930   3.035
 2572SOL    HW1 8615   2.424   4.924   3.112
 2572SOL    HW2 8616   2.504   4.838   2.998
 2573SOL     OW 8617   0.404   0.513   1.354
 2573SOL    HW1 8618   0.318   0.512   1.404
 2573SOL    HW2 8619   0.385   0.525   1.256
 2574SOL     OW 8620   6.360   3.505   0.120
 2574SOL    HW1 8621   6.295   3.562   0.069
 2574SOL    HW2 8622   6.310   3.449   0.186
 2575SOL     OW 8623   0.073   5.914   6.478
 2575SOL    HW1 8624   0.159   5.939   6.433
 2575SOL    HW2 8625   0.042   5.991   6.534
 2576SOL     OW 8626   4.719   6.383   3.942
 2576SOL    HW1 8627   4.735   6.413   3.848
 2576SOL    HW2 8628   4.629   6.340   3.948
 2577SOL     OW 8629   2.558   4.545   2.183
 2577SOL    HW1 8630   2.594   4.560   2.275
 2577SOL    HW2 8631   2.633   4.551   2.117
 2578SOL     OW 8632   4.082   1.660   3.562
 2578SOL    HW1 8633   4.027   1.673   3.479
 2578SOL    HW2 8634   4.028   1.686   3.642
 2579SOL     OW 8635   0.717   6.514   3.824
 2579SOL    HW1 8636   0.707   6.415   3.824
 2579SOL    HW2 8637   0.674   6.552   3.742
 2580SOL     OW 8638   2.162   2.589   0.122
 2580SOL    HW1 8639   2.194   2.683   0.121
 2580SOL    HW2 8640   2.160   2.554   0.216
 2581SOL     OW 8641   2.973   6.817   5.250
 2581SOL    HW1 8642   2.896   6.779   5.198
 2581SOL    HW2 8643   3.014   6.892   5.199
 2582SOL     OW 8644   0.281   3.273   1.193
 2582SOL    HW1 8645   0.252   3.233   1.280
 2582SOL    HW2 8646   0.319   3.202   1.134
 2583SOL     OW 8647   6.086   6.699   1.236
 2583SOL    HW1 8648   6.020   6.760   1.193
 2583SOL    HW2 8649   6.163   6.684   1.173
 2584SOL     OW 8650   4.387   4.723   5.360
 2584SOL    HW1 8651   4.387   4.813   5.317
 2584SOL    HW2 8652   4.463   4.718   5.426
 2585SOL     OW 8653   3.435   5.205   6.971
 2585SOL    HW1 8654   3.402   5.112   6.955
 2585SOL    HW2 8655   3.465   5.245   6.884
 2586SOL     OW 8656   2.014   0.633   4.904
 2586SOL    HW1 8657   2.001   0.544   4.948
 2586SOL    HW2 8658   1.957   0.701   4.950
 2587SOL     OW 8659   6.884   1.541   3.209
 2587SOL    HW1 8660   6.796   1.493   3.205
 2587SOL    HW2 8661   6.942   1.510   3.134
 2588SOL     OW 8662   4.573   0.969   5.236
 2588SOL    HW1 8663   4.533   1.055   5.207
 2588SOL    HW2 8664   4.503   0.897   5.232
 2589SOL     OW 8665   1.578   6.561   6.971
 2589SOL    HW1 8666   1.659   6.618   6.988
 2589SOL    HW2 8667   1.522   6.559   0.034
 2590SOL     OW 8668   2.986   5.001   0.212
 2590SOL    HW1 8669   3.076   5.044   0.209
 2590SOL    HW2 8670   2.971   4.961   0.303
 2591SOL     OW 8671   5.886   5.263   3.991
 2591SOL    HW1 8672   5.825   5.206   3.935
 2591SOL    HW2 8673   5.972   5.214   4.007
 2592SOL     OW 8674   2.374   4.819   0.119
 2592SOL    HW1 8675   2.457   4.773   0.152
 2592SOL    HW2 8676   2.323   4.756   0.061
 2593SOL     OW 8677   3.083   4.007   0.715
 2593SOL    HW1 8678   2.990   3.998   0.751
 2593SOL    HW2 8679   3.133   4.075   0.769
 2594SOL     OW 8680   1.743   3.809   4.484
 2594SOL    HW1 8681   1.711   3.757   4.563
 2594SOL    HW2 8682   1.725   3.906   4.499
 2595SOL     OW 8683   1.570   0.552   3.661
 2595SOL    HW1 8684   1.579   0.646   3.694
 2595SOL    HW2 8685   1.542   0.553   3.565
 2596SOL     OW 8686   1.126   2.311   6.897
 2596SOL    HW1 8687   1.170   2.275   6.980
 2596SOL    HW2 8688   1.030   2.284   6.896
 2597SOL     OW 8689   6.706   6.027   6.465
 2597SOL    HW1 8690   6.615   5.994   6.490
 2597SOL    HW2 8691   6.710   6.042   6.366
 2598SOL     OW 8692   5.592   2.934   2.573
 2598SOL    HW1 8693   5.637   3.018   2.603
 2598SOL    HW2 8694   5.493   2.949   2.568
 2599SOL     OW 8695   2.657   6.763   2.079
 2599SOL    HW1 8696   2.614   6.784   1.992
 2599SOL    HW2 8697   2.638   6.668   2.104
 2600SOL     OW 8698   6.196   3.808   4.257
 2600SOL    HW1 8699   6.265   3.869   4.296
 2600SOL    HW2 8700   6.236   3.756   4.181
 2601SOL     OW 8701   0.541   2.115   3.348
 2601SOL    HW1 8702   0.490   2.092   3.265
 2601SOL    HW2 8703   0.512   2.056   3.423
 2602SOL     OW 8704   1.618   5.258   3.917
 2602SOL    HW1 8705   1.577   5.205   3.991
 2602SOL    HW2 8706   1.683   5.324   3.955
 2603SOL     OW 8707   3.010   0.313   2.991
 2603SOL    HW1 8708   2.926   0.282   3.034
 2603SOL    HW2 8709   2.988   0.370   2.912
 2604SOL     OW 8710   4.481   2.266   2.927
 2604SOL    HW1 8711   4.386   2.262   2.958
 2604SOL    HW2 8712   4.531   2.187   2.963
 2605SOL     OW 8713   1.621   3.674   1.938
 2605SOL    HW1 8714   1.621   3.769   1.967
 2605SOL    HW2 8715   1.710   3.650   1.899
 2606SOL     OW 8716   4.232   3.515   0.982
 2606SOL    HW1 8717   4.189   3.545   1.067
 2606SOL    HW2 8718   4.165   3.462   0.929
 2607SOL     OW 8719   2.832   2.015   1.182
 2607SOL    HW1 8720   2.885   1.947   1.233
 2607SOL    HW2 8721   2.886   2.099   1.172
 2608SOL     OW 8722   2.219   5.727   5.953
 2608SOL    HW1 8723   2.233   5.630   5.932
 2608SOL    HW2 8724   2.244   5.744   6.048
 2609SOL     OW 8725   6.981   1.239   0.982
 2609SOL    HW1 8726   6.927   1.219   1.065
 2609SOL    HW2 8727   0.019   1.318   0.999
 2610SOL     OW 8728   1.487   4.627   4.715
 2610SOL    HW1 8729   1.548   4.664   4.785
 2610SOL    HW2 8730   1.518   4.535   4.689
 2611SOL     OW 8731   5.547   6.997   6.207
 2611SOL    HW1 8732   5.565   0.075   6.216
 2611SOL    HW2 8733   5.449   6.984   6.189
 2612SOL     OW 8734   6.359   0.058   5.652
 2612SOL    HW1 8735   6.346   6.979   5.659
 2612SOL    HW2 8736   6.296   0.095   5.582
 2613SOL     OW 8737   1.229   5.876   0.011
 2613SOL    HW1 8738   1.254   5.831   0.097
 2613SOL    HW2 8739   1.238   5.975   0.022
 2614SOL     OW 8740   6.815   1.226   6.579
 2614SOL    HW1 8741   6.727   1.178   6.580
 2614SOL    HW2 8742   6.849   1.231   6.484
 2615SOL     OW 8743   0.860   3.161   0.577
 2615SOL    HW1 8744   0.928   3.131   0.510
 2615SOL    HW2 8745   0.830   3.083   0.632
 2616SOL     OW 8746   1.503   0.264   5.638
 2616SOL    HW1 8747   1.564   0.316   5.578
 2616SOL    HW2 8748   1.408   0.279   5.611
 2617SOL     OW 8749   5.562   0.203   1.206
 2617SOL    HW1 8750   5.601   0.145   1.135
 2617SOL    HW2 8751   5.622   0.203   1.286
 2618SOL     OW 8752   1.271   6.558   6.304
 2618SOL    HW1 8753   1.226   6.493   6.366
 2618SOL    HW2 8754   1.254   6.531   6.209
 2619SOL     OW 8755   4.515   1.342   2.458
 2619SOL    HW1 8756   4.561   1.256   2.480
 2619SOL    HW2 8757   4.541   1.372   2.367
 2620SOL     OW 8758   6.376   0.508   1.126
 2620SOL    HW1 8759   6.307   0.580   1.123
 2620SOL    HW2 8760   6.451   0.532   1.065
 2621SOL     OW 8761   1.533   6.176   1.930
 2621SOL    HW1 8762   1.578   6.093   1.896
 2621SOL    HW2 8763   1.591   6.219   1.999
 2622SOL     OW 8764   3.429   3.305   6.438
 2622SOL    HW1 8765   3.434   3.208   6.418
 2622SOL    HW2 8766   3.387   3.319   6.527
 2623SOL     OW 8767   0.923   6.716   3.358
 2623SOL    HW1 8768   0.897   6.623   3.386
 2623SOL    HW2 8769   0.901   6.728   3.261
 2624SOL     OW 8770   0.151   1.697   4.872
 2624SOL    HW1 8771   0.202   1.611   4.869
 2624SOL    HW2 8772   0.144   1.735   4.780
 2625SOL     OW 8773   1.977   5.257   6.280
 2625SOL    HW1 8774   2.035   5.177   6.293
 2625SOL    HW2 8775   2.023   5.323   6.220
 2626SOL     OW 8776   6.748   5.396   6.593
 2626SOL    HW1 8777   6.842   5.395   6.628
 2626SOL    HW2 8778   6.735   5.477   6.536
 2627SOL     OW 8779   2.091   6.797   5.519
 2627SOL    HW1 8780   2.054   6.812   5.428
 2627SOL    HW2 8781   2.037   6.846   5.587
 2628SOL     OW 8782   0.304   5.220   2.247
 2628SOL    HW1 8783   0.293   5.195   2.151
 2628SOL    HW2 8784   0.230   5.179   2.301
 2629SOL     OW 8785   3.391   3.840   3.132
 2629SOL    HW1 8786   3.317   3.842   3.199
 2629SOL    HW2 8787   3.370   3.772   3.061
 2630SOL     OW 8788   3.841   0.760   3.540
 2630SOL    HW1 8789   3.781   0.714   3.605
 2630SOL    HW2 8790   3.878   0.843   3.582
 2631SOL     OW 8791   5.995   0.497   6.820
 2631SOL    HW1 8792   5.954   0.583   6.851
 2631SOL    HW2 8793   6.073   0.516   6.761
 2632SOL     OW 8794   5.352   4.266   2.121
 2632SOL    HW1 8795   5.363   4.259   2.021
 2632SOL    HW2 8796   5.255   4.262   2.144
 2633SOL     OW 8797   0.058   3.380   5.790
 2633SOL    HW1 8798   0.029   3.286   5.771
 2633SOL    HW2 8799   0.040   3.401   5.886
 2634SOL     OW 8800   0.200   1.087   5.845
 2634SOL    HW1 8801   0.205   1.053   5.752
 2634SOL    HW2 8802   0.153   1.175   5.846
 2635SOL     OW 8803   5.644   5.046   3.522
 2635SOL    HW1 8804   5.617   5.105   3.447
 2635SOL    HW2 8805   5.602   5.078   3.607
 2636SOL     OW 8806   3.691   5.587   5.126
 2636SOL    HW1 8807   3.745   5.524   5.183
 2636SOL    HW2 8808   3.729   5.589   5.034
 2637SOL     OW 8809   0.448   1.576   3.575
 2637SOL    HW1 8810   0.514   1.601   3.646
 2637SOL    HW2 8811   0.489   1.590   3.485
 2638SOL     OW 8812   0.965   5.971   4.408
 2638SOL    HW1 8813   0.935   6.004   4.497
 2638SOL    HW2 8814   0.940   6.036   4.337
 2639SOL     OW 8815   4.052   4.741   5.226
 2639SOL    HW1 8816   4.060   4.762   5.129
 2639SOL    HW2 8817   3.958   4.758   5.256
 2640SOL     OW 8818   1.601   6.699   3.925
 2640SOL    HW1 8819   1.511   6.669   3.892
 2640SOL    HW2 8820   1.665   6.622   3.920
 2641SOL     OW 8821   5.836   3.017   6.740
 2641SOL    HW1 8822   5.870   3.022   6.834
 2641SOL    HW2 8823   5.834   2.922   6.710
 2642SOL     OW 8824   5.975   1.505   3.728
 2642SOL    HW1 8825   5.979   1.425   3.667
 2642SOL    HW2 8826   5.883   1.514   3.765
 2643SOL     OW 8827   2.576   4.548   3.762
 2643SOL    HW1 8828   2.520   4.528   3.842
 2643SOL    HW2 8829   2.645   4.476   3.752
 2644SOL     OW 8830   4.789   5.386   4.662
 2644SOL    HW1 8831   4.812   5.306   4.717
 2644SOL    HW2 8832   4.782   5.466   4.721
 2645SOL     OW 8833   4.944   5.503   3.417
 2645SOL    HW1 8834   4.975   5.580   3.474
 2645SOL    HW2 8835   5.010   5.429   3.422
 2646SOL     OW 8836   0.644   2.538   6.537
 2646SOL    HW1 8837   0.712   2.567   6.470
 2646SOL    HW2 8838   0.552   2.550   6.498
 2647SOL     OW 8839   5.343   0.691   1.748
 2647SOL    HW1 8840   5.382   0.600   1.752
 2647SOL    HW2 8841   5.413   0.757   1.720
 2648SOL     OW 8842   0.978   0.327   6.778
 2648SOL    HW1 8843   0.944   0.250   6.725
 2648SOL    HW2 8844   1.074   0.342   6.758
 2649SOL     OW 8845   5.134   2.112   1.877
 2649SOL    HW1 8846   5.170   2.073   1.792
 2649SOL    HW2 8847   5.052   2.164   1.856
 2650SOL     OW 8848   2.640   6.419   4.333
 2650SOL    HW1 8849   2.602   6.512   4.321
 2650SOL    HW2 8850   2.730   6.415   4.291
 2651SOL     OW 8851   4.116   2.224   3.952
 2651SOL    HW1 8852   4.182   2.292   3.918
 2651SOL    HW2 8853   4.164   2.152   4.001
 2652SOL     OW 8854   4.917   4.136   5.495
 2652SOL    HW1 8855   4.962   4.063   5.444
 2652SOL    HW2 8856   4.940   4.128   5.592
 2653SOL     OW 8857   2.501   5.371   0.549
 2653SOL    HW1 8858   2.550   5.428   0.616
 2653SOL    HW2 8859   2.424   5.326   0.594
 2654SOL     OW 8860   6.541   1.135   0.035
 2654SOL    HW1 8861   6.612   1.198   0.003
 2654SOL    HW2 8862   6.583   1.064   0.092
 2655SOL     OW 8863   4.637   6.181   2.485
 2655SOL    HW1 8864   4.613   6.084   2.490
 2655SOL    HW2 8865   4.563   6.236   2.524
 2656SOL     OW 8866   3.848   6.462   3.054
 2656SOL    HW1 8867   3.879   6.455   2.959
 2656SOL    HW2 8868   3.912   6.413   3.114
 2657SOL     OW 8869   0.607   4.010   0.410
 2657SOL    HW1 8870   0.575   3.926   0.366
 2657SOL    HW2 8871   0.649   3.988   0.498
 2658SOL     OW 8872   3.512   5.412   0.115
 2658SOL    HW1 8873   3.481   5.336   0.058
 2658SOL    HW2 8874   3.606   5.437   0.088
 2659SOL     OW 8875   0.239   2.129   4.999
 2659SOL    HW1 8876   0.325   2.171   4.970
 2659SOL    HW2 8877   0.191   2.092   4.919
 2660SOL     OW 8878   0.221   1.896   2.043
 2660SOL    HW1 8879   0.215   1.820   2.107
 2660SOL    HW2 8880   0.188   1.979   2.088
 2661SOL     OW 8881   1.765   1.329   0.789
 2661SOL    HW1 8882   1.740   1.232   0.788
 2661SOL    HW2 8883   1.860   1.338   0.818
 2662SOL     OW 8884   2.831   1.320   2.150
 2662SOL    HW1 8885   2.861   1.412   2.175
 2662SOL    HW2 8886   2.737   1.324   2.116
 2663SOL     OW 8887   4.062   6.273   0.111
 2663SOL    HW1 8888   3.995   6.345   0.133
 2663SOL    HW2 8889   4.153   6.314   0.101
 2664SOL     OW 8890   4.289   3.786   5.752
 2664SOL    HW1 8891   4.255   3.851   5.821
 2664SOL    HW2 8892   4.212   3.734   5.715
 2665SOL     OW 8893   2.116   3.966   4.589
 2665SOL    HW1 8894   2.158   3.894   4.534
 2665SOL    HW2 8895   2.170   3.979   4.672
 2666SOL     OW 8896   2.096   3.760   2.384
 2666SOL    HW1 8897   2.109   3.683   2.322
 2666SOL    HW2 8898   2.128   3.844   2.340
 2667SOL     OW 8899   6.922   2.950   4.945
 2667SOL    HW1 8900   6.953   2.856   4.927
 2667SOL    HW2 8901   6.833   2.947   4.989
 2668SOL     OW 8902   6.519   0.369   3.628
 2668SOL    HW1 8903   6.614   0.381   3.602
 2668SOL    HW2 8904   6.460   0.406   3.556
 2669SOL     OW 8905   2.511   0.645   6.790
 2669SOL    HW1 8906   2.574   0.664   6.714
 2669SOL    HW2 8907   2.430   0.702   6.781
 2670SOL     OW 8908   0.505   0.200   0.028
 2670SOL    HW1 8909   0.482   0.109   0.062
 2670SOL    HW2 8910   0.462   0.215   6.959
 2671SOL     OW 8911   5.076   4.478   6.228
 2671SOL    HW1 8912   5.100   4.410   6.297
 2671SOL    HW2 8913   4.977   4.489   6.224
 2672SOL     OW 8914   3.657   0.911   2.108
 2672SOL    HW1 8915   3.643   1.002   2.147
 2672SOL    HW2 8916   3.582   0.891   2.045
 2673SOL     OW 8917   4.061   0.070   2.210
 2673SOL    HW1 8918   4.002   7.010   2.197
 2673SOL    HW2 8919   4.009   0.153   2.191
 2674SOL     OW 8920   0.366   5.418   2.420
 2674SOL    HW1 8921   0.320   5.504   2.396
 2674SOL    HW2 8922   0.348   5.350   2.349
 2675SOL     OW 8923   5.345   0.834   4.150
 2675SOL    HW1 8924   5.319   0.794   4.062
 2675SOL    HW2 8925   5.300   0.923   4.161
 2676SOL     OW 8926   4.023   3.775   3.157
 2676SOL    HW1 8927   4.083   3.707   3.116
 2676SOL    HW2 8928   4.023   3.763   3.257
 2677SOL     OW 8929   2.715   5.134   1.193
 2677SOL    HW1 8930   2.800   5.145   1.245
 2677SOL    HW2 8931   2.723   5.181   1.106
 2678SOL     OW 8932   4.201   1.914   3.319
 2678SOL    HW1 8933   4.274   1.866   3.367
 2678SOL    HW2 8934   4.208   2.012   3.337
 2679SOL     OW 8935   2.029   3.518   3.224
 2679SOL    HW1 8936   1.953   3.539   3.163
 2679SOL    HW2 8937   2.042   3.419   3.229
 2680SOL     OW 8938   5.951   1.481   0.165
 2680SOL    HW1 8939   6.030   1.541   0.155
 2680SOL    HW2 8940   5.970   1.392   0.122
 2681SOL     OW 8941   2.143   2.074   4.533
 2681SOL    HW1 8942   2.120   2.067   4.630
 2681SOL    HW2 8943   2.226   2.021   4.516
 2682SOL     OW 8944   4.090   4.114   1.707
 2682SOL    HW1 8945   4.063   4.045   1.774
 2682SOL    HW2 8946   4.188   4.109   1.690
 2683SOL     OW 8947   2.403   4.532   1.954
 2683SOL    HW1 8948   2.460   4.509   2.033
 2683SOL    HW2 8949   2.313   4.489   1.963
 2684SOL     OW 8950   6.506   6.728   3.668
 2684SOL    HW1 8951   6.515   6.745   3.766
 2684SOL    HW2 8952   6.522   6.813   3.617
 2685SOL     OW 8953   1.097   5.759   5.663
 2685SOL    HW1 8954   1.153   5.794   5.738
 2685SOL    HW2 8955   1.100   5.659   5.662
 2686SOL     OW 8956   0.229   1.485   5.254
 2686SOL    HW1 8957   0.154   1.424   5.231
 2686SOL    HW2 8958   0.296   1.436   5.310
 2687SOL     OW 8959   4.180   1.989   1.483
 2687SOL    HW1 8960   4.212   1.998   1.577
 2687SOL    HW2 8961   4.086   1.955   1.483
 2688SOL     OW 8962   3.726   3.020   6.197
 2688SOL    HW1 8963   3.821   3.020   6.227
 2688SOL    HW2 8964   3.714   3.083   6.121
 2689SOL     OW 8965   1.539   4.157   3.444
 2689SOL    HW1 8966   1.470   4.194   3.382
 2689SOL    HW2 8967   1.555   4.221   3.519
 2690SOL     OW 8968   4.143   1.490   5.591
 2690SOL    HW1 8969   4.231   1.537   5.600
 2690SOL    HW2 8970   4.157   1.403   5.544
 2691SOL     OW 8971   6.782   3.842   4.806
 2691SOL    HW1 8972   6.737   3.753   4.813
 2691SOL    HW2 8973   6.840   3.856   4.886
 2692SOL     OW 8974   2.332   6.276   2.036
 2692SOL    HW1 8975   2.287   6.264   1.947
 2692SOL    HW2 8976   2.325   6.372   2.063
 2693SOL     OW 8977   1.405   6.145   3.077
 2693SOL    HW1 8978   1.501   6.161   3.096
 2693SOL    HW2 8979   1.376   6.059   3.120
 2694SOL     OW 8980   2.988   0.540   2.776
 2694SOL    HW1 8981   3.025   0.556   2.685
 2694SOL    HW2 8982   2.904   0.593   2.787
 2695SOL     OW 8983   6.726   5.997   3.539
 2695SOL    HW1 8984   6.731   5.900   3.564
 2695SOL    HW2 8985   6.753   6.053   3.617
 2696SOL     OW 8986   5.303   4.600   6.096
 2696SOL    HW1 8987   5.352   4.662   6.157
 2696SOL    HW2 8988   5.209   4.588   6.128
 2697SOL     OW 8989   4.234   2.547   6.756
 2697SOL    HW1 8990   4.258   2.562   6.852
 2697SOL    HW2 8991   4.220   2.449   6.740
 2698SOL     OW 8992   1.540   4.925   5.706
 2698SOL    HW1 8993   1.526   4.833   5.743
 2698SOL    HW2 8994   1.580   4.984   5.777
 2699SOL     OW 8995   2.746   6.487   1.948
 2699SOL    HW1 8996   2.800   6.468   1.865
 2699SOL    HW2 8997   2.808   6.494   2.026
 2700SOL     OW 8998   3.611   1.666   1.884
 2700SOL    HW1 8999   3.709   1.644   1.884
 2700SOL    HW2 9000   3.577   1.664   1.978
 2701SOL     OW 9001   5.508   3.038   5.158
 2701SOL    HW1 9002   5.476   3.127   5.188
 2701SOL    HW2 9003   5.452   2.965   5.198
 2702SOL     OW 9004   2.742   1.063   4.723
 2702SOL    HW1 9005   2.824   1.007   4.729
 2702SOL    HW2 9006   2.763   1.148   4.674
 2703SOL     OW 9007   1.829   0.166   2.717
 2703SOL    HW1 9008   1.779   0.237   2.668
 2703SOL    HW2 9009   1.873   0.206   2.798
 2704SOL     OW 9010   5.438   0.929   3.591
 2704SOL    HW1 9011   5.460   0.832   3.586
 2704SOL    HW2 9012   5.350   0.942   3.636
 2705SOL     OW 9013   0.399   0.776   5.529
 2705SOL    HW1 9014   0.366   0.682   5.539
 2705SOL    HW2 9015   0.399   0.801   5.432
 2706SOL     OW 9016   6.864   3.779   3.560
 2706SOL    HW1 9017   6.944   3.839   3.556
 2706SOL    HW2 9018   6.894   3.685   3.571
 2707SOL     OW 9019   4.290   1.392   2.897
 2707SOL    HW1 9020   4.339   1.331   2.834
 2707SOL    HW2 9021   4.356   1.451   2.943
 2708SOL     OW 9022   5.787   3.832   6.228
 2708SOL    HW1 9023   5.760   3.737   6.215
 2708SOL    HW2 9024   5.830   3.866   6.144
 2709SOL     OW 9025   5.088   1.679   5.377
 2709SOL    HW1 9026   5.084   1.589   5.336
 2709SOL    HW2 9027   5.126   1.672   5.470
 2710SOL     OW 9028   0.704   2.575   4.423
 2710SOL    HW1 9029   0.633   2.632   4.465
 2710SOL    HW2 9030   0.788   2.628   4.413
 2711SOL     OW 9031   3.433   1.087   1.621
 2711SOL    HW1 9032   3.393   0.999   1.644
 2711SOL    HW2 9033   3.481   1.080   1.533
 2712SOL     OW 9034   3.386   6.222   2.204
 2712SOL    HW1 9035   3.456   6.198   2.271
 2712SOL    HW2 9036   3.388   6.156   2.129
 2713SOL     OW 9037   3.682   4.587   5.828
 2713SOL    HW1 9038   3.697   4.489   5.840
 2713SOL    HW2 9039   3.715   4.636   5.908
 2714SOL     OW 9040   3.347   4.753   6.366
 2714SOL    HW1 9041   3.259   4.715   6.395
 2714SOL    HW2 9042   3.387   4.694   6.296
 2715SOL     OW 9043   4.046   1.028   6.771
 2715SOL    HW1 9044   4.076   0.944   6.726
 2715SOL    HW2 9045   4.052   1.017   6.870
 2716SOL     OW 9046   4.094   1.481   2.730
 2716SOL    HW1 9047   4.091   1.461   2.632
 2716SOL    HW2 9048   4.159   1.419   2.774
 2717SOL     OW 9049   0.436   1.202   2.496
 2717SOL    HW1 9050   0.409   1.109   2.519
 2717SOL    HW2 9051   0.534   1.204   2.473
 2718SOL     OW 9052   0.364   0.595   5.874
 2718SOL    HW1 9053   0.363   0.583   5.775
 2718SOL    HW2 9054   0.321   0.682   5.897
 2719SOL     OW 9055   1.668   4.526   2.457
 2719SOL    HW1 9056   1.678   4.547   2.554
 2719SOL    HW2 9057   1.631   4.606   2.409
 2720SOL     OW 9058   2.312   6.305   6.485
 2720SOL    HW1 9059   2.335   6.379   6.548
 2720SOL    HW2 9060   2.303   6.220   6.537
 2721SOL     OW 9061   3.180   6.223   1.718
 2721SOL    HW1 9062   3.259   6.255   1.664
 2721SOL    HW2 9063   3.149   6.136   1.681
 2722SOL     OW 9064   4.240   5.938   6.911
 2722SOL    HW1 9065   4.241   5.848   6.954
 2722SOL    HW2 9066   4.185   5.934   6.827
 2723SOL     OW 9067   3.265   6.226   6.356
 2723SOL    HW1 9068   3.230   6.306   6.306
 2723SOL    HW2 9069   3.353   6.199   6.318
 2724SOL     OW 9070   0.918   6.656   1.078
 2724SOL    HW1 9071   0.834   6.605   1.060
 2724SOL    HW2 9072   0.905   6.717   1.156
 2725SOL     OW 9073   6.193   4.175   4.903
 2725SOL    HW1 9074   6.247   4.222   4.833
 2725SOL    HW2 9075   6.245   4.096   4.937
 2726SOL     OW 9076   5.740   1.832   2.273
 2726SOL    HW1 9077   5.831   1.811   2.307
 2726SOL    HW2 9078   5.744   1.853   2.176
 2727SOL     OW 9079   1.420   5.029   3.711
 2727SOL    HW1 9080   1.327   5.006   3.681
 2727SOL    HW2 9081   1.436   5.127   3.699
 2728SOL     OW 9082   5.088   5.383   5.156
 2728SOL    HW1 9083   5.135   5.468   5.134
 2728SOL    HW2 9084   5.125   5.346   5.241
 2729SOL     OW 9085   5.248   6.966   5.993
 2729SOL    HW1 9086   5.264   0.045   6.001
 2729SOL    HW2 9087   5.182   6.938   6.063
 2730SOL     OW 9088   1.128   6.057   2.027
 2730SOL    HW1 9089   1.160   5.964   2.044
 2730SOL    HW2 9090   1.038   6.069   2.069
 2731SOL     OW 9091   3.395   4.030   4.212
 2731SOL    HW1 9092   3.399   4.042   4.112
 2731SOL    HW2 9093   3.481   3.990   4.244
 2732SOL     OW 9094   5.697   0.645   1.938
 2732SOL    HW1 9095   5.729   0.556   1.903
 2732SOL    HW2 9096   5.666   0.702   1.862
 2733SOL     OW 9097   1.483   6.764   6.656
 2733SOL    HW1 9098   1.433   6.823   6.720
 2733SOL    HW2 9099   1.512   6.817   6.577
 2734SOL     OW 9100   3.400   6.659   2.429
 2734SOL    HW1 9101   3.348   6.736   2.468
 2734SOL    HW2 9102   3.357   6.573   2.457
 2735SOL     OW 9103   0.702   1.701   2.113
 2735SOL    HW1 9104   0.619   1.671   2.159
 2735SOL    HW2 9105   0.776   1.637   2.132
 2736SOL     OW 9106   5.499   4.618   2.789
 2736SOL    HW1 9107   5.402   4.638   2.806
 2736SOL    HW2 9108   5.511   4.520   2.776
 2737SOL     OW 9109   3.098   0.619   5.170
 2737SOL    HW1 9110   3.068   0.639   5.077
 2737SOL    HW2 9111   3.173   0.553   5.168
 2738SOL     OW 9112   4.873   6.289   1.691
 2738SOL    HW1 9113   4.869   6.272   1.790
 2738SOL    HW2 9114   4.819   6.370   1.669
 2739SOL     OW 9115   6.730   5.790   1.692
 2739SOL    HW1 9116   6.767   5.702   1.662
 2739SOL    HW2 9117   6.804   5.857   1.695
 2740SOL     OW 9118   6.571   5.701   3.683
 2740SOL    HW1 9119   6.549   5.640   3.607
 2740SOL    HW2 9120   6.661   5.677   3.720
 2741SOL     OW 9121   1.923   1.165   5.846
 2741SOL    HW1 9122   1.846   1.217   5.809
 2741SOL    HW2 9123   1.917   1.164   5.946
 2742SOL     OW 9124   3.017   5.839   1.412
 2742SOL    HW1 9125   3.102   5.891   1.413
 2742SOL    HW2 9126   2.972   5.849   1.323
 2743SOL     OW 9127   5.935   2.778   2.476
 2743SOL    HW1 9128   5.967   2.809   2.566
 2743SOL    HW2 9129   5.839   2.804   2.465
 2744SOL     OW 9130   3.312   3.773   2.569
 2744SOL    HW1 9131   3.318   3.852   2.630
 2744SOL    HW2 9132   3.374   3.702   2.601
 2745SOL     OW 9133   0.550   6.794   0.463
 2745SOL    HW1 9134   0.559   6.755   0.372
 2745SOL    HW2 9135   0.626   6.856   0.481
 2746SOL     OW 9136   0.740   1.429   3.548
 2746SOL    HW1 9137   0.786   1.345   3.575
 2746SOL    HW2 9138   0.762   1.501   3.614
 2747SOL     OW 9139   3.886   4.780   0.734
 2747SOL    HW1 9140   3.907   4.871   0.699
 2747SOL    HW2 9141   3.928   4.769   0.824
 2748SOL     OW 9142   3.614   6.886   0.855
 2748SOL    HW1 9143   3.711   6.907   0.870
 2748SOL    HW2 9144   3.605   6.821   0.779
 2749SOL     OW 9145   3.624   2.742   0.210
 2749SOL    HW1 9146   3.588   2.752   0.303
 2749SOL    HW2 9147   3.549   2.739   0.145
 2750SOL     OW 9148   2.810   6.161   1.977
 2750SOL    HW1 9149   2.857   6.164   2.065
 2750SOL    HW2 9150   2.863   6.212   1.909
 2751SOL     OW 9151   5.826   4.294   1.214
 2751SOL    HW1 9152   5.799   4.339   1.129
 2751SOL    HW2 9153   5.744   4.267   1.265
 2752SOL     OW 9154   4.293   5.264   6.985
 2752SOL    HW1 9155   4.338   5.175   6.999
 2752SOL    HW2 9156   4.231   5.258   6.907
 2753SOL     OW 9157   6.263   5.855   5.453
 2753SOL    HW1 9158   6.212   5.830   5.535
 2753SOL    HW2 9159   6.269   5.775   5.392
 2754SOL     OW 9160   1.406   6.801   6.308
 2754SOL    HW1 9161   1.334   6.732   6.297
 2754SOL    HW2 9162   1.403   6.864   6.230
 2755SOL     OW 9163   3.158   0.638   2.532
 2755SOL    HW1 9164   3.241   0.694   2.536
 2755SOL    HW2 9165   3.096   0.675   2.463
 2756SOL     OW 9166   4.536   6.235   0.717
 2756SOL    HW1 9167   4.587   6.191   0.643
 2756SOL    HW2 9168   4.492   6.165   0.773
 2757SOL     OW 9169   0.581   5.514   1.396
 2757SOL    HW1 9170   0.562   5.541   1.491
 2757SOL    HW2 9171   0.676   5.534   1.374
 2758SOL     OW 9172   4.837   0.467   5.927
 2758SOL    HW1 9173   4.737   0.464   5.922
 2758SOL    HW2 9174   4.868   0.562   5.929
 2759SOL     OW 9175   5.009   5.594   4.623
 2759SOL    HW1 9176   5.042   5.651   4.698
 2759SOL    HW2 9177   5.045   5.501   4.633
 2760SOL     OW 9178   2.700   5.612   3.144
 2760SOL    HW1 9179   2.628   5.646   3.084
 2760SOL    HW2 9180   2.670   5.528   3.189
 2761SOL     OW 9181   2.164   5.626   3.260
 2761SOL    HW1 9182   2.233   5.630   3.332
 2761SOL    HW2 9183   2.085   5.574   3.293
 2762SOL     OW 9184   1.110   6.640   4.978
 2762SOL    HW1 9185   1.127   6.547   5.011
 2762SOL    HW2 9186   1.152   6.706   5.040
 2763SOL     OW 9187   5.546   1.984   1.726
 2763SOL    HW1 9188   5.586   1.908   1.673
 2763SOL    HW2 9189   5.503   1.948   1.809
 2764SOL     OW 9190   6.467   1.174   2.066
 2764SOL    HW1 9191   6.385   1.192   2.121
 2764SOL    HW2 9192   6.450   1.097   2.004
 2765SOL     OW 9193   5.445   1.710   1.844
 2765SOL    HW1 9194   5.487   1.660   1.768
 2765SOL    HW2 9195   5.351   1.678   1.857
 2766SOL     OW 9196   5.786   0.531   2.322
 2766SOL    HW1 9197   5.816   0.591   2.249
 2766SOL    HW2 9198   5.798   0.577   2.410
 2767SOL     OW 9199   5.857   4.617   6.411
 2767SOL    HW1 9200   5.809   4.538   6.448
 2767SOL    HW2 9201   5.928   4.585   6.347
 2768SOL     OW 9202   5.962   1.342   6.859
 2768SOL    HW1 9203   5.870   1.380   6.873
 2768SOL    HW2 9204   6.021   1.412   6.817
 2769SOL     OW 9205   1.182   3.750   1.094
 2769SOL    HW1 9206   1.178   3.844   1.127
 2769SOL    HW2 9207   1.258   3.703   1.139
 2770SOL     OW 9208   6.843   5.381   1.282
 2770SOL    HW1 9209   6.928   5.418   1.246
 2770SOL    HW2 9210   6.852   5.282   1.292
 2771SOL     OW 9211   4.920   1.019   1.444
 2771SOL    HW1 9212   5.014   1.042   1.418
 2771SOL    HW2 9213   4.919   0.928   1.487
 2772SOL     OW 9214   3.350   2.669   6.084
 2772SOL    HW1 9215   3.436   2.721   6.086
 2772SOL    HW2 9216   3.365   2.577   6.119
 2773SOL     OW 9217   3.507   3.783   6.433
 2773SOL    HW1 9218   3.533   3.701   6.383
 2773SOL    HW2 9219   3.557   3.787   6.520
 2774SOL     OW 9220   5.769   3.598   2.715
 2774SOL    HW1 9221   5.802   3.684   2.676
 2774SOL    HW2 9222   5.743   3.536   2.641
 2775SOL     OW 9223   6.945   5.993   1.694
 2775SOL    HW1 9224   6.939   6.039   1.606
 2775SOL    HW2 9225   0.017   6.005   1.732
 2776SOL     OW 9226   3.010   5.697   6.149
 2776SOL    HW1 9227   2.970   5.689   6.057
 2776SOL    HW2 9228   2.968   5.628   6.209
 2777SOL     OW 9229   3.553   1.576   2.827
 2777SOL    HW1 9230   3.643   1.570   2.784
 2777SOL    HW2 9231   3.551   1.516   2.908
 2778SOL     OW 9232   2.467   1.852   5.482
 2778SOL    HW1 9233   2.461   1.798   5.566
 2778SOL    HW2 9234   2.382   1.903   5.469
 2779SOL     OW 9235   6.055   0.926   6.644
 2779SOL    HW1 9236   6.126   0.996   6.638
 2779SOL    HW2 9237   5.971   0.959   6.602
 2780SOL     OW 9238   5.122   5.244   6.828
 2780SOL    HW1 9239   5.091   5.334   6.858
 2780SOL    HW2 9240   5.198   5.214   6.884
 2781SOL     OW 9241   4.998   4.506   0.196
 2781SOL    HW1 9242   4.989   4.408   0.176
 2781SOL    HW2 9243   4.965   4.559   0.119
 2782SOL     OW 9244   3.052   2.588   6.457
 2782SOL    HW1 9245   2.979   2.521   6.466
 2782SOL    HW2 9246   3.020   2.678   6.487
 2783SOL     OW 9247   0.265   4.683   5.011
 2783SOL    HW1 9248   0.264   4.712   5.107
 2783SOL    HW2 9249   0.219   4.595   5.002
 2784SOL     OW 9250   2.057   1.797   2.089
 2784SOL    HW1 9251   2.146   1.804   2.135
 2784SOL    HW2 9252   2.050   1.867   2.018
 2785SOL     OW 9253   6.220   0.972   1.212
 2785SOL    HW1 9254   6.183   0.995   1.302
 2785SOL    HW2 9255   6.316   0.944   1.222
 2786SOL     OW 9256   3.870   6.898   1.235
 2786SOL    HW1 9257   3.815   6.876   1.317
 2786SOL    HW2 9258   3.842   6.987   1.200
 2787SOL     OW 9259   2.200   2.446   5.936
 2787SOL    HW1 9260   2.107   2.434   5.901
 2787SOL    HW2 9261   2.253   2.501   5.872
 2788SOL     OW 9262   1.056   3.750   0.663
 2788SOL    HW1 9263   1.101   3.664   0.687
 2788SOL    HW2 9264   1.053   3.760   0.564
 2789SOL     OW 9265   0.120   1.978   4.378
 2789SOL    HW1 9266   0.104   2.071   4.411
 2789SOL    HW2 9267   0.134   1.981   4.279
 2790SOL     OW 9268   3.720   5.476   3.468
 2790SOL    HW1 9269   3.624   5.484   3.442
 2790SOL    HW2 9270   3.742   5.546   3.537
 2791SOL     OW 9271   1.666   2.941   3.955
 2791SOL    HW1 9272   1.682   2.843   3.947
 2791SOL    HW2 9273   1.617   2.961   4.039
 2792SOL     OW 9274   0.835   2.199   5.427
 2792SOL    HW1 9275   0.866   2.260   5.355
 2792SOL    HW2 9276   0.912   2.144   5.460
 2793SOL     OW 9277   4.876   1.502   3.415
 2793SOL    HW1 9278   4.905   1.437   3.485
 2793SOL    HW2 9279   4.942   1.576   3.408
 2794SOL     OW 9280   0.854   0.695   1.141
 2794SOL    HW1 9281   0.825   0.781   1.183
 2794SOL    HW2 9282   0.950   0.701   1.114
 2795SOL     OW 9283   2.598   4.284   1.729
 2795SOL    HW1 9284   2.554   4.312   1.644
 2795SOL    HW2 9285   2.550   4.204   1.766
 2796SOL     OW 9286   5.545   4.025   2.547
 2796SOL    HW1 9287   5.585   3.972   2.473
 2796SOL    HW2 9288   5.572   3.987   2.635
 2797SOL     OW 9289   4.393   4.648   4.845
 2797SOL    HW1 9290   4.311   4.680   4.797
 2797SOL    HW2 9291   4.366   4.606   4.932
 2798SOL     OW 9292   1.402   3.680   4.188
 2798SOL    HW1 9293   1.497   3.682   4.219
 2798SOL    HW2 9294   1.370   3.774   4.173
 2799SOL     OW 9295   6.423   4.860   6.086
 2799SOL    HW1 9296   6.394   4.764   6.083
 2799SOL    HW2 9297   6.506   4.871   6.032
 2800SOL     OW 9298   2.980   3.657   6.844
 2800SOL    HW1 9299   2.906   3.723   6.854
 2800SOL    HW2 9300   2.945   3.565   6.860
 2801SOL     OW 9301   4.978   5.470   2.024
 2801SOL    HW1 9302   5.074   5.455   2.045
 2801SOL    HW2 9303   4.928   5.491   2.108
 2802SOL     OW 9304   4.501   1.033   5.944
 2802SOL    HW1 9305   4.554   1.100   5.892
 2802SOL    HW2 9306   4.552   1.006   6.026
 2803SOL     OW 9307   2.532   5.949   6.336
 2803SOL    HW1 9308   2.537   5.971   6.434
 2803SOL    HW2 9309   2.548   6.033   6.283
 2804SOL     OW 9310   6.857   4.408   3.042
 2804SOL    HW1 9311   6.810   4.326   3.010
 2804SOL    HW2 9312   6.810   4.443   3.124
 2805SOL     OW 9313   5.738   3.625   0.084
 2805SOL    HW1 9314   5.710   3.721   0.076
 2805SOL    HW2 9315   5.799   3.615   0.163
 2806SOL     OW 9316   6.398   5.978   3.698
 2806SOL    HW1 9317   6.463   5.902   3.701
 2806SOL    HW2 9318   6.311   5.950   3.737
 2807SOL     OW 9319   4.625   4.788   3.560
 2807SOL    HW1 9320   4.608   4.887   3.552
 2807SOL    HW2 9321   4.710   4.773   3.611
 2808SOL     OW 9322   5.007   0.367   4.130
 2808SOL    HW1 9323   5.039   0.327   4.044
 2808SOL    HW2 9324   4.962   0.295   4.185
 2809SOL     OW 9325   5.769   2.912   0.548
 2809SOL    HW1 9326   5.786   2.966   0.465
 2809SOL    HW2 9327   5.723   2.827   0.523
 2810SOL     OW 9328   1.755   0.146   5.321
 2810SOL    HW1 9329   1.725   0.099   5.238
 2810SOL    HW2 9330   1.854   0.149   5.324
 2811SOL     OW 9331   0.148   0.766   3.622
 2811SOL    HW1 9332   0.221   0.707   3.657
 2811SOL    HW2 9333   0.186   0.857   3.603
 2812SOL     OW 9334   4.860   3.837   2.422
 2812SOL    HW1 9335   4.902   3.768   2.364
 2812SOL    HW2 9336   4.805   3.793   2.493
 2813SOL     OW 9337   6.007   1.195   6.457
 2813SOL    HW1 9338   6.079   1.129   6.431
 2813SOL    HW2 9339   5.987   1.254   6.380
 2814SOL     OW 9340   4.851   4.052   5.208
 2814SOL    HW1 9341   4.770   4.026   5.260
 2814SOL    HW2 9342   4.855   4.151   5.199
 2815SOL     OW 9343   0.201   0.735   5.171
 2815SOL    HW1 9344   0.299   0.745   5.151
 2815SOL    HW2 9345   0.169   0.816   5.221
 2816SOL     OW 9346   5.716   6.975   3.253
 2816SOL    HW1 9347   5.626   6.933   3.268
 2816SOL    HW2 9348   5.786   6.922   3.301
 2817SOL     OW 9349   1.164   2.408   1.585
 2817SOL    HW1 9350   1.247   2.443   1.628
 2817SOL    HW2 9351   1.086   2.424   1.646
 2818SOL     OW 9352   0.209   4.913   4.884
 2818SOL    HW1 9353   0.232   4.826   4.927
 2818SOL    HW2 9354   0.149   4.966   4.945
 2819SOL     OW 9355   6.785   2.888   0.727
 2819SOL    HW1 9356   6.870   2.936   0.706
 2819SOL    HW2 9357   6.716   2.910   0.658
 2820SOL     OW 9358   6.451   3.327   4.811
 2820SOL    HW1 9359   6.420   3.232   4.808
 2820SOL    HW2 9360   6.532   3.337   4.753
 2821SOL     OW 9361   1.406   4.008   4.526
 2821SOL    HW1 9362   1.456   4.015   4.440
 2821SOL    HW2 9363   1.366   3.917   4.535
 2822SOL     OW 9364   3.936   1.613   0.245
 2822SOL    HW1 9365   3.859   1.676   0.248
 2822SOL    HW2 9366   4.022   1.664   0.238
 2823SOL     OW 9367   1.398   6.605   3.512
 2823SOL    HW1 9368   1.462   6.541   3.554
 2823SOL    HW2 9369   1.426   6.625   3.418
 2824SOL     OW 9370   3.279   1.595   4.590
 2824SOL    HW1 9371   3.320   1.686   4.578
 2824SOL    HW2 9372   3.212   1.579   4.517
 2825SOL     OW 9373   6.445   5.661   0.849
 2825SOL    HW1 9374   6.419   5.747   0.893
 2825SOL    HW2 9375   6.396   5.652   0.762
 2826SOL     OW 9376   5.036   2.251   4.431
 2826SOL    HW1 9377   5.112   2.291   4.380
 2826SOL    HW2 9378   5.066   2.166   4.473
 2827SOL     OW 9379   5.664   0.287   5.477
 2827SOL    HW1 9380   5.706   0.293   5.568
 2827SOL    HW2 9381   5.718   0.226   5.419
 2828SOL     OW 9382   3.713   1.525   5.491
 2828SOL    HW1 9383   3.660   1.582   5.554
 2828SOL    HW2 9384   3.659   1.445   5.465
 2829SOL     OW 9385   2.428   6.485   6.644
 2829SOL    HW1 9386   2.370   6.460   6.722
 2829SOL    HW2 9387   2.516   6.518   6.677
 2830SOL     OW 9388   3.558   3.490   0.024
 2830SOL    HW1 9389   3.500   3.410   0.019
 2830SOL    HW2 9390   3.605   3.493   0.112
 2831SOL     OW 9391   5.831   5.954   4.310
 2831SOL    HW1 9392   5.929   5.967   4.325
 2831SOL    HW2 9393   5.782   6.038   4.334
 2832SOL     OW 9394   0.246   0.826   2.103
 2832SOL    HW1 9395   0.285   0.828   2.011
 2832SOL    HW2 9396   0.197   0.911   2.120
 2833SOL     OW 9397   6.261   2.617   2.048
 2833SOL    HW1 9398   6.192   2.658   2.107
 2833SOL    HW2 9399   6.323   2.688   2.015
 2834SOL     OW 9400   3.603   1.017   5.406
 2834SOL    HW1 9401   3.512   1.056   5.393
 2834SOL    HW2 9402   3.669   1.065   5.348
 2835SOL     OW 9403   0.157   6.365   2.560
 2835SOL    HW1 9404   0.074   6.421   2.563
 2835SOL    HW2 9405   0.230   6.415   2.515
 2836SOL     OW 9406   6.740   0.944   1.219
 2836SOL    HW1 9407   6.810   0.893   1.169
 2836SOL    HW2 9408   6.760   1.042   1.214
 2837SOL     OW 9409   5.529   3.611   3.711
 2837SOL    HW1 9410   5.537   3.606   3.810
 2837SOL    HW2 9411   5.558   3.525   3.670
 2838SOL     OW 9412   3.515   5.376   2.925
 2838SOL    HW1 9413   3.439   5.334   2.975
 2838SOL    HW2 9414   3.568   5.434   2.986
 2839SOL     OW 9415   5.024   2.030   0.459
 2839SOL    HW1 9416   5.101   1.990   0.509
 2839SOL    HW2 9417   4.998   1.971   0.383
 2840SOL     OW 9418   6.623   1.558   5.279
 2840SOL    HW1 9419   6.610   1.651   5.243
 2840SOL    HW2 9420   6.536   1.525   5.317
 2841SOL     OW 9421   0.980   5.882   1.354
 2841SOL    HW1 9422   0.923   5.935   1.292
 2841SOL    HW2 9423   1.065   5.932   1.372
 2842SOL     OW 9424   6.669   3.000   3.213
 2842SOL    HW1 9425   6.615   2.969   3.291
 2842SOL    HW2 9426   6.609   3.020   3.136
 2843SOL     OW 9427   4.452   1.515   4.812
 2843SOL    HW1 9428   4.382   1.562   4.758
 2843SOL    HW2 9429   4.531   1.574   4.823
 2844SOL     OW 9430   6.852   4.115   6.078
 2844SOL    HW1 9431   6.810   4.105   6.168
 2844SOL    HW2 9432   6.880   4.210   6.064
 2845SOL     OW 9433   0.441   4.580   5.365
 2845SOL    HW1 9434   0.529   4.553   5.405
 2845SOL    HW2 9435   0.391   4.637   5.430
 2846SOL     OW 9436   4.705   1.762   6.586
 2846SOL    HW1 9437   4.719   1.678   6.533
 2846SOL    HW2 9438   4.794   1.796   6.617
 2847SOL     OW 9439   5.654   4.400   4.501
 2847SOL    HW1 9440   5.620   4.384   4.408
 2847SOL    HW2 9441   5.621   4.488   4.534
 2848SOL     OW 9442   0.822   5.331   4.039
 2848SOL    HW1 9443   0.811   5.238   4.074
 2848SOL    HW2 9444   0.894   5.378   4.090
 2849SOL     OW 9445   2.800   2.548   1.223
 2849SOL    HW1 9446   2.861   2.549   1.302
 2849SOL    HW2 9447   2.852   2.569   1.140
 2850SOL     OW 9448   3.716   1.104   0.040
 2850SOL    HW1 9449   3.695   1.016   0.084
 2850SOL    HW2 9450   3.808   1.132   0.066
 2851SOL     OW 9451   1.549   4.402   6.155
 2851SOL    HW1 9452   1.611   4.479   6.152
 2851SOL    HW2 9453   1.518   4.380   6.062
 2852SOL     OW 9454   0.284   3.440   6.416
 2852SOL    HW1 9455   0.322   3.412   6.328
 2852SOL    HW2 9456   0.342   3.407   6.490
 2853SOL     OW 9457   3.255   3.884   1.469
 2853SOL    HW1 9458   3.326   3.947   1.437
 2853SOL    HW2 9459   3.275   3.792   1.436
 2854SOL     OW 9460   2.126   1.886   3.874
 2854SOL    HW1 9461   2.101   1.789   3.866
 2854SOL    HW2 9462   2.122   1.914   3.970
 2855SOL     OW 9463   2.857   0.784   5.063
 2855SOL    HW1 9464   2.903   0.785   5.152
 2855SOL    HW2 9465   2.868   0.873   5.018
 2856SOL     OW 9466   2.376   2.754   5.257
 2856SOL    HW1 9467   2.407   2.835   5.207
 2856SOL    HW2 9468   2.444   2.681   5.248
 2857SOL     OW 9469   3.211   3.282   2.008
 2857SOL    HW1 9470   3.308   3.257   2.010
 2857SOL    HW2 9471   3.202   3.379   2.028
 2858SOL     OW 9472   6.735   3.495   3.024
 2858SOL    HW1 9473   6.731   3.406   2.979
 2858SOL    HW2 9474   6.830   3.528   3.023
 2859SOL     OW 9475   5.872   6.853   0.460
 2859SOL    HW1 9476   5.836   6.870   0.368
 2859SOL    HW2 9477   5.943   6.920   0.480
 2860SOL     OW 9478   4.503   1.365   1.548
 2860SOL    HW1 9479   4.459   1.301   1.611
 2860SOL    HW2 9480   4.591   1.327   1.519
 2861SOL     OW 9481   3.589   5.533   5.652
 2861SOL    HW1 9482   3.561   5.582   5.569
 2861SOL    HW2 9483   3.688   5.536   5.661
 2862SOL     OW 9484   5.814   1.424   4.173
 2862SOL    HW1 9485   5.795   1.516   4.139
 2862SOL    HW2 9486   5.896   1.425   4.231
 2863SOL     OW 9487   6.543   2.109   6.703
 2863SOL    HW1 9488   6.482   2.038   6.737
 2863SOL    HW2 9489   6.636   2.093   6.737
 2864SOL     OW 9490   3.650   1.604   7.015
 2864SOL    HW1 9491   3.679   1.508   7.013
 2864SOL    HW2 9492   3.637   1.633   0.091
 2865SOL     OW 9493   4.583   4.556   5.130
 2865SOL    HW1 9494   4.608   4.529   5.223
 2865SOL    HW2 9495   4.485   4.572   5.125
 2866SOL     OW 9496   0.204   6.856   6.702
 2866SOL    HW1 9497   0.126   6.809   6.661
 2866SOL    HW2 9498   0.178   6.891   6.792
 2867SOL     OW 9499   6.654   4.440   4.218
 2867SOL    HW1 9500   6.688   4.533   4.233
 2867SOL    HW2 9501   6.688   4.405   4.131
 2868SOL     OW 9502   1.752   4.390   5.457
 2868SOL    HW1 9503   1.836   4.350   5.419
 2868SOL    HW2 9504   1.678   4.381   5.391
 2869SOL     OW 9505   6.078   1.183   2.371
 2869SOL    HW1 9506   6.036   1.101   2.332
 2869SOL    HW2 9507   6.122   1.236   2.298
 2870SOL     OW 9508   5.382   2.114   2.180
 2870SOL    HW1 9509   5.389   2.103   2.279
 2870SOL    HW2 9510   5.318   2.188   2.160
 2871SOL     OW 9511   1.527   1.923   6.420
 2871SOL    HW1 9512   1.545   1.930   6.518
 2871SOL    HW2 9513   1.481   1.836   6.400
 2872SOL     OW 9514   2.547   0.191   3.797
 2872SOL    HW1 9515   2.555   0.108   3.741
 2872SOL    HW2 9516   2.465   0.240   3.770
 2873SOL     OW 9517   0.162   5.186   1.343
 2873SOL    HW1 9518   0.108   5.209   1.424
 2873SOL    HW2 9519   0.226   5.260   1.324
 2874SOL     OW 9520   5.452   2.425   2.423
 2874SOL    HW1 9521   5.529   2.361   2.416
 2874SOL    HW2 9522   5.486   2.514   2.455
 2875SOL     OW 9523   3.279   4.670   6.697
 2875SOL    HW1 9524   3.345   4.596   6.713
 2875SOL    HW2 9525   3.327   4.749   6.658
 2876SOL     OW 9526   0.087   1.329   1.770
 2876SOL    HW1 9527   0.185   1.309   1.763
 2876SOL    HW2 9528   0.061   1.393   1.698
 2877SOL     OW 9529   3.120   2.860   5.648
 2877SOL    HW1 9530   3.029   2.897   5.665
 2877SOL    HW2 9531   3.113   2.763   5.626
 2878SOL     OW 9532   3.061   4.674   6.360
 2878SOL    HW1 9533   3.016   4.726   6.287
 2878SOL    HW2 9534   2.997   4.607   6.397
 2879SOL     OW 9535   5.159   4.618   0.373
 2879SOL    HW1 9536   5.102   4.690   0.413
 2879SOL    HW2 9537   5.103   4.557   0.318
 2880SOL     OW 9538   1.360   6.213   1.338
 2880SOL    HW1 9539   1.403   6.137   1.288
 2880SOL    HW2 9540   1.314   6.177   1.419
 2881SOL     OW 9541   6.990   6.550   0.824
 2881SOL    HW1 9542   0.007   6.490   0.753
 2881SOL    HW2 9543   0.023   6.636   0.824
 2882SOL     OW 9544   0.079   2.990   3.590
 2882SOL    HW1 9545   0.173   3.017   3.615
 2882SOL    HW2 9546   0.039   2.938   3.666
 2883SOL     OW 9547   3.699   0.037   1.989
 2883SOL    HW1 9548   3.683   0.004   1.896
 2883SOL    HW2 9549   3.790   0.079   1.994
 2884SOL     OW 9550   1.016   6.314   2.985
 2884SOL    HW1 9551   0.933   6.362   2.959
 2884SOL    HW2 9552   1.049   6.349   3.073
 2885SOL     OW 9553   0.730   2.782   3.603
 2885SOL    HW1 9554   0.770   2.691   3.615
 2885SOL    HW2 9555   0.768   2.824   3.520
 2886SOL     OW 9556   2.583   1.930   6.010
 2886SOL    HW1 9557   2.671   1.967   6.040
 2886SOL    HW2 9558   2.599   1.854   5.947
 2887SOL     OW 9559   1.647   0.485   4.947
 2887SOL    HW1 9560   1.736   0.463   4.987
 2887SOL    HW2 9561   1.655   0.491   4.848
 2888SOL     OW 9562   5.979   4.916   6.869
 2888SOL    HW1 9563   6.037   4.991   6.901
 2888SOL    HW2 9564   5.886   4.950   6.853
 2889SOL     OW 9565   0.055   0.286   1.608
 2889SOL    HW1 9566   0.072   0.223   1.684
 2889SOL    HW2 9567   6.999   0.253   1.553
 2890SOL     OW 9568   4.025   0.154   1.497
 2890SOL    HW1 9569   4.105   0.150   1.438
 2890SOL    HW2 9570   3.955   0.213   1.456
 2891SOL     OW 9571   2.817   4.941   3.359
 2891SOL    HW1 9572   2.914   4.924   3.374
 2891SOL    HW2 9573   2.783   4.883   3.285
 2892SOL     OW 9574   4.733   3.920   6.015
 2892SOL    HW1 9575   4.662   3.912   6.086
 2892SOL    HW2 9576   4.690   3.944   5.928
 2893SOL     OW 9577   2.399   6.991   5.513
 2893SOL    HW1 9578   2.439   6.942   5.436
 2893SOL    HW2 9579   2.437   0.063   5.518
 2894SOL     OW 9580   4.042   2.766   0.418
 2894SOL    HW1 9581   3.944   2.749   0.428
 2894SOL    HW2 9582   4.087   2.756   0.507
 2895SOL     OW 9583   3.631   3.500   6.389
 2895SOL    HW1 9584   3.700   3.486   6.460
 2895SOL    HW2 9585   3.555   3.437   6.404
 2896SOL     OW 9586   2.862   4.900   1.029
 2896SOL    HW1 9587   2.833   4.972   0.966
 2896SOL    HW2 9588   2.781   4.851   1.063
 2897SOL     OW 9589   2.003   5.955   4.020
 2897SOL    HW1 9590   2.085   5.917   4.063
 2897SOL    HW2 9591   2.027   6.000   3.934
 2898SOL     OW 9592   3.238   5.334   2.020
 2898SOL    HW1 9593   3.204   5.265   1.956
 2898SOL    HW2 9594   3.316   5.382   1.979
 2899SOL     OW 9595   6.788   6.872   0.179
 2899SOL    HW1 9596   6.862   6.810   0.204
 2899SOL    HW2 9597   6.757   6.851   0.086
 2900SOL     OW 9598   1.980   5.373   5.258
 2900SOL    HW1 9599   2.067   5.391   5.305
 2900SOL    HW2 9600   1.921   5.453   5.266
 2901SOL     OW 9601   2.642   1.150   1.788
 2901SOL    HW1 9602   2.658   1.051   1.782
 2901SOL    HW2 9603   2.558   1.167   1.840
 2902SOL     OW 9604   5.473   5.965   1.068
 2902SOL    HW1 9605   5.508   6.035   1.130
 2902SOL    HW2 9606   5.520   5.879   1.085
 2903SOL     OW 9607   2.166   1.879   1.574
 2903SOL    HW1 9608   2.247   1.938   1.581
 2903SOL    HW2 9609   2.094   1.928   1.524
 2904SOL     OW 9610   1.728   2.849   4.727
 2904SOL    HW1 9611   1.640   2.863   4.682
 2904SOL    HW2 9612   1.728   2.762   4.776
 2905SOL     OW 9613   2.079   2.413   2.075
 2905SOL    HW1 9614   2.077   2.392   1.977
 2905SOL    HW2 9615   1.999   2.373   2.119
 2906SOL     OW 9616   5.764   5.667   2.135
 2906SOL    HW1 9617   5.756   5.759   2.096
 2906SOL    HW2 9618   5.784   5.675   2.233
 2907SOL     OW 9619   6.448   1.202   4.063
 2907SOL    HW1 9620   6.510   1.147   4.007
 2907SOL    HW2 9621   6.371   1.233   4.007
 2908SOL     OW 9622   3.509   5.934   4.525
 2908SOL    HW1 9623   3.535   5.869   4.597
 2908SOL    HW2 9624   3.481   6.020   4.566
 2909SOL     OW 9625   1.439   5.951   4.834
 2909SOL    HW1 9626   1.501   6.030   4.834
 2909SOL    HW2 9627   1.470   5.884   4.767
 2910SOL     OW 9628   5.582   5.797   6.595
 2910SOL    HW1 9629   5.574   5.741   6.678
 2910SOL    HW2 9630   5.635   5.879   6.616
 2911SOL     OW 9631   2.010   4.230   3.323
 2911SOL    HW1 9632   2.091   4.216   3.379
 2911SOL    HW2 9633   1.955   4.146   3.324
 2912SOL     OW 9634   2.736   6.272   0.837
 2912SOL    HW1 9635   2.789   6.247   0.917
 2912SOL    HW2 9636   2.656   6.213   0.830
 2913SOL     OW 9637   1.259   3.700   2.941
 2913SOL    HW1 9638   1.275   3.669   3.035
 2913SOL    HW2 9639   1.335   3.757   2.912
 2914SOL     OW 9640   5.721   5.514   5.930
 2914SOL    HW1 9641   5.765   5.454   5.997
 2914SOL    HW2 9642   5.668   5.584   5.978
 2915SOL     OW 9643   4.843   1.621   3.812
 2915SOL    HW1 9644   4.792   1.550   3.763
 2915SOL    HW2 9645   4.940   1.617   3.786
 2916SOL     OW 9646   5.551   5.808   4.710
 2916SOL    HW1 9647   5.620   5.769   4.650
 2916SOL    HW2 9648   5.571   5.782   4.805
 2917SOL     OW 9649   4.623   0.428   2.273
 2917SOL    HW1 9650   4.587   0.512   2.231
 2917SOL    HW2 9651   4.588   0.349   2.224
 2918SOL     OW 9652   0.375   4.150   3.645
 2918SOL    HW1 9653   0.392   4.155   3.546
 2918SOL    HW2 9654   0.277   4.158   3.662
 2919SOL     OW 9655   6.591   5.801   0.131
 2919SOL    HW1 9656   6.584   5.751   0.217
 2919SOL    HW2 9657   6.512   5.780   0.073
 2920SOL     OW 9658   4.191   2.214   3.315
 2920SOL    HW1 9659   4.214   2.247   3.223
 2920SOL    HW2 9660   4.240   2.269   3.383
 2921SOL     OW 9661   0.293   0.287   1.946
 2921SOL    HW1 9662   0.281   0.295   2.045
 2921SOL    HW2 9663   0.345   0.203   1.926
 2922SOL     OW 9664   4.367   6.321   5.268
 2922SOL    HW1 9665   4.309   6.242   5.248
 2922SOL    HW2 9666   4.348   6.394   5.202
 2923SOL     OW 9667   6.211   4.891   2.140
 2923SOL    HW1 9668   6.165   4.860   2.224
 2923SOL    HW2 9669   6.148   4.947   2.087
 2924SOL     OW 9670   6.712   0.980   5.100
 2924SOL    HW1 9671   6.772   0.901   5.112
 2924SOL    HW2 9672   6.765   1.064   5.112
 2925SOL     OW 9673   5.344   3.807   1.429
 2925SOL    HW1 9674   5.269   3.772   1.485
 2925SOL    HW2 9675   5.373   3.897   1.464
 2926SOL     OW 9676   0.397   1.196   4.621
 2926SOL    HW1 9677   0.325   1.130   4.603
 2926SOL    HW2 9678   0.478   1.173   4.566
 2927SOL     OW 9679   0.639   2.594   2.809
 2927SOL    HW1 9680   0.570   2.610   2.880
 2927SOL    HW2 9681   0.721   2.555   2.851
 2928SOL     OW 9682   6.138   6.648   0.829
 2928SOL    HW1 9683   6.197   6.585   0.778
 2928SOL    HW2 9684   6.048   6.651   0.786
 2929SOL     OW 9685   0.653   6.873   6.184
 2929SOL    HW1 9686   0.588   6.798   6.182
 2929SOL    HW2 9687   0.675   6.901   6.091
 2930SOL     OW 9688   3.507   6.642   4.469
 2930SOL    HW1 9689   3.533   6.548   4.494
 2930SOL    HW2 9690   3.410   6.655   4.491
 2931SOL     OW 9691   4.376   6.384   5.533
 2931SOL    HW1 9692   4.388   6.352   5.439
 2931SOL    HW2 9693   4.451   6.446   5.556
 2932SOL     OW 9694   1.166   4.317   1.490
 2932SOL    HW1 9695   1.216   4.369   1.421
 2932SOL    HW2 9696   1.100   4.257   1.445
 2933SOL     OW 9697   5.061   1.964   3.244
 2933SOL    HW1 9698   5.023   2.037   3.300
 2933SOL    HW2 9699   5.115   2.004   3.170
 2934SOL     OW 9700   2.529   0.861   6.990
 2934SOL    HW1 9701   2.541   0.792   6.920
 2934SOL    HW2 9702   2.431   0.878   7.005
 2935SOL     OW 9703   5.936   2.397   1.274
 2935SOL    HW1 9704   5.992   2.427   1.197
 2935SOL    HW2 9705   5.849   2.448   1.274
 2936SOL     OW 9706   4.898   5.802   0.374
 2936SOL    HW1 9707   4.826   5.795   0.304
 2936SOL    HW2 9708   4.856   5.815   0.463
 2937SOL     OW 9709   3.612   4.690   6.889
 2937SOL    HW1 9710   3.651   4.771   6.931
 2937SOL    HW2 9711   3.513   4.689   6.902
 2938SOL     OW 9712   4.625   5.429   5.432
 2938SOL    HW1 9713   4.689   5.421   5.356
 2938SOL    HW2 9714   4.636   5.518   5.475
 2939SOL     OW 9715   0.527   6.668   5.390
 2939SOL    HW1 9716   0.608   6.683   5.332
 2939SOL    HW2 9717   0.555   6.623   5.475
 2940SOL     OW 9718   4.833   6.966   5.060
 2940SOL    HW1 9719   4.791   0.031   5.029
 2940SOL    HW2 9720   4.793   6.888   5.011
 2941SOL     OW 9721   2.145   2.014   5.636
 2941SOL    HW1 9722   2.089   1.940   5.597
 2941SOL    HW2 9723   2.111   2.038   5.727
 2942SOL     OW 9724   3.229   6.511   3.139
 2942SOL    HW1 9725   3.188   6.451   3.070
 2942SOL    HW2 9726   3.160   6.575   3.173
 2943SOL     OW 9727   5.848   3.700   3.739
 2943SOL    HW1 9728   5.843   3.646   3.656
 2943SOL    HW2 9729   5.757   3.707   3.780
 2944SOL     OW 9730   4.219   5.720   5.804
 2944SOL    HW1 9731   4.288   5.649   5.807
 2944SOL    HW2 9732   4.161   5.714   5.885
 2945SOL     OW 9733   2.869   3.454   3.240
 2945SOL    HW1 9734   2.863   3.554   3.238
 2945SOL    HW2 9735   2.889   3.424   3.333
 2946SOL     OW 9736   6.909   6.103   6.657
 2946SOL    HW1 9737   6.910   6.055   6.744
 2946SOL    HW2 9738   6.824   6.083   6.608
 2947SOL     OW 9739   6.344   4.450   0.475
 2947SOL    HW1 9740   6.423   4.494   0.433
 2947SOL    HW2 9741   6.260   4.483   0.432
 2948SOL     OW 9742   5.887   4.288   4.631
 2948SOL    HW1 9743   5.917   4.368   4.682
 2948SOL    HW2 9744   5.803   4.309   4.581
 2949SOL     OW 9745   1.388   0.043   0.498
 2949SOL    HW1 9746   1.362   0.118   0.559
 2949SOL    HW2 9747   1.474   0.065   0.453
 2950SOL     OW 9748   4.889   3.391   4.254
 2950SOL    HW1 9749   4.880   3.490   4.247
 2950SOL    HW2 9750   4.895   3.365   4.351
 2951SOL     OW 9751   0.417   1.977   1.548
 2951SOL    HW1 9752   0.399   1.956   1.644
 2951SOL    HW2 9753   0.445   2.072   1.540
 2952SOL     OW 9754   1.606   3.947   2.009
 2952SOL    HW1 9755   1.635   3.961   2.103
 2952SOL    HW2 9756   1.515   3.988   1.996
 2953SOL     OW 9757   4.519   1.944   1.908
 2953SOL    HW1 9758   4.442   1.988   1.954
 2953SOL    HW2 9759   4.601   2.001   1.918
 2954SOL     OW 9760   6.320   6.292   2.045
 2954SOL    HW1 9761   6.388   6.218   2.053
 2954SOL    HW2 9762   6.354   6.373   2.092
 2955SOL     OW 9763   0.543   3.087   0.519
 2955SOL    HW1 9764   0.586   3.083   0.610
 2955SOL    HW2 9765   0.463   3.146   0.523
 2956SOL     OW 9766   6.828   5.417   2.357
 2956SOL    HW1 9767   6.764   5.343   2.377
 2956SOL    HW2 9768   6.846   5.420   2.258
 2957SOL     OW 9769   0.976   3.604   2.072
 2957SOL    HW1 9770   0.923   3.520   2.086
 2957SOL    HW2 9771   0.918   3.673   2.028
 2958SOL     OW 9772   1.803   4.553   6.184
 2958SOL    HW1 9773   1.775   4.557   6.280
 2958SOL    HW2 9774   1.818   4.646   6.150
 2959SOL     OW 9775   4.089   5.306   6.766
 2959SOL    HW1 9776   4.006   5.328   6.816
 2959SOL    HW2 9777   4.112   5.381   6.704
 2960SOL     OW 9778   1.822   1.788   0.245
 2960SOL    HW1 9779   1.898   1.834   0.199
 2960SOL    HW2 9780   1.776   1.853   0.305
 2961SOL     OW 9781   5.566   3.471   4.283
 2961SOL    HW1 9782   5.533   3.560   4.252
 2961SOL    HW2 9783   5.661   3.459   4.254
 2962SOL     OW 9784   4.520   1.078   3.422
 2962SOL    HW1 9785   4.550   1.162   3.377
 2962SOL    HW2 9786   4.593   1.045   3.482
 2963SOL     OW 9787   2.364   2.248   4.717
 2963SOL    HW1 9788   2.378   2.184   4.641
 2963SOL    HW2 9789   2.395   2.339   4.690
 2964SOL     OW 9790   3.603   6.198   0.639
 2964SOL    HW1 9791   3.618   6.239   0.549
 2964SOL    HW2 9792   3.531   6.129   0.633
 2965SOL     OW 9793   0.277   1.857   6.374
 2965SOL    HW1 9794   0.277   1.885   6.278
 2965SOL    HW2 9795   0.343   1.783   6.387
 2966SOL     OW 9796   4.559   4.398   3.747
 2966SOL    HW1 9797   4.566   4.380   3.845
 2966SOL    HW2 9798   4.640   4.362   3.701
 2967SOL     OW 9799   6.094   2.729   4.204
 2967SOL    HW1 9800   6.015   2.771   4.250
 2967SOL    HW2 9801   6.115   2.642   4.248
 2968SOL     OW 9802   0.426   4.182   3.362
 2968SOL    HW1 9803   0.495   4.141   3.303
 2968SOL    HW2 9804   0.343   4.200   3.309
 2969SOL     OW 9805   4.829   1.957   4.652
 2969SOL    HW1 9806   4.829   1.913   4.742
 2969SOL    HW2 9807   4.924   1.973   4.623
 2970SOL     OW 9808   0.833   4.283   6.018
 2970SOL    HW1 9809   0.860   4.213   6.084
 2970SOL    HW2 9810   0.797   4.240   5.936
 2971SOL     OW 9811   5.159   2.419   2.504
 2971SOL    HW1 9812   5.259   2.414   2.511
 2971SOL    HW2 9813   5.126   2.341   2.449
 2972SOL     OW 9814   6.680   3.800   5.215
 2972SOL    HW1 9815   6.671   3.878   5.278
 2972SOL    HW2 9816   6.590   3.758   5.201
 2973SOL     OW 9817   5.272   6.510   3.872
 2973SOL    HW1 9818   5.197   6.562   3.913
 2973SOL    HW2 9819   5.236   6.432   3.822
 2974SOL     OW 9820   0.099   3.901   2.577
 2974SOL    HW1 9821   0.157   3.882   2.498
 2974SOL    HW2 9822   0.050   3.987   2.563
 2975SOL     OW 9823   0.040   1.193   5.366
 2975SOL    HW1 9824   0.123   1.227   5.410
 2975SOL    HW2 9825   6.986   1.188   5.433
 2976SOL     OW 9826   3.404   0.541   1.999
 2976SOL    HW1 9827   3.423   0.531   2.097
 2976SOL    HW2 9828   3.429   0.456   1.952
 2977SOL     OW 9829   3.259   6.348   4.315
 2977SOL    HW1 9830   3.351   6.326   4.283
 2977SOL    HW2 9831   3.247   6.448   4.315
 2978SOL     OW 9832   4.698   5.407   6.966
 2978SOL    HW1 9833   4.772   5.446   0.001
 2978SOL    HW2 9834   4.732   5.326   6.917
 2979SOL     OW 9835   3.542   0.778   3.044
 2979SOL    HW1 9836   3.551   0.682   3.017
 2979SOL    HW2 9837   3.546   0.836   2.963
 2980SOL     OW 9838   0.514   6.033   4.307
 2980SOL    HW1 9839   0.451   5.978   4.252
 2980SOL    HW2 9840   0.538   6.116   4.256
 2981SOL     OW 9841   2.820   0.668   5.946
 2981SOL    HW1 9842   2.845   0.731   6.019
 2981SOL    HW2 9843   2.727   0.634   5.962
 2982SOL     OW 9844   5.065   6.522   2.483
 2982SOL    HW1 9845   5.015   6.525   2.396
 2982SOL    HW2 9846   5.163   6.518   2.466
 2983SOL     OW 9847   6.936   0.537   3.729
 2983SOL    HW1 9848   6.949   0.636   3.727
 2983SOL    HW2 9849   6.842   0.515   3.702
 2984SOL     OW 9850   5.373   5.804   1.825
 2984SOL    HW1 9851   5.302   5.843   1.766
 2984SOL    HW2 9852   5.455   5.861   1.820
 2985SOL     OW 9853   6.007   2.590   2.880
 2985SOL    HW1 9854   5.910   2.615   2.887
 2985SOL    HW2 9855   6.043   2.621   2.792
 2986SOL     OW 9856   1.935   3.809   5.391
 2986SOL    HW1 9857   1.997   3.836   5.318
 2986SOL    HW2 9858   1.965   3.849   5.478
 2987SOL     OW 9859   4.363   2.359   4.491
 2987SOL    HW1 9860   4.299   2.287   4.519
 2987SOL    HW2 9861   4.321   2.414   4.418
 2988SOL     OW 9862   0.854   0.517   1.887
 2988SOL    HW1 9863   0.773   0.534   1.831
 2988SOL    HW2 9864   0.894   0.430   1.861
 2989SOL     OW 9865   6.526   5.113   1.249
 2989SOL    HW1 9866   6.595   5.110   1.322
 2989SOL    HW2 9867   6.504   5.019   1.220
 2990SOL     OW 9868   4.015   1.202   1.642
 2990SOL    HW1 9869   3.996   1.144   1.562
 2990SOL    HW2 9870   3.967   1.167   1.721
 2991SOL     OW 9871   6.779   3.650   0.326
 2991SOL    HW1 9872   6.685   3.677   0.306
 2991SOL    HW2 9873   6.840   3.728   0.314
 2992SOL     OW 9874   3.232   5.201   6.654
 2992SOL    HW1 9875   3.304   5.249   6.703
 2992SOL    HW2 9876   3.272   5.144   6.582
 2993SOL     OW 9877   1.696   5.395   1.231
 2993SOL    HW1 9878   1.636   5.344   1.294
 2993SOL    HW2 9879   1.647   5.474   1.196
 2994SOL     OW 9880   4.851   6.608   0.086
 2994SOL    HW1 9881   4.907   6.686   0.062
 2994SOL    HW2 9882   4.879   6.528   0.032
 2995SOL     OW 9883   2.095   1.332   6.307
 2995SOL    HW1 9884   2.028   1.262   6.333
 2995SOL    HW2 9885   2.131   1.312   6.216
 2996SOL     OW 9886   3.823   5.041   6.157
 2996SOL    HW1 9887   3.837   5.007   6.064
 2996SOL    HW2 9888   3.818   4.963   6.220
 2997SOL     OW 9889   5.654   6.298   0.544
 2997SOL    HW1 9890   5.744   6.320   0.583
 2997SOL    HW2 9891   5.664   6.218   0.484
 2998SOL     OW 9892   6.587   5.831   5.302
 2998SOL    HW1 9893   6.490   5.810   5.310
 2998SOL    HW2 9894   6.641   5.756   5.341
 2999SOL     OW 9895   3.143   0.033   3.411
 2999SOL    HW1 9896   3.147   7.019   3.505
 2999SOL    HW2 9897   3.215   7.010   3.358
 3000SOL     OW 9898   1.071   3.050   5.375
 3000SOL    HW1 9899   1.104   3.072   5.467
 3000SOL    HW2 9900   1.120   3.106   5.308
 3001SOL     OW 9901   4.914   0.040   5.921
 3001SOL    HW1 9902   4.919   6.964   5.893
 3001SOL    HW2 9903   4.820   0.072   5.912
 3002SOL     OW 9904   3.915   0.363   5.643
 3002SOL    HW1 9905   3.987   0.423   5.678
 3002SOL    HW2 9906   3.921   0.358   5.543
 3003SOL     OW 9907   2.687   6.754   6.207
 3003SOL    HW1 9908   2.685   6.824   6.136
 3003SOL    HW2 9909   2.717   6.795   6.293
 3004SOL     OW 9910   5.852   2.860   4.668
 3004SOL    HW1 9911   5.858   2.764   4.696
 3004SOL    HW2 9912   5.764   2.897   4.695
 3005SOL     OW 9913   4.315   2.579   1.120
 3005SOL    HW1 9914   4.318   2.479   1.112
 3005SOL    HW2 9915   4.325   2.620   1.030
 3006SOL     OW 9916   5.643   0.774   1.689
 3006SOL    HW1 9917   5.686   0.862   1.672
 3006SOL    HW2 9918   5.630   0.725   1.603
 3007SOL     OW 9919   6.147   5.122   3.132
 3007SOL    HW1 9920   6.166   5.217   3.107
 3007SOL    HW2 9921   6.070   5.119   3.196
 3008SOL     OW 9922   3.120   6.189   5.826
 3008SOL    HW1 9923   3.198   6.245   5.798
 3008SOL    HW2 9924   3.138   6.093   5.806
 3009SOL     OW 9925   1.588   0.313   2.902
 3009SOL    HW1 9926   1.644   0.248   2.954
 3009SOL    HW2 9927   1.502   0.268   2.875
 3010SOL     OW 9928   3.657   6.327   2.515
 3010SOL    HW1 9929   3.752   6.359   2.506
 3010SOL    HW2 9930   3.637   6.264   2.440
 3011SOL     OW 9931   5.216   0.069   0.011
 3011SOL    HW1 9932   5.122   0.057   7.000
 3011SOL    HW2 9933   5.217   0.112   0.101
 3012SOL     OW 9934   0.224   3.852   3.355
 3012SOL    HW1 9935   0.148   3.901   3.398
 3012SOL    HW2 9936   0.256   3.903   3.276
 3013SOL     OW 9937   6.016   5.308   2.577
 3013SOL    HW1 9938   5.979   5.230   2.527
 3013SOL    HW2 9939   5.989   5.302   2.673
 3014SOL     OW 9940   4.590   0.850   4.729
 3014SOL    HW1 9941   4.628   0.840   4.637
 3014SOL    HW2 9942   4.643   0.918   4.780
 3015SOL     OW 9943   3.137   1.965   0.541
 3015SOL    HW1 9944   3.165   2.008   0.627
 3015SOL    HW2 9945   3.038   1.976   0.530
 3016SOL     OW 9946   3.888   6.603   3.582
 3016SOL    HW1 9947   3.878   6.505   3.563
 3016SOL    HW2 9948   3.836   6.655   3.514
 3017SOL     OW 9949   0.446   5.673   1.118
 3017SOL    HW1 9950   0.444   5.711   1.210
 3017SOL    HW2 9951   0.422   5.744   1.052
 3018SOL     OW 9952   4.013   6.163   6.870
 3018SOL    HW1 9953   4.090   6.150   6.808
 3018SOL    HW2 9954   4.046   6.201   6.957
 3019SOL     OW 9955   4.106   6.869   1.523
 3019SOL    HW1 9956   4.173   6.881   1.449
 3019SOL    HW2 9957   4.036   6.940   1.516
 3020SOL     OW 9958   1.859   2.548   0.898
 3020SOL    HW1 9959   1.845   2.450   0.884
 3020SOL    HW2 9960   1.919   2.561   0.977
 3021SOL     OW 9961   2.217   1.866   6.729
 3021SOL    HW1 9962   2.121   1.893   6.734
 3021SOL    HW2 9963   2.231   1.805   6.651
 3022SOL     OW 9964   4.864   6.999   3.232
 3022SOL    HW1 9965   4.797   6.981   3.305
 3022SOL    HW2 9966   4.863   6.923   3.167
 3023SOL     OW 9967   4.713   6.211   2.229
 3023SOL    HW1 9968   4.786   6.143   2.239
 3023SOL    HW2 9969   4.682   6.240   2.320
 3024SOL     OW 9970   3.273   6.655   6.587
 3024SOL    HW1 9971   3.209   6.704   6.645
 3024SOL    HW2 9972   3.364   6.656   6.629
 3025SOL     OW 9973   2.145   2.075   1.340
 3025SOL    HW1 9974   2.181   2.118   1.422
 3025SOL    HW2 9975   2.214   2.078   1.268
 3026SOL     OW 9976   2.115   4.358   0.742
 3026SOL    HW1 9977   2.200   4.332   0.788
 3026SOL    HW2 9978   2.060   4.276   0.725
 3027SOL     OW 9979   1.251   1.708   3.583
 3027SOL    HW1 9980   1.254   1.608   3.595
 3027SOL    HW2 9981   1.313   1.734   3.509
 3028SOL     OW 9982   1.107   6.673   5.291
 3028SOL    HW1 9983   1.080   6.711   5.380
 3028SOL    HW2 9984   1.038   6.607   5.261
 3029SOL     OW 9985   5.241   5.645   5.463
 3029SOL    HW1 9986   5.299   5.725   5.479
 3029SOL    HW2 9987   5.236   5.626   5.365
 3030SOL     OW 9988   1.729   2.118   5.361
 3030SOL    HW1 9989   1.709   2.077   5.450
 3030SOL    HW2 9990   1.756   2.214   5.374
 3031SOL     OW 9991   0.192   4.971   6.440
 3031SOL    HW1 9992   0.143   5.057   6.451
 3031SOL    HW2 9993   0.274   4.972   6.497
 3032SOL     OW 9994   4.959   0.249   5.627
 3032SOL    HW1 9995   5.007   0.165   5.653
 3032SOL    HW2 9996   5.004   0.328   5.669
 3033SOL     OW 9997   6.388   3.490   6.782
 3033SOL    HW1 9998   6.382   3.589   6.785
 3033SOL    HW2 9999   6.297   3.451   6.765
 3034SOL     OW10000   2.480   6.931   4.693
 3034SOL    HW110001   2.558   6.868   4.693
 3034SOL    HW210002   2.428   6.919   4.609
 3035SOL     OW10003   5.822   0.721   6.890
 3035SOL    HW110004   5.839   0.815   6.860
 3035SOL    HW210005   5.829   0.716   6.989
 3036SOL     OW10006   1.060   4.380   6.800
 3036SOL    HW110007   0.963   4.403   6.793
 3036SOL    HW210008   1.074   4.285   6.775
 3037SOL     OW10009   6.583   6.526   5.389
 3037SOL    HW110010   6.637   6.605   5.361
 3037SOL    HW210011   6.598   6.450   5.325
 3038SOL     OW10012   5.722   6.593   5.905
 3038SOL    HW110013   5.696   6.645   5.823
 3038SOL    HW210014   5.813   6.620   5.935
 3039SOL     OW10015   1.365   5.022   1.076
 3039SOL    HW110016   1.295   4.958   1.044
 3039SOL    HW210017   1.377   5.012   1.174
 3040SOL     OW10018   2.830   3.184   6.449
 3040SOL    HW110019   2.837   3.265   6.390
 3040SOL    HW210020   2.885   3.198   6.531
 3041SOL     OW10021   2.009   2.055   5.864
 3041SOL    HW110022   1.963   2.029   5.949
 3041SOL    HW210023   1.998   2.153   5.849
 3042SOL     OW10024   4.531   0.200   1.872
 3042SOL    HW110025   4.520   0.219   1.970
 3042SOL    HW210026   4.441   0.199   1.828
 3043SOL     OW10027   0.345   5.450   0.258
 3043SOL    HW110028   0.380   5.356   0.262
 3043SOL    HW210029   0.245   5.447   0.253
 3044SOL     OW10030   3.326   4.397   6.379
 3044SOL    HW110031   3.322   4.463   6.453
 3044SOL    HW210032   3.242   4.343   6.377
 3045SOL     OW10033   5.470   2.484   3.144
 3045SOL    HW110034   5.511   2.445   3.062
 3045SOL    HW210035   5.385   2.437   3.164
 3046SOL     OW10036   2.202   3.286   5.545
 3046SOL    HW110037   2.222   3.235   5.461
 3046SOL    HW210038   2.142   3.231   5.603
 3047SOL     OW10039   6.256   5.251   2.294
 3047SOL    HW110040   6.180   5.207   2.341
 3047SOL    HW210041   6.247   5.238   2.195
 3048SOL     OW10042   3.327   2.879   1.731
 3048SOL    HW110043   3.421   2.913   1.725
 3048SOL    HW210044   3.275   2.937   1.794
 3049SOL     OW10045   0.393   0.523   2.226
 3049SOL    HW110046   0.322   0.453   2.226
 3049SOL    HW210047   0.359   0.605   2.271
 3050SOL     OW10048   4.564   6.113   3.977
 3050SOL    HW110049   4.500   6.189   3.963
 3050SOL    HW210050   4.606   6.122   4.067
 3051SOL     OW10051   2.527   4.598   6.773
 3051SOL    HW110052   2.582   4.679   6.752
 3051SOL    HW210053   2.434   4.612   6.740
 3052SOL     OW10054   4.363   6.931   2.918
 3052SOL    HW110055   4.280   6.986   2.926
 3052SOL    HW210056   4.415   6.962   2.838
 3053SOL     OW10057   5.493   6.458   0.417
 3053SOL    HW110058   5.571   6.414   0.462
 3053SOL    HW210059   5.452   6.394   0.353
 3054SOL     OW10060   1.265   3.490   6.524
 3054SOL    HW110061   1.301   3.582   6.533
 3054SOL    HW210062   1.319   3.439   6.457
 3055SOL     OW10063   5.898   6.806   3.435
 3055SOL    HW110064   5.840   6.851   3.504
 3055SOL    HW210065   5.967   6.750   3.481
 3056SOL     OW10066   6.763   0.790   0.893
 3056SOL    HW110067   6.831   0.857   0.865
 3056SOL    HW210068   6.803   0.728   0.960
 3057SOL     OW10069   5.946   5.267   2.840
 3057SOL    HW110070   5.896   5.196   2.890
 3057SOL    HW210071   5.972   5.340   2.903
 3058SOL     OW10072   6.606   5.316   1.512
 3058SOL    HW110073   6.549   5.397   1.524
 3058SOL    HW210074   6.601   5.259   1.594
 3059SOL     OW10075   1.859   2.357   4.501
 3059SOL    HW110076   1.920   2.428   4.466
 3059SOL    HW210077   1.772   2.360   4.450
 3060SOL     OW10078   6.582   6.664   1.050
 3060SOL    HW110079   6.495   6.618   1.036
 3060SOL    HW210080   6.598   6.676   1.148
 3061SOL     OW10081   0.214   0.315   6.469
 3061SOL    HW110082   0.224   0.225   6.510
 3061SOL    HW210083   0.118   0.344   6.473
 3062SOL     OW10084   3.418   6.685   0.355
 3062SOL    HW110085   3.489   6.618   0.378
 3062SOL    HW210086   3.457   6.754   0.294
 3063SOL     OW10087   1.686   4.468   1.259
 3063SOL    HW110088   1.712   4.468   1.356
 3063SOL    HW210089   1.750   4.525   1.208
 3064SOL     OW10090   6.287   4.014   3.994
 3064SOL    HW110091   6.368   3.994   4.049
 3064SOL    HW210092   6.216   4.055   4.051
 3065SOL     OW10093   1.792   0.979   6.951
 3065SOL    HW110094   1.859   1.049   6.930
 3065SOL    HW210095   1.703   1.021   6.966
 3066SOL     OW10096   5.965   4.770   1.715
 3066SOL    HW110097   6.046   4.711   1.706
 3066SOL    HW210098   5.895   4.723   1.768
 3067SOL     OW10099   5.311   0.047   4.128
 3067SOL    HW110100   5.284   0.010   4.217
 3067SOL    HW210101   5.404   0.015   4.106
 3068SOL     OW10102   6.094   4.949   0.673
 3068SOL    HW110103   6.135   5.037   0.651
 3068SOL    HW210104   6.166   4.879   0.680
 3069SOL     OW10105   0.836   6.190   2.725
 3069SOL    HW110106   0.888   6.212   2.642
 3069SOL    HW210107   0.743   6.225   2.717
 3070SOL     OW10108   4.062   1.361   3.868
 3070SOL    HW110109   4.109   1.449   3.858
 3070SOL    HW210110   4.115   1.289   3.823
 3071SOL     OW10111   5.411   6.911   3.298
 3071SOL    HW110112   5.319   6.947   3.284
 3071SOL    HW210113   5.406   6.827   3.352
 3072SOL     OW10114   0.343   0.124   2.383
 3072SOL    HW110115   0.351   0.129   2.483
 3072SOL    HW210116   0.434   0.126   2.342
 3073SOL     OW10117   0.992   3.456   5.116
 3073SOL    HW110118   1.060   3.513   5.071
 3073SOL    HW210119   0.908   3.455   5.062
 3074SOL     OW10120   4.524   3.058   6.045
 3074SOL    HW110121   4.566   3.100   5.965
 3074SOL    HW210122   4.457   2.991   6.016
 3075SOL     OW10123   1.679   5.755   1.346
 3075SOL    HW110124   1.732   5.719   1.423
 3075SOL    HW210125   1.733   5.746   1.262
 3076SOL     OW10126   0.108   0.344   4.910
 3076SOL    HW110127   0.014   0.310   4.898
 3076SOL    HW210128   0.107   0.432   4.957
 3077SOL     OW10129   5.098   4.689   4.038
 3077SOL    HW110130   5.154   4.637   4.102
 3077SOL    HW210131   5.061   4.770   4.083
 3078SOL     OW10132   1.571   3.566   1.613
 3078SOL    HW110133   1.578   3.550   1.712
 3078SOL    HW210134   1.486   3.614   1.592
 3079SOL     OW10135   6.936   2.327   5.278
 3079SOL    HW110136   6.930   2.418   5.318
 3079SOL    HW210137   7.012   2.276   5.320
 3080SOL     OW10138   6.450   4.993   0.720
 3080SOL    HW110139   6.529   4.946   0.759
 3080SOL    HW210140   6.386   5.017   0.793
 3081SOL     OW10141   0.144   5.380   5.522
 3081SOL    HW110142   0.176   5.436   5.446
 3081SOL    HW210143   0.158   5.430   5.608
 3082SOL     OW10144   3.018   0.183   2.701
 3082SOL    HW110145   3.082   0.170   2.776
 3082SOL    HW210146   3.058   0.245   2.633
 3083SOL     OW10147   3.367   0.569   1.579
 3083SOL    HW110148   3.365   0.537   1.484
 3083SOL    HW210149   3.284   0.538   1.626
 3084SOL     OW10150   5.345   5.992   4.690
 3084SOL    HW110151   5.258   5.944   4.673
 3084SOL    HW210152   5.421   5.927   4.680
 3085SOL     OW10153   0.677   5.399   2.163
 3085SOL    HW110154   0.730   5.427   2.243
 3085SOL    HW210155   0.698   5.304   2.141
 3086SOL     OW10156   4.703   1.457   3.656
 3086SOL    HW110157   4.716   1.464   3.558
 3086SOL    HW210158   4.671   1.365   3.680
 3087SOL     OW10159   6.561   3.688   2.856
 3087SOL    HW110160   6.598   3.638   2.934
 3087SOL    HW210161   6.489   3.750   2.886
 3088SOL     OW10162   2.924   4.829   6.181
 3088SOL    HW110163   2.877   4.802   6.097
 3088SOL    HW210164   3.021   4.839   6.163
 3089SOL     OW10165   1.457   2.832   0.370
 3089SOL    HW110166   1.557   2.831   0.367
 3089SOL    HW210167   1.427   2.900   0.437
 3090SOL     OW10168   1.508   1.620   0.971
 3090SOL    HW110169   1.409   1.613   0.958
 3090SOL    HW210170   1.531   1.711   1.003
 3091SOL     OW10171   3.226   6.902   0.387
 3091SOL    HW110172   3.294   6.966   0.351
 3091SOL    HW210173   3.270   6.815   0.407
 3092SOL     OW10174   5.633   6.795   0.768
 3092SOL    HW110175   5.577   6.713   0.761
 3092SOL    HW210176   5.591   6.858   0.833
 3093SOL     OW10177   5.366   5.527   4.569
 3093SOL    HW110178   5.382   5.506   4.665
 3093SOL    HW210179   5.419   5.463   4.512
 3094SOL     OW10180   2.874   5.660   5.928
 3094SOL    HW110181   2.812   5.584   5.911
 3094SOL    HW210182   2.832   5.745   5.896
 3095SOL     OW10183   2.966   4.854   4.855
 3095SOL    HW110184   2.925   4.779   4.906
 3095SOL    HW210185   3.053   4.879   4.896
 3096SOL     OW10186   1.011   0.938   5.782
 3096SOL    HW110187   0.939   0.888   5.734
 3096SOL    HW210188   1.003   0.923   5.880
 3097SOL     OW10189   1.614   2.893   6.923
 3097SOL    HW110190   1.522   2.856   6.911
 3097SOL    HW210191   1.609   2.986   6.959
 3098SOL     OW10192   2.960   2.576   0.587
 3098SOL    HW110193   3.021   2.644   0.545
 3098SOL    HW210194   3.015   2.503   0.628
 3099SOL     OW10195   0.600   5.656   5.424
 3099SOL    HW110196   0.549   5.579   5.386
 3099SOL    HW210197   0.690   5.625   5.454
 3100SOL     OW10198   6.995   6.866   6.907
 3100SOL    HW110199   6.897   6.852   6.924
 3100SOL    HW210200   7.018   6.962   6.923
 3101SOL     OW10201   4.462   0.042   0.694
 3101SOL    HW110202   4.381   0.093   0.664
 3101SOL    HW210203   4.437   7.003   0.771
 3102SOL     OW10204   1.787   4.200   1.100
 3102SOL    HW110205   1.708   4.177   1.158
 3102SOL    HW210206   1.755   4.247   1.018
 3103SOL     OW10207   3.883   2.935   1.916
 3103SOL    HW110208   3.977   2.905   1.929
 3103SOL    HW210209   3.865   2.950   1.818
 3104SOL     OW10210   6.405   5.959   4.037
 3104SOL    HW110211   6.382   5.885   3.974
 3104SOL    HW210212   6.502   5.980   4.031
 3105SOL     OW10213   5.883   6.601   4.209
 3105SOL    HW110214   5.941   6.591   4.128
 3105SOL    HW210215   5.940   6.622   4.288
 3106SOL     OW10216   6.839   2.342   3.780
 3106SOL    HW110217   6.937   2.324   3.779
 3106SOL    HW210218   6.792   2.275   3.722
 3107SOL     OW10219   2.666   0.730   4.143
 3107SOL    HW110220   2.571   0.741   4.112
 3107SOL    HW210221   2.711   0.658   4.091
 3108SOL     OW10222   3.177   0.898   3.326
 3108SOL    HW110223   3.228   0.832   3.381
 3108SOL    HW210224   3.091   0.857   3.296
 3109SOL     OW10225   4.511   5.320   3.026
 3109SOL    HW110226   4.508   5.399   2.965
 3109SOL    HW210227   4.488   5.349   3.119
 3110SOL     OW10228   0.832   2.919   2.632
 3110SOL    HW110229   0.742   2.875   2.634
 3110SOL    HW210230   0.894   2.867   2.691
 3111SOL     OW10231   7.003   5.168   3.442
 3111SOL    HW110232   0.009   5.265   3.445
 3111SOL    HW210233   0.017   5.122   3.524
 3112SOL     OW10234   4.398   4.199   6.544
 3112SOL    HW110235   4.471   4.160   6.489
 3112SOL    HW210236   4.335   4.127   6.572
 3113SOL     OW10237   2.597   6.341   3.607
 3113SOL    HW110238   2.687   6.301   3.590
 3113SOL    HW210239   2.526   6.276   3.577
 3114SOL     OW10240   6.128   5.272   0.774
 3114SOL    HW110241   6.041   5.237   0.808
 3114SOL    HW210242   6.184   5.302   0.851
 3115SOL     OW10243   2.719   3.736   1.209
 3115SOL    HW110244   2.731   3.833   1.189
 3115SOL    HW210245   2.713   3.685   1.123
 3116SOL     OW10246   6.942   2.418   0.477
 3116SOL    HW110247   6.883   2.353   0.429
 3116SOL    HW210248   0.018   2.393   0.464
 3117SOL     OW10249   3.864   3.547   5.386
 3117SOL    HW110250   3.765   3.539   5.394
 3117SOL    HW210251   3.908   3.462   5.417
 3118SOL     OW10252   6.257   3.753   0.747
 3118SOL    HW110253   6.232   3.844   0.780
 3118SOL    HW210254   6.263   3.690   0.824
 3119SOL     OW10255   2.026   4.197   5.741
 3119SOL    HW110256   1.931   4.216   5.713
 3119SOL    HW210257   2.088   4.225   5.668
 3120SOL     OW10258   3.029   5.457   5.035
 3120SOL    HW110259   3.021   5.535   4.973
 3120SOL    HW210260   3.043   5.374   4.981
 3121SOL     OW10261   6.428   0.003   2.193
 3121SOL    HW110262   6.349   7.001   2.249
 3121SOL    HW210263   6.508   6.971   2.225
 3122SOL     OW10264   3.190   5.725   6.923
 3122SOL    HW110265   3.181   5.626   6.914
 3122SOL    HW210266   3.280   5.748   6.961
 3123SOL     OW10267   3.622   6.425   3.633
 3123SOL    HW110268   3.568   6.396   3.554
 3123SOL    HW210269   3.718   6.400   3.620
 3124SOL     OW10270   4.040   1.081   5.840
 3124SOL    HW110271   4.029   1.157   5.905
 3124SOL    HW210272   4.135   1.078   5.808
 3125SOL     OW10273   0.271   1.583   6.082
 3125SOL    HW110274   0.344   1.557   6.144
 3125SOL    HW210275   0.183   1.555   6.121
 3126SOL     OW10276   4.581   6.254   0.222
 3126SOL    HW110277   4.537   6.178   0.174
 3126SOL    HW210278   4.591   6.232   0.319
 3127SOL     OW10279   0.222   1.668   4.130
 3127SOL    HW110280   0.307   1.721   4.135
 3127SOL    HW210281   0.242   1.572   4.150
 3128SOL     OW10282   1.661   1.216   1.183
 3128SOL    HW110283   1.633   1.174   1.097
 3128SOL    HW210284   1.658   1.315   1.175
 3129SOL     OW10285   0.651   3.308   4.689
 3129SOL    HW110286   0.619   3.271   4.602
 3129SOL    HW210287   0.598   3.269   4.764
 3130SOL     OW10288   1.594   5.394   2.697
 3130SOL    HW110289   1.496   5.375   2.711
 3130SOL    HW210290   1.615   5.485   2.731
 3131SOL     OW10291   6.890   3.277   3.316
 3131SOL    HW110292   6.791   3.288   3.326
 3131SOL    HW210293   6.912   3.179   3.311
 3132SOL     OW10294   5.901   5.829   5.864
 3132SOL    HW110295   5.950   5.878   5.936
 3132SOL    HW210296   5.824   5.780   5.904
 3133SOL     OW10297   2.992   1.852   3.171
 3133SOL    HW110298   3.045   1.937   3.167
 3133SOL    HW210299   3.054   1.774   3.164
 3134SOL     OW10300   4.900   3.203   2.192
 3134SOL    HW110301   4.861   3.191   2.283
 3134SOL    HW210302   4.841   3.161   2.124
 3135SOL     OW10303   3.353   1.905   3.064
 3135SOL    HW110304   3.389   1.865   3.148
 3135SOL    HW210305   3.270   1.957   3.085
 3136SOL     OW10306   5.651   6.028   5.475
 3136SOL    HW110307   5.726   5.964   5.496
 3136SOL    HW210308   5.621   6.013   5.381
 3137SOL     OW10309   5.910   2.205   3.896
 3137SOL    HW110310   5.941   2.250   3.980
 3137SOL    HW210311   5.859   2.122   3.919
 3138SOL     OW10312   5.792   1.151   4.893
 3138SOL    HW110313   5.887   1.122   4.882
 3138SOL    HW210314   5.786   1.217   4.968
 3139SOL     OW10315   5.197   5.901   5.075
 3139SOL    HW110316   5.133   5.962   5.123
 3139SOL    HW210317   5.286   5.945   5.069
 3140SOL     OW10318   6.391   6.062   0.177
 3140SOL    HW110319   6.436   5.974   0.162
 3140SOL    HW210320   6.330   6.082   0.100
 3141SOL     OW10321   1.180   5.216   0.396
 3141SOL    HW110322   1.084   5.220   0.425
 3141SOL    HW210323   1.189   5.149   0.323
 3142SOL     OW10324   4.620   6.199   6.495
 3142SOL    HW110325   4.521   6.190   6.484
 3142SOL    HW210326   4.665   6.188   6.406
 3143SOL     OW10327   6.184   1.283   0.844
 3143SOL    HW110328   6.241   1.276   0.926
 3143SOL    HW210329   6.117   1.356   0.856
 3144SOL     OW10330   1.993   3.044   6.601
 3144SOL    HW110331   1.933   3.118   6.570
 3144SOL    HW210332   1.939   2.974   6.647
 3145SOL     OW10333   3.287   6.191   3.568
 3145SOL    HW110334   3.222   6.267   3.559
 3145SOL    HW210335   3.292   6.141   3.482
 3146SOL     OW10336   1.487   0.559   3.361
 3146SOL    HW110337   1.495   0.460   3.347
 3146SOL    HW210338   1.482   0.606   3.273
 3147SOL     OW10339   4.593   4.126   0.442
 3147SOL    HW110340   4.524   4.100   0.510
 3147SOL    HW210341   4.627   4.044   0.396
 3148SOL     OW10342   3.438   5.279   4.577
 3148SOL    HW110343   3.386   5.232   4.649
 3148SOL    HW210344   3.535   5.267   4.594
 3149SOL     OW10345   3.713   6.773   5.643
 3149SOL    HW110346   3.792   6.834   5.641
 3149SOL    HW210347   3.714   6.713   5.563
 3150SOL     OW10348   6.085   0.271   4.730
 3150SOL    HW110349   6.021   0.195   4.723
 3150SOL    HW210350   6.161   0.257   4.667
 3151SOL     OW10351   4.381   1.336   5.927
 3151SOL    HW110352   4.333   1.249   5.918
 3151SOL    HW210353   4.315   1.411   5.924
 3152SOL     OW10354   1.642   5.702   0.931
 3152SOL    HW110355   1.566   5.687   0.995
 3152SOL    HW210356   1.617   5.773   0.865
 3153SOL     OW10357   6.983   4.029   2.210
 3153SOL    HW110358   6.977   4.116   2.161
 3153SOL    HW210359   7.009   4.046   2.305
 3154SOL     OW10360   6.070   2.597   6.459
 3154SOL    HW110361   6.037   2.638   6.375
 3154SOL    HW210362   5.996   2.542   6.500
 3155SOL     OW10363   5.531   5.751   0.826
 3155SOL    HW110364   5.479   5.742   0.911
 3155SOL    HW210365   5.518   5.842   0.788
 3156SOL     OW10366   3.515   3.569   3.884
 3156SOL    HW110367   3.600   3.590   3.836
 3156SOL    HW210368   3.468   3.654   3.907
 3157SOL     OW10369   1.983   3.676   4.451
 3157SOL    HW110370   1.948   3.598   4.504
 3157SOL    HW210371   1.911   3.745   4.443
 3158SOL     OW10372   4.736   6.355   0.444
 3158SOL    HW110373   4.711   6.271   0.491
 3158SOL    HW210374   4.661   6.420   0.450
 3159SOL     OW10375   5.477   4.766   0.801
 3159SOL    HW110376   5.571   4.773   0.833
 3159SOL    HW210377   5.431   4.691   0.849
 3160SOL     OW10378   5.715   3.937   0.066
 3160SOL    HW110379   5.762   4.004   0.125
 3160SOL    HW210380   5.763   3.931   6.998
 3161SOL     OW10381   0.719   2.204   2.790
 3161SOL    HW110382   0.641   2.220   2.849
 3161SOL    HW210383   0.688   2.184   2.697
 3162SOL     OW10384   0.197   6.264   6.207
 3162SOL    HW110385   0.125   6.197   6.227
 3162SOL    HW210386   0.238   6.244   6.118
 3163SOL     OW10387   2.682   4.046   5.977
 3163SOL    HW110388   2.697   4.116   6.046
 3163SOL    HW210389   2.757   3.980   5.980
 3164SOL     OW10390   5.541   5.581   6.795
 3164SOL    HW110391   5.546   5.593   6.894
 3164SOL    HW210392   5.490   5.498   6.774
 3165SOL     OW10393   6.954   1.823   1.442
 3165SOL    HW110394   7.007   1.831   1.358
 3165SOL    HW210395   6.903   1.907   1.458
 3166SOL     OW10396   5.067   2.791   6.202
 3166SOL    HW110397   5.123   2.807   6.283
 3166SOL    HW210398   4.975   2.825   6.218
 3167SOL     OW10399   1.123   4.697   2.184
 3167SOL    HW110400   1.048   4.711   2.248
 3167SOL    HW210401   1.146   4.784   2.140
 3168SOL     OW10402   5.549   3.516   0.982
 3168SOL    HW110403   5.538   3.613   1.003
 3168SOL    HW210404   5.536   3.501   0.884
 3169SOL     OW10405   1.657   2.027   5.630
 3169SOL    HW110406   1.712   1.951   5.665
 3169SOL    HW210407   1.606   2.068   5.706
 3170SOL     OW10408   4.278   0.631   6.569
 3170SOL    HW110409   4.210   0.704   6.579
 3170SOL    HW210410   4.310   0.628   6.475
 3171SOL     OW10411   6.083   6.869   3.258
 3171SOL    HW110412   6.080   6.841   3.161
 3171SOL    HW210413   5.999   6.837   3.303
 3172SOL     OW10414   6.293   6.824   5.344
 3172SOL    HW110415   6.260   6.902   5.291
 3172SOL    HW210416   6.230   6.807   5.419
 3173SOL     OW10417   2.018   0.954   1.504
 3173SOL    HW110418   2.038   0.949   1.602
 3173SOL    HW210419   2.044   1.044   1.470
 3174SOL     OW10420   2.075   3.287   6.067
 3174SOL    HW110421   2.065   3.387   6.067
 3174SOL    HW210422   2.106   3.257   5.977
 3175SOL     OW10423   0.713   6.873   0.888
 3175SOL    HW110424   0.808   6.841   0.884
 3175SOL    HW210425   0.711   6.973   0.879
 3176SOL     OW10426   0.407   5.383   6.768
 3176SOL    HW110427   0.497   5.376   6.811
 3176SOL    HW210428   0.337   5.351   6.832
 3177SOL     OW10429   6.617   6.977   5.735
 3177SOL    HW110430   6.531   0.002   5.710
 3177SOL    HW210431   6.602   6.880   5.748
 3178SOL     OW10432   1.277   3.269   1.557
 3178SOL    HW110433   1.321   3.244   1.643
 3178SOL    HW210434   1.235   3.359   1.566
 3179SOL     OW10435   2.172   1.702   2.594
 3179SOL    HW110436   2.113   1.686   2.673
 3179SOL    HW210437   2.233   1.623   2.581
 3180SOL     OW10438   6.149   0.937   6.133
 3180SOL    HW110439   6.135   1.025   6.088
 3180SOL    HW210440   6.137   0.863   6.068
 3181SOL     OW10441   0.355   1.375   3.093
 3181SOL    HW110442   0.427   1.312   3.064
 3181SOL    HW210443   0.394   1.466   3.108
 3182SOL     OW10444   1.718   4.669   5.356
 3182SOL    HW110445   1.769   4.595   5.313
 3182SOL    HW210446   1.627   4.676   5.314
 3183SOL     OW10447   4.058   3.182   1.506
 3183SOL    HW110448   4.150   3.220   1.495
 3183SOL    HW210449   3.995   3.229   1.444
 3184SOL     OW10450   2.454   1.205   2.574
 3184SOL    HW110451   2.475   1.124   2.519
 3184SOL    HW210452   2.378   1.254   2.533
 3185SOL     OW10453   0.142   6.077   5.886
 3185SOL    HW110454   0.218   6.012   5.892
 3185SOL    HW210455   0.176   6.170   5.897
 3186SOL     OW10456   3.322   0.851   1.688
 3186SOL    HW110457   3.225   0.861   1.667
 3186SOL    HW210458   3.353   0.760   1.659
 3187SOL     OW10459   2.982   3.828   0.221
 3187SOL    HW110460   2.923   3.779   0.285
 3187SOL    HW210461   3.075   3.833   0.259
 3188SOL     OW10462   4.278   6.252   3.348
 3188SOL    HW110463   4.320   6.343   3.352
 3188SOL    HW210464   4.330   6.194   3.284
 3189SOL     OW10465   1.232   6.871   2.096
 3189SOL    HW110466   1.320   6.842   2.057
 3189SOL    HW210467   1.248   6.945   2.162
 3190SOL     OW10468   0.501   6.478   1.991
 3190SOL    HW110469   0.431   6.408   2.008
 3190SOL    HW210470   0.497   6.548   2.063
 3191SOL     OW10471   3.741   0.702   0.936
 3191SOL    HW110472   3.666   0.721   0.999
 3191SOL    HW210473   3.744   0.772   0.865
 3192SOL     OW10474   6.757   2.920   3.569
 3192SOL    HW110475   6.836   2.937   3.511
 3192SOL    HW210476   6.763   2.828   3.608
 3193SOL     OW10477   4.783   3.433   6.901
 3193SOL    HW110478   4.734   3.408   6.985
 3193SOL    HW210479   4.808   3.530   6.905
 3194SOL     OW10480   0.657   3.698   5.636
 3194SOL    HW110481   0.638   3.621   5.696
 3194SOL    HW210482   0.701   3.771   5.688
 3195SOL     OW10483   0.385   3.603   3.442
 3195SOL    HW110484   0.333   3.689   3.440
 3195SOL    HW210485   0.480   3.622   3.466
 3196SOL     OW10486   0.405   0.130   5.652
 3196SOL    HW110487   0.319   0.140   5.602
 3196SOL    HW210488   0.439   0.037   5.642
 3197SOL     OW10489   1.329   3.948   4.147
 3197SOL    HW110490   1.309   4.007   4.069
 3197SOL    HW210491   1.396   3.994   4.206
 3198SOL     OW10492   6.858   1.260   0.206
 3198SOL    HW110493   6.912   1.340   0.232
 3198SOL    HW210494   6.904   1.177   0.237
 3199SOL     OW10495   3.910   2.178   2.733
 3199SOL    HW110496   3.899   2.098   2.793
 3199SOL    HW210497   3.986   2.233   2.765
 3200SOL     OW10498   0.091   2.169   1.110
 3200SOL    HW110499   0.048   2.084   1.138
 3200SOL    HW210500   0.189   2.156   1.100
 3201SOL     OW10501   4.911   4.515   2.891
 3201SOL    HW110502   4.842   4.443   2.897
 3201SOL    HW210503   4.893   4.571   2.810
 3202SOL     OW10504   2.331   5.739   1.695
 3202SOL    HW110505   2.309   5.722   1.599
 3202SOL    HW210506   2.378   5.827   1.703
 3203SOL     OW10507   6.393   0.276   1.821
 3203SOL    HW110508   6.490   0.276   1.797
 3203SOL    HW210509   6.340   0.313   1.744
 3204SOL     OW10510   5.913   5.682   1.653
 3204SOL    HW110511   5.865   5.600   1.685
 3204SOL    HW210512   5.949   5.666   1.561
 3205SOL     OW10513   1.373   3.906   3.208
 3205SOL    HW110514   1.470   3.929   3.199
 3205SOL    HW210515   1.362   3.807   3.215
 3206SOL     OW10516   1.646   0.055   0.348
 3206SOL    HW110517   1.711   7.011   0.308
 3206SOL    HW210518   1.586   0.091   0.277
 3207SOL     OW10519   0.436   0.713   4.133
 3207SOL    HW110520   0.515   0.666   4.173
 3207SOL    HW210521   0.411   0.791   4.190
 3208SOL     OW10522   6.030   0.367   5.096
 3208SOL    HW110523   6.033   0.465   5.117
 3208SOL    HW210524   5.980   0.353   5.010
 3209SOL     OW10525   2.043   0.741   3.299
 3209SOL    HW110526   2.120   0.747   3.362
 3209SOL    HW210527   1.969   0.689   3.342
 3210SOL     OW10528   0.082   5.005   2.875
 3210SOL    HW110529   0.101   4.922   2.822
 3210SOL    HW210530   0.159   5.024   2.936
 3211SOL     OW10531   1.371   4.073   1.990
 3211SOL    HW110532   1.321   3.994   1.955
 3211SOL    HW210533   1.362   4.076   2.090
 3212SOL     OW10534   4.740   2.579   6.063
 3212SOL    HW110535   4.776   2.642   5.994
 3212SOL    HW210536   4.647   2.607   6.088
 3213SOL     OW10537   5.593   6.008   1.848
 3213SOL    HW110538   5.599   6.105   1.823
 3213SOL    HW210539   5.680   5.979   1.888
 3214SOL     OW10540   3.999   4.816   6.286
 3214SOL    HW110541   4.089   4.850   6.260
 3214SOL    HW210542   3.991   4.815   6.385
 3215SOL     OW10543   6.261   1.044   0.235
 3215SOL    HW110544   6.245   1.141   0.254
 3215SOL    HW210545   6.286   1.032   0.139
 3216SOL     OW10546   5.954   6.596   4.481
 3216SOL    HW110547   5.995   6.583   4.571
 3216SOL    HW210548   5.855   6.587   4.487
 3217SOL     OW10549   6.850   3.952   1.394
 3217SOL    HW110550   6.855   3.871   1.336
 3217SOL    HW210551   6.818   3.926   1.485
 3218SOL     OW10552   2.971   0.695   2.317
 3218SOL    HW110553   2.993   0.792   2.305
 3218SOL    HW210554   3.039   0.640   2.268
 3219SOL     OW10555   6.746   0.046   4.105
 3219SOL    HW110556   6.790   0.131   4.077
 3219SOL    HW210557   6.778   0.020   4.196
 3220SOL     OW10558   6.204   3.217   5.576
 3220SOL    HW110559   6.164   3.162   5.650
 3220SOL    HW210560   6.132   3.271   5.533
 3221SOL     OW10561   4.065   0.251   2.462
 3221SOL    HW110562   4.128   0.203   2.523
 3221SOL    HW210563   3.972   0.214   2.475
 3222SOL     OW10564   5.825   3.532   3.300
 3222SOL    HW110565   5.878   3.561   3.220
 3222SOL    HW210566   5.888   3.503   3.372
 3223SOL     OW10567   2.480   4.877   5.131
 3223SOL    HW110568   2.579   4.872   5.144
 3223SOL    HW210569   2.459   4.892   5.034
 3224SOL     OW10570   4.022   5.771   0.683
 3224SOL    HW110571   4.061   5.772   0.776
 3224SOL    HW210572   3.937   5.823   0.682
 3225SOL     OW10573   2.197   2.691   1.066
 3225SOL    HW110574   2.177   2.717   0.971
 3225SOL    HW210575   2.123   2.634   1.101
 3226SOL     OW10576   0.716   0.349   4.239
 3226SOL    HW110577   0.657   0.388   4.168
 3226SOL    HW210578   0.811   0.349   4.206
 3227SOL     OW10579   2.916   0.888   5.324
 3227SOL    HW110580   2.831   0.888   5.377
 3227SOL    HW210581   2.913   0.963   5.257
 3228SOL     OW10582   4.818   3.171   5.172
 3228SOL    HW110583   4.840   3.230   5.250
 3228SOL    HW210584   4.791   3.081   5.205
 3229SOL     OW10585   3.936   2.118   5.025
 3229SOL    HW110586   3.967   2.024   5.036
 3229SOL    HW210587   4.003   2.171   4.974
 3230SOL     OW10588   0.960   0.675   3.445
 3230SOL    HW110589   0.984   0.578   3.453
 3230SOL    HW210590   1.016   0.718   3.374
 3231SOL     OW10591   5.495   5.194   0.841
 3231SOL    HW110592   5.571   5.248   0.878
 3231SOL    HW210593   5.511   5.176   0.744
 3232SOL     OW10594   2.109   4.414   3.718
 3232SOL    HW110595   2.202   4.377   3.731
 3232SOL    HW210596   2.056   4.349   3.662
 3233SOL     OW10597   0.940   4.286   1.165
 3233SOL    HW110598   1.005   4.344   1.213
 3233SOL    HW210599   0.909   4.332   1.082
 3234SOL     OW10600   6.307   1.559   4.519
 3234SOL    HW110601   6.300   1.595   4.612
 3234SOL    HW210602   6.378   1.488   4.516
 3235SOL     OW10603   5.528   0.518   2.902
 3235SOL    HW110604   5.557   0.512   2.998
 3235SOL    HW210605   5.518   0.614   2.876
 3236SOL     OW10606   0.457   3.037   2.310
 3236SOL    HW110607   0.390   3.087   2.255
 3236SOL    HW210608   0.436   3.051   2.407
 3237SOL     OW10609   3.209   6.598   4.143
 3237SOL    HW110610   3.208   6.560   4.051
 3237SOL    HW210611   3.302   6.626   4.166
 3238SOL     OW10612   6.234   6.845   6.979
 3238SOL    HW110613   6.216   6.885   6.889
 3238SOL    HW210614   6.170   6.883   0.026
 3239SOL     OW10615   0.197   6.336   5.905
 3239SOL    HW110616   0.225   6.342   5.809
 3239SOL    HW210617   0.276   6.357   5.963
 3240SOL     OW10618   0.848   0.842   4.643
 3240SOL    HW110619   0.897   0.769   4.595
 3240SOL    HW210620   0.771   0.803   4.693
 3241SOL     OW10621   4.624   1.415   5.011
 3241SOL    HW110622   4.586   1.490   5.065
 3241SOL    HW210623   4.558   1.389   4.940
 3242SOL     OW10624   2.876   6.296   0.499
 3242SOL    HW110625   2.855   6.358   0.424
 3242SOL    HW210626   2.876   6.348   0.585
 3243SOL     OW10627   3.100   5.918   0.261
 3243SOL    HW110628   3.109   5.822   0.233
 3243SOL    HW210629   3.024   5.960   0.211
 3244SOL     OW10630   2.466   5.978   5.969
 3244SOL    HW110631   2.436   5.940   5.881
 3244SOL    HW210632   2.566   5.978   5.972
 3245SOL     OW10633   3.211   1.880   6.227
 3245SOL    HW110634   3.182   1.918   6.315
 3245SOL    HW210635   3.211   1.953   6.158
 3246SOL     OW10636   5.065   6.670   3.929
 3246SOL    HW110637   5.114   6.721   3.858
 3246SOL    HW210638   4.971   6.703   3.935
 3247SOL     OW10639   6.901   1.670   4.687
 3247SOL    HW110640   6.971   1.612   4.645
 3247SOL    HW210641   6.827   1.613   4.722
 3248SOL     OW10642   6.068   3.986   2.387
 3248SOL    HW110643   6.067   4.081   2.418
 3248SOL    HW210644   6.080   3.983   2.288
 3249SOL     OW10645   2.851   4.308   5.334
 3249SOL    HW110646   2.858   4.392   5.280
 3249SOL    HW210647   2.755   4.287   5.350
 3250SOL     OW10648   4.009   6.219   1.899
 3250SOL    HW110649   4.074   6.184   1.831
 3250SOL    HW210650   3.991   6.148   1.967
 3251SOL     OW10651   3.199   1.145   3.390
 3251SOL    HW110652   3.183   1.049   3.367
 3251SOL    HW210653   3.295   1.168   3.374
 3252SOL     OW10654   2.953   2.215   3.289
 3252SOL    HW110655   2.876   2.233   3.229
 3252SOL    HW210656   2.924   2.223   3.385
 3253SOL     OW10657   4.410   3.730   0.900
 3253SOL    HW110658   4.443   3.688   0.816
 3253SOL    HW210659   4.326   3.685   0.929
 3254SOL     OW10660   4.919   5.199   2.310
 3254SOL    HW110661   4.836   5.215   2.257
 3254SOL    HW210662   4.897   5.145   2.391
 3255SOL     OW10663   4.270   4.875   0.726
 3255SOL    HW110664   4.213   4.803   0.685
 3255SOL    HW210665   4.366   4.849   0.716
 3256SOL     OW10666   6.305   6.439   5.970
 3256SOL    HW110667   6.365   6.426   5.890
 3256SOL    HW210668   6.222   6.384   5.958
 3257SOL     OW10669   2.441   2.042   0.844
 3257SOL    HW110670   2.432   1.942   0.839
 3257SOL    HW210671   2.538   2.066   0.853
 3258SOL     OW10672   5.919   6.892   1.955
 3258SOL    HW110673   5.836   6.908   1.903
 3258SOL    HW210674   5.992   6.864   1.892
 3259SOL     OW10675   5.960   6.385   3.077
 3259SOL    HW110676   5.981   6.459   3.013
 3259SOL    HW210677   6.001   6.407   3.166
 3260SOL     OW10678   1.406   3.221   0.299
 3260SOL    HW110679   1.398   3.136   0.247
 3260SOL    HW210680   1.381   3.298   0.240
 3261SOL     OW10681   4.821   0.498   3.533
 3261SOL    HW110682   4.790   0.591   3.549
 3261SOL    HW210683   4.766   0.456   3.461
 3262SOL     OW10684   3.859   1.460   4.013
 3262SOL    HW110685   3.922   1.430   3.941
 3262SOL    HW210686   3.891   1.427   4.101
 3263SOL     OW10687   3.486   5.528   2.450
 3263SOL    HW110688   3.405   5.580   2.479
 3263SOL    HW210689   3.517   5.562   2.361
 3264SOL     OW10690   4.776   4.454   6.204
 3264SOL    HW110691   4.690   4.492   6.238
 3264SOL    HW210692   4.772   4.448   6.104
 3265SOL     OW10693   4.602   0.866   6.160
 3265SOL    HW110694   4.626   0.776   6.124
 3265SOL    HW210695   4.518   0.860   6.213
 3266SOL     OW10696   0.372   1.636   6.789
 3266SOL    HW110697   0.420   1.598   6.868
 3266SOL    HW210698   0.402   1.590   6.706
 3267SOL     OW10699   4.660   2.476   1.357
 3267SOL    HW110700   4.709   2.445   1.439
 3267SOL    HW210701   4.717   2.541   1.307
 3268SOL     OW10702   1.166   4.661   6.498
 3268SOL    HW110703   1.213   4.597   6.437
 3268SOL    HW210704   1.068   4.657   6.482
 3269SOL     OW10705   4.834   3.439   0.691
 3269SOL    HW110706   4.848   3.457   0.789
 3269SOL    HW210707   4.820   3.526   0.643
 3270SOL     OW10708   0.147   5.561   4.357
 3270SOL    HW110709   0.182   5.654   4.341
 3270SOL    HW210710   0.050   5.566   4.378
 3271SOL     OW10711   5.453   1.467   1.596
 3271SOL    HW110712   5.410   1.550   1.560
 3271SOL    HW210713   5.549   1.465   1.570
 3272SOL     OW10714   4.917   6.745   0.445
 3272SOL    HW110715   4.899   6.653   0.410
 3272SOL    HW210716   4.979   6.792   0.382
 3273SOL     OW10717   0.032   0.010   3.065
 3273SOL    HW110718   0.008   0.055   3.151
 3273SOL    HW210719   0.079   6.944   3.084
 3274SOL     OW10720   3.843   1.793   6.393
 3274SOL    HW110721   3.817   1.771   6.487
 3274SOL    HW210722   3.761   1.795   6.335
 3275SOL     OW10723   4.008   0.721   0.227
 3275SOL    HW110724   4.036   0.810   0.191
 3275SOL    HW210725   4.028   0.650   0.159
 3276SOL     OW10726   2.691   6.583   0.297
 3276SOL    HW110727   2.790   6.596   0.309
 3276SOL    HW210728   2.645   6.594   0.385
 3277SOL     OW10729   6.929   6.382   5.628
 3277SOL    HW110730   6.942   6.423   5.538
 3277SOL    HW210731   6.879   6.296   5.619
 3278SOL     OW10732   1.405   1.169   0.645
 3278SOL    HW110733   1.341   1.183   0.570
 3278SOL    HW210734   1.467   1.247   0.651
 3279SOL     OW10735   1.962   6.806   1.253
 3279SOL    HW110736   2.017   6.859   1.188
 3279SOL    HW210737   1.895   6.752   1.203
 3280SOL     OW10738   2.019   5.670   5.008
 3280SOL    HW110739   1.959   5.608   5.058
 3280SOL    HW210740   2.007   5.655   4.909
 3281SOL     OW10741   2.419   6.183   0.436
 3281SOL    HW110742   2.406   6.279   0.458
 3281SOL    HW210743   2.498   6.147   0.487
 3282SOL     OW10744   2.051   6.170   2.265
 3282SOL    HW110745   1.970   6.126   2.226
 3282SOL    HW210746   2.029   6.264   2.291
 3283SOL     OW10747   1.996   0.442   4.051
 3283SOL    HW110748   1.907   0.410   4.020
 3283SOL    HW210749   2.051   0.471   3.972
 3284SOL     OW10750   0.743   3.919   5.765
 3284SOL    HW110751   0.700   3.869   5.840
 3284SOL    HW210752   0.681   3.990   5.733
 3285SOL     OW10753   6.786   2.235   4.763
 3285SOL    HW110754   6.790   2.140   4.732
 3285SOL    HW210755   6.799   2.238   4.862
 3286SOL     OW10756   3.607   4.767   5.595
 3286SOL    HW110757   3.539   4.794   5.664
 3286SOL    HW210758   3.674   4.841   5.584
 3287SOL     OW10759   0.196   4.945   1.837
 3287SOL    HW110760   0.188   4.978   1.743
 3287SOL    HW210761   0.139   5.000   1.898
 3288SOL     OW10762   1.863   6.467   6.992
 3288SOL    HW110763   1.853   6.566   6.998
 3288SOL    HW210764   1.946   6.439   0.020
 3289SOL     OW10765   0.992   5.496   4.497
 3289SOL    HW110766   1.008   5.424   4.429
 3289SOL    HW210767   1.049   5.575   4.475
 3290SOL     OW10768   6.721   5.667   2.471
 3290SOL    HW110769   6.766   5.600   2.412
 3290SOL    HW210770   6.674   5.620   2.545
 3291SOL     OW10771   2.293   6.888   1.883
 3291SOL    HW110772   2.300   6.918   1.979
 3291SOL    HW210773   2.296   6.969   1.824
 3292SOL     OW10774   0.477   5.428   5.330
 3292SOL    HW110775   0.489   5.369   5.410
 3292SOL    HW210776   0.527   5.388   5.253
 3293SOL     OW10777   6.329   0.645   2.761
 3293SOL    HW110778   6.232   0.629   2.740
 3293SOL    HW210779   6.385   0.616   2.684
 3294SOL     OW10780   0.918   0.219   0.424
 3294SOL    HW110781   0.894   0.225   0.327
 3294SOL    HW210782   0.958   0.129   0.443
 3295SOL     OW10783   1.708   2.268   6.402
 3295SOL    HW110784   1.608   2.273   6.405
 3295SOL    HW210785   1.746   2.356   6.430
 3296SOL     OW10786   0.825   6.650   1.704
 3296SOL    HW110787   0.822   6.720   1.632
 3296SOL    HW210788   0.781   6.686   1.787
 3297SOL     OW10789   3.068   1.510   5.851
 3297SOL    HW110790   3.121   1.549   5.775
 3297SOL    HW210791   3.076   1.569   5.931
 3298SOL     OW10792   6.072   3.510   3.487
 3298SOL    HW110793   6.128   3.450   3.545
 3298SOL    HW210794   6.101   3.605   3.500
 3299SOL     OW10795   0.875   0.796   5.016
 3299SOL    HW110796   0.827   0.726   5.069
 3299SOL    HW210797   0.970   0.800   5.045
 3300SOL     OW10798   6.870   0.274   4.939
 3300SOL    HW110799   6.834   0.184   4.964
 3300SOL    HW210800   6.795   0.332   4.907
 3301SOL     OW10801   0.237   4.028   2.836
 3301SOL    HW110802   0.198   3.946   2.793
 3301SOL    HW210803   0.315   4.059   2.782
 3302SOL     OW10804   1.123   5.064   4.349
 3302SOL    HW110805   1.214   5.087   4.315
 3302SOL    HW210806   1.110   5.105   4.439
 3303SOL     OW10807   3.142   4.033   3.712
 3303SOL    HW110808   3.063   3.975   3.694
 3303SOL    HW210809   3.162   4.033   3.810
 3304SOL     OW10810   1.340   0.480   3.058
 3304SOL    HW110811   1.286   0.464   3.140
 3304SOL    HW210812   1.343   0.396   3.003
 3305SOL     OW10813   1.155   1.752   1.405
 3305SOL    HW110814   1.224   1.813   1.366
 3305SOL    HW210815   1.064   1.783   1.379
 3306SOL     OW10816   0.465   3.380   2.500
 3306SOL    HW110817   0.503   3.381   2.593
 3306SOL    HW210818   0.537   3.398   2.434
 3307SOL     OW10819   0.764   6.437   0.899
 3307SOL    HW110820   0.714   6.482   0.974
 3307SOL    HW210821   0.703   6.424   0.822
 3308SOL     OW10822   5.434   6.460   0.977
 3308SOL    HW110823   5.423   6.515   0.895
 3308SOL    HW210824   5.462   6.367   0.952
 3309SOL     OW10825   1.374   5.795   2.278
 3309SOL    HW110826   1.378   5.700   2.309
 3309SOL    HW210827   1.428   5.805   2.195
 3310SOL     OW10828   1.043   6.679   1.976
 3310SOL    HW110829   1.095   6.764   1.979
 3310SOL    HW210830   0.963   6.687   2.035
 3311SOL     OW10831   3.744   6.564   1.096
 3311SOL    HW110832   3.802   6.642   1.074
 3311SOL    HW210833   3.690   6.539   1.016
 3312SOL     OW10834   2.009   3.390   6.589
 3312SOL    HW110835   2.076   3.373   6.662
 3312SOL    HW210836   1.927   3.335   6.606
 3313SOL     OW10837   6.715   6.064   5.373
 3313SOL    HW110838   6.676   6.144   5.328
 3313SOL    HW210839   6.646   5.991   5.376
 3314SOL     OW10840   0.438   3.360   6.610
 3314SOL    HW110841   0.397   3.437   6.659
 3314SOL    HW210842   0.491   3.304   6.674
 3315SOL     OW10843   6.600   3.495   3.291
 3315SOL    HW110844   6.661   3.502   3.212
 3315SOL    HW210845   6.598   3.401   3.323
 3316SOL     OW10846   4.586   1.079   0.760
 3316SOL    HW110847   4.609   1.006   0.695
 3316SOL    HW210848   4.604   1.168   0.717
 3317SOL     OW10849   4.656   2.283   1.651
 3317SOL    HW110850   4.623   2.321   1.738
 3317SOL    HW210851   4.581   2.232   1.608
 3318SOL     OW10852   2.207   5.212   4.932
 3318SOL    HW110853   2.113   5.225   4.964
 3318SOL    HW210854   2.270   5.223   5.009
 3319SOL     OW10855   6.648   6.327   5.844
 3319SOL    HW110856   6.589   6.339   5.923
 3319SOL    HW210857   6.742   6.311   5.874
 3320SOL     OW10858   0.694   1.838   5.687
 3320SOL    HW110859   0.631   1.761   5.683
 3320SOL    HW210860   0.710   1.874   5.595
 3321SOL     OW10861   3.635   3.734   4.145
 3321SOL    HW110862   3.730   3.716   4.116
 3321SOL    HW210863   3.599   3.653   4.192
 3322SOL     OW10864   4.780   2.675   1.185
 3322SOL    HW110865   4.741   2.758   1.225
 3322SOL    HW210866   4.853   2.700   1.121
 3323SOL     OW10867   2.752   4.840   6.867
 3323SOL    HW110868   2.668   4.894   6.872
 3323SOL    HW210869   2.765   4.807   6.774
 3324SOL     OW10870   0.075   3.124   0.854
 3324SOL    HW110871   0.064   3.220   0.829
 3324SOL    HW210872   0.016   3.102   0.931
 3325SOL     OW10873   1.620   3.239   0.017
 3325SOL    HW110874   1.529   3.275   7.018
 3325SOL    HW210875   1.683   3.266   6.964
 3326SOL     OW10876   6.681   0.952   1.738
 3326SOL    HW110877   6.710   0.943   1.643
 3326SOL    HW210878   6.584   0.928   1.746
 3327SOL     OW10879   3.256   6.411   1.897
 3327SOL    HW110880   3.218   6.346   1.831
 3327SOL    HW210881   3.196   6.490   1.905
 3328SOL     OW10882   4.628   0.748   3.545
 3328SOL    HW110883   4.620   0.789   3.454
 3328SOL    HW210884   4.573   0.664   3.548
 3329SOL     OW10885   5.675   0.594   5.530
 3329SOL    HW110886   5.732   0.649   5.469
 3329SOL    HW210887   5.663   0.503   5.491
 3330SOL     OW10888   6.374   5.641   3.430
 3330SOL    HW110889   6.471   5.665   3.426
 3330SOL    HW210890   6.318   5.724   3.421
 3331SOL     OW10891   1.652   3.376   2.817
 3331SOL    HW110892   1.555   3.400   2.815
 3331SOL    HW210893   1.692   3.394   2.727
 3332SOL     OW10894   3.660   4.794   0.569
 3332SOL    HW110895   3.576   4.826   0.613
 3332SOL    HW210896   3.735   4.799   0.635
 3333SOL     OW10897   2.390   3.309   1.662
 3333SOL    HW110898   2.393   3.393   1.716
 3333SOL    HW210899   2.482   3.273   1.650
 3334SOL     OW10900   2.295   2.171   1.957
 3334SOL    HW110901   2.298   2.189   2.055
 3334SOL    HW210902   2.383   2.134   1.926
 3335SOL     OW10903   3.649   4.106   5.191
 3335SOL    HW110904   3.566   4.058   5.219
 3335SOL    HW210905   3.664   4.091   5.093
 3336SOL     OW10906   4.484   5.745   4.978
 3336SOL    HW110907   4.497   5.796   5.063
 3336SOL    HW210908   4.573   5.710   4.946
 3337SOL     OW10909   3.081   2.977   2.205
 3337SOL    HW110910   3.027   3.045   2.155
 3337SOL    HW210911   3.028   2.945   2.285
 3338SOL     OW10912   2.709   2.932   1.458
 3338SOL    HW110913   2.740   3.023   1.428
 3338SOL    HW210914   2.725   2.923   1.556
 3339SOL     OW10915   1.591   0.351   6.764
 3339SOL    HW110916   1.556   0.258   6.752
 3339SOL    HW210917   1.677   0.348   6.815
 3340SOL     OW10918   3.953   1.166   4.696
 3340SOL    HW110919   3.856   1.156   4.718
 3340SOL    HW210920   3.968   1.252   4.647
 3341SOL     OW10921   1.221   4.241   2.467
 3341SOL    HW110922   1.303   4.293   2.442
 3341SOL    HW210923   1.155   4.302   2.511
 3342SOL     OW10924   6.198   0.880   2.508
 3342SOL    HW110925   6.248   0.815   2.451
 3342SOL    HW210926   6.258   0.912   2.581
 3343SOL     OW10927   4.516   5.479   0.487
 3343SOL    HW110928   4.461   5.409   0.441
 3343SOL    HW210929   4.517   5.563   0.433
 3344SOL     OW10930   0.338   3.261   2.206
 3344SOL    HW110931   0.351   3.321   2.127
 3344SOL    HW210932   0.383   3.301   2.285
 3345SOL     OW10933   5.727   5.420   0.525
 3345SOL    HW110934   5.756   5.442   0.618
 3345SOL    HW210935   5.632   5.447   0.512
 3346SOL     OW10936   2.007   0.636   6.901
 3346SOL    HW110937   2.029   0.703   6.972
 3346SOL    HW210938   1.908   0.632   6.889
 3347SOL     OW10939   0.279   3.397   5.472
 3347SOL    HW110940   0.287   3.489   5.433
 3347SOL    HW210941   0.317   3.331   5.407
 3348SOL     OW10942   3.597   4.294   6.022
 3348SOL    HW110943   3.618   4.339   6.108
 3348SOL    HW210944   3.675   4.239   5.992
 3349SOL     OW10945   2.051   6.042   2.650
 3349SOL    HW110946   2.074   5.980   2.726
 3349SOL    HW210947   2.080   6.002   2.564
 3350SOL     OW10948   1.959   4.776   4.300
 3350SOL    HW110949   1.909   4.724   4.230
 3350SOL    HW210950   1.908   4.772   4.386
 3351SOL     OW10951   5.395   0.959   1.676
 3351SOL    HW110952   5.464   0.982   1.745
 3351SOL    HW210953   5.304   0.977   1.712
 3352SOL     OW10954   5.744   1.655   0.078
 3352SOL    HW110955   5.678   1.594   0.036
 3352SOL    HW210956   5.828   1.605   0.098
 3353SOL     OW10957   3.923   0.102   6.970
 3353SOL    HW110958   3.857   0.027   6.975
 3353SOL    HW210959   3.935   0.129   6.874
 3354SOL     OW10960   3.095   3.950   6.468
 3354SOL    HW110961   3.174   3.999   6.431
 3354SOL    HW210962   3.030   3.931   6.395
 3355SOL     OW10963   1.361   0.047   5.284
 3355SOL    HW110964   1.282   0.104   5.264
 3355SOL    HW210965   1.445   0.097   5.260
 3356SOL     OW10966   1.867   0.470   6.569
 3356SOL    HW110967   1.778   0.476   6.614
 3356SOL    HW210968   1.860   0.412   6.488
 3357SOL     OW10969   3.261   2.974   2.544
 3357SOL    HW110970   3.246   3.072   2.559
 3357SOL    HW210971   3.289   2.959   2.449
 3358SOL     OW10972   6.850   1.082   1.922
 3358SOL    HW110973   6.777   1.062   1.857
 3358SOL    HW210974   6.935   1.039   1.891
 3359SOL     OW10975   0.879   6.483   4.873
 3359SOL    HW110976   0.929   6.410   4.826
 3359SOL    HW210977   0.944   6.548   4.912
 3360SOL     OW10978   2.263   4.700   3.781
 3360SOL    HW110979   2.185   4.756   3.806
 3360SOL    HW210980   2.271   4.624   3.845
 3361SOL     OW10981   6.880   7.017   5.838
 3361SOL    HW110982   6.931   6.933   5.817
 3361SOL    HW210983   6.786   7.008   5.807
 3362SOL     OW10984   3.583   0.570   3.957
 3362SOL    HW110985   3.498   0.617   3.981
 3362SOL    HW210986   3.648   0.581   4.032
 3363SOL     OW10987   6.017   4.102   0.286
 3363SOL    HW110988   5.923   4.132   0.271
 3363SOL    HW210989   6.078   4.182   0.286
 3364SOL     OW10990   1.633   3.909   3.146
 3364SOL    HW110991   1.691   3.942   3.070
 3364SOL    HW210992   1.663   3.951   3.231
 3365SOL     OW10993   1.080   3.325   3.503
 3365SOL    HW110994   1.100   3.407   3.448
 3365SOL    HW210995   1.164   3.293   3.545
 3366SOL     OW10996   5.480   3.377   4.873
 3366SOL    HW110997   5.395   3.423   4.898
 3366SOL    HW210998   5.528   3.431   4.803
 3367SOL     OW10999   3.154   3.669   3.817
 3367SOL    HW111000   3.113   3.582   3.845
 3367SOL    HW211001   3.219   3.700   3.886
 3368SOL     OW11002   2.344   0.720   2.629
 3368SOL    HW111003   2.385   0.659   2.697
 3368SOL    HW211004   2.247   0.698   2.618
 3369SOL     OW11005   5.146   2.593   1.254
 3369SOL    HW111006   5.228   2.651   1.247
 3369SOL    HW211007   5.078   2.639   1.311
 3370SOL     OW11008   0.654   5.748   2.534
 3370SOL    HW111009   0.635   5.710   2.444
 3370SOL    HW211010   0.749   5.727   2.559
 3371SOL     OW11011   2.124   2.567   1.799
 3371SOL    HW111012   2.161   2.656   1.773
 3371SOL    HW211013   2.190   2.518   1.855
 3372SOL     OW11014   6.384   3.903   2.886
 3372SOL    HW111015   6.286   3.922   2.877
 3372SOL    HW211016   6.435   3.962   2.822
 3373SOL     OW11017   0.362   3.895   1.486
 3373SOL    HW111018   0.263   3.892   1.476
 3373SOL    HW211019   0.385   3.929   1.578
 3374SOL     OW11020   0.879   6.165   4.257
 3374SOL    HW111021   0.919   6.222   4.329
 3374SOL    HW211022   0.895   6.209   4.168
 3375SOL     OW11023   0.532   5.850   5.803
 3375SOL    HW111024   0.517   5.850   5.902
 3375SOL    HW211025   0.629   5.830   5.784
 3376SOL     OW11026   3.399   3.008   4.119
 3376SOL    HW111027   3.361   3.096   4.147
 3376SOL    HW211028   3.418   2.952   4.200
 3377SOL     OW11029   6.825   5.036   4.183
 3377SOL    HW111030   6.862   5.020   4.092
 3377SOL    HW211031   6.866   5.118   4.223
 3378SOL     OW11032   1.922   6.259   0.948
 3378SOL    HW111033   1.999   6.207   0.986
 3378SOL    HW211034   1.889   6.324   1.016
 3379SOL     OW11035   5.833   3.482   4.178
 3379SOL    HW111036   5.802   3.539   4.101
 3379SOL    HW211037   5.933   3.484   4.183
 3380SOL     OW11038   2.374   4.610   0.478
 3380SOL    HW111039   2.465   4.587   0.443
 3380SOL    HW211040   2.361   4.709   0.474
 3381SOL     OW11041   2.224   3.849   5.800
 3381SOL    HW111042   2.283   3.792   5.742
 3381SOL    HW211043   2.279   3.923   5.840
 3382SOL     OW11044   6.536   3.658   6.981
 3382SOL    HW111045   6.620   3.622   0.001
 3382SOL    HW211046   6.464   3.589   6.984
 3383SOL     OW11047   4.364   5.324   0.309
 3383SOL    HW111048   4.296   5.364   0.248
 3383SOL    HW211049   4.446   5.300   0.257
 3384SOL     OW11050   2.609   3.155   6.296
 3384SOL    HW111051   2.697   3.193   6.324
 3384SOL    HW211052   2.573   3.207   6.219
 3385SOL     OW11053   6.296   2.449   4.334
 3385SOL    HW111054   6.374   2.449   4.271
 3385SOL    HW211055   6.285   2.358   4.373
 3386SOL     OW11056   6.992   6.105   4.715
 3386SOL    HW111057   0.001   6.031   4.777
 3386SOL    HW211058   0.040   6.115   4.642
 3387SOL     OW11059   5.682   0.885   2.959
 3387SOL    HW111060   5.659   0.890   3.056
 3387SOL    HW211061   5.603   0.852   2.907
 3388SOL     OW11062   6.914   4.129   0.962
 3388SOL    HW111063   6.959   4.105   0.876
 3388SOL    HW211064   6.815   4.128   0.950
 3389SOL     OW11065   5.736   5.554   6.394
 3389SOL    HW111066   5.728   5.466   6.440
 3389SOL    HW211067   5.647   5.582   6.359
 3390SOL     OW11068   2.669   5.276   6.676
 3390SOL    HW111069   2.700   5.181   6.671
 3390SOL    HW211070   2.616   5.290   6.760
 3391SOL     OW11071   4.867   4.200   4.318
 3391SOL    HW111072   4.892   4.140   4.242
 3391SOL    HW211073   4.767   4.209   4.321
 3392SOL     OW11074   4.941   6.522   5.890
 3392SOL    HW111075   5.020   6.558   5.939
 3392SOL    HW211076   4.923   6.429   5.920
 3393SOL     OW11077   3.673   6.225   0.378
 3393SOL    HW111078   3.612   6.249   0.303
 3393SOL    HW211079   3.692   6.127   0.376
 3394SOL     OW11080   2.696   5.694   1.402
 3394SOL    HW111081   2.790   5.674   1.431
 3394SOL    HW211082   2.696   5.773   1.341
 3395SOL     OW11083   1.966   6.777   3.018
 3395SOL    HW111084   2.061   6.752   3.036
 3395SOL    HW211085   1.920   6.795   3.105
 3396SOL     OW11086   4.637   0.352   4.138
 3396SOL    HW111087   4.642   0.260   4.098
 3396SOL    HW211088   4.687   0.416   4.080
 3397SOL     OW11089   2.284   5.700   6.445
 3397SOL    HW111090   2.348   5.623   6.445
 3397SOL    HW211091   2.255   5.720   6.351
 3398SOL     OW11092   6.747   1.795   5.438
 3398SOL    HW111093   6.846   1.787   5.424
 3398SOL    HW211094   6.702   1.804   5.349
 3399SOL     OW11095   6.644   6.021   2.238
 3399SOL    HW111096   6.600   5.990   2.322
 3399SOL    HW211097   6.696   6.105   2.256
 3400SOL     OW11098   4.047   3.045   5.671
 3400SOL    HW111099   4.124   3.107   5.688
 3400SOL    HW211100   3.967   3.076   5.723
 3401SOL     OW11101   0.029   3.974   4.724
 3401SOL    HW111102   0.001   3.887   4.764
 3401SOL    HW211103   0.009   3.974   4.626
 3402SOL     OW11104   6.952   3.793   0.833
 3402SOL    HW111105   6.902   3.772   0.749
 3402SOL    HW211106   7.010   3.873   0.817
 3403SOL     OW11107   5.025   6.928   6.760
 3403SOL    HW111108   5.027   0.003   6.729
 3403SOL    HW211109   5.073   6.870   6.694
 3404SOL     OW11110   5.153   4.471   4.235
 3404SOL    HW111111   5.101   4.406   4.180
 3404SOL    HW211112   5.236   4.498   4.186
 3405SOL     OW11113   4.401   6.023   0.148
 3405SOL    HW111114   4.304   6.033   0.166
 3405SOL    HW211115   4.418   6.025   0.049
 3406SOL     OW11116   3.169   5.484   1.384
 3406SOL    HW111117   3.180   5.399   1.435
 3406SOL    HW211118   3.114   5.549   1.438
 3407SOL     OW11119   1.051   3.994   6.294
 3407SOL    HW111120   1.064   4.093   6.302
 3407SOL    HW211121   1.059   3.952   6.385
 3408SOL     OW11122   5.100   0.525   3.522
 3408SOL    HW111123   5.001   0.511   3.526
 3408SOL    HW211124   5.144   0.442   3.487
 3409SOL     OW11125   3.964   1.192   0.132
 3409SOL    HW111126   3.958   1.276   0.078
 3409SOL    HW211127   3.994   1.214   0.225
 3410SOL     OW11128   6.415   0.358   3.063
 3410SOL    HW111129   6.321   0.387   3.081
 3410SOL    HW211130   6.469   0.438   3.033
 3411SOL     OW11131   6.222   3.335   5.849
 3411SOL    HW111132   6.180   3.426   5.844
 3411SOL    HW211133   6.309   3.341   5.898
 3412SOL     OW11134   5.690   3.387   2.484
 3412SOL    HW111135   5.648   3.354   2.569
 3412SOL    HW211136   5.644   3.345   2.406
 3413SOL     OW11137   6.453   1.557   0.663
 3413SOL    HW111138   6.512   1.536   0.585
 3413SOL    HW211139   6.467   1.487   0.733
 3414SOL     OW11140   3.435   3.453   1.525
 3414SOL    HW111141   3.376   3.431   1.603
 3414SOL    HW211142   3.463   3.369   1.480
 3415SOL     OW11143   2.429   1.734   5.715
 3415SOL    HW111144   2.372   1.812   5.741
 3415SOL    HW211145   2.513   1.735   5.770
 3416SOL     OW11146   6.449   6.680   0.290
 3416SOL    HW111147   6.486   6.690   0.382
 3416SOL    HW211148   6.379   6.608   0.291
 3417SOL     OW11149   6.390   0.075   3.114
 3417SOL    HW111150   6.429   0.162   3.082
 3417SOL    HW211151   6.326   0.040   3.045
 3418SOL     OW11152   4.450   5.678   0.275
 3418SOL    HW111153   4.475   5.758   0.330
 3418SOL    HW211154   4.365   5.697   0.227
 3419SOL     OW11155   2.358   4.977   5.363
 3419SOL    HW111156   2.260   4.964   5.349
 3419SOL    HW211157   2.405   4.970   5.275
 3420SOL     OW11158   4.519   1.720   2.060
 3420SOL    HW111159   4.491   1.634   2.016
 3420SOL    HW211160   4.522   1.793   1.992
 3421SOL     OW11161   6.965   1.756   5.038
 3421SOL    HW111162   0.010   1.760   4.962
 3421SOL    HW211163   6.936   1.661   5.052
 3422SOL     OW11164   2.833   6.757   0.777
 3422SOL    HW111165   2.739   6.764   0.811
 3422SOL    HW211166   2.858   6.842   0.731
 3423SOL     OW11167   2.367   4.693   5.547
 3423SOL    HW111168   2.418   4.709   5.632
 3423SOL    HW211169   2.429   4.701   5.469
 3424SOL     OW11170   5.325   1.009   2.064
 3424SOL    HW111171   5.258   0.936   2.078
 3424SOL    HW211172   5.280   1.098   2.070
 3425SOL     OW11173   6.504   3.750   5.938
 3425SOL    HW111174   6.510   3.826   6.003
 3425SOL    HW211175   6.554   3.774   5.855
 3426SOL     OW11176   6.400   3.939   0.320
 3426SOL    HW111177   6.302   3.944   0.341
 3426SOL    HW211178   6.428   3.843   0.319
 3427SOL     OW11179   1.242   2.202   0.101
 3427SOL    HW111180   1.182   2.160   0.169
 3427SOL    HW211181   1.300   2.270   0.146
 3428SOL     OW11182   4.635   0.035   4.855
 3428SOL    HW111183   4.641   0.133   4.870
 3428SOL    HW211184   4.546   0.012   4.816
 3429SOL     OW11185   4.370   6.476   0.889
 3429SOL    HW111186   4.458   6.434   0.910
 3429SOL    HW211187   4.318   6.418   0.826
 3430SOL     OW11188   2.858   4.064   6.337
 3430SOL    HW111189   2.818   4.131   6.275
 3430SOL    HW211190   2.786   4.005   6.374
 3431SOL     OW11191   0.759   4.315   2.481
 3431SOL    HW111192   0.752   4.242   2.549
 3431SOL    HW211193   0.736   4.279   2.391
 3432SOL     OW11194   0.524   4.701   0.245
 3432SOL    HW111195   0.609   4.744   0.274
 3432SOL    HW211196   0.447   4.750   0.284
 3433SOL     OW11197   2.035   0.847   0.039
 3433SOL    HW111198   1.967   0.919   0.028
 3433SOL    HW211199   2.123   0.878   0.003
 3434SOL     OW11200   3.572   2.619   1.738
 3434SOL    HW111201   3.472   2.612   1.743
 3434SOL    HW211202   3.613   2.537   1.777
 3435SOL     OW11203   1.579   2.166   1.247
 3435SOL    HW111204   1.570   2.074   1.285
 3435SOL    HW211205   1.490   2.211   1.247
 3436SOL     OW11206   4.000   6.801   6.394
 3436SOL    HW111207   3.943   6.851   6.329
 3436SOL    HW211208   3.943   6.739   6.448
 3437SOL     OW11209   1.449   0.143   0.178
 3437SOL    HW111210   1.429   0.232   0.137
 3437SOL    HW211211   1.363   0.098   0.204
 3438SOL     OW11212   2.350   3.880   0.895
 3438SOL    HW111213   2.329   3.892   0.798
 3438SOL    HW211214   2.406   3.957   0.926
 3439SOL     OW11215   2.755   5.814   0.588
 3439SOL    HW111216   2.793   5.728   0.554
 3439SOL    HW211217   2.777   5.887   0.523
 3440SOL     OW11218   3.456   3.726   5.381
 3440SOL    HW111219   3.524   3.745   5.452
 3440SOL    HW211220   3.500   3.722   5.292
 3441SOL     OW11221   6.340   5.033   5.417
 3441SOL    HW111222   6.426   5.082   5.405
 3441SOL    HW211223   6.335   4.996   5.510
 3442SOL     OW11224   1.783   2.907   1.216
 3442SOL    HW111225   1.872   2.912   1.170
 3442SOL    HW211226   1.714   2.956   1.161
 3443SOL     OW11227   0.247   6.076   2.092
 3443SOL    HW111228   0.166   6.028   2.125
 3443SOL    HW211229   0.308   6.011   2.046
 3444SOL     OW11230   6.702   4.260   5.128
 3444SOL    HW111231   6.669   4.205   5.205
 3444SOL    HW211232   6.719   4.201   5.049
 3445SOL     OW11233   6.350   4.965   4.720
 3445SOL    HW111234   6.438   4.926   4.748
 3445SOL    HW211235   6.353   4.988   4.623
 3446SOL     OW11236   4.673   1.051   1.034
 3446SOL    HW111237   4.581   1.069   1.067
 3446SOL    HW211238   4.673   1.049   0.934
 3447SOL     OW11239   5.801   0.888   6.194
 3447SOL    HW111240   5.800   0.929   6.285
 3447SOL    HW211241   5.848   0.800   6.198
 3448SOL     OW11242   1.088   4.535   4.983
 3448SOL    HW111243   1.030   4.468   4.936
 3448SOL    HW211244   1.174   4.491   5.008
 3449SOL     OW11245   0.706   4.641   5.085
 3449SOL    HW111246   0.662   4.713   5.138
 3449SOL    HW211247   0.648   4.617   5.008
 3450SOL     OW11248   2.414   0.392   2.004
 3450SOL    HW111249   2.407   0.292   1.996
 3450SOL    HW211250   2.489   0.416   2.065
 3451SOL     OW11251   1.823   2.155   0.765
 3451SOL    HW111252   1.762   2.232   0.747
 3451SOL    HW211253   1.770   2.076   0.796
 3452SOL     OW11254   4.450   1.203   5.190
 3452SOL    HW111255   4.429   1.246   5.102
 3452SOL    HW211256   4.437   1.270   5.263
 3453SOL     OW11257   4.150   6.482   6.506
 3453SOL    HW111258   4.241   6.524   6.514
 3453SOL    HW211259   4.155   6.386   6.535
 3454SOL     OW11260   0.435   3.103   1.528
 3454SOL    HW111261   0.345   3.147   1.533
 3454SOL    HW211262   0.502   3.169   1.493
 3455SOL     OW11263   0.609   3.758   5.946
 3455SOL    HW111264   0.555   3.675   5.937
 3455SOL    HW211265   0.548   3.836   5.959
 3456SOL     OW11266   5.085   5.665   3.587
 3456SOL    HW111267   5.131   5.613   3.658
 3456SOL    HW211268   5.077   5.761   3.617
 3457SOL     OW11269   3.518   4.138   6.837
 3457SOL    HW111270   3.584   4.121   6.763
 3457SOL    HW211271   3.485   4.232   6.830
 3458SOL     OW11272   4.031   1.558   2.218
 3458SOL    HW111273   4.048   1.617   2.139
 3458SOL    HW211274   3.983   1.610   2.289
 3459SOL     OW11275   5.552   5.640   2.442
 3459SOL    HW111276   5.467   5.689   2.421
 3459SOL    HW211277   5.630   5.693   2.408
 3460SOL     OW11278   3.667   2.119   4.544
 3460SOL    HW111279   3.622   2.081   4.624
 3460SOL    HW211280   3.607   2.110   4.464
 3461SOL     OW11281   5.061   5.089   4.620
 3461SOL    HW111282   5.142   5.037   4.594
 3461SOL    HW211283   4.982   5.056   4.567
 3462SOL     OW11284   1.034   3.684   6.102
 3462SOL    HW111285   1.034   3.726   6.011
 3462SOL    HW211286   1.115   3.715   6.153
 3463SOL     OW11287   5.760   4.149   0.233
 3463SOL    HW111288   5.682   4.212   0.235
 3463SOL    HW211289   5.751   4.084   0.309
 3464SOL     OW11290   0.352   4.336   4.075
 3464SOL    HW111291   0.371   4.414   4.016
 3464SOL    HW211292   0.437   4.295   4.105
 3465SOL     OW11293   0.453   2.196   2.589
 3465SOL    HW111294   0.363   2.167   2.620
 3465SOL    HW211295   0.515   2.118   2.588
 3466SOL     OW11296   0.363   3.442   4.721
 3466SOL    HW111297   0.420   3.394   4.788
 3466SOL    HW211298   0.267   3.434   4.747
 3467SOL     OW11299   2.153   2.232   5.434
 3467SOL    HW111300   2.242   2.278   5.442
 3467SOL    HW211301   2.144   2.163   5.506
 3468SOL     OW11302   4.010   6.181   2.221
 3468SOL    HW111303   3.993   6.166   2.318
 3468SOL    HW211304   3.924   6.207   2.176
 3469SOL     OW11305   5.494   3.779   1.176
 3469SOL    HW111306   5.593   3.772   1.189
 3469SOL    HW211307   5.447   3.743   1.256
 3470SOL     OW11308   0.385   5.461   0.927
 3470SOL    HW111309   0.432   5.500   1.006
 3470SOL    HW211310   0.306   5.409   0.958
 3471SOL     OW11311   4.365   0.214   4.510
 3471SOL    HW111312   4.290   0.156   4.478
 3471SOL    HW211313   4.450   0.188   4.463
 3472SOL     OW11314   4.127   1.119   4.924
 3472SOL    HW111315   4.062   1.090   4.854
 3472SOL    HW211316   4.157   1.039   4.977
 3473SOL     OW11317   4.056   6.701   3.945
 3473SOL    HW111318   4.053   6.610   3.986
 3473SOL    HW211319   3.986   6.759   3.986
 3474SOL     OW11320   5.147   4.146   1.234
 3474SOL    HW111321   5.094   4.201   1.170
 3474SOL    HW211322   5.172   4.201   1.313
 3475SOL     OW11323   1.629   6.130   4.777
 3475SOL    HW111324   1.574   6.115   4.694
 3475SOL    HW211325   1.726   6.125   4.753
 3476SOL     OW11326   4.629   1.707   4.815
 3476SOL    HW111327   4.556   1.769   4.845
 3476SOL    HW211328   4.718   1.747   4.838
 3477SOL     OW11329   4.075   5.508   1.644
 3477SOL    HW111330   4.164   5.503   1.689
 3477SOL    HW211331   4.080   5.573   1.567
 3478SOL     OW11332   3.999   4.563   0.235
 3478SOL    HW111333   4.074   4.525   0.290
 3478SOL    HW211334   3.951   4.633   0.287
 3479SOL     OW11335   1.867   0.204   1.381
 3479SOL    HW111336   1.812   0.141   1.326
 3479SOL    HW211337   1.897   0.281   1.324
 3480SOL     OW11338   1.059   0.155   4.164
 3480SOL    HW111339   1.115   0.123   4.240
 3480SOL    HW211340   1.008   0.077   4.126
 3481SOL     OW11341   1.989   6.262   0.397
 3481SOL    HW111342   2.067   6.201   0.389
 3481SOL    HW211343   1.934   6.256   0.313
 3482SOL     OW11344   0.875   2.330   1.987
 3482SOL    HW111345   0.781   2.305   2.010
 3482SOL    HW211346   0.915   2.259   1.929
 3483SOL     OW11347   3.845   1.975   0.799
 3483SOL    HW111348   3.834   1.959   0.701
 3483SOL    HW211349   3.936   1.947   0.828
 3484SOL     OW11350   3.666   2.936   3.996
 3484SOL    HW111351   3.570   2.933   4.026
 3484SOL    HW211352   3.669   2.931   3.896
 3485SOL     OW11353   6.312   1.674   4.766
 3485SOL    HW111354   6.398   1.672   4.816
 3485SOL    HW211355   6.245   1.615   4.812
 3486SOL     OW11356   5.182   1.254   2.513
 3486SOL    HW111357   5.245   1.197   2.462
 3486SOL    HW211358   5.093   1.257   2.467
 3487SOL     OW11359   0.585   0.935   0.657
 3487SOL    HW111360   0.540   0.899   0.576
 3487SOL    HW211361   0.676   0.969   0.633
 3488SOL     OW11362   6.082   3.418   4.229
 3488SOL    HW111363   6.163   3.459   4.272
 3488SOL    HW211364   6.106   3.326   4.196
 3489SOL     OW11365   1.846   5.370   0.719
 3489SOL    HW111366   1.765   5.430   0.723
 3489SOL    HW211367   1.924   5.422   0.686
 3490SOL     OW11368   4.590   3.000   0.956
 3490SOL    HW111369   4.521   3.051   0.906
 3490SOL    HW211370   4.651   3.064   1.004
 3491SOL     OW11371   0.445   2.876   5.793
 3491SOL    HW111372   0.387   2.915   5.721
 3491SOL    HW211373   0.499   2.801   5.756
 3492SOL     OW11374   5.732   4.690   0.090
 3492SOL    HW111375   5.766   4.727   0.176
 3492SOL    HW211376   5.650   4.740   0.062
 3493SOL     OW11377   6.956   5.207   1.840
 3493SOL    HW111378   6.954   5.151   1.924
 3493SOL    HW211379   6.915   5.296   1.859
 3494SOL     OW11380   2.688   6.823   1.022
 3494SOL    HW111381   2.745   6.757   1.071
 3494SOL    HW211382   2.718   6.916   1.044
 3495SOL     OW11383   5.968   4.385   0.365
 3495SOL    HW111384   5.901   4.457   0.384
 3495SOL    HW211385   5.997   4.390   0.269
 3496SOL     OW11386   0.760   4.657   0.699
 3496SOL    HW111387   0.759   4.701   0.789
 3496SOL    HW211388   0.786   4.724   0.629
 3497SOL     OW11389   4.492   6.466   4.251
 3497SOL    HW111390   4.422   6.395   4.244
 3497SOL    HW211391   4.456   6.543   4.304
 3498SOL     OW11392   1.285   1.203   0.973
 3498SOL    HW111393   1.277   1.163   1.064
 3498SOL    HW211394   1.376   1.241   0.961
 3499SOL     OW11395   6.959   3.628   4.564
 3499SOL    HW111396   0.021   3.648   4.511
 3499SOL    HW211397   6.879   3.669   4.520
 3500SOL     OW11398   6.663   3.561   0.778
 3500SOL    HW111399   6.575   3.521   0.803
 3500SOL    HW211400   6.733   3.530   0.842
 3501SOL     OW11401   1.017   4.055   3.466
 3501SOL    HW111402   1.007   4.153   3.486
 3501SOL    HW211403   1.071   4.043   3.383
 3502SOL     OW11404   0.993   4.967   1.727
 3502SOL    HW111405   0.957   4.904   1.659
 3502SOL    HW211406   1.088   4.989   1.707
 3503SOL     OW11407   3.563   6.788   3.671
 3503SOL    HW111408   3.473   6.750   3.694
 3503SOL    HW211409   3.604   6.734   3.597
 3504SOL     OW11410   2.241   2.816   2.682
 3504SOL    HW111411   2.304   2.757   2.732
 3504SOL    HW211412   2.159   2.830   2.736
 3505SOL     OW11413   4.469   6.289   4.698
 3505SOL    HW111414   4.400   6.281   4.626
 3505SOL    HW211415   4.560   6.282   4.658
 3506SOL     OW11416   5.713   5.042   2.120
 3506SOL    HW111417   5.632   5.072   2.171
 3506SOL    HW211418   5.706   4.945   2.099
 3507SOL     OW11419   0.614   0.613   6.572
 3507SOL    HW111420   0.693   0.602   6.634
 3507SOL    HW211421   0.646   0.612   6.477
 3508SOL     OW11422   5.914   3.893   6.894
 3508SOL    HW111423   5.890   3.797   6.884
 3508SOL    HW211424   6.003   3.901   6.939
 3509SOL     OW11425   6.061   0.663   0.448
 3509SOL    HW111426   6.128   0.725   0.489
 3509SOL    HW211427   5.974   0.672   0.497
 3510SOL     OW11428   2.485   2.525   2.356
 3510SOL    HW111429   2.451   2.603   2.410
 3510SOL    HW211430   2.578   2.503   2.385
 3511SOL     OW11431   0.658   0.776   5.230
 3511SOL    HW111432   0.744   0.812   5.266
 3511SOL    HW211433   0.639   0.687   5.273
 3512SOL     OW11434   3.136   2.707   1.088
 3512SOL    HW111435   3.107   2.624   1.040
 3512SOL    HW211436   3.059   2.770   1.096
 3513SOL     OW11437   5.047   4.782   1.126
 3513SOL    HW111438   5.072   4.805   1.032
 3513SOL    HW211439   4.985   4.703   1.126
 3514SOL     OW11440   1.649   6.908   1.813
 3514SOL    HW111441   1.728   6.937   1.758
 3514SOL    HW211442   1.573   6.972   1.798
 3515SOL     OW11443   3.766   6.139   3.309
 3515SOL    HW111444   3.836   6.144   3.237
 3515SOL    HW211445   3.766   6.048   3.349
 3516SOL     OW11446   2.174   1.332   0.512
 3516SOL    HW111447   2.271   1.328   0.533
 3516SOL    HW211448   2.152   1.421   0.473
 3517SOL     OW11449   0.989   0.305   6.343
 3517SOL    HW111450   1.088   0.307   6.324
 3517SOL    HW211451   0.957   0.399   6.358
 3518SOL     OW11452   4.185   3.611   5.996
 3518SOL    HW111453   4.259   3.626   6.061
 3518SOL    HW211454   4.099   3.644   6.035
 3519SOL     OW11455   3.260   6.494   0.230
 3519SOL    HW111456   3.294   6.574   0.280
 3519SOL    HW211457   3.266   6.413   0.288
 3520SOL     OW11458   3.782   5.066   1.079
 3520SOL    HW111459   3.753   5.067   0.983
 3520SOL    HW211460   3.715   5.016   1.134
 3521SOL     OW11461   5.353   2.630   6.302
 3521SOL    HW111462   5.336   2.709   6.243
 3521SOL    HW211463   5.450   2.605   6.297
 3522SOL     OW11464   2.858   6.775   1.484
 3522SOL    HW111465   2.907   6.748   1.400
 3522SOL    HW211466   2.924   6.789   1.557
 3523SOL     OW11467   2.496   4.649   5.301
 3523SOL    HW111468   2.476   4.731   5.247
 3523SOL    HW211469   2.592   4.649   5.327
 3524SOL     OW11470   2.129   0.248   1.654
 3524SOL    HW111471   2.170   0.315   1.715
 3524SOL    HW211472   2.035   0.230   1.683
 3525SOL     OW11473   1.490   3.846   2.858
 3525SOL    HW111474   1.577   3.894   2.870
 3525SOL    HW211475   1.498   3.779   2.784
 3526SOL     OW11476   3.563   0.132   3.515
 3526SOL    HW111477   3.648   0.184   3.516
 3526SOL    HW211478   3.489   0.189   3.480
 3527SOL     OW11479   5.596   2.920   6.415
 3527SOL    HW111480   5.660   2.927   6.339
 3527SOL    HW211481   5.635   2.861   6.486
 3528SOL     OW11482   1.207   6.995   4.310
 3528SOL    HW111483   1.160   6.908   4.292
 3528SOL    HW211484   1.248   6.992   4.401
 3529SOL     OW11485   4.133   6.022   0.220
 3529SOL    HW111486   4.108   6.106   0.174
 3529SOL    HW211487   4.114   6.030   0.318
 3530SOL     OW11488   1.484   6.421   2.788
 3530SOL    HW111489   1.403   6.366   2.807
 3530SOL    HW211490   1.498   6.487   2.863
 3531SOL     OW11491   4.949   4.617   6.606
 3531SOL    HW111492   4.898   4.659   6.530
 3531SOL    HW211493   5.043   4.652   6.607
 3532SOL     OW11494   1.964   6.504   0.563
 3532SOL    HW111495   2.010   6.478   0.647
 3532SOL    HW211496   1.993   6.444   0.488
 3533SOL     OW11497   1.133   1.336   3.851
 3533SOL    HW111498   1.061   1.401   3.874
 3533SOL    HW211499   1.174   1.361   3.763
 3534SOL     OW11500   5.083   0.644   5.222
 3534SOL    HW111501   5.163   0.704   5.220
 3534SOL    HW211502   5.026   0.663   5.142
 3535SOL     OW11503   4.673   6.284   6.771
 3535SOL    HW111504   4.673   6.251   6.676
 3535SOL    HW211505   4.602   6.236   6.822
 3536SOL     OW11506   0.749   4.141   2.695
 3536SOL    HW111507   0.734   4.044   2.713
 3536SOL    HW211508   0.787   4.184   2.777
 3537SOL     OW11509   2.654   4.216   1.212
 3537SOL    HW111510   2.630   4.199   1.307
 3537SOL    HW211511   2.670   4.314   1.198
 3538SOL     OW11512   3.997   0.999   3.649
 3538SOL    HW111513   4.066   0.961   3.711
 3538SOL    HW211514   3.992   1.098   3.661
 3539SOL     OW11515   5.326   5.930   6.693
 3539SOL    HW111516   5.266   5.851   6.706
 3539SOL    HW211517   5.413   5.900   6.654
 3540SOL     OW11518   2.459   4.311   6.260
 3540SOL    HW111519   2.381   4.249   6.249
 3540SOL    HW211520   2.427   4.405   6.250
 3541SOL     OW11521   1.573   2.417   1.844
 3541SOL    HW111522   1.548   2.359   1.922
 3541SOL    HW211523   1.669   2.446   1.854
 3542SOL     OW11524   6.170   1.555   6.876
 3542SOL    HW111525   6.147   1.557   6.973
 3542SOL    HW211526   6.145   1.642   6.834
 3543SOL     OW11527   0.493   2.049   3.960
 3543SOL    HW111528   0.417   2.110   3.985
 3543SOL    HW211529   0.577   2.103   3.953
 3544SOL     OW11530   3.016   3.513   0.311
 3544SOL    HW111531   2.982   3.420   0.324
 3544SOL    HW211532   2.995   3.568   0.392
 3545SOL     OW11533   3.756   0.081   0.363
 3545SOL    HW111534   3.773   0.017   0.437
 3545SOL    HW211535   3.697   0.155   0.396
 3546SOL     OW11536   6.953   4.283   2.108
 3546SOL    HW111537   6.889   4.335   2.165
 3546SOL    HW211538   0.026   4.313   2.126
 3547SOL     OW11539   1.177   3.758   4.782
 3547SOL    HW111540   1.213   3.759   4.689
 3547SOL    HW211541   1.124   3.841   4.799
 3548SOL     OW11542   5.892   0.334   6.091
 3548SOL    HW111543   5.795   0.311   6.091
 3548SOL    HW211544   5.921   0.357   5.998
 3549SOL     OW11545   2.739   6.662   6.858
 3549SOL    HW111546   2.701   6.741   6.906
 3549SOL    HW211547   2.777   6.597   6.924
 3550SOL     OW11548   5.314   0.971   5.402
 3550SOL    HW111549   5.215   0.983   5.401
 3550SOL    HW211550   5.348   0.983   5.495
 3551SOL     OW11551   5.074   1.988   4.507
 3551SOL    HW111552   5.077   1.961   4.411
 3551SOL    HW211553   5.157   1.958   4.553
 3552SOL     OW11554   6.190   0.017   3.608
 3552SOL    HW111555   6.186   0.027   3.509
 3552SOL    HW211556   6.266   0.071   3.644
 3553SOL     OW11557   6.057   6.045   6.755
 3553SOL    HW111558   5.983   6.107   6.726
 3553SOL    HW211559   6.081   5.985   6.678
 3554SOL     OW11560   5.109   4.527   6.875
 3554SOL    HW111561   5.011   4.510   6.885
 3554SOL    HW211562   5.145   4.563   6.961
 3555SOL     OW11563   2.931   1.940   5.254
 3555SOL    HW111564   2.865   1.988   5.196
 3555SOL    HW211565   3.012   1.998   5.267
 3556SOL     OW11566   5.613   1.033   0.574
 3556SOL    HW111567   5.571   1.046   0.484
 3556SOL    HW211568   5.712   1.036   0.566
 3557SOL     OW11569   5.500   6.899   1.407
 3557SOL    HW111570   5.576   6.964   1.398
 3557SOL    HW211571   5.415   6.944   1.380
 3558SOL     OW11572   3.776   5.533   2.317
 3558SOL    HW111573   3.832   5.458   2.283
 3558SOL    HW211574   3.801   5.554   2.411
 3559SOL     OW11575   4.764   6.593   6.263
 3559SOL    HW111576   4.691   6.656   6.239
 3559SOL    HW211577   4.742   6.502   6.228
 3560SOL     OW11578   1.010   5.330   4.216
 3560SOL    HW111579   1.084   5.309   4.152
 3560SOL    HW211580   0.981   5.246   4.261
 3561SOL     OW11581   4.654   3.434   5.357
 3561SOL    HW111582   4.577   3.374   5.340
 3561SOL    HW211583   4.650   3.513   5.296
 3562SOL     OW11584   3.312   1.801   0.390
 3562SOL    HW111585   3.386   1.793   0.458
 3562SOL    HW211586   3.234   1.849   0.432
 3563SOL     OW11587   6.584   2.366   6.083
 3563SOL    HW111588   6.602   2.400   6.175
 3563SOL    HW211589   6.643   2.415   6.018
 3564SOL     OW11590   6.005   3.559   2.446
 3564SOL    HW111591   5.975   3.649   2.476
 3564SOL    HW211592   5.979   3.545   2.350
 3565SOL     OW11593   4.688   5.881   5.672
 3565SOL    HW111594   4.636   5.957   5.631
 3565SOL    HW211595   4.662   5.870   5.767
 3566SOL     OW11596   1.305   0.717   4.958
 3566SOL    HW111597   1.401   0.732   4.983
 3566SOL    HW211598   1.249   0.789   4.999
 3567SOL     OW11599   6.807   3.436   6.483
 3567SOL    HW111600   6.834   3.482   6.568
 3567SOL    HW211601   6.708   3.425   6.480
 3568SOL     OW11602   5.904   3.833   6.463
 3568SOL    HW111603   5.874   3.853   6.370
 3568SOL    HW211604   5.901   3.734   6.478
 3569SOL     OW11605   1.262   0.155   3.824
 3569SOL    HW111606   1.171   0.172   3.788
 3569SOL    HW211607   1.320   0.236   3.809
 3570SOL     OW11608   5.627   1.234   4.187
 3570SOL    HW111609   5.674   1.147   4.175
 3570SOL    HW211610   5.694   1.308   4.187
 3571SOL     OW11611   6.565   0.056   5.150
 3571SOL    HW111612   6.557   0.024   5.245
 3571SOL    HW211613   6.556   6.998   5.088
 3572SOL     OW11614   6.598   6.649   5.694
 3572SOL    HW111615   6.499   6.657   5.700
 3572SOL    HW211616   6.624   6.612   5.605
 3573SOL     OW11617   0.314   1.815   2.396
 3573SOL    HW111618   0.292   1.823   2.493
 3573SOL    HW211619   0.286   1.898   2.349
 3574SOL     OW11620   6.140   3.910   0.454
 3574SOL    HW111621   6.119   3.938   0.547
 3574SOL    HW211622   6.091   3.968   0.389
 3575SOL     OW11623   6.494   5.766   1.845
 3575SOL    HW111624   6.428   5.830   1.805
 3575SOL    HW211625   6.585   5.784   1.807
 3576SOL     OW11626   0.615   1.507   6.941
 3576SOL    HW111627   0.635   1.409   6.940
 3576SOL    HW211628   0.543   1.525   7.008
 3577SOL     OW11629   2.261   3.361   6.763
 3577SOL    HW111630   2.355   3.378   6.735
 3577SOL    HW211631   2.256   3.272   6.810
 3578SOL     OW11632   3.349   4.701   1.673
 3578SOL    HW111633   3.435   4.672   1.714
 3578SOL    HW211634   3.285   4.624   1.671
 3579SOL     OW11635   1.536   4.294   5.257
 3579SOL    HW111636   1.453   4.254   5.296
 3579SOL    HW211637   1.579   4.228   5.196
 3580SOL     OW11638   6.808   2.729   1.173
 3580SOL    HW111639   6.771   2.758   1.261
 3580SOL    HW211640   6.829   2.631   1.177
 3581SOL     OW11641   5.591   1.346   3.215
 3581SOL    HW111642   5.673   1.335   3.159
 3581SOL    HW211643   5.580   1.442   3.241
 3582SOL     OW11644   0.116   0.507   5.300
 3582SOL    HW111645   0.154   0.571   5.234
 3582SOL    HW211646   0.087   0.556   5.382
 3583SOL     OW11647   2.270   5.049   1.330
 3583SOL    HW111648   2.230   5.138   1.307
 3583SOL    HW211649   2.360   5.041   1.287
 3584SOL     OW11650   5.624   6.690   5.665
 3584SOL    HW111651   5.637   6.768   5.604
 3584SOL    HW211652   5.605   6.608   5.611
 3585SOL     OW11653   2.762   4.820   4.080
 3585SOL    HW111654   2.674   4.830   4.033
 3585SOL    HW211655   2.750   4.762   4.161
 3586SOL     OW11656   0.639   1.715   6.226
 3586SOL    HW111657   0.628   1.813   6.212
 3586SOL    HW211658   0.606   1.666   6.145
 3587SOL     OW11659   3.905   0.502   6.827
 3587SOL    HW111660   3.823   0.532   6.875
 3587SOL    HW211661   3.880   0.441   6.752
 3588SOL     OW11662   2.212   1.050   5.012
 3588SOL    HW111663   2.178   1.117   5.078
 3588SOL    HW211664   2.178   1.073   4.921
 3589SOL     OW11665   3.119   0.183   4.958
 3589SOL    HW111666   3.040   0.166   4.899
 3589SOL    HW211667   3.149   0.279   4.948
 3590SOL     OW11668   1.278   5.034   6.958
 3590SOL    HW111669   1.314   4.963   7.019
 3590SOL    HW211670   1.277   5.122   7.006
 3591SOL     OW11671   5.440   2.409   6.028
 3591SOL    HW111672   5.348   2.373   6.046
 3591SOL    HW211673   5.503   2.376   6.098
 3592SOL     OW11674   5.197   2.536   1.800
 3592SOL    HW111675   5.277   2.482   1.826
 3592SOL    HW211676   5.144   2.560   1.881
 3593SOL     OW11677   0.574   4.713   3.946
 3593SOL    HW111678   0.625   4.630   3.927
 3593SOL    HW211679   0.528   4.705   4.035
 3594SOL     OW11680   4.060   1.374   4.560
 3594SOL    HW111681   4.074   1.422   4.646
 3594SOL    HW211682   4.142   1.382   4.503
 3595SOL     OW11683   2.093   6.246   6.006
 3595SOL    HW111684   2.024   6.277   6.071
 3595SOL    HW211685   2.178   6.228   6.055
 3596SOL     OW11686   0.592   3.748   3.567
 3596SOL    HW111687   0.521   3.808   3.605
 3596SOL    HW211688   0.620   3.682   3.636
 3597SOL     OW11689   3.552   6.281   3.421
 3597SOL    HW111690   3.622   6.231   3.370
 3597SOL    HW211691   3.474   6.220   3.438
 3598SOL     OW11692   1.697   0.404   0.800
 3598SOL    HW111693   1.752   0.323   0.819
 3598SOL    HW211694   1.757   0.480   0.772
 3599SOL     OW11695   6.685   1.729   3.840
 3599SOL    HW111696   6.587   1.744   3.827
 3599SOL    HW211697   6.736   1.789   3.778
 3600SOL     OW11698   6.418   0.767   1.454
 3600SOL    HW111699   6.437   0.816   1.369
 3600SOL    HW211700   6.451   0.821   1.532
 3601SOL     OW11701   6.145   3.591   5.475
 3601SOL    HW111702   6.170   3.686   5.456
 3601SOL    HW211703   6.069   3.564   5.416
 3602SOL     OW11704   2.545   1.977   0.541
 3602SOL    HW111705   2.513   2.063   0.579
 3602SOL    HW211706   2.609   1.934   0.605
 3603SOL     OW11707   4.322   4.706   4.511
 3603SOL    HW111708   4.419   4.722   4.490
 3603SOL    HW211709   4.266   4.746   4.439
 3604SOL     OW11710   0.404   3.361   3.575
 3604SOL    HW111711   0.385   3.443   3.520
 3604SOL    HW211712   0.388   3.381   3.671
 3605SOL     OW11713   6.470   3.095   6.438
 3605SOL    HW111714   6.516   3.053   6.516
 3605SOL    HW211715   6.447   3.025   6.371
 3606SOL     OW11716   1.689   4.365   4.045
 3606SOL    HW111717   1.778   4.321   4.054
 3606SOL    HW211718   1.657   4.357   3.950
 3607SOL     OW11719   4.343   6.703   0.002
 3607SOL    HW111720   4.315   6.781   0.057
 3607SOL    HW211721   4.278   6.688   6.947
 3608SOL     OW11722   0.341   2.693   2.516
 3608SOL    HW111723   0.254   2.706   2.564
 3608SOL    HW211724   0.388   2.613   2.552
 3609SOL     OW11725   6.549   6.916   5.359
 3609SOL    HW111726   6.459   6.873   5.353
 3609SOL    HW211727   6.620   6.845   5.360
 3610SOL     OW11728   1.741   5.841   5.277
 3610SOL    HW111729   1.757   5.743   5.260
 3610SOL    HW211730   1.736   5.890   5.190
 3611SOL     OW11731   4.196   5.199   5.085
 3611SOL    HW111732   4.268   5.210   5.017
 3611SOL    HW211733   4.164   5.290   5.115
 3612SOL     OW11734   1.738   6.644   1.234
 3612SOL    HW111735   1.756   6.575   1.304
 3612SOL    HW211736   1.688   6.720   1.274
 3613SOL     OW11737   5.290   5.101   6.666
 3613SOL    HW111738   5.269   5.040   6.590
 3613SOL    HW211739   5.206   5.146   6.697
 3614SOL     OW11740   4.121   3.452   4.095
 3614SOL    HW111741   4.148   3.533   4.042
 3614SOL    HW211742   4.092   3.380   4.032
 3615SOL     OW11743   6.688   6.177   6.157
 3615SOL    HW111744   6.708   6.275   6.166
 3615SOL    HW211745   6.593   6.160   6.182
 3616SOL     OW11746   6.446   0.435   4.916
 3616SOL    HW111747   6.417   0.403   5.006
 3616SOL    HW211748   6.387   0.510   4.887
 3617SOL     OW11749   6.605   0.803   0.051
 3617SOL    HW111750   6.541   0.765   7.004
 3617SOL    HW211751   6.565   0.796   0.142
 3618SOL     OW11752   3.042   0.419   5.863
 3618SOL    HW111753   3.132   0.405   5.903
 3618SOL    HW211754   2.976   0.357   5.905
 3619SOL     OW11755   5.019   3.021   4.301
 3619SOL    HW111756   4.994   3.077   4.380
 3619SOL    HW211757   4.981   3.061   4.218
 3620SOL     OW11758   6.335   0.716   5.204
 3620SOL    HW111759   6.421   0.718   5.152
 3620SOL    HW211760   6.355   0.699   5.301
 3621SOL     OW11761   1.738   3.301   5.804
 3621SOL    HW111762   1.666   3.334   5.742
 3621SOL    HW211763   1.700   3.231   5.865
 3622SOL     OW11764   0.490   2.627   0.740
 3622SOL    HW111765   0.397   2.647   0.770
 3622SOL    HW211766   0.513   2.686   0.662
 3623SOL     OW11767   0.007   5.410   4.025
 3623SOL    HW111768   6.970   5.333   3.999
 3623SOL    HW211769   0.069   5.383   4.099
 3624SOL     OW11770   1.835   1.137   1.872
 3624SOL    HW111771   1.811   1.228   1.838
 3624SOL    HW211772   1.894   1.092   1.805
 3625SOL     OW11773   0.478   3.171   4.492
 3625SOL    HW111774   0.436   3.257   4.463
 3625SOL    HW211775   0.574   3.169   4.462
 3626SOL     OW11776   2.510   3.774   5.397
 3626SOL    HW111777   2.522   3.857   5.343
 3626SOL    HW211778   2.419   3.735   5.379
 3627SOL     OW11779   2.964   3.820   3.682
 3627SOL    HW111780   2.873   3.832   3.721
 3627SOL    HW211781   3.021   3.768   3.745
 3628SOL     OW11782   3.453   5.176   2.714
 3628SOL    HW111783   3.445   5.250   2.780
 3628SOL    HW211784   3.382   5.186   2.644
 3629SOL     OW11785   6.033   2.377   5.258
 3629SOL    HW111786   5.956   2.412   5.311
 3629SOL    HW211787   6.005   2.362   5.163
 3630SOL     OW11788   5.843   1.843   4.973
 3630SOL    HW111789   5.749   1.818   4.952
 3630SOL    HW211790   5.901   1.826   4.893
 3631SOL     OW11791   2.140   0.961   4.265
 3631SOL    HW111792   2.194   1.016   4.201
 3631SOL    HW211793   2.164   0.865   4.253
 3632SOL     OW11794   4.096   0.353   6.450
 3632SOL    HW111795   4.155   0.433   6.449
 3632SOL    HW211796   4.105   0.304   6.363
 3633SOL     OW11797   2.130   3.141   5.816
 3633SOL    HW111798   2.190   3.062   5.803
 3633SOL    HW211799   2.039   3.120   5.781
 3634SOL     OW11800   2.305   5.891   5.133
 3634SOL    HW111801   2.227   5.941   5.096
 3634SOL    HW211802   2.276   5.798   5.157
 3635SOL     OW11803   2.480   1.047   5.113
 3635SOL    HW111804   2.386   1.023   5.090
 3635SOL    HW211805   2.518   1.104   5.040
 3636SOL     OW11806   1.580   5.359   6.533
 3636SOL    HW111807   1.517   5.310   6.471
 3636SOL    HW211808   1.673   5.326   6.518
 3637SOL     OW11809   5.574   1.510   2.115
 3637SOL    HW111810   5.532   1.564   2.189
 3637SOL    HW211811   5.619   1.430   2.155
 3638SOL     OW11812   6.411   4.550   4.321
 3638SOL    HW111813   6.500   4.516   4.292
 3638SOL    HW211814   6.387   4.632   4.269
 3639SOL     OW11815   2.310   5.004   0.321
 3639SOL    HW111816   2.271   5.090   0.285
 3639SOL    HW211817   2.347   4.951   0.245
 3640SOL     OW11818   3.326   6.089   1.179
 3640SOL    HW111819   3.398   6.048   1.235
 3640SOL    HW211820   3.282   6.163   1.229
 3641SOL     OW11821   2.614   0.283   4.921
 3641SOL    HW111822   2.618   0.383   4.927
 3641SOL    HW211823   2.659   0.252   4.838
 3642SOL     OW11824   5.920   0.104   3.542
 3642SOL    HW111825   5.918   0.191   3.492
 3642SOL    HW211826   6.011   0.063   3.532
 3643SOL     OW11827   2.746   4.592   5.417
 3643SOL    HW111828   2.791   4.570   5.330
 3643SOL    HW211829   2.677   4.522   5.438
 3644SOL     OW11830   0.309   1.308   0.677
 3644SOL    HW111831   0.311   1.254   0.593
 3644SOL    HW211832   0.292   1.248   0.755
 3645SOL     OW11833   3.246   6.767   3.430
 3645SOL    HW111834   3.254   6.825   3.348
 3645SOL    HW211835   3.316   6.695   3.426
 3646SOL     OW11836   6.742   5.259   4.597
 3646SOL    HW111837   6.781   5.326   4.660
 3646SOL    HW211838   6.679   5.304   4.534
 3647SOL     OW11839   2.197   2.887   1.386
 3647SOL    HW111840   2.180   2.974   1.432
 3647SOL    HW211841   2.286   2.890   1.340
 3648SOL     OW11842   2.834   5.966   2.957
 3648SOL    HW111843   2.850   6.063   2.975
 3648SOL    HW211844   2.825   5.951   2.858
 3649SOL     OW11845   3.357   3.601   2.055
 3649SOL    HW111846   3.258   3.609   2.067
 3649SOL    HW211847   3.395   3.543   2.128
 3650SOL     OW11848   6.863   6.641   1.689
 3650SOL    HW111849   6.772   6.678   1.710
 3650SOL    HW211850   6.868   6.546   1.718
 3651SOL     OW11851   1.524   6.004   2.401
 3651SOL    HW111852   1.467   6.073   2.444
 3651SOL    HW211853   1.470   5.954   2.333
 3652SOL     OW11854   4.462   5.261   3.321
 3652SOL    HW111855   4.532   5.324   3.351
 3652SOL    HW211856   4.505   5.178   3.286
 3653SOL     OW11857   0.268   2.962   3.993
 3653SOL    HW111858   0.214   2.889   4.037
 3653SOL    HW211859   0.208   3.037   3.968
 3654SOL     OW11860   1.685   6.122   1.266
 3654SOL    HW111861   1.657   6.069   1.186
 3654SOL    HW211862   1.699   6.217   1.240
 3655SOL     OW11863   1.582   0.524   4.379
 3655SOL    HW111864   1.528   0.468   4.442
 3655SOL    HW211865   1.587   0.618   4.413
 3656SOL     OW11866   2.291   2.055   2.281
 3656SOL    HW111867   2.285   2.155   2.283
 3656SOL    HW211868   2.386   2.027   2.296
 3657SOL     OW11869   3.755   5.750   1.425
 3657SOL    HW111870   3.718   5.734   1.517
 3657SOL    HW211871   3.806   5.669   1.395
 3658SOL     OW11872   1.402   5.299   6.325
 3658SOL    HW111873   1.302   5.299   6.326
 3658SOL    HW211874   1.435   5.370   6.263
 3659SOL     OW11875   1.488   4.493   6.739
 3659SOL    HW111876   1.456   4.479   6.833
 3659SOL    HW211877   1.562   4.560   6.739
 3660SOL     OW11878   4.650   5.956   1.271
 3660SOL    HW111879   4.721   6.006   1.321
 3660SOL    HW211880   4.657   5.977   1.174
 3661SOL     OW11881   5.076   1.396   0.377
 3661SOL    HW111882   5.144   1.459   0.341
 3661SOL    HW211883   5.040   1.431   0.463
 3662SOL     OW11884   3.460   6.648   5.426
 3662SOL    HW111885   3.377   6.591   5.424
 3662SOL    HW211886   3.449   6.721   5.494
 3663SOL     OW11887   0.887   3.238   6.155
 3663SOL    HW111888   0.866   3.271   6.248
 3663SOL    HW211889   0.807   3.251   6.097
 3664SOL     OW11890   3.907   1.360   0.885
 3664SOL    HW111891   3.908   1.379   0.787
 3664SOL    HW211892   3.918   1.261   0.899
 3665SOL     OW11893   1.363   6.925   6.071
 3665SOL    HW111894   1.272   6.901   6.039
 3665SOL    HW211895   1.377   0.004   6.061
 3666SOL     OW11896   0.901   5.321   3.762
 3666SOL    HW111897   0.935   5.415   3.761
 3666SOL    HW211898   0.865   5.299   3.852
 3667SOL     OW11899   6.637   1.842   6.658
 3667SOL    HW111900   6.712   1.907   6.644
 3667SOL    HW211901   6.633   1.779   6.581
 3668SOL     OW11902   0.649   6.051   1.907
 3668SOL    HW111903   0.733   6.104   1.910
 3668SOL    HW211904   0.594   6.079   1.828
 3669SOL     OW11905   6.415   2.642   2.879
 3669SOL    HW111906   6.334   2.695   2.905
 3669SOL    HW211907   6.392   2.545   2.878
 3670SOL     OW11908   1.943   5.662   5.896
 3670SOL    HW111909   1.935   5.692   5.800
 3670SOL    HW211910   2.028   5.696   5.935
 3671SOL     OW11911   0.563   0.907   3.005
 3671SOL    HW111912   0.577   0.890   2.908
 3671SOL    HW211913   0.518   0.829   3.048
 3672SOL     OW11914   0.184   0.741   0.923
 3672SOL    HW111915   0.184   0.796   0.839
 3672SOL    HW211916   0.229   0.654   0.906
 3673SOL     OW11917   4.823   0.313   6.838
 3673SOL    HW111918   4.904   0.367   6.861
 3673SOL    HW211919   4.742   0.353   6.880
 3674SOL     OW11920   0.940   6.887   1.256
 3674SOL    HW111921   0.983   6.974   1.278
 3674SOL    HW211922   0.842   6.901   1.238
 3675SOL     OW11923   1.581   1.981   5.183
 3675SOL    HW111924   1.510   1.952   5.248
 3675SOL    HW211925   1.641   2.048   5.227
 3676SOL     OW11926   2.251   5.243   3.073
 3676SOL    HW111927   2.164   5.283   3.045
 3676SOL    HW211928   2.292   5.195   2.995
 3677SOL     OW11929   6.346   6.975   4.326
 3677SOL    HW111930   6.409   6.900   4.306
 3677SOL    HW211931   6.254   6.950   4.297
 3678SOL     OW11932   0.934   1.721   4.018
 3678SOL    HW111933   0.964   1.803   3.969
 3678SOL    HW211934   0.861   1.745   4.081
 3679SOL     OW11935   0.729   0.830   1.877
 3679SOL    HW111936   0.715   0.777   1.960
 3679SOL    HW211937   0.695   0.779   1.798
 3680SOL     OW11938   6.797   3.370   4.341
 3680SOL    HW111939   6.834   3.431   4.270
 3680SOL    HW211940   6.733   3.305   4.300
 3681SOL     OW11941   6.408   6.302   5.439
 3681SOL    HW111942   6.464   6.243   5.498
 3681SOL    HW211943   6.465   6.376   5.404
 3682SOL     OW11944   0.459   1.448   6.258
 3682SOL    HW111945   0.479   1.353   6.234
 3682SOL    HW211946   0.523   1.508   6.211
 3683SOL     OW11947   5.499   6.552   4.082
 3683SOL    HW111948   5.446   6.510   4.008
 3683SOL    HW211949   5.443   6.622   4.126
 3684SOL     OW11950   1.579   3.080   0.514
 3684SOL    HW111951   1.624   3.130   0.588
 3684SOL    HW211952   1.631   3.091   0.429
 3685SOL     OW11953   6.729   6.821   6.937
 3685SOL    HW111954   6.638   6.820   6.978
 3685SOL    HW211955   6.723   6.784   6.844
 3686SOL     OW11956   6.451   4.394   1.524
 3686SOL    HW111957   6.535   4.377   1.471
 3686SOL    HW211958   6.469   4.464   1.592
 3687SOL     OW11959   3.013   0.961   6.970
 3687SOL    HW111960   2.961   0.974   6.885
 3687SOL    HW211961   3.012   1.045   0.003
 3688SOL     OW11962   0.963   3.540   0.303
 3688SOL    HW111963   1.047   3.523   0.355
 3688SOL    HW211964   0.908   3.456   0.301
 3689SOL     OW11965   2.421   1.011   3.621
 3689SOL    HW111966   2.386   0.948   3.690
 3689SOL    HW211967   2.461   1.091   3.666
 3690SOL     OW11968   6.114   6.570   5.476
 3690SOL    HW111969   6.060   6.644   5.517
 3690SOL    HW211970   6.102   6.571   5.377
 3691SOL     OW11971   3.495   2.306   6.993
 3691SOL    HW111972   3.520   2.360   0.053
 3691SOL    HW211973   3.574   2.254   6.961
 3692SOL     OW11974   1.945   0.320   6.011
 3692SOL    HW111975   1.917   0.243   5.954
 3692SOL    HW211976   1.868   0.382   6.025
 3693SOL     OW11977   2.799   2.056   2.740
 3693SOL    HW111978   2.753   2.046   2.828
 3693SOL    HW211979   2.732   2.054   2.666
 3694SOL     OW11980   2.000   6.213   2.854
 3694SOL    HW111981   1.994   6.155   2.773
 3694SOL    HW211982   2.074   6.279   2.843
 3695SOL     OW11983   1.845   2.302   2.216
 3695SOL    HW111984   1.761   2.353   2.234
 3695SOL    HW211985   1.894   2.289   2.302
 3696SOL     OW11986   3.251   6.530   5.540
 3696SOL    HW111987   3.171   6.532   5.599
 3696SOL    HW211988   3.329   6.495   5.590
 3697SOL     OW11989   6.088   0.289   4.333
 3697SOL    HW111990   6.059   0.194   4.343
 3697SOL    HW211991   6.168   0.306   4.390
 3698SOL     OW11992   3.006   6.821   5.563
 3698SOL    HW111993   2.980   6.801   5.469
 3698SOL    HW211994   3.036   6.737   5.609
 3699SOL     OW11995   0.690   3.688   2.454
 3699SOL    HW111996   0.601   3.723   2.485
 3699SOL    HW211997   0.763   3.728   2.509
 3700SOL     OW11998   0.265   6.732   4.044
 3700SOL    HW111999   0.255   6.754   4.141
 3700SOL    HW212000   0.339   6.666   4.032
 3701SOL     OW12001   6.302   0.461   3.474
 3701SOL    HW112002   6.371   0.448   3.403
 3701SOL    HW212003   6.214   0.425   3.441
 3702SOL     OW12004   3.452   0.997   6.960
 3702SOL    HW112005   3.409   1.080   6.996
 3702SOL    HW212006   3.551   1.003   6.970
 3703SOL     OW12007   4.245   4.671   6.671
 3703SOL    HW112008   4.270   4.594   6.612
 3703SOL    HW212009   4.225   4.637   6.763
 3704SOL     OW12010   1.997   0.749   2.431
 3704SOL    HW112011   1.929   0.821   2.440
 3704SOL    HW212012   2.009   0.726   2.334
 3705SOL     OW12013   5.615   0.811   4.095
 3705SOL    HW112014   5.520   0.821   4.124
 3705SOL    HW212015   5.619   0.786   3.998
 3706SOL     OW12016   2.017   2.264   4.063
 3706SOL    HW112017   1.938   2.202   4.058
 3706SOL    HW212018   2.035   2.302   3.973
 3707SOL     OW12019   4.367   2.767   5.285
 3707SOL    HW112020   4.397   2.824   5.208
 3707SOL    HW212021   4.314   2.690   5.250
 3708SOL     OW12022   5.886   0.095   5.918
 3708SOL    HW112023   5.877   7.019   5.944
 3708SOL    HW212024   5.933   0.146   5.990
 3709SOL     OW12025   3.867   0.820   6.891
 3709SOL    HW112026   3.843   0.882   6.816
 3709SOL    HW212027   3.932   0.752   6.858
 3710SOL     OW12028   0.335   4.839   0.969
 3710SOL    HW112029   0.300   4.859   1.061
 3710SOL    HW212030   0.348   4.925   0.919
 3711SOL     OW12031   6.382   4.815   2.806
 3711SOL    HW112032   6.309   4.772   2.860
 3711SOL    HW212033   6.453   4.850   2.867
 3712SOL     OW12034   2.365   6.783   0.654
 3712SOL    HW112035   2.267   6.765   0.644
 3712SOL    HW212036   2.381   6.881   0.654
 3713SOL     OW12037   3.868   5.872   5.791
 3713SOL    HW112038   3.920   5.941   5.841
 3713SOL    HW212039   3.818   5.915   5.716
 3714SOL     OW12040   3.654   0.599   4.756
 3714SOL    HW112041   3.693   0.691   4.762
 3714SOL    HW212042   3.565   0.597   4.802
 3715SOL     OW12043   5.766   3.749   4.837
 3715SOL    HW112044   5.733   3.822   4.896
 3715SOL    HW212045   5.839   3.783   4.778
 3716SOL     OW12046   0.505   0.958   4.325
 3716SOL    HW112047   0.576   0.993   4.264
 3716SOL    HW212048   0.543   0.886   4.382
 3717SOL     OW12049   5.395   6.906   0.438
 3717SOL    HW112050   5.482   6.906   0.486
 3717SOL    HW212051   5.330   6.966   0.485
 3718SOL     OW12052   0.852   5.593   0.137
 3718SOL    HW112053   0.808   5.683   0.142
 3718SOL    HW212054   0.951   5.604   0.126
 3719SOL     OW12055   3.586   5.040   5.482
 3719SOL    HW112056   3.671   5.092   5.470
 3719SOL    HW212057   3.508   5.099   5.467
 3720SOL     OW12058   6.913   2.113   5.627
 3720SOL    HW112059   6.934   2.068   5.713
 3720SOL    HW212060   6.979   2.084   5.557
 3721SOL     OW12061   5.118   3.459   0.795
 3721SOL    HW112062   5.195   3.458   0.859
 3721SOL    HW212063   5.064   3.375   0.806
 3722SOL     OW12064   6.480   5.812   2.375
 3722SOL    HW112065   6.539   5.734   2.396
 3722SOL    HW212066   6.445   5.804   2.282
 3723SOL     OW12067   4.565   1.596   0.908
 3723SOL    HW112068   4.622   1.679   0.900
 3723SOL    HW212069   4.550   1.557   0.817
 3724SOL     OW12070   0.682   6.024   5.531
 3724SOL    HW112071   0.679   6.092   5.457
 3724SOL    HW212072   0.766   6.036   5.584
 3725SOL     OW12073   6.642   6.812   0.824
 3725SOL    HW112074   6.632   6.799   0.922
 3725SOL    HW212075   6.670   6.726   0.781
 3726SOL     OW12076   5.663   3.373   1.872
 3726SOL    HW112077   5.732   3.444   1.855
 3726SOL    HW212078   5.608   3.398   1.952
 3727SOL     OW12079   2.180   3.386   5.219
 3727SOL    HW112080   2.222   3.296   5.229
 3727SOL    HW212081   2.125   3.389   5.136
 3728SOL     OW12082   1.323   3.665   6.777
 3728SOL    HW112083   1.228   3.678   6.750
 3728SOL    HW212084   1.383   3.703   6.707
 3729SOL     OW12085   0.389   2.859   3.411
 3729SOL    HW112086   0.443   2.804   3.475
 3729SOL    HW212087   0.293   2.833   3.418
 3730SOL     OW12088   2.648   0.623   0.089
 3730SOL    HW112089   2.605   0.713   0.091
 3730SOL    HW212090   2.747   0.633   0.098
 3731SOL     OW12091   3.808   6.340   6.848
 3731SOL    HW112092   3.887   6.279   6.848
 3731SOL    HW212093   3.809   6.397   6.930
 3732SOL     OW12094   2.103   3.861   5.171
 3732SOL    HW112095   2.097   3.784   5.107
 3732SOL    HW212096   2.152   3.937   5.127
 3733SOL     OW12097   2.410   3.488   1.278
 3733SOL    HW112098   2.389   3.391   1.287
 3733SOL    HW212099   2.499   3.506   1.320
 3734SOL     OW12100   5.101   0.299   2.514
 3734SOL    HW112101   5.104   0.399   2.515
 3734SOL    HW212102   5.134   0.263   2.602
 3735SOL     OW12103   3.391   1.426   2.080
 3735SOL    HW112104   3.367   1.409   1.984
 3735SOL    HW212105   3.376   1.522   2.102
 3736SOL     OW12106   5.281   1.251   6.919
 3736SOL    HW112107   5.191   1.219   6.949
 3736SOL    HW212108   5.335   1.173   6.888
 3737SOL     OW12109   4.667   6.941   3.422
 3737SOL    HW112110   4.651   6.959   3.519
 3737SOL    HW212111   4.701   6.848   3.410
 3738SOL     OW12112   0.164   6.935   3.807
 3738SOL    HW112113   0.250   6.929   3.856
 3738SOL    HW212114   0.090   6.957   3.871
 3739SOL     OW12115   0.715   4.390   2.033
 3739SOL    HW112116   0.667   4.347   1.957
 3739SOL    HW212117   0.771   4.466   1.999
 3740SOL     OW12118   5.242   1.037   0.200
 3740SOL    HW112119   5.218   0.953   0.151
 3740SOL    HW212120   5.272   1.106   0.135
 3741SOL     OW12121   3.849   2.322   6.310
 3741SOL    HW112122   3.803   2.235   6.330
 3741SOL    HW212123   3.899   2.352   6.391
 3742SOL     OW12124   3.621   3.420   5.385
 3742SOL    HW112125   3.566   3.356   5.439
 3742SOL    HW212126   3.590   3.420   5.291
 3743SOL     OW12127   0.615   5.912   6.415
 3743SOL    HW112128   0.684   5.934   6.346
 3743SOL    HW212129   0.622   5.977   6.491
 3744SOL     OW12130   0.028   5.840   2.936
 3744SOL    HW112131   0.003   5.783   2.858
 3744SOL    HW212132   0.127   5.839   2.949
 3745SOL     OW12133   4.291   6.038   2.493
 3745SOL    HW112134   4.250   6.105   2.556
 3745SOL    HW212135   4.299   6.079   2.402
 3746SOL     OW12136   4.163   2.264   2.780
 3746SOL    HW112137   4.223   2.344   2.777
 3746SOL    HW212138   4.216   2.184   2.805
 3747SOL     OW12139   2.937   6.836   0.355
 3747SOL    HW112140   2.897   6.868   0.269
 3747SOL    HW212141   3.021   6.887   0.374
 3748SOL     OW12142   5.621   1.292   2.288
 3748SOL    HW112143   5.539   1.325   2.335
 3748SOL    HW212144   5.701   1.311   2.344
 3749SOL     OW12145   1.476   6.851   5.397
 3749SOL    HW112146   1.460   6.876   5.493
 3749SOL    HW212147   1.440   6.922   5.337
 3750SOL     OW12148   0.567   4.331   6.676
 3750SOL    HW112149   0.480   4.374   6.700
 3750SOL    HW212150   0.585   4.344   6.579
 3751SOL     OW12151   1.359   3.814   2.330
 3751SOL    HW112152   1.349   3.727   2.378
 3751SOL    HW212153   1.289   3.821   2.259
 3752SOL     OW12154   5.749   6.964   6.388
 3752SOL    HW112155   5.680   6.975   6.317
 3752SOL    HW212156   5.704   6.944   6.475
 3753SOL     OW12157   6.501   0.089   3.997
 3753SOL    HW112158   6.443   0.156   4.042
 3753SOL    HW212159   6.590   0.085   4.044
 3754SOL     OW12160   2.895   1.625   1.031
 3754SOL    HW112161   2.799   1.652   1.033
 3754SOL    HW212162   2.928   1.610   1.124
 3755SOL     OW12163   3.090   5.176   3.383
 3755SOL    HW112164   3.034   5.173   3.466
 3755SOL    HW212165   3.143   5.091   3.376
 3756SOL     OW12166   2.363   6.356   0.205
 3756SOL    HW112167   2.384   6.262   0.230
 3756SOL    HW212168   2.432   6.391   0.143
 3757SOL     OW12169   6.792   4.733   1.803
 3757SOL    HW112170   6.764   4.791   1.880
 3757SOL    HW212171   6.890   4.743   1.788
 3758SOL     OW12172   2.219   0.267   3.842
 3758SOL    HW112173   2.123   0.248   3.823
 3758SOL    HW212174   2.235   0.263   3.941
 3759SOL     OW12175   5.146   0.204   4.358
 3759SOL    HW112176   5.198   0.289   4.355
 3759SOL    HW212177   5.172   0.152   4.440
 3760SOL     OW12178   0.636   0.925   3.342
 3760SOL    HW112179   0.649   1.011   3.293
 3760SOL    HW212180   0.539   0.912   3.360
 3761SOL     OW12181   5.077   1.049   4.375
 3761SOL    HW112182   5.164   1.068   4.330
 3761SOL    HW212183   5.082   1.075   4.471
 3762SOL     OW12184   0.004   2.494   3.525
 3762SOL    HW112185   0.049   2.429   3.586
 3762SOL    HW212186   0.041   2.586   3.540
 3763SOL     OW12187   0.372   4.493   0.351
 3763SOL    HW112188   0.415   4.568   0.300
 3763SOL    HW212189   0.428   4.411   0.343
 3764SOL     OW12190   2.302   0.992   3.103
 3764SOL    HW112191   2.331   1.026   3.013
 3764SOL    HW212192   2.361   1.031   3.174
 3765SOL     OW12193   5.701   3.150   2.752
 3765SOL    HW112194   5.717   3.103   2.839
 3765SOL    HW212195   5.608   3.187   2.750
 3766SOL     OW12196   1.119   3.705   2.700
 3766SOL    HW112197   1.149   3.769   2.629
 3766SOL    HW212198   1.162   3.731   2.787
 3767SOL     OW12199   1.272   5.298   6.036
 3767SOL    HW112200   1.228   5.385   6.057
 3767SOL    HW212201   1.210   5.223   6.059
 3768SOL     OW12202   0.672   6.792   2.861
 3768SOL    HW112203   0.575   6.772   2.849
 3768SOL    HW212204   0.698   6.869   2.803
 3769SOL     OW12205   5.565   5.161   4.689
 3769SOL    HW112206   5.581   5.216   4.607
 3769SOL    HW212207   5.633   5.185   4.758
 3770SOL     OW12208   2.059   0.930   1.201
 3770SOL    HW112209   2.007   0.948   1.117
 3770SOL    HW212210   2.024   0.988   1.275
 3771SOL     OW12211   6.468   5.124   5.921
 3771SOL    HW112212   6.484   5.202   5.861
 3771SOL    HW212213   6.383   5.137   5.971
 3772SOL     OW12214   1.582   6.459   0.821
 3772SOL    HW112215   1.527   6.435   0.901
 3772SOL    HW212216   1.612   6.375   0.775
 3773SOL     OW12217   5.196   4.775   6.776
 3773SOL    HW112218   5.163   4.686   6.809
 3773SOL    HW212219   5.261   4.812   6.841
 3774SOL     OW12220   6.783   5.513   1.654
 3774SOL    HW112221   6.782   5.433   1.594
 3774SOL    HW212222   6.822   5.489   1.742
 3775SOL     OW12223   4.878   4.995   5.273
 3775SOL    HW112224   4.790   5.002   5.321
 3775SOL    HW212225   4.881   5.061   5.199
 3776SOL     OW12226   3.707   2.439   5.866
 3776SOL    HW112227   3.780   2.497   5.902
 3776SOL    HW212228   3.728   2.343   5.884
 3777SOL     OW12229   2.807   5.600   4.182
 3777SOL    HW112230   2.792   5.697   4.163
 3777SOL    HW212231   2.792   5.546   4.099
 3778SOL     OW12232   3.539   5.674   6.427
 3778SOL    HW112233   3.455   5.628   6.459
 3778SOL    HW212234   3.602   5.605   6.390
 3779SOL     OW12235   6.785   4.393   0.418
 3779SOL    HW112236   6.732   4.394   0.333
 3779SOL    HW212237   6.723   4.388   0.496
 3780SOL     OW12238   5.261   4.341   1.407
 3780SOL    HW112239   5.244   4.343   1.505
 3780SOL    HW212240   5.263   4.434   1.371
 3781SOL     OW12241   2.647   6.527   4.657
 3781SOL    HW112242   2.711   6.511   4.582
 3781SOL    HW212243   2.588   6.605   4.635
 3782SOL     OW12244   4.495   5.268   1.049
 3782SOL    HW112245   4.414   5.258   1.108
 3782SOL    HW212246   4.576   5.278   1.105
 3783SOL     OW12247   4.730   5.674   4.232
 3783SOL    HW112248   4.748   5.579   4.209
 3783SOL    HW212249   4.764   5.694   4.324
 3784SOL     OW12250   5.748   2.129   4.894
 3784SOL    HW112251   5.794   2.041   4.909
 3784SOL    HW212252   5.705   2.129   4.803
 3785SOL     OW12253   1.884   3.230   4.020
 3785SOL    HW112254   1.959   3.281   4.063
 3785SOL    HW212255   1.909   3.134   4.014
 3786SOL     OW12256   2.272   2.918   4.600
 3786SOL    HW112257   2.319   2.838   4.563
 3786SOL    HW212258   2.290   2.925   4.698
 3787SOL     OW12259   4.647   6.853   4.259
 3787SOL    HW112260   4.716   6.875   4.329
 3787SOL    HW212261   4.690   6.803   4.184
 3788SOL     OW12262   5.728   3.146   5.400
 3788SOL    HW112263   5.723   3.047   5.385
 3788SOL    HW212264   5.642   3.179   5.439
 3789SOL     OW12265   2.053   3.118   2.364
 3789SOL    HW112266   1.954   3.115   2.349
 3789SOL    HW212267   2.100   3.067   2.292
 3790SOL     OW12268   0.225   6.611   1.708
 3790SOL    HW112269   0.269   6.658   1.632
 3790SOL    HW212270   0.293   6.587   1.777
 3791SOL     OW12271   5.545   1.174   5.518
 3791SOL    HW112272   5.520   1.078   5.533
 3791SOL    HW212273   5.464   1.226   5.490
 3792SOL     OW12274   6.737   0.508   4.496
 3792SOL    HW112275   6.712   0.507   4.399
 3792SOL    HW212276   6.763   0.600   4.523
 3793SOL     OW12277   4.629   4.814   0.477
 3793SOL    HW112278   4.707   4.841   0.534
 3793SOL    HW212279   4.634   4.717   0.456
 3794SOL     OW12280   0.295   4.196   6.465
 3794SOL    HW112281   0.201   4.163   6.462
 3794SOL    HW212282   0.299   4.282   6.515
 3795SOL     OW12283   2.901   5.903   1.093
 3795SOL    HW112284   2.850   5.894   1.007
 3795SOL    HW212285   2.998   5.886   1.077
 3796SOL     OW12286   5.029   1.172   6.980
 3796SOL    HW112287   4.953   1.230   6.951
 3796SOL    HW212288   5.037   1.174   0.060
 3797SOL     OW12289   1.156   4.272   2.005
 3797SOL    HW112290   1.236   4.219   1.977
 3797SOL    HW212291   1.115   4.230   2.086
 3798SOL     OW12292   1.398   5.791   3.599
 3798SOL    HW112293   1.477   5.818   3.653
 3798SOL    HW212294   1.428   5.738   3.520
 3799SOL     OW12295   6.528   0.868   3.350
 3799SOL    HW112296   6.457   0.917   3.300
 3799SOL    HW212297   6.524   0.894   3.446
 3800SOL     OW12298   4.920   2.482   2.623
 3800SOL    HW112299   5.013   2.480   2.586
 3800SOL    HW212300   4.920   2.447   2.717
 3801SOL     OW12301   6.146   1.722   1.424
 3801SOL    HW112302   6.069   1.707   1.487
 3801SOL    HW212303   6.228   1.743   1.477
 3802SOL     OW12304   6.753   3.076   1.850
 3802SOL    HW112305   6.679   3.141   1.835
 3802SOL    HW212306   6.722   2.984   1.827
 3803SOL     OW12307   3.252   3.214   4.305
 3803SOL    HW112308   3.212   3.297   4.343
 3803SOL    HW212309   3.179   3.157   4.266
 3804SOL     OW12310   4.611   5.922   3.507
 3804SOL    HW112311   4.633   5.960   3.597
 3804SOL    HW212312   4.694   5.915   3.452
 3805SOL     OW12313   2.423   2.763   0.183
 3805SOL    HW112314   2.482   2.772   0.102
 3805SOL    HW212315   2.480   2.747   0.264
 3806SOL     OW12316   2.560   4.734   0.998
 3806SOL    HW112317   2.588   4.731   0.902
 3806SOL    HW212318   2.461   4.747   1.003
 3807SOL     OW12319   2.023   4.429   4.444
 3807SOL    HW112320   1.937   4.379   4.450
 3807SOL    HW212321   2.029   4.495   4.519
 3808SOL     OW12322   2.543   6.886   6.595
 3808SOL    HW112323   2.611   6.818   6.623
 3808SOL    HW212324   2.502   6.928   6.676
 3809SOL     OW12325   5.292   1.670   1.203
 3809SOL    HW112326   5.320   1.677   1.107
 3809SOL    HW212327   5.193   1.678   1.210
 3810SOL     OW12328   5.575   2.546   1.960
 3810SOL    HW112329   5.614   2.588   1.878
 3810SOL    HW212330   5.520   2.613   2.009
 3811SOL     OW12331   0.223   5.486   5.284
 3811SOL    HW112332   0.178   5.429   5.215
 3811SOL    HW212333   0.313   5.447   5.304
 3812SOL     OW12334   4.733   5.999   1.004
 3812SOL    HW112335   4.771   5.981   0.913
 3812SOL    HW212336   4.792   6.062   1.053
 3813SOL     OW12337   6.225   3.985   6.805
 3813SOL    HW112338   6.184   4.073   6.782
 3813SOL    HW212339   6.287   3.996   6.883
 3814SOL     OW12340   6.836   0.520   5.291
 3814SOL    HW112341   6.852   0.585   5.366
 3814SOL    HW212342   6.922   0.504   5.243
 3815SOL     OW12343   6.348   3.802   5.499
 3815SOL    HW112344   6.289   3.772   5.575
 3815SOL    HW212345   6.348   3.902   5.495
 3816SOL     OW12346   0.448   5.926   0.660
 3816SOL    HW112347   0.351   5.913   0.639
 3816SOL    HW212348   0.471   5.875   0.743
 3817SOL     OW12349   4.812   3.737   1.850
 3817SOL    HW112350   4.727   3.767   1.805
 3817SOL    HW212351   4.834   3.800   1.924
 3818SOL     OW12352   5.636   6.091   2.982
 3818SOL    HW112353   5.709   6.068   3.046
 3818SOL    HW212354   5.548   6.059   3.019
 3819SOL     OW12355   6.404   4.391   3.999
 3819SOL    HW112356   6.441   4.322   4.061
 3819SOL    HW212357   6.333   4.444   4.046
 3820SOL     OW12358   3.271   6.332   4.593
 3820SOL    HW112359   3.234   6.413   4.639
 3820SOL    HW212360   3.226   6.321   4.504
 3821SOL     OW12361   1.991   0.242   0.195
 3821SOL    HW112362   2.055   0.275   0.126
 3821SOL    HW212363   2.036   0.172   0.251
 3822SOL     OW12364   4.811   0.140   2.182
 3822SOL    HW112365   4.718   0.158   2.214
 3822SOL    HW212366   4.870   0.217   2.207
 3823SOL     OW12367   5.858   5.847   6.891
 3823SOL    HW112368   5.815   5.900   6.817
 3823SOL    HW212369   5.937   5.798   6.854
 3824SOL     OW12370   2.638   2.712   0.369
 3824SOL    HW112371   2.706   2.757   0.313
 3824SOL    HW212372   2.652   2.737   0.465
 3825SOL     OW12373   1.011   4.055   5.431
 3825SOL    HW112374   0.925   4.083   5.389
 3825SOL    HW212375   1.086   4.075   5.368
 3826SOL     OW12376   5.569   4.140   4.060
 3826SOL    HW112377   5.552   4.092   3.974
 3826SOL    HW212378   5.634   4.087   4.115
 3827SOL     OW12379   0.901   1.884   1.223
 3827SOL    HW112380   0.943   1.824   1.155
 3827SOL    HW212381   0.814   1.918   1.188
 3828SOL     OW12382   3.470   3.504   4.316
 3828SOL    HW112383   3.514   3.417   4.296
 3828SOL    HW212384   3.381   3.488   4.357
 3829SOL     OW12385   0.780   3.785   2.225
 3829SOL    HW112386   0.753   3.725   2.300
 3829SOL    HW212387   0.717   3.772   2.148
 3830SOL     OW12388   6.080   0.879   4.212
 3830SOL    HW112389   6.103   0.812   4.283
 3830SOL    HW212390   6.147   0.874   4.139
 3831SOL     OW12391   5.071   2.229   3.881
 3831SOL    HW112392   5.095   2.143   3.836
 3831SOL    HW212393   4.972   2.232   3.897
 3832SOL     OW12394   6.007   0.634   3.555
 3832SOL    HW112395   5.913   0.661   3.579
 3832SOL    HW212396   6.066   0.647   3.635
 3833SOL     OW12397   1.790   1.590   5.472
 3833SOL    HW112398   1.861   1.534   5.516
 3833SOL    HW212399   1.824   1.622   5.383
 3834SOL     OW12400   4.995   4.033   0.731
 3834SOL    HW112401   5.012   4.029   0.632
 3834SOL    HW212402   5.071   4.080   0.776
 3835SOL     OW12403   3.680   5.204   4.993
 3835SOL    HW112404   3.654   5.280   5.052
 3835SOL    HW212405   3.617   5.127   5.007
 3836SOL     OW12406   0.257   6.357   5.639
 3836SOL    HW112407   0.334   6.369   5.577
 3836SOL    HW212408   0.174   6.337   5.586
 3837SOL     OW12409   4.385   4.629   5.663
 3837SOL    HW112410   4.345   4.613   5.753
 3837SOL    HW212411   4.375   4.547   5.606
 3838SOL     OW12412   0.735   1.260   4.015
 3838SOL    HW112413   0.793   1.323   3.964
 3838SOL    HW212414   0.644   1.256   3.972
 3839SOL     OW12415   4.035   0.696   4.138
 3839SOL    HW112416   4.038   0.794   4.160
 3839SOL    HW212417   3.940   0.665   4.136
 3840SOL     OW12418   2.509   1.511   6.863
 3840SOL    HW112419   2.512   1.478   6.768
 3840SOL    HW212420   2.589   1.476   6.912
 3841SOL     OW12421   5.759   4.662   4.440
 3841SOL    HW112422   5.831   4.623   4.382
 3841SOL    HW212423   5.800   4.706   4.520
 3842SOL     OW12424   1.647   3.382   5.207
 3842SOL    HW112425   1.700   3.419   5.283
 3842SOL    HW212426   1.557   3.426   5.204
 3843SOL     OW12427   5.102   2.629   0.307
 3843SOL    HW112428   5.040   2.681   0.247
 3843SOL    HW212429   5.090   2.531   0.288
 3844SOL     OW12430   1.314   6.930   1.378
 3844SOL    HW112431   1.302   6.952   1.281
 3844SOL    HW212432   1.264   6.846   1.400
 3845SOL     OW12433   2.310   5.595   0.822
 3845SOL    HW112434   2.357   5.593   0.911
 3845SOL    HW212435   2.375   5.620   0.751
 3846SOL     OW12436   0.749   2.808   3.050
 3846SOL    HW112437   0.802   2.725   3.031
 3846SOL    HW212438   0.653   2.791   3.027
 3847SOL     OW12439   6.924   1.874   6.944
 3847SOL    HW112440   6.850   1.807   6.943
 3847SOL    HW212441   7.012   1.826   6.947
 3848SOL     OW12442   5.837   3.832   2.501
 3848SOL    HW112443   5.891   3.855   2.420
 3848SOL    HW212444   5.863   3.892   2.577
 3849SOL     OW12445   6.850   5.189   0.029
 3849SOL    HW112446   6.931   5.240   7.019
 3849SOL    HW212447   6.875   5.093   0.045
 3850SOL     OW12448   2.600   2.708   1.300
 3850SOL    HW112449   2.669   2.679   1.234
 3850SOL    HW212450   2.645   2.755   1.377
 3851SOL     OW12451   0.702   6.351   2.363
 3851SOL    HW112452   0.665   6.320   2.275
 3851SOL    HW212453   0.640   6.323   2.437
 3852SOL     OW12454   2.555   6.567   5.728
 3852SOL    HW112455   2.477   6.621   5.696
 3852SOL    HW212456   2.523   6.490   5.783
 3853SOL     OW12457   2.345   0.633   3.490
 3853SOL    HW112458   2.415   0.611   3.559
 3853SOL    HW212459   2.343   0.732   3.476
 3854SOL     OW12460   1.543   2.402   2.621
 3854SOL    HW112461   1.597   2.467   2.568
 3854SOL    HW212462   1.591   2.314   2.625
 3855SOL     OW12463   3.816   6.859   0.505
 3855SOL    HW112464   3.887   6.896   0.565
 3855SOL    HW212465   3.858   6.831   0.418
 3856SOL     OW12466   0.457   2.237   6.778
 3856SOL    HW112467   0.488   2.295   6.853
 3856SOL    HW212468   0.487   2.143   6.793
 3857SOL     OW12469   2.513   0.208   5.516
 3857SOL    HW112470   2.601   0.179   5.553
 3857SOL    HW212471   2.526   0.283   5.452
 3858SOL     OW12472   4.206   0.541   4.867
 3858SOL    HW112473   4.225   0.639   4.870
 3858SOL    HW212474   4.249   0.501   4.786
 3859SOL     OW12475   5.867   0.307   2.122
 3859SOL    HW112476   5.829   0.230   2.173
 3859SOL    HW212477   5.794   0.354   2.073
 3860SOL     OW12478   1.126   6.742   4.193
 3860SOL    HW112479   1.123   6.817   4.128
 3860SOL    HW212480   1.206   6.684   4.174
 3861SOL     OW12481   3.350   6.021   2.003
 3861SOL    HW112482   3.363   5.936   2.055
 3861SOL    HW212483   3.256   6.023   1.967
 3862SOL     OW12484   1.575   0.148   3.938
 3862SOL    HW112485   1.475   0.157   3.931
 3862SOL    HW212486   1.597   0.062   3.985
 3863SOL     OW12487   4.015   0.228   0.742
 3863SOL    HW112488   4.020   0.307   0.680
 3863SOL    HW212489   3.925   0.226   0.786
 3864SOL     OW12490   2.336   0.005   4.426
 3864SOL    HW112491   2.304   0.097   4.449
 3864SOL    HW212492   2.434   0.008   4.407
 3865SOL     OW12493   3.944   0.744   0.480
 3865SOL    HW112494   3.992   0.737   0.393
 3865SOL    HW212495   3.856   0.698   0.474
 3866SOL     OW12496   2.755   2.864   6.748
 3866SOL    HW112497   2.738   2.817   6.662
 3866SOL    HW212498   2.730   2.960   6.739
 3867SOL     OW12499   0.534   3.714   1.891
 3867SOL    HW112500   0.490   3.676   1.973
 3867SOL    HW212501   0.531   3.647   1.817
 3868SOL     OW12502   4.279   0.724   0.012
 3868SOL    HW112503   4.239   0.816   0.016
 3868SOL    HW212504   4.230   0.669   6.964
 3869SOL     OW12505   5.940   3.112   3.761
 3869SOL    HW112506   5.954   3.047   3.686
 3869SOL    HW212507   5.843   3.117   3.783
 3870SOL     OW12508   0.102   0.330   4.001
 3870SOL    HW112509   0.149   0.389   3.935
 3870SOL    HW212510   0.080   0.382   4.083
 3871SOL     OW12511   2.734   5.167   4.378
 3871SOL    HW112512   2.770   5.134   4.291
 3871SOL    HW212513   2.767   5.260   4.394
 3872SOL     OW12514   3.268   3.543   5.508
 3872SOL    HW112515   3.345   3.607   5.505
 3872SOL    HW212516   3.185   3.592   5.537
 3873SOL     OW12517   4.643   1.972   0.569
 3873SOL    HW112518   4.568   2.037   0.559
 3873SOL    HW212519   4.618   1.902   0.635
 3874SOL     OW12520   2.918   0.664   0.031
 3874SOL    HW112521   2.934   0.580   6.999
 3874SOL    HW212522   2.967   0.740   7.008
 3875SOL     OW12523   1.705   2.220   5.868
 3875SOL    HW112524   1.617   2.172   5.872
 3875SOL    HW212525   1.694   2.311   5.908
 3876SOL     OW12526   3.900   5.321   1.085
 3876SOL    HW112527   3.990   5.311   1.042
 3876SOL    HW212528   3.854   5.233   1.086
 3877SOL     OW12529   6.696   2.079   0.087
 3877SOL    HW112530   6.761   2.013   0.126
 3877SOL    HW212531   6.741   2.129   0.013
 3878SOL     OW12532   4.452   0.287   3.759
 3878SOL    HW112533   4.382   0.339   3.808
 3878SOL    HW212534   4.542   0.328   3.775
 3879SOL     OW12535   5.260   5.096   0.026
 3879SOL    HW112536   5.165   5.064   0.017
 3879SOL    HW212537   5.273   5.133   0.118
 3880SOL     OW12538   4.927   3.947   4.196
 3880SOL    HW112539   5.006   3.901   4.156
 3880SOL    HW212540   4.882   3.886   4.261
 3881SOL     OW12541   1.293   4.259   0.102
 3881SOL    HW112542   1.305   4.182   0.040
 3881SOL    HW212543   1.244   4.229   0.184
 3882SOL     OW12544   0.894   1.676   0.957
 3882SOL    HW112545   0.905   1.762   0.906
 3882SOL    HW212546   0.977   1.659   1.010
 3883SOL     OW12547   4.576   6.310   3.467
 3883SOL    HW112548   4.558   6.247   3.392
 3883SOL    HW212549   4.538   6.400   3.444
 3884SOL     OW12550   1.040   5.174   2.311
 3884SOL    HW112551   1.117   5.183   2.247
 3884SOL    HW212552   0.954   5.182   2.260
 3885SOL     OW12553   5.402   5.985   3.095
 3885SOL    HW112554   5.382   5.979   3.193
 3885SOL    HW212555   5.362   6.069   3.058
 3886SOL     OW12556   3.868   6.431   5.964
 3886SOL    HW112557   3.808   6.402   5.889
 3886SOL    HW212558   3.822   6.503   6.017
 3887SOL     OW12559   0.178   6.047   1.780
 3887SOL    HW112560   0.202   6.136   1.819
 3887SOL    HW212561   0.241   5.978   1.815
 3888SOL     OW12562   5.650   6.151   4.341
 3888SOL    HW112563   5.680   6.237   4.298
 3888SOL    HW212564   5.604   6.172   4.427
 3889SOL     OW12565   5.660   3.509   6.652
 3889SOL    HW112566   5.668   3.413   6.679
 3889SOL    HW212567   5.610   3.560   6.722
 3890SOL     OW12568   5.165   3.211   4.740
 3890SOL    HW112569   5.201   3.170   4.657
 3890SOL    HW212570   5.210   3.171   4.820
 3891SOL     OW12571   5.936   5.083   3.295
 3891SOL    HW112572   5.880   5.027   3.235
 3891SOL    HW212573   5.928   5.051   3.389
 3892SOL     OW12574   0.254   2.605   1.453
 3892SOL    HW112575   0.277   2.693   1.495
 3892SOL    HW212576   0.268   2.532   1.520
 3893SOL     OW12577   4.257   3.686   1.339
 3893SOL    HW112578   4.200   3.710   1.417
 3893SOL    HW212579   4.216   3.608   1.291
 3894SOL     OW12580   4.817   0.417   6.271
 3894SOL    HW112581   4.869   0.490   6.315
 3894SOL    HW212582   4.875   0.370   6.204
 3895SOL     OW12583   1.691   6.688   4.540
 3895SOL    HW112584   1.668   6.716   4.447
 3895SOL    HW212585   1.724   6.594   4.539
 3896SOL     OW12586   1.500   1.068   6.842
 3896SOL    HW112587   1.424   1.093   6.783
 3896SOL    HW212588   1.483   1.101   6.935
 3897SOL     OW12589   4.207   5.907   1.905
 3897SOL    HW112590   4.268   5.987   1.913
 3897SOL    HW212591   4.262   5.824   1.907
 3898SOL     OW12592   3.958   2.945   6.377
 3898SOL    HW112593   3.934   2.857   6.419
 3898SOL    HW212594   4.054   2.966   6.395
 3899SOL     OW12595   4.658   6.403   6.086
 3899SOL    HW112596   4.694   6.327   6.140
 3899SOL    HW212597   4.560   6.388   6.070
 3900SOL     OW12598   5.338   3.960   2.824
 3900SOL    HW112599   5.362   3.957   2.921
 3900SOL    HW212600   5.389   4.033   2.780
 3901SOL     OW12601   3.015   0.248   6.959
 3901SOL    HW112602   3.071   0.207   0.012
 3901SOL    HW212603   2.982   0.176   6.897
 3902SOL     OW12604   6.402   3.255   2.717
 3902SOL    HW112605   6.395   3.355   2.721
 3902SOL    HW212606   6.338   3.215   2.783
 3903SOL     OW12607   3.799   5.486   6.709
 3903SOL    HW112608   3.718   5.535   6.741
 3903SOL    HW212609   3.817   5.410   6.771
 3904SOL     OW12610   1.434   0.352   0.466
 3904SOL    HW112611   1.336   0.343   0.479
 3904SOL    HW212612   1.482   0.300   0.537
 3905SOL     OW12613   6.938   6.103   5.700
 3905SOL    HW112614   7.003   6.126   5.773
 3905SOL    HW212615   6.989   6.081   5.616
 3906SOL     OW12616   5.531   6.418   5.537
 3906SOL    HW112617   5.552   6.327   5.572
 3906SOL    HW212618   5.453   6.413   5.475
 3907SOL     OW12619   5.922   1.981   4.130
 3907SOL    HW112620   5.928   1.958   4.033
 3907SOL    HW212621   5.998   2.040   4.156
 3908SOL     OW12622   1.478   2.081   5.830
 3908SOL    HW112623   1.396   2.138   5.824
 3908SOL    HW212624   1.454   1.986   5.811
 3909SOL     OW12625   5.332   5.293   4.102
 3909SOL    HW112626   5.328   5.234   4.183
 3909SOL    HW212627   5.364   5.384   4.129
 3910SOL     OW12628   3.526   3.809   2.879
 3910SOL    HW112629   3.591   3.860   2.823
 3910SOL    HW212630   3.504   3.862   2.961
 3911SOL     OW12631   5.836   1.626   5.471
 3911SOL    HW112632   5.882   1.572   5.401
 3911SOL    HW212633   5.904   1.680   5.521
 3912SOL     OW12634   5.777   2.315   5.605
 3912SOL    HW112635   5.702   2.341   5.667
 3912SOL    HW212636   5.745   2.248   5.539
 3913SOL     OW12637   1.249   6.698   0.332
 3913SOL    HW112638   1.347   6.702   0.350
 3913SOL    HW212639   1.202   6.662   0.413
 3914SOL     OW12640   3.660   6.598   6.388
 3914SOL    HW112641   3.586   6.662   6.407
 3914SOL    HW212642   3.661   6.527   6.459
 3915SOL     OW12643   5.481   5.562   1.736
 3915SOL    HW112644   5.431   5.639   1.774
 3915SOL    HW212645   5.473   5.483   1.797
 3916SOL     OW12646   0.866   0.172   2.933
 3916SOL    HW112647   0.945   0.232   2.944
 3916SOL    HW212648   0.872   0.097   2.998
 3917SOL     OW12649   1.773   0.138   0.080
 3917SOL    HW112650   1.866   0.160   0.109
 3917SOL    HW212651   1.707   0.182   0.141
 3918SOL     OW12652   5.420   4.306   1.838
 3918SOL    HW112653   5.451   4.215   1.811
 3918SOL    HW212654   5.497   4.356   1.878
 3919SOL     OW12655   3.470   0.001   0.474
 3919SOL    HW112656   3.448   7.019   0.571
 3919SOL    HW212657   3.497   0.093   0.448
 3920SOL     OW12658   2.290   2.602   6.512
 3920SOL    HW112659   2.348   2.581   6.591
 3920SOL    HW212660   2.278   2.519   6.457
 3921SOL     OW12661   1.278   4.042   1.578
 3921SOL    HW112662   1.370   4.006   1.563
 3921SOL    HW212663   1.261   4.118   1.516
 3922SOL     OW12664   0.724   3.984   1.575
 3922SOL    HW112665   0.713   4.003   1.477
 3922SOL    HW212666   0.754   4.067   1.622
 3923SOL     OW12667   0.839   0.601   0.682
 3923SOL    HW112668   0.781   0.573   0.605
 3923SOL    HW212669   0.785   0.656   0.746
 3924SOL     OW12670   6.707   4.764   4.536
 3924SOL    HW112671   6.792   4.711   4.543
 3924SOL    HW212672   6.659   4.762   4.624
 3925SOL     OW12673   1.798   5.127   2.275
 3925SOL    HW112674   1.863   5.170   2.212
 3925SOL    HW212675   1.776   5.192   2.349
 3926SOL     OW12676   4.594   4.408   2.258
 3926SOL    HW112677   4.607   4.506   2.241
 3926SOL    HW212678   4.547   4.366   2.180
 3927SOL     OW12679   0.301   3.107   6.115
 3927SOL    HW112680   0.386   3.056   6.100
 3927SOL    HW212681   0.322   3.202   6.138
 3928SOL     OW12682   5.316   5.733   6.976
 3928SOL    HW112683   5.222   5.758   7.001
 3928SOL    HW212684   5.330   5.752   6.879
 3929SOL     OW12685   0.705   0.998   4.919
 3929SOL    HW112686   0.631   1.000   4.986
 3929SOL    HW212687   0.787   0.959   4.961
 3930SOL     OW12688   2.209   1.974   3.180
 3930SOL    HW112689   2.262   1.897   3.214
 3930SOL    HW212690   2.113   1.948   3.170
 3931SOL     OW12691   6.360   1.741   1.600
 3931SOL    HW112692   6.447   1.697   1.577
 3931SOL    HW212693   6.304   1.678   1.653
 3932SOL     OW12694   0.749   2.154   4.280
 3932SOL    HW112695   0.726   2.250   4.265
 3932SOL    HW212696   0.691   2.117   4.353
 3933SOL     OW12697   1.500   0.514   6.208
 3933SOL    HW112698   1.410   0.474   6.189
 3933SOL    HW212699   1.494   0.574   6.287
 3934SOL     OW12700   6.014   0.429   5.848
 3934SOL    HW112701   6.110   0.407   5.868
 3934SOL    HW212702   5.993   0.520   5.883
 3935SOL     OW12703   4.320   0.350   0.825
 3935SOL    HW112704   4.313   0.443   0.789
 3935SOL    HW212705   4.378   0.349   0.906
 3936SOL     OW12706   6.147   5.642   4.169
 3936SOL    HW112707   6.228   5.700   4.181
 3936SOL    HW212708   6.169   5.548   4.193
 3937SOL     OW12709   0.280   1.398   2.618
 3937SOL    HW112710   0.217   1.449   2.559
 3937SOL    HW212711   0.352   1.357   2.562
 3938SOL     OW12712   7.018   1.148   3.152
 3938SOL    HW112713   6.955   1.136   3.229
 3938SOL    HW212714   6.993   1.084   3.079
 3939SOL     OW12715   3.167   1.749   1.995
 3939SOL    HW112716   3.157   1.729   2.093
 3939SOL    HW212717   3.084   1.793   1.961
 3940SOL     OW12718   3.390   3.626   1.102
 3940SOL    HW112719   3.357   3.699   1.043
 3940SOL    HW212720   3.476   3.589   1.065
 3941SOL     OW12721   3.974   4.470   6.510
 3941SOL    HW112722   3.959   4.569   6.502
 3941SOL    HW212723   4.072   4.452   6.523
 3942SOL     OW12724   6.137   6.854   6.669
 3942SOL    HW112725   6.163   6.946   6.642
 3942SOL    HW212726   6.054   6.857   6.725
 3943SOL     OW12727   0.905   2.941   4.494
 3943SOL    HW112728   0.836   3.014   4.488
 3943SOL    HW212729   0.902   2.899   4.584
 3944SOL     OW12730   5.043   2.259   4.739
 3944SOL    HW112731   4.990   2.252   4.823
 3944SOL    HW212732   4.997   2.322   4.676
 3945SOL     OW12733   0.096   1.786   0.944
 3945SOL    HW112734   0.129   1.702   0.899
 3945SOL    HW212735   0.145   1.865   0.905
 3946SOL     OW12736   4.702   4.714   3.140
 3946SOL    HW112737   4.751   4.711   3.227
 3946SOL    HW212738   4.703   4.623   3.098
 3947SOL     OW12739   4.702   6.112   0.562
 3947SOL    HW112740   4.697   6.043   0.489
 3947SOL    HW212741   4.787   6.101   0.613
 3948SOL     OW12742   6.247   4.729   1.646
 3948SOL    HW112743   6.209   4.673   1.719
 3948SOL    HW212744   6.345   4.744   1.662
 3949SOL     OW12745   4.333   5.701   3.141
 3949SOL    HW112746   4.396   5.628   3.168
 3949SOL    HW212747   4.359   5.735   3.050
 3950SOL     OW12748   1.991   5.464   1.093
 3950SOL    HW112749   1.957   5.394   1.030
 3950SOL    HW212750   1.925   5.539   1.098
 3951SOL     OW12751   5.072   0.614   1.671
 3951SOL    HW112752   5.168   0.627   1.694
 3951SOL    HW212753   5.039   0.529   1.712
 3952SOL     OW12754   0.003   2.990   0.637
 3952SOL    HW112755   0.048   2.901   0.646
 3952SOL    HW212756   0.033   3.049   0.712
 3953SOL     OW12757   4.138   3.391   1.899
 3953SOL    HW112758   4.146   3.292   1.889
 3953SOL    HW212759   4.155   3.416   1.995
 3954SOL     OW12760   3.865   4.634   5.611
 3954SOL    HW112761   3.774   4.630   5.650
 3954SOL    HW212762   3.916   4.709   5.652
 3955SOL     OW12763   3.461   0.416   5.773
 3955SOL    HW112764   3.481   0.510   5.798
 3955SOL    HW212765   3.432   0.412   5.678
 3956SOL     OW12766   0.936   0.910   2.211
 3956SOL    HW112767   0.994   0.868   2.141
 3956SOL    HW212768   0.928   0.848   2.289
 3957SOL     OW12769   3.659   0.171   4.225
 3957SOL    HW112770   3.604   0.212   4.153
 3957SOL    HW212771   3.677   0.075   4.203
 3958SOL     OW12772   5.947   1.796   4.725
 3958SOL    HW112773   6.011   1.720   4.735
 3958SOL    HW212774   5.868   1.767   4.671
 3959SOL     OW12775   5.000   5.372   0.292
 3959SOL    HW112776   5.088   5.328   0.309
 3959SOL    HW212777   4.949   5.377   0.378
 3960SOL     OW12778   5.454   2.206   5.483
 3960SOL    HW112779   5.396   2.195   5.564
 3960SOL    HW212780   5.399   2.241   5.408
 3961SOL     OW12781   5.178   7.010   3.237
 3961SOL    HW112782   5.187   6.948   3.160
 3961SOL    HW212783   5.139   0.077   3.206
 3962SOL     OW12784   0.648   5.563   5.779
 3962SOL    HW112785   0.554   5.535   5.796
 3962SOL    HW212786   0.668   5.558   5.681
 3963SOL     OW12787   4.644   6.459   2.110
 3963SOL    HW112788   4.687   6.375   2.143
 3963SOL    HW212789   4.596   6.440   2.024
 3964SOL     OW12790   4.783   3.948   3.004
 3964SOL    HW112791   4.703   3.930   2.947
 3964SOL    HW212792   4.763   4.021   3.069
 3965SOL     OW12793   5.201   3.404   4.391
 3965SOL    HW112794   5.216   3.391   4.293
 3965SOL    HW212795   5.235   3.324   4.441
 3966SOL     OW12796   3.321   5.581   6.597
 3966SOL    HW112797   3.255   5.576   6.523
 3966SOL    HW212798   3.273   5.592   6.684
 3967SOL     OW12799   1.562   4.717   2.293
 3967SOL    HW112800   1.499   4.770   2.236
 3967SOL    HW212801   1.652   4.762   2.294
 3968SOL     OW12802   4.025   0.425   0.578
 3968SOL    HW112803   4.050   0.519   0.601
 3968SOL    HW212804   4.055   0.405   0.485
 3969SOL     OW12805   1.776   6.013   2.249
 3969SOL    HW112806   1.795   5.921   2.282
 3969SOL    HW212807   1.679   6.035   2.264
 3970SOL     OW12808   5.924   6.060   2.278
 3970SOL    HW112809   6.018   6.065   2.243
 3970SOL    HW212810   5.882   6.150   2.275
 3971SOL     OW12811   3.094   5.707   3.963
 3971SOL    HW112812   3.107   5.610   3.979
 3971SOL    HW212813   2.996   5.727   3.957
 3972SOL     OW12814   1.837   3.875   6.996
 3972SOL    HW112815   1.785   3.840   6.918
 3972SOL    HW212816   1.909   3.809   0.001
 3973SOL     OW12817   1.243   5.744   1.028
 3973SOL    HW112818   1.143   5.738   1.023
 3973SOL    HW212819   1.269   5.826   1.079
 3974SOL     OW12820   2.181   0.513   6.164
 3974SOL    HW112821   2.199   0.415   6.172
 3974SOL    HW212822   2.125   0.531   6.083
 3975SOL     OW12823   5.100   2.259   6.402
 3975SOL    HW112824   5.103   2.290   6.497
 3975SOL    HW212825   5.086   2.338   6.342
 3976SOL     OW12826   1.618   6.328   2.404
 3976SOL    HW112827   1.684   6.272   2.454
 3976SOL    HW212828   1.526   6.295   2.423
 3977SOL     OW12829   1.056   3.700   6.688
 3977SOL    HW112830   0.990   3.766   6.724
 3977SOL    HW212831   1.009   3.616   6.660
 3978SOL     OW12832   6.943   5.064   3.920
 3978SOL    HW112833   0.018   5.041   3.899
 3978SOL    HW212834   6.905   5.119   3.846
 3979SOL     OW12835   3.647   0.667   6.176
 3979SOL    HW112836   3.744   0.642   6.173
 3979SOL    HW212837   3.615   0.689   6.083
 3980SOL     OW12838   6.181   6.391   6.291
 3980SOL    HW112839   6.086   6.364   6.308
 3980SOL    HW212840   6.184   6.488   6.268
 3981SOL     OW12841   4.976   6.395   0.311
 3981SOL    HW112842   4.895   6.389   0.370
 3981SOL    HW212843   4.959   6.343   0.227
 3982SOL     OW12844   2.417   0.181   2.423
 3982SOL    HW112845   2.417   0.101   2.482
 3982SOL    HW212846   2.493   0.242   2.448
 3983SOL     OW12847   4.176   5.448   3.823
 3983SOL    HW112848   4.266   5.446   3.866
 3983SOL    HW212849   4.161   5.538   3.781
 3984SOL     OW12850   5.482   1.566   2.649
 3984SOL    HW112851   5.545   1.503   2.694
 3984SOL    HW212852   5.393   1.563   2.693
 3985SOL     OW12853   2.677   5.354   6.394
 3985SOL    HW112854   2.698   5.322   6.486
 3985SOL    HW212855   2.589   5.400   6.394
 3986SOL     OW12856   5.004   1.835   1.925
 3986SOL    HW112857   5.055   1.906   1.876
 3986SOL    HW212858   5.020   1.844   2.023
 3987SOL     OW12859   3.340   5.004   4.690
 3987SOL    HW112860   3.259   4.993   4.632
 3987SOL    HW212861   3.422   4.992   4.634
 3988SOL     OW12862   4.663   5.432   0.732
 3988SOL    HW112863   4.596   5.400   0.798
 3988SOL    HW212864   4.618   5.454   0.646
 3989SOL     OW12865   6.104   2.322   0.077
 3989SOL    HW112866   6.010   2.294   0.098
 3989SOL    HW212867   6.102   2.414   0.037
 3990SOL     OW12868   4.877   2.780   1.762
 3990SOL    HW112869   4.947   2.850   1.745
 3990SOL    HW212870   4.867   2.767   1.861
 3991SOL     OW12871   0.210   0.775   3.106
 3991SOL    HW112872   0.161   0.695   3.141
 3991SOL    HW212873   0.143   0.843   3.075
 3992SOL     OW12874   3.014   2.222   1.143
 3992SOL    HW112875   3.085   2.178   1.087
 3992SOL    HW212876   3.051   2.240   1.234
 3993SOL     OW12877   1.353   3.546   2.433
 3993SOL    HW112878   1.385   3.457   2.465
 3993SOL    HW212879   1.267   3.534   2.383
 3994SOL     OW12880   2.796   6.828   5.005
 3994SOL    HW112881   2.712   6.877   4.984
 3994SOL    HW212882   2.787   6.732   4.976
 3995SOL     OW12883   1.518   2.652   5.088
 3995SOL    HW112884   1.532   2.742   5.048
 3995SOL    HW212885   1.598   2.628   5.143
 3996SOL     OW12886   0.599   6.400   5.223
 3996SOL    HW112887   0.555   6.325   5.175
 3996SOL    HW212888   0.569   6.487   5.184
 3997SOL     OW12889   5.426   0.928   4.574
 3997SOL    HW112890   5.339   0.968   4.548
 3997SOL    HW212891   5.464   0.977   4.653
 3998SOL     OW12892   3.713   1.975   3.830
 3998SOL    HW112893   3.770   2.034   3.888
 3998SOL    HW212894   3.721   2.005   3.735
 3999SOL     OW12895   5.933   2.357   4.998
 3999SOL    HW112896   5.892   2.284   4.943
 3999SOL    HW212897   5.992   2.413   4.940
 4000SOL     OW12898   3.929   0.343   3.650
 4000SOL    HW112899   3.959   0.248   3.656
 4000SOL    HW212900   3.922   0.381   3.742
 4001SOL     OW12901   1.419   1.663   3.318
 4001SOL    HW112902   1.363   1.716   3.254
 4001SOL    HW212903   1.515   1.692   3.310
 4002SOL     OW12904   2.113   3.235   2.003
 4002SOL    HW112905   2.181   3.172   2.040
 4002SOL    HW212906   2.143   3.329   2.015
 4003SOL     OW12907   3.567   0.323   4.584
 4003SOL    HW112908   3.666   0.326   4.568
 4003SOL    HW212909   3.521   0.380   4.515
 4004SOL     OW12910   6.571   1.818   5.210
 4004SOL    HW112911   6.507   1.886   5.245
 4004SOL    HW212912   6.645   1.864   5.160
 4005SOL     OW12913   5.436   5.148   6.142
 4005SOL    HW112914   5.434   5.245   6.120
 4005SOL    HW212915   5.392   5.096   6.069
 4006SOL     OW12916   3.964   5.276   2.216
 4006SOL    HW112917   3.938   5.250   2.309
 4006SOL    HW212918   4.062   5.297   2.214
 4007SOL     OW12919   6.991   2.303   6.867
 4007SOL    HW112920   0.056   2.250   6.864
 4007SOL    HW212921   6.982   2.355   6.782
 4008SOL     OW12922   2.729   2.373   4.774
 4008SOL    HW112923   2.801   2.439   4.794
 4008SOL    HW212924   2.710   2.318   4.856
 4009SOL     OW12925   4.093   3.468   2.594
 4009SOL    HW112926   4.191   3.489   2.592
 4009SOL    HW212927   4.061   3.449   2.501
 4010SOL     OW12928   2.117   2.967   0.248
 4010SOL    HW112929   2.147   2.915   0.328
 4010SOL    HW212930   2.096   3.061   0.276
 4011SOL     OW12931   1.146   2.544   1.883
 4011SOL    HW112932   1.048   2.537   1.900
 4011SOL    HW212933   1.194   2.554   1.971
 4012SOL     OW12934   6.598   4.177   3.754
 4012SOL    HW112935   6.680   4.142   3.710
 4012SOL    HW212936   6.566   4.112   3.823
 4013SOL     OW12937   4.569   2.518   3.250
 4013SOL    HW112938   4.490   2.523   3.311
 4013SOL    HW212939   4.649   2.558   3.295
 4014SOL     OW12940   5.119   6.103   2.975
 4014SOL    HW112941   5.089   6.007   2.977
 4014SOL    HW212942   5.161   6.123   2.887
 4015SOL     OW12943   5.401   3.925   6.134
 4015SOL    HW112944   5.379   4.003   6.193
 4015SOL    HW212945   5.485   3.882   6.166
 4016SOL     OW12946   2.618   6.172   5.596
 4016SOL    HW112947   2.692   6.106   5.607
 4016SOL    HW212948   2.588   6.173   5.501
 4017SOL     OW12949   6.339   5.741   7.019
 4017SOL    HW112950   6.243   5.758   0.021
 4017SOL    HW212951   6.345   5.666   6.953
 4018SOL     OW12952   3.323   5.618   0.969
 4018SOL    HW112953   3.408   5.588   1.014
 4018SOL    HW212954   3.344   5.689   0.902
 4019SOL     OW12955   5.209   5.409   3.723
 4019SOL    HW112956   5.251   5.466   3.652
 4019SOL    HW212957   5.195   5.316   3.688
 4020SOL     OW12958   5.385   1.837   5.764
 4020SOL    HW112959   5.484   1.846   5.758
 4020SOL    HW212960   5.360   1.811   5.858
 4021SOL     OW12961   3.162   4.282   5.797
 4021SOL    HW112962   3.130   4.376   5.797
 4021SOL    HW212963   3.190   4.256   5.704
 4022SOL     OW12964   5.124   0.387   1.192
 4022SOL    HW112965   5.213   0.403   1.150
 4022SOL    HW212966   5.134   0.383   1.291
 4023SOL     OW12967   6.476   0.624   5.956
 4023SOL    HW112968   6.521   0.563   6.022
 4023SOL    HW212969   6.406   0.573   5.906
 4024SOL     OW12970   3.737   4.875   3.771
 4024SOL    HW112971   3.642   4.879   3.738
 4024SOL    HW212972   3.798   4.857   3.695
 4025SOL     OW12973   1.101   4.644   3.122
 4025SOL    HW112974   1.046   4.704   3.180
 4025SOL    HW212975   1.042   4.600   3.054
 4026SOL     OW12976   5.686   6.542   4.555
 4026SOL    HW112977   5.621   6.603   4.509
 4026SOL    HW212978   5.638   6.459   4.586
 4027SOL     OW12979   4.025   5.304   1.470
 4027SOL    HW112980   3.969   5.228   1.505
 4027SOL    HW212981   4.035   5.373   1.542
 4028SOL     OW12982   2.559   0.441   3.647
 4028SOL    HW112983   2.581   0.400   3.736
 4028SOL    HW212984   2.536   0.369   3.582
 4029SOL     OW12985   2.289   4.332   4.797
 4029SOL    HW112986   2.213   4.391   4.826
 4029SOL    HW212987   2.372   4.358   4.845
 4030SOL     OW12988   0.483   2.067   5.399
 4030SOL    HW112989   0.574   2.037   5.371
 4030SOL    HW212990   0.416   2.033   5.333
 4031SOL     OW12991   4.169   5.693   4.431
 4031SOL    HW112992   4.253   5.649   4.464
 4031SOL    HW212993   4.091   5.633   4.448
 4032SOL     OW12994   5.221   0.149   4.652
 4032SOL    HW112995   5.187   0.124   4.742
 4032SOL    HW212996   5.309   0.195   4.660
 4033SOL     OW12997   2.794   3.764   5.425
 4033SOL    HW112998   2.813   3.811   5.339
 4033SOL    HW212999   2.695   3.758   5.439
 4034SOL     OW13000   6.665   2.268   4.075
 4034SOL    HW113001   6.732   2.320   4.022
 4034SOL    HW213002   6.654   2.177   4.034
 4035SOL     OW13003   0.296   5.161   0.590
 4035SOL    HW113004   0.376   5.218   0.607
 4035SOL    HW213005   0.227   5.213   0.541
 4036SOL     OW13006   6.424   6.833   3.209
 4036SOL    HW113007   6.387   6.909   3.156
 4036SOL    HW213008   6.367   6.818   3.290
 4037SOL     OW13009   6.715   4.090   6.309
 4037SOL    HW113010   6.739   4.140   6.393
 4037SOL    HW213011   6.724   3.992   6.326
 4038SOL     OW13012   6.135   4.886   4.018
 4038SOL    HW113013   6.217   4.836   4.044
 4038SOL    HW213014   6.153   4.984   4.022
 4039SOL     OW13015   4.326   5.973   1.150
 4039SOL    HW113016   4.370   5.991   1.238
 4039SOL    HW213017   4.234   5.937   1.165
 4040SOL     OW13018   3.741   6.453   1.338
 4040SOL    HW113019   3.747   6.501   1.250
 4040SOL    HW213020   3.675   6.378   1.331
 4041SOL     OW13021   1.244   6.963   4.010
 4041SOL    HW113022   1.257   7.001   4.102
 4041SOL    HW213023   1.259   0.015   3.942
 4042SOL     OW13024   5.931   5.178   2.188
 4042SOL    HW113025   5.848   5.128   2.163
 4042SOL    HW213026   5.922   5.274   2.161
 4043SOL     OW13027   6.658   3.096   1.426
 4043SOL    HW113028   6.602   3.109   1.344
 4043SOL    HW213029   6.712   3.013   1.417
 4044SOL     OW13030   6.246   5.894   3.434
 4044SOL    HW113031   6.242   5.972   3.372
 4044SOL    HW213032   6.165   5.894   3.493
 4045SOL     OW13033   2.250   5.445   5.880
 4045SOL    HW113034   2.165   5.393   5.879
 4045SOL    HW213035   2.291   5.446   5.789
 4046SOL     OW13036   1.358   3.120   1.052
 4046SOL    HW113037   1.421   3.117   1.129
 4046SOL    HW213038   1.404   3.162   0.973
 4047SOL     OW13039   3.492   3.897   1.735
 4047SOL    HW113040   3.407   3.941   1.764
 4047SOL    HW213041   3.555   3.967   1.702
 4048SOL     OW13042   5.366   1.750   0.935
 4048SOL    HW113043   5.389   1.845   0.916
 4048SOL    HW213044   5.294   1.720   0.874
 4049SOL     OW13045   6.700   0.689   5.852
 4049SOL    HW113046   6.623   0.646   5.898
 4049SOL    HW213047   6.730   0.769   5.903
 4050SOL     OW13048   2.326   0.904   1.267
 4050SOL    HW113049   2.245   0.900   1.208
 4050SOL    HW213050   2.299   0.889   1.362
 4051SOL     OW13051   1.874   3.679   0.860
 4051SOL    HW113052   1.799   3.740   0.835
 4051SOL    HW213053   1.956   3.703   0.807
 4052SOL     OW13054   1.662   5.938   1.853
 4052SOL    HW113055   1.655   5.923   1.754
 4052SOL    HW213056   1.757   5.934   1.881
 4053SOL     OW13057   3.107   4.883   3.368
 4053SOL    HW113058   3.064   4.816   3.428
 4053SOL    HW213059   3.206   4.878   3.377
 4054SOL     OW13060   5.307   1.809   6.590
 4054SOL    HW113061   5.285   1.872   6.666
 4054SOL    HW213062   5.231   1.746   6.576
 4055SOL     OW13063   3.723   2.145   0.468
 4055SOL    HW113064   3.784   2.168   0.392
 4055SOL    HW213065   3.741   2.051   0.498
 4056SOL     OW13066   3.868   3.108   0.733
 4056SOL    HW113067   3.833   3.014   0.740
 4056SOL    HW213068   3.867   3.150   0.824
 4057SOL     OW13069   6.214   2.211   6.731
 4057SOL    HW113070   6.224   2.306   6.700
 4057SOL    HW213071   6.120   2.195   6.760
 4058SOL     OW13072   1.377   0.471   4.922
 4058SOL    HW113073   1.475   0.475   4.906
 4058SOL    HW213074   1.339   0.563   4.920
 4059SOL     OW13075   6.671   1.672   4.517
 4059SOL    HW113076   6.617   1.592   4.544
 4059SOL    HW213077   6.755   1.675   4.570
 4060SOL     OW13078   4.115   5.800   4.701
 4060SOL    HW113079   4.017   5.809   4.680
 4060SOL    HW213080   4.167   5.798   4.616
 4061SOL     OW13081   2.658   3.177   1.648
 4061SOL    HW113082   2.636   3.196   1.552
 4061SOL    HW213083   2.687   3.082   1.658
 4062SOL     OW13084   2.931   6.629   2.894
 4062SOL    HW113085   2.994   6.666   2.962
 4062SOL    HW213086   2.870   6.563   2.938
 4063SOL     OW13087   2.708   5.073   5.748
 4063SOL    HW113088   2.707   5.134   5.828
 4063SOL    HW213089   2.619   5.074   5.703
 4064SOL     OW13090   6.330   0.259   4.091
 4064SOL    HW113091   6.272   0.178   4.077
 4064SOL    HW213092   6.272   0.339   4.104
 4065SOL     OW13093   6.036   4.664   6.918
 4065SOL    HW113094   6.010   4.760   6.930
 4065SOL    HW213095   6.097   4.636   6.992
 4066SOL     OW13096   5.817   5.095   1.857
 4066SOL    HW113097   5.749   5.145   1.804
 4066SOL    HW213098   5.782   5.082   1.951
 4067SOL     OW13099   5.983   1.012   1.826
 4067SOL    HW113100   6.072   1.038   1.789
 4067SOL    HW213101   5.967   1.060   1.912
 4068SOL     OW13102   5.204   1.117   4.017
 4068SOL    HW113103   5.285   1.175   4.024
 4068SOL    HW213104   5.129   1.168   3.975
 4069SOL     OW13105   0.200   5.924   1.287
 4069SOL    HW113106   0.110   5.900   1.325
 4069SOL    HW213107   0.188   5.994   1.217
 4070SOL     OW13108   0.433   3.801   2.560
 4070SOL    HW113109   0.381   3.717   2.574
 4070SOL    HW213110   0.476   3.828   2.647
 4071SOL     OW13111   2.247   0.879   3.434
 4071SOL    HW113112   2.160   0.926   3.450
 4071SOL    HW213113   2.317   0.916   3.495
 4072SOL     OW13114   0.830   6.954   4.243
 4072SOL    HW113115   0.862   6.978   4.152
 4072SOL    HW213116   0.750   6.895   4.236
 4073SOL     OW13117   3.055   5.332   1.566
 4073SOL    HW113118   3.037   5.420   1.609
 4073SOL    HW213119   2.987   5.265   1.597
 4074SOL     OW13120   1.162   3.052   0.874
 4074SOL    HW113121   1.125   2.960   0.888
 4074SOL    HW213122   1.226   3.074   0.949
 4075SOL     OW13123   5.241   0.956   3.799
 4075SOL    HW113124   5.230   1.025   3.871
 4075SOL    HW213125   5.193   0.872   3.826
 4076SOL     OW13126   1.414   2.539   3.321
 4076SOL    HW113127   1.352   2.515   3.395
 4076SOL    HW213128   1.435   2.457   3.266
 4077SOL     OW13129   3.114   1.799   0.975
 4077SOL    HW113130   3.029   1.748   0.994
 4077SOL    HW213131   3.192   1.736   0.981
 4078SOL     OW13132   5.594   3.903   2.317
 4078SOL    HW113133   5.617   3.949   2.232
 4078SOL    HW213134   5.504   3.860   2.310
 4079SOL     OW13135   6.395   0.823   3.611
 4079SOL    HW113136   6.455   0.756   3.656
 4079SOL    HW213137   6.358   0.885   3.680
 4080SOL     OW13138   3.573   3.005   2.389
 4080SOL    HW113139   3.663   2.987   2.350
 4080SOL    HW213140   3.511   2.929   2.366
 4081SOL     OW13141   2.189   2.125   6.518
 4081SOL    HW113142   2.115   2.140   6.583
 4081SOL    HW213143   2.189   2.030   6.489
 4082SOL     OW13144   1.598   2.600   5.761
 4082SOL    HW113145   1.559   2.512   5.732
 4082SOL    HW213146   1.693   2.607   5.728
 4083SOL     OW13147   5.788   5.533   2.854
 4083SOL    HW113148   5.774   5.628   2.883
 4083SOL    HW213149   5.839   5.531   2.769
 4084SOL     OW13150   4.537   0.574   2.790
 4084SOL    HW113151   4.535   0.506   2.718
 4084SOL    HW213152   4.463   0.555   2.855
 4085SOL     OW13153   3.122   4.810   2.235
 4085SOL    HW113154   3.038   4.756   2.240
 4085SOL    HW213155   3.146   4.826   2.140
 4086SOL     OW13156   6.339   4.763   5.201
 4086SOL    HW113157   6.247   4.732   5.177
 4086SOL    HW213158   6.344   4.862   5.190
 4087SOL     OW13159   1.644   0.406   2.173
 4087SOL    HW113160   1.547   0.393   2.158
 4087SOL    HW213161   1.690   0.317   2.180
 4088SOL     OW13162   0.094   2.110   5.347
 4088SOL    HW113163   0.038   2.027   5.346
 4088SOL    HW213164   0.140   2.120   5.259
 4089SOL     OW13165   0.968   0.821   2.557
 4089SOL    HW113166   1.049   0.765   2.545
 4089SOL    HW213167   0.896   0.790   2.496
 4090SOL     OW13168   3.047   2.032   5.953
 4090SOL    HW113169   3.012   1.945   5.918
 4090SOL    HW213170   3.137   2.051   5.913
 4091SOL     OW13171   3.459   5.504   1.939
 4091SOL    HW113172   3.421   5.585   1.983
 4091SOL    HW213173   3.559   5.505   1.947
 4092SOL     OW13174   5.304   2.718   5.706
 4092SOL    HW113175   5.253   2.757   5.630
 4092SOL    HW213176   5.378   2.661   5.671
 4093SOL     OW13177   5.332   4.464   3.492
 4093SOL    HW113178   5.251   4.412   3.462
 4093SOL    HW213179   5.331   4.472   3.592
 4094SOL     OW13180   0.389   5.857   6.861
 4094SOL    HW113181   0.326   5.806   6.802
 4094SOL    HW213182   0.482   5.823   6.848
 4095SOL     OW13183   0.925   5.219   0.468
 4095SOL    HW113184   0.861   5.204   0.544
 4095SOL    HW213185   0.883   5.188   0.383
 4096SOL     OW13186   0.670   0.417   0.001
 4096SOL    HW113187   0.691   0.440   6.926
 4096SOL    HW213188   0.587   0.362   0.004
 4097SOL     OW13189   6.365   3.878   4.890
 4097SOL    HW113190   6.352   3.780   4.879
 4097SOL    HW213191   6.392   3.899   4.984
 4098SOL     OW13192   1.376   4.813   2.740
 4098SOL    HW113193   1.368   4.841   2.645
 4098SOL    HW213194   1.439   4.875   2.788
 4099SOL     OW13195   5.771   4.361   6.110
 4099SOL    HW113196   5.768   4.347   6.209
 4099SOL    HW213197   5.716   4.441   6.086
 4100SOL     OW13198   1.771   1.410   3.399
 4100SOL    HW113199   1.845   1.365   3.448
 4100SOL    HW213200   1.803   1.497   3.362
 4101SOL     OW13201   6.643   5.260   6.866
 4101SOL    HW113202   6.698   5.255   6.949
 4101SOL    HW213203   6.703   5.279   6.788
 4102SOL     OW13204   1.612   6.239   0.664
 4102SOL    HW113205   1.594   6.195   0.576
 4102SOL    HW213206   1.656   6.174   0.726
 4103SOL     OW13207   1.827   6.818   3.845
 4103SOL    HW113208   1.746   6.785   3.893
 4103SOL    HW213209   1.909   6.773   3.883
 4104SOL     OW13210   2.343   5.536   4.882
 4104SOL    HW113211   2.401   5.495   4.812
 4104SOL    HW213212   2.262   5.480   4.896
 4105SOL     OW13213   4.498   0.212   2.158
 4105SOL    HW113214   4.418   0.270   2.146
 4105SOL    HW213215   4.479   0.141   2.225
 4106SOL     OW13216   1.168   1.242   2.727
 4106SOL    HW113217   1.161   1.147   2.698
 4106SOL    HW213218   1.083   1.290   2.706
 4107SOL     OW13219   1.515   0.358   1.300
 4107SOL    HW113220   1.446   0.373   1.228
 4107SOL    HW213221   1.606   0.376   1.262
 4108SOL     OW13222   6.484   5.930   5.608
 4108SOL    HW113223   6.501   6.021   5.645
 4108SOL    HW213224   6.391   5.926   5.571
 4109SOL     OW13225   5.394   6.277   3.533
 4109SOL    HW113226   5.484   6.310   3.505
 4109SOL    HW213227   5.328   6.353   3.528
 4110SOL     OW13228   5.260   2.630   0.548
 4110SOL    HW113229   5.210   2.636   0.635
 4110SOL    HW213230   5.195   2.622   0.473
 4111SOL     OW13231   5.917   3.809   4.237
 4111SOL    HW113232   5.903   3.797   4.139
 4111SOL    HW213233   6.015   3.816   4.256
 4112SOL     OW13234   4.075   6.176   4.261
 4112SOL    HW113235   3.976   6.174   4.274
 4112SOL    HW213236   4.113   6.087   4.284
 4113SOL     OW13237   4.443   5.003   4.632
 4113SOL    HW113238   4.359   5.014   4.579
 4113SOL    HW213239   4.489   4.919   4.604
 4114SOL     OW13240   0.055   1.030   1.789
 4114SOL    HW113241   0.064   1.128   1.807
 4114SOL    HW213242   0.022   1.016   1.696
 4115SOL     OW13243   4.559   5.427   3.605
 4115SOL    HW113244   4.654   5.445   3.631
 4115SOL    HW213245   4.510   5.514   3.593
 4116SOL     OW13246   4.900   3.876   2.759
 4116SOL    HW113247   4.925   3.782   2.740
 4116SOL    HW213248   4.869   3.884   2.854
 4117SOL     OW13249   1.312   1.718   3.849
 4117SOL    HW113250   1.290   1.717   3.752
 4117SOL    HW213251   1.406   1.685   3.863
 4118SOL     OW13252   0.716   6.988   0.575
 4118SOL    HW113253   0.800   6.939   0.599
 4118SOL    HW213254   0.699   0.040   0.642
 4119SOL     OW13255   0.448   0.411   4.445
 4119SOL    HW113256   0.508   0.425   4.366
 4119SOL    HW213257   0.482   0.464   4.523
 4120SOL     OW13258   2.223   0.979   6.910
 4120SOL    HW113259   2.259   1.071   6.895
 4120SOL    HW213260   2.245   0.921   6.831
 4121SOL     OW13261   6.761   0.322   2.342
 4121SOL    HW113262   6.712   0.321   2.255
 4121SOL    HW213263   6.714   0.261   2.407
 4122SOL     OW13264   0.863   4.328   2.877
 4122SOL    HW113265   0.956   4.362   2.892
 4122SOL    HW213266   0.799   4.404   2.884
 4123SOL     OW13267   5.290   4.664   1.176
 4123SOL    HW113268   5.322   4.657   1.270
 4123SOL    HW213269   5.206   4.717   1.173
 4124SOL     OW13270   6.637   5.556   6.875
 4124SOL    HW113271   6.726   5.593   6.846
 4124SOL    HW213272   6.645   5.457   6.889
 4125SOL     OW13273   6.269   2.534   0.630
 4125SOL    HW113274   6.269   2.578   0.719
 4125SOL    HW213275   6.178   2.499   0.609
 4126SOL     OW13276   0.629   3.048   3.313
 4126SOL    HW113277   0.539   3.004   3.307
 4126SOL    HW213278   0.698   2.979   3.334
 4127SOL     OW13279   4.630   2.379   4.513
 4127SOL    HW113280   4.531   2.372   4.509
 4127SOL    HW213281   4.667   2.307   4.572
 4128SOL     OW13282   0.034   2.978   6.603
 4128SOL    HW113283   0.125   2.984   6.645
 4128SOL    HW213284   0.023   3.053   6.537
 4129SOL     OW13285   3.356   1.935   0.808
 4129SOL    HW113286   3.401   1.981   0.884
 4129SOL    HW213287   3.323   1.845   0.837
 4130SOL     OW13288   6.280   3.220   0.762
 4130SOL    HW113289   6.222   3.238   0.683
 4130SOL    HW213290   6.341   3.143   0.743
 4131SOL     OW13291   5.071   6.773   3.091
 4131SOL    HW113292   5.132   6.826   3.032
 4131SOL    HW213293   5.057   6.682   3.052
 4132SOL     OW13294   6.621   4.991   3.165
 4132SOL    HW113295   6.631   5.090   3.173
 4132SOL    HW213296   6.537   4.962   3.211
 4133SOL     OW13297   5.534   0.056   2.648
 4133SOL    HW113298   5.628   0.054   2.684
 4133SOL    HW213299   5.478   7.010   2.698
 4134SOL     OW13300   1.387   3.630   1.213
 4134SOL    HW113301   1.437   3.558   1.166
 4134SOL    HW213302   1.412   3.630   1.310
 4135SOL     OW13303   6.403   0.870   1.714
 4135SOL    HW113304   6.362   0.881   1.804
 4135SOL    HW213305   6.386   0.777   1.681
 4136SOL     OW13306   0.769   5.010   1.021
 4136SOL    HW113307   0.746   5.019   1.118
 4136SOL    HW213308   0.714   5.074   0.967
 4137SOL     OW13309   0.641   2.291   6.294
 4137SOL    HW113310   0.571   2.277   6.365
 4137SOL    HW213311   0.608   2.358   6.228
 4138SOL     OW13312   4.502   0.469   6.974
 4138SOL    HW113313   4.466   0.513   6.892
 4138SOL    HW213314   4.524   0.538   0.023
 4139SOL     OW13315   2.231   4.142   3.107
 4139SOL    HW113316   2.138   4.175   3.121
 4139SOL    HW213317   2.228   4.048   3.074
 4140SOL     OW13318   2.170   0.639   6.414
 4140SOL    HW113319   2.136   0.594   6.496
 4140SOL    HW213320   2.168   0.574   6.337
 4141SOL     OW13321   5.721   0.683   5.820
 4141SOL    HW113322   5.678   0.684   5.729
 4141SOL    HW213323   5.676   0.751   5.878
 4142SOL     OW13324   6.883   5.875   2.367
 4142SOL    HW113325   6.824   5.794   2.365
 4142SOL    HW213326   6.951   5.865   2.439
 4143SOL     OW13327   6.634   3.360   6.864
 4143SOL    HW113328   6.699   3.435   6.854
 4143SOL    HW213329   6.543   3.390   6.836
 4144SOL     OW13330   5.459   1.352   1.168
 4144SOL    HW113331   5.371   1.380   1.207
 4144SOL    HW213332   5.483   1.414   1.094
 4145SOL     OW13333   6.922   0.610   1.746
 4145SOL    HW113334   6.958   0.616   1.840
 4145SOL    HW213335   6.987   0.652   1.683
 4146SOL     OW13336   4.920   6.469   2.246
 4146SOL    HW113337   4.926   6.555   2.195
 4146SOL    HW213338   4.827   6.459   2.282
 4147SOL     OW13339   4.622   4.797   6.680
 4147SOL    HW113340   4.642   4.739   6.601
 4147SOL    HW213341   4.585   4.885   6.648
 4148SOL     OW13342   2.944   1.103   5.186
 4148SOL    HW113343   3.003   1.089   5.106
 4148SOL    HW213344   2.960   1.194   5.223
 4149SOL     OW13345   1.451   3.740   6.284
 4149SOL    HW113346   1.378   3.781   6.229
 4149SOL    HW213347   1.497   3.669   6.231
 4150SOL     OW13348   5.474   1.457   6.772
 4150SOL    HW113349   5.381   1.421   6.786
 4150SOL    HW213350   5.474   1.516   6.691
 4151SOL     OW13351   2.915   5.929   4.701
 4151SOL    HW113352   2.821   5.935   4.666
 4151SOL    HW213353   2.979   5.947   4.626
 4152SOL     OW13354   2.458   4.359   1.520
 4152SOL    HW113355   2.433   4.278   1.467
 4152SOL    HW213356   2.389   4.430   1.508
 4153SOL     OW13357   6.623   6.219   1.713
 4153SOL    HW113358   6.551   6.256   1.654
 4153SOL    HW213359   6.652   6.130   1.678
 4154SOL     OW13360   1.182   6.363   4.033
 4154SOL    HW113361   1.258   6.356   3.968
 4154SOL    HW213362   1.211   6.416   4.113
 4155SOL     OW13363   0.163   0.659   1.643
 4155SOL    HW113364   0.164   0.582   1.708
 4155SOL    HW213365   0.210   0.737   1.684
 4156SOL     OW13366   0.594   5.212   6.093
 4156SOL    HW113367   0.650   5.194   6.175
 4156SOL    HW213368   0.522   5.277   6.116
 4157SOL     OW13369   5.285   5.851   1.403
 4157SOL    HW113370   5.328   5.837   1.314
 4157SOL    HW213371   5.307   5.943   1.436
 4158SOL     OW13372   0.811   3.250   1.641
 4158SOL    HW113373   0.747   3.194   1.693
 4158SOL    HW213374   0.854   3.317   1.701
 4159SOL     OW13375   2.557   0.385   4.481
 4159SOL    HW113376   2.626   0.362   4.413
 4159SOL    HW213377   2.538   0.483   4.478
 4160SOL     OW13378   0.637   0.196   6.641
 4160SOL    HW113379   0.589   0.244   6.568
 4160SOL    HW213380   0.734   0.186   6.617
 4161SOL     OW13381   3.668   3.359   2.898
 4161SOL    HW113382   3.744   3.354   2.834
 4161SOL    HW213383   3.631   3.267   2.914
 4162SOL     OW13384   5.210   5.645   1.587
 4162SOL    HW113385   5.216   5.716   1.517
 4162SOL    HW213386   5.301   5.620   1.618
 4163SOL     OW13387   3.342   5.747   2.072
 4163SOL    HW113388   3.395   5.774   2.151
 4163SOL    HW213389   3.247   5.730   2.099
 4164SOL     OW13390   6.903   1.238   6.316
 4164SOL    HW113391   6.850   1.156   6.295
 4164SOL    HW213392   7.001   1.218   6.305
 4165SOL     OW13393   4.423   0.659   4.575
 4165SOL    HW113394   4.356   0.712   4.523
 4165SOL    HW213395   4.476   0.720   4.634
 4166SOL     OW13396   5.692   1.876   1.260
 4166SOL    HW113397   5.730   1.813   1.193
 4166SOL    HW213398   5.740   1.964   1.255
 4167SOL     OW13399   3.321   5.357   4.207
 4167SOL    HW113400   3.347   5.263   4.227
 4167SOL    HW213401   3.403   5.410   4.184
 4168SOL     OW13402   5.309   3.570   6.921
 4168SOL    HW113403   5.238   3.566   6.851
 4168SOL    HW213404   5.268   3.582   7.011
 4169SOL     OW13405   5.276   2.744   6.060
 4169SOL    HW113406   5.260   2.673   5.991
 4169SOL    HW213407   5.192   2.762   6.110
 4170SOL     OW13408   0.774   2.352   4.563
 4170SOL    HW113409   0.746   2.435   4.515
 4170SOL    HW213410   0.855   2.372   4.619
 4171SOL     OW13411   0.866   1.189   0.012
 4171SOL    HW113412   0.856   1.285   0.040
 4171SOL    HW213413   0.951   1.153   0.049
 4172SOL     OW13414   2.679   3.207   0.649
 4172SOL    HW113415   2.581   3.190   0.655
 4172SOL    HW213416   2.699   3.300   0.682
 4173SOL     OW13417   5.024   2.052   6.774
 4173SOL    HW113418   4.952   2.114   6.806
 4173SOL    HW213419   5.098   2.050   6.841
 4174SOL     OW13420   4.112   0.246   4.812
 4174SOL    HW113421   4.056   0.269   4.892
 4174SOL    HW213422   4.154   0.329   4.775
 4175SOL     OW13423   0.875   4.255   6.513
 4175SOL    HW113424   0.893   4.347   6.479
 4175SOL    HW213425   0.889   4.254   6.612
 4176SOL     OW13426   5.965   6.634   6.027
 4176SOL    HW113427   6.064   6.619   6.022
 4176SOL    HW213428   5.928   6.590   6.108
 4177SOL     OW13429   3.865   4.875   3.032
 4177SOL    HW113430   3.833   4.937   2.961
 4177SOL    HW213431   3.910   4.796   2.990
 4178SOL     OW13432   3.573   6.081   1.858
 4178SOL    HW113433   3.496   6.044   1.911
 4178SOL    HW213434   3.543   6.164   1.810
 4179SOL     OW13435   5.169   3.206   6.246
 4179SOL    HW113436   5.199   3.262   6.169
 4179SOL    HW213437   5.247   3.157   6.284
 4180SOL     OW13438   4.129   3.469   1.223
 4180SOL    HW113439   4.178   3.382   1.217
 4180SOL    HW213440   4.035   3.452   1.251
 4181SOL     OW13441   5.060   6.907   5.526
 4181SOL    HW113442   5.076   6.968   5.604
 4181SOL    HW213443   5.035   6.960   5.446
 4182SOL     OW13444   0.562   6.626   5.040
 4182SOL    HW113445   0.497   6.562   4.998
 4182SOL    HW213446   0.558   6.713   4.992
 4183SOL     OW13447   4.396   1.737   0.569
 4183SOL    HW113448   4.362   1.767   0.658
 4183SOL    HW213449   4.332   1.673   0.528
 4184SOL     OW13450   3.619   5.757   3.970
 4184SOL    HW113451   3.691   5.734   4.036
 4184SOL    HW213452   3.541   5.797   4.018
 4185SOL     OW13453   4.906   3.329   3.305
 4185SOL    HW113454   4.860   3.396   3.247
 4185SOL    HW213455   4.888   3.236   3.271
 4186SOL     OW13456   1.809   5.914   0.161
 4186SOL    HW113457   1.718   5.872   0.157
 4186SOL    HW213458   1.862   5.873   0.235
 4187SOL     OW13459   1.809   3.226   6.495
 4187SOL    HW113460   1.761   3.266   6.417
 4187SOL    HW213461   1.773   3.135   6.514
 4188SOL     OW13462   4.567   0.111   0.088
 4188SOL    HW113463   4.495   0.122   0.156
 4188SOL    HW213464   4.623   0.194   0.084
 4189SOL     OW13465   4.350   4.876   3.642
 4189SOL    HW113466   4.277   4.880   3.573
 4189SOL    HW213467   4.413   4.953   3.629
 4190SOL     OW13468   6.537   6.126   1.273
 4190SOL    HW113469   6.603   6.071   1.323
 4190SOL    HW213470   6.545   6.222   1.301
 4191SOL     OW13471   4.646   3.785   6.707
 4191SOL    HW113472   4.726   3.746   6.754
 4191SOL    HW213473   4.670   3.872   6.666
 4192SOL     OW13474   1.682   3.167   0.280
 4192SOL    HW113475   1.721   3.188   0.191
 4192SOL    HW213476   1.587   3.199   0.284
 4193SOL     OW13477   0.283   0.656   0.319
 4193SOL    HW113478   0.270   0.704   0.232
 4193SOL    HW213479   0.330   0.569   0.303
 4194SOL     OW13480   5.170   1.702   5.633
 4194SOL    HW113481   5.241   1.767   5.662
 4194SOL    HW213482   5.112   1.679   5.711
 4195SOL     OW13483   3.702   6.570   0.815
 4195SOL    HW113484   3.726   6.476   0.836
 4195SOL    HW213485   3.658   6.575   0.725
 4196SOL     OW13486   6.550   2.796   2.284
 4196SOL    HW113487   6.537   2.888   2.245
 4196SOL    HW213488   6.647   2.782   2.302
 4197SOL     OW13489   3.849   1.219   6.730
 4197SOL    HW113490   3.757   1.225   6.768
 4197SOL    HW213491   3.898   1.144   6.775
 4198SOL     OW13492   6.501   2.187   2.134
 4198SOL    HW113493   6.482   2.284   2.115
 4198SOL    HW213494   6.504   2.137   2.047
 4199SOL     OW13495   0.455   4.181   6.205
 4199SOL    HW113496   0.478   4.210   6.298
 4199SOL    HW213497   0.371   4.126   6.207
 4200SOL     OW13498   4.625   1.127   4.004
 4200SOL    HW113499   4.704   1.188   4.014
 4200SOL    HW213500   4.581   1.144   3.916
 4201SOL     OW13501   5.895   6.788   3.822
 4201SOL    HW113502   5.830   6.829   3.758
 4201SOL    HW213503   5.878   6.689   3.828
 4202SOL     OW13504   5.028   4.054   1.552
 4202SOL    HW113505   4.956   4.042   1.484
 4202SOL    HW213506   5.117   4.050   1.506
 4203SOL     OW13507   6.387   4.564   5.392
 4203SOL    HW113508   6.373   4.482   5.335
 4203SOL    HW213509   6.370   4.646   5.337
 4204SOL     OW13510   1.694   3.387   6.288
 4204SOL    HW113511   1.716   3.378   6.191
 4204SOL    HW213512   1.748   3.461   6.328
 4205SOL     OW13513   4.223   6.049   6.213
 4205SOL    HW113514   4.153   6.118   6.197
 4205SOL    HW213515   4.183   5.958   6.209
 4206SOL     OW13516   2.055   2.007   4.770
 4206SOL    HW113517   2.037   1.960   4.857
 4206SOL    HW213518   2.004   2.093   4.767
 4207SOL     OW13519   0.489   1.591   2.377
 4207SOL    HW113520   0.442   1.679   2.387
 4207SOL    HW213521   0.423   1.523   2.344
 4208SOL     OW13522   1.946   2.971   3.939
 4208SOL    HW113523   1.850   2.960   3.914
 4208SOL    HW213524   1.983   2.883   3.969
 4209SOL     OW13525   6.471   6.474   2.175
 4209SOL    HW113526   6.529   6.445   2.098
 4209SOL    HW213527   6.516   6.451   2.261
 4210SOL     OW13528   3.524   4.209   4.874
 4210SOL    HW113529   3.429   4.186   4.892
 4210SOL    HW213530   3.545   4.299   4.913
 4211SOL     OW13531   4.061   2.643   5.401
 4211SOL    HW113532   4.108   2.627   5.314
 4211SOL    HW213533   4.022   2.735   5.401
 4212SOL     OW13534   6.321   2.303   3.293
 4212SOL    HW113535   6.391   2.301   3.221
 4212SOL    HW213536   6.231   2.315   3.251
 4213SOL     OW13537   2.844   0.955   4.124
 4213SOL    HW113538   2.757   0.906   4.129
 4213SOL    HW213539   2.889   0.933   4.037
 4214SOL     OW13540   6.798   6.242   3.275
 4214SOL    HW113541   6.739   6.204   3.203
 4214SOL    HW213542   6.875   6.291   3.233
 4215SOL     OW13543   5.299   6.792   5.517
 4215SOL    HW113544   5.204   6.823   5.508
 4215SOL    HW213545   5.304   6.721   5.588
 4216SOL     OW13546   2.381   5.983   2.089
 4216SOL    HW113547   2.347   6.077   2.086
 4216SOL    HW213548   2.476   5.980   2.057
 4217SOL     OW13549   0.868   0.812   2.833
 4217SOL    HW113550   0.877   0.895   2.888
 4217SOL    HW213551   0.921   0.821   2.749
 4218SOL     OW13552   3.456   1.129   0.582
 4218SOL    HW113553   3.427   1.074   0.660
 4218SOL    HW213554   3.534   1.185   0.608
 4219SOL     OW13555   4.208   5.422   3.044
 4219SOL    HW113556   4.161   5.510   3.041
 4219SOL    HW213557   4.199   5.382   3.135
 4220SOL     OW13558   5.890   1.733   1.600
 4220SOL    HW113559   5.887   1.756   1.697
 4220SOL    HW213560   5.799   1.703   1.570
 4221SOL     OW13561   1.146   6.289   0.640
 4221SOL    HW113562   1.113   6.361   0.701
 4221SOL    HW213563   1.233   6.317   0.599
 4222SOL     OW13564   5.116   2.910   4.591
 4222SOL    HW113565   5.179   2.908   4.669
 4222SOL    HW213566   5.131   2.993   4.538
 4223SOL     OW13567   4.126   3.533   2.176
 4223SOL    HW113568   4.026   3.538   2.172
 4223SOL    HW213569   4.161   3.612   2.226
 4224SOL     OW13570   4.986   4.283   4.553
 4224SOL    HW113571   4.953   4.252   4.464
 4224SOL    HW213572   4.919   4.345   4.594
 4225SOL     OW13573   0.758   2.263   5.748
 4225SOL    HW113574   0.821   2.300   5.679
 4225SOL    HW213575   0.696   2.198   5.705
 4226SOL     OW13576   0.670   5.783   4.939
 4226SOL    HW113577   0.687   5.715   4.867
 4226SOL    HW213578   0.572   5.798   4.948
 4227SOL     OW13579   4.309   5.053   2.207
 4227SOL    HW113580   4.252   4.986   2.255
 4227SOL    HW213581   4.369   5.006   2.143
 4228SOL     OW13582   1.202   5.574   3.629
 4228SOL    HW113583   1.119   5.564   3.684
 4228SOL    HW213584   1.281   5.583   3.689
 4229SOL     OW13585   6.966   4.849   5.593
 4229SOL    HW113586   0.013   4.789   5.636
 4229SOL    HW213587   6.881   4.848   5.645
 4230SOL     OW13588   6.862   1.003   2.184
 4230SOL    HW113589   6.835   1.042   2.097
 4230SOL    HW213590   6.787   1.011   2.249
 4231SOL     OW13591   6.641   1.486   6.105
 4231SOL    HW113592   6.719   1.517   6.160
 4231SOL    HW213593   6.659   1.394   6.070
 4232SOL     OW13594   1.465   5.699   3.952
 4232SOL    HW113595   1.525   5.658   4.021
 4232SOL    HW213596   1.388   5.744   3.997
 4233SOL     OW13597   4.344   5.016   2.631
 4233SOL    HW113598   4.398   4.933   2.648
 4233SOL    HW213599   4.252   4.990   2.603
 4234SOL     OW13600   3.190   5.293   6.063
 4234SOL    HW113601   3.262   5.226   6.080
 4234SOL    HW213602   3.107   5.267   6.112
 4235SOL     OW13603   6.833   5.837   5.691
 4235SOL    HW113604   6.867   5.791   5.609
 4235SOL    HW213605   6.869   5.930   5.695
 4236SOL     OW13606   0.585   5.320   2.545
 4236SOL    HW113607   0.492   5.354   2.529
 4236SOL    HW213608   0.595   5.296   2.642
 4237SOL     OW13609   6.692   4.443   3.941
 4237SOL    HW113610   6.602   4.401   3.944
 4237SOL    HW213611   6.705   4.487   3.852
 4238SOL     OW13612   2.787   6.485   3.113
 4238SOL    HW113613   2.824   6.486   3.206
 4238SOL    HW213614   2.703   6.538   3.110
 4239SOL     OW13615   4.259   1.014   3.870
 4239SOL    HW113616   4.263   1.057   3.780
 4239SOL    HW213617   4.341   0.959   3.884
 4240SOL     OW13618   6.451   6.970   1.892
 4240SOL    HW113619   6.464   7.019   1.978
 4240SOL    HW213620   6.389   0.001   1.833
 4241SOL     OW13621   6.249   3.665   0.486
 4241SOL    HW113622   6.210   3.756   0.493
 4241SOL    HW213623   6.292   3.640   0.573
 4242SOL     OW13624   2.697   1.796   3.182
 4242SOL    HW113625   2.795   1.805   3.198
 4242SOL    HW213626   2.680   1.722   3.116
 4243SOL     OW13627   5.073   0.326   2.974
 4243SOL    HW113628   5.162   0.366   2.995
 4243SOL    HW213629   5.005   0.399   2.966
 4244SOL     OW13630   3.536   3.194   3.442
 4244SOL    HW113631   3.480   3.276   3.433
 4244SOL    HW213632   3.546   3.151   3.352
 4245SOL     OW13633   6.270   1.697   6.600
 4245SOL    HW113634   6.321   1.719   6.517
 4245SOL    HW213635   6.311   1.618   6.645
 4246SOL     OW13636   0.650   3.519   0.688
 4246SOL    HW113637   0.728   3.463   0.715
 4246SOL    HW213638   0.682   3.603   0.646
 4247SOL     OW13639   0.150   5.746   5.303
 4247SOL    HW113640   0.180   5.651   5.307
 4247SOL    HW213641   0.229   5.805   5.284
 4248SOL     OW13642   1.545   2.867   4.937
 4248SOL    HW113643   1.517   2.942   4.877
 4248SOL    HW213644   1.642   2.877   4.960
 4249SOL     OW13645   5.499   3.986   5.882
 4249SOL    HW113646   5.455   3.960   5.968
 4249SOL    HW213647   5.518   4.084   5.882
 4250SOL     OW13648   0.742   4.566   2.902
 4250SOL    HW113649   0.656   4.614   2.918
 4250SOL    HW213650   0.817   4.618   2.944
 4251SOL     OW13651   5.895   3.821   0.708
 4251SOL    HW113652   5.877   3.741   0.649
 4251SOL    HW213653   5.868   3.800   0.802
 4252SOL     OW13654   0.391   5.580   5.830
 4252SOL    HW113655   0.460   5.653   5.834
 4252SOL    HW213656   0.324   5.601   5.758
 4253SOL     OW13657   4.049   6.354   2.841
 4253SOL    HW113658   4.111   6.423   2.877
 4253SOL    HW213659   4.007   6.387   2.757
 4254SOL     OW13660   2.532   4.144   0.931
 4254SOL    HW113661   2.582   4.144   1.018
 4254SOL    HW213662   2.583   4.091   0.863
 4255SOL     OW13663   6.874   1.906   4.449
 4255SOL    HW113664   6.781   1.925   4.478
 4255SOL    HW213665   6.915   1.838   4.511
 4256SOL     OW13666   2.166   1.038   2.061
 4256SOL    HW113667   2.080   1.054   2.012
 4256SOL    HW213668   2.161   0.951   2.110
 4257SOL     OW13669   4.155   2.213   4.545
 4257SOL    HW113670   4.076   2.200   4.604
 4257SOL    HW213671   4.159   2.140   4.477
 4258SOL     OW13672   5.492   6.406   2.736
 4258SOL    HW113673   5.513   6.439   2.644
 4258SOL    HW213674   5.576   6.372   2.778
 4259SOL     OW13675   2.020   3.079   0.581
 4259SOL    HW113676   1.936   3.055   0.630
 4259SOL    HW213677   2.066   2.995   0.552
 4260SOL     OW13678   5.221   5.846   3.399
 4260SOL    HW113679   5.158   5.851   3.477
 4260SOL    HW213680   5.290   5.776   3.416
 4261SOL     OW13681   2.105   0.551   2.564
 4261SOL    HW113682   2.111   0.465   2.513
 4261SOL    HW213683   2.057   0.620   2.509
 4262SOL     OW13684   0.586   6.123   6.614
 4262SOL    HW113685   0.604   6.174   6.699
 4262SOL    HW213686   0.499   6.153   6.576
 4263SOL     OW13687   3.297   5.375   5.630
 4263SOL    HW113688   3.202   5.403   5.647
 4263SOL    HW213689   3.359   5.439   5.677
 4264SOL     OW13690   7.009   0.497   0.473
 4264SOL    HW113691   0.084   0.521   0.495
 4264SOL    HW213692   6.997   0.398   0.481
 4265SOL     OW13693   6.931   2.185   0.902
 4265SOL    HW113694   7.009   2.215   0.957
 4265SOL    HW213695   6.879   2.265   0.872
 4266SOL     OW13696   2.780   4.848   0.602
 4266SOL    HW113697   2.810   4.774   0.542
 4266SOL    HW213698   2.807   4.936   0.564
 4267SOL     OW13699   2.001   3.899   5.637
 4267SOL    HW113700   2.089   3.866   5.671
 4267SOL    HW213701   1.975   3.981   5.688
 4268SOL     OW13702   1.724   1.019   1.406
 4268SOL    HW113703   1.686   1.050   1.318
 4268SOL    HW213704   1.809   1.068   1.424
 4269SOL     OW13705   3.495   3.104   0.687
 4269SOL    HW113706   3.502   3.004   0.683
 4269SOL    HW213707   3.420   3.135   0.628
 4270SOL     OW13708   3.331   2.624   5.313
 4270SOL    HW113709   3.266   2.698   5.294
 4270SOL    HW213710   3.302   2.541   5.265
 4271SOL     OW13711   1.500   6.777   0.409
 4271SOL    HW113712   1.511   6.875   0.429
 4271SOL    HW213713   1.573   6.725   0.454
 4272SOL     OW13714   6.903   4.565   4.527
 4272SOL    HW113715   6.991   4.612   4.522
 4272SOL    HW213716   6.897   4.498   4.454
 4273SOL     OW13717   5.863   6.470   5.142
 4273SOL    HW113718   5.816   6.439   5.225
 4273SOL    HW213719   5.941   6.528   5.168
 4274SOL     OW13720   1.922   0.234   3.785
 4274SOL    HW113721   1.911   0.148   3.735
 4274SOL    HW213722   1.870   0.231   3.870
 4275SOL     OW13723   0.908   0.166   6.580
 4275SOL    HW113724   0.914   0.067   6.565
 4275SOL    HW213725   0.944   0.213   6.499
 4276SOL     OW13726   2.055   4.111   2.552
 4276SOL    HW113727   1.973   4.065   2.518
 4276SOL    HW213728   2.102   4.050   2.617
 4277SOL     OW13729   0.062   5.463   3.391
 4277SOL    HW113730   0.160   5.478   3.384
 4277SOL    HW213731   0.024   5.523   3.461
 4278SOL     OW13732   0.217   6.749   5.337
 4278SOL    HW113733   0.123   6.780   5.321
 4278SOL    HW213734   0.235   6.670   5.278
 4279SOL     OW13735   3.414   5.911   4.139
 4279SOL    HW113736   3.426   5.992   4.195
 4279SOL    HW213737   3.452   5.831   4.186
 4280SOL     OW13738   4.735   2.919   4.255
 4280SOL    HW113739   4.821   2.892   4.299
 4280SOL    HW213740   4.743   3.011   4.218
 4281SOL     OW13741   2.266   4.269   5.429
 4281SOL    HW113742   2.244   4.192   5.369
 4281SOL    HW213743   2.358   4.256   5.466
 4282SOL     OW13744   1.802   2.297   1.500
 4282SOL    HW113745   1.734   2.344   1.444
 4282SOL    HW213746   1.871   2.363   1.530
 4283SOL     OW13747   1.835   0.489   4.465
 4283SOL    HW113748   1.838   0.483   4.565
 4283SOL    HW213749   1.740   0.489   4.435
 4284SOL     OW13750   5.999   2.016   2.747
 4284SOL    HW113751   6.068   1.981   2.811
 4284SOL    HW213752   5.945   1.940   2.712
 4285SOL     OW13753   1.507   6.224   6.485
 4285SOL    HW113754   1.451   6.166   6.544
 4285SOL    HW213755   1.525   6.311   6.531
 4286SOL     OW13756   5.608   5.315   0.238
 4286SOL    HW113757   5.580   5.399   0.285
 4286SOL    HW213758   5.654   5.338   0.153
 4287SOL     OW13759   5.025   6.758   4.892
 4287SOL    HW113760   5.109   6.729   4.847
 4287SOL    HW213761   4.987   6.681   4.944
 4288SOL     OW13762   1.236   6.791   2.940
 4288SOL    HW113763   1.334   6.801   2.928
 4288SOL    HW213764   1.188   6.864   2.891
 4289SOL     OW13765   5.723   3.494   1.493
 4289SOL    HW113766   5.627   3.520   1.497
 4289SOL    HW213767   5.778   3.574   1.470
 4290SOL     OW13768   2.357   1.132   1.569
 4290SOL    HW113769   2.343   1.034   1.587
 4290SOL    HW213770   2.280   1.183   1.608
 4291SOL     OW13771   6.490   4.127   1.191
 4291SOL    HW113772   6.551   4.136   1.112
 4291SOL    HW213773   6.401   4.094   1.161
 4292SOL     OW13774   6.170   5.319   6.680
 4292SOL    HW113775   6.108   5.246   6.648
 4292SOL    HW213776   6.133   5.408   6.652
 4293SOL     OW13777   6.767   2.427   6.979
 4293SOL    HW113778   6.843   2.369   6.951
 4293SOL    HW213779   6.690   2.414   6.917
 4294SOL     OW13780   4.821   1.806   5.903
 4294SOL    HW113781   4.761   1.855   5.966
 4294SOL    HW213782   4.775   1.725   5.869
 4295SOL     OW13783   3.713   6.790   4.632
 4295SOL    HW113784   3.668   6.752   4.551
 4295SOL    HW213785   3.721   6.719   4.702
 4296SOL     OW13786   2.703   1.818   0.716
 4296SOL    HW113787   2.711   1.887   0.788
 4296SOL    HW213788   2.708   1.727   0.757
 4297SOL     OW13789   5.847   0.229   5.692
 4297SOL    HW113790   5.832   0.164   5.768
 4297SOL    HW213791   5.873   0.318   5.730
 4298SOL     OW13792   3.016   5.345   0.936
 4298SOL    HW113793   3.053   5.401   1.010
 4298SOL    HW213794   3.091   5.315   0.877
 4299SOL     OW13795   0.798   3.831   6.433
 4299SOL    HW113796   0.720   3.884   6.467
 4299SOL    HW213797   0.792   3.822   6.334
 4300SOL     OW13798   5.302   0.533   6.754
 4300SOL    HW113799   5.269   0.617   6.712
 4300SOL    HW213800   5.392   0.549   6.795
 4301SOL     OW13801   3.422   1.533   0.694
 4301SOL    HW113802   3.336   1.539   0.642
 4301SOL    HW213803   3.405   1.560   0.789
 4302SOL     OW13804   0.928   6.266   6.976
 4302SOL    HW113805   0.976   6.238   0.039
 4302SOL    HW213806   0.892   6.186   6.929
 4303SOL     OW13807   0.003   3.003   1.959
 4303SOL    HW113808   0.019   2.914   2.002
 4303SOL    HW213809   6.927   3.009   1.929
 4304SOL     OW13810   3.004   3.420   3.874
 4304SOL    HW113811   3.064   3.380   3.943
 4304SOL    HW213812   2.975   3.349   3.810
 4305SOL     OW13813   6.035   2.035   3.679
 4305SOL    HW113814   6.118   2.002   3.634
 4305SOL    HW213815   6.057   2.114   3.736
 4306SOL     OW13816   6.675   5.187   5.677
 4306SOL    HW113817   6.671   5.088   5.689
 4306SOL    HW213818   6.728   5.227   5.752
 4307SOL     OW13819   5.170   4.020   5.992
 4307SOL    HW113820   5.196   4.115   5.981
 4307SOL    HW213821   5.237   3.972   6.048
 4308SOL     OW13822   5.146   6.243   4.629
 4308SOL    HW113823   5.233   6.201   4.657
 4308SOL    HW213824   5.165   6.318   4.565
 4309SOL     OW13825   1.910   1.739   0.880
 4309SOL    HW113826   1.868   1.693   0.958
 4309SOL    HW213827   1.940   1.830   0.908
 4310SOL     OW13828   1.571   1.116   2.203
 4310SOL    HW113829   1.476   1.138   2.226
 4310SOL    HW213830   1.594   1.026   2.240
 4311SOL     OW13831   1.807   6.517   3.614
 4311SOL    HW113832   1.780   6.613   3.609
 4311SOL    HW213833   1.875   6.498   3.544
 4312SOL     OW13834   2.262   5.092   2.029
 4312SOL    HW113835   2.228   5.159   1.963
 4312SOL    HW213836   2.282   5.006   1.981
 4313SOL     OW13837   4.756   0.708   2.698
 4313SOL    HW113838   4.792   0.791   2.739
 4313SOL    HW213839   4.675   0.678   2.749
 4314SOL     OW13840   4.799   2.756   2.561
 4314SOL    HW113841   4.836   2.831   2.617
 4314SOL    HW213842   4.838   2.669   2.592
 4315SOL     OW13843   2.546   1.225   2.176
 4315SOL    HW113844   2.516   1.266   2.089
 4315SOL    HW213845   2.539   1.126   2.169
 4316SOL     OW13846   6.143   6.920   2.553
 4316SOL    HW113847   6.071   6.984   2.579
 4316SOL    HW213848   6.103   6.835   2.518
 4317SOL     OW13849   4.421   1.506   3.350
 4317SOL    HW113850   4.340   1.447   3.351
 4317SOL    HW213851   4.396   1.597   3.384
 4318SOL     OW13852   0.268   2.357   4.250
 4318SOL    HW113853   0.235   2.263   4.240
 4318SOL    HW213854   0.329   2.362   4.329
 4319SOL     OW13855   2.370   3.465   5.824
 4319SOL    HW113856   2.406   3.541   5.770
 4319SOL    HW213857   2.333   3.499   5.910
 4320SOL     OW13858   0.292   5.804   2.751
 4320SOL    HW113859   0.329   5.863   2.680
 4320SOL    HW213860   0.285   5.710   2.717
 4321SOL     OW13861   0.723   0.272   5.585
 4321SOL    HW113862   0.761   0.179   5.583
 4321SOL    HW213863   0.668   0.283   5.667
 4322SOL     OW13864   6.184   0.964   0.506
 4322SOL    HW113865   6.179   0.982   0.408
 4322SOL    HW213866   6.257   1.019   0.546
 4323SOL     OW13867   6.461   2.895   3.648
 4323SOL    HW113868   6.473   2.947   3.732
 4323SOL    HW213869   6.548   2.890   3.599
 4324SOL     OW13870   5.853   4.154   5.942
 4324SOL    HW113871   5.861   4.182   5.847
 4324SOL    HW213872   5.813   4.229   5.995
 4325SOL     OW13873   1.961   2.173   6.652
 4325SOL    HW113874   1.989   2.268   6.668
 4325SOL    HW213875   1.890   2.148   6.718
 4326SOL     OW13876   6.374   1.931   5.342
 4326SOL    HW113877   6.328   1.843   5.348
 4326SOL    HW213878   6.355   1.985   5.425
 4327SOL     OW13879   5.772   6.810   2.514
 4327SOL    HW113880   5.805   6.900   2.541
 4327SOL    HW213881   5.836   6.769   2.449
 4328SOL     OW13882   5.600   4.963   0.047
 4328SOL    HW113883   5.578   4.944   0.143
 4328SOL    HW213884   5.689   5.007   0.042
 4329SOL     OW13885   3.384   1.655   5.880
 4329SOL    HW113886   3.362   1.593   5.955
 4329SOL    HW213887   3.358   1.614   5.793
 4330SOL     OW13888   1.676   0.855   6.301
 4330SOL    HW113889   1.704   0.928   6.363
 4330SOL    HW213890   1.754   0.829   6.244
 4331SOL     OW13891   6.149   2.567   6.956
 4331SOL    HW113892   6.108   2.626   6.886
 4331SOL    HW213893   6.240   2.601   6.979
 4332SOL     OW13894   5.273   3.188   1.574
 4332SOL    HW113895   5.347   3.225   1.630
 4332SOL    HW213896   5.281   3.222   1.480
 4333SOL     OW13897   5.463   0.932   5.173
 4333SOL    HW113898   5.493   1.014   5.125
 4333SOL    HW213899   5.401   0.958   5.248
 4334SOL     OW13900   4.578   0.733   2.003
 4334SOL    HW113901   4.626   0.821   2.012
 4334SOL    HW213902   4.545   0.704   2.093
 4335SOL     OW13903   3.353   4.276   5.216
 4335SOL    HW113904   3.377   4.179   5.222
 4335SOL    HW213905   3.261   4.289   5.254
 4336SOL     OW13906   1.268   5.859   4.115
 4336SOL    HW113907   1.342   5.890   4.174
 4336SOL    HW213908   1.221   5.938   4.076
 4337SOL     OW13909   0.139   5.644   0.987
 4337SOL    HW113910   0.056   5.676   0.942
 4337SOL    HW213911   0.210   5.626   0.918
 4338SOL     OW13912   6.800   6.393   4.059
 4338SOL    HW113913   6.832   6.380   3.965
 4338SOL    HW213914   6.865   6.351   4.122
 4339SOL     OW13915   6.459   1.319   6.250
 4339SOL    HW113916   6.535   1.381   6.231
 4339SOL    HW213917   6.382   1.342   6.191
 4340SOL     OW13918   4.581   3.671   1.649
 4340SOL    HW113919   4.532   3.584   1.639
 4340SOL    HW213920   4.676   3.658   1.622
 4341SOL     OW13921   0.736   4.461   0.484
 4341SOL    HW113922   0.798   4.496   0.414
 4341SOL    HW213923   0.749   4.514   0.569
 4342SOL     OW13924   0.051   3.349   2.860
 4342SOL    HW113925   0.022   3.424   2.919
 4342SOL    HW213926   0.134   3.308   2.898
 4343SOL     OW13927   2.623   1.700   1.362
 4343SOL    HW113928   2.587   1.794   1.353
 4343SOL    HW213929   2.636   1.661   1.271
 4344SOL     OW13930   2.114   4.892   3.431
 4344SOL    HW113931   2.113   4.793   3.446
 4344SOL    HW213932   2.060   4.937   3.502
 4345SOL     OW13933   1.797   1.879   5.805
 4345SOL    HW113934   1.873   1.938   5.832
 4345SOL    HW213935   1.743   1.855   5.886
 4346SOL     OW13936   1.775   3.391   1.847
 4346SOL    HW113937   1.865   3.402   1.805
 4346SOL    HW213938   1.720   3.328   1.792
 4347SOL     OW13939   5.708   6.318   2.904
 4347SOL    HW113940   5.803   6.315   2.937
 4347SOL    HW213941   5.666   6.227   2.914
 4348SOL     OW13942   1.245   4.005   6.950
 4348SOL    HW113943   1.145   4.009   6.951
 4348SOL    HW213944   1.279   4.014   6.856
 4349SOL     OW13945   6.808   0.272   3.209
 4349SOL    HW113946   6.891   0.250   3.260
 4349SOL    HW213947   6.750   0.191   3.203
 4350SOL     OW13948   5.124   1.985   3.700
 4350SOL    HW113949   5.032   1.947   3.707
 4350SOL    HW213950   5.191   1.911   3.695
 4351SOL     OW13951   2.899   6.195   1.051
 4351SOL    HW113952   2.881   6.117   1.111
 4351SOL    HW213953   2.986   6.182   1.004
 4352SOL     OW13954   6.328   1.324   1.758
 4352SOL    HW113955   6.319   1.291   1.852
 4352SOL    HW213956   6.398   1.395   1.754
 4353SOL     OW13957   4.243   5.669   6.970
 4353SOL    HW113958   4.170   5.607   6.940
 4353SOL    HW213959   4.326   5.616   6.988
 4354SOL     OW13960   1.844   0.582   0.975
 4354SOL    HW113961   1.837   0.629   0.887
 4354SOL    HW213962   1.930   0.607   1.019
 4355SOL     OW13963   5.389   1.086   0.922
 4355SOL    HW113964   5.419   1.069   1.016
 4355SOL    HW213965   5.300   1.131   0.924
 4356SOL     OW13966   3.842   4.399   0.608
 4356SOL    HW113967   3.891   4.445   0.681
 4356SOL    HW213968   3.760   4.451   0.584
 4357SOL     OW13969   6.209   0.650   6.629
 4357SOL    HW113970   6.119   0.693   6.619
 4357SOL    HW213971   6.208   0.561   6.583
 4358SOL     OW13972   0.664   0.222   2.059
 4358SOL    HW113973   0.664   0.314   2.098
 4358SOL    HW213974   0.695   0.226   1.964
 4359SOL     OW13975   6.479   2.444   4.140
 4359SOL    HW113976   6.536   2.371   4.103
 4359SOL    HW213977   6.429   2.487   4.065
 4360SOL     OW13978   1.427   3.150   1.361
 4360SOL    HW113979   1.403   3.055   1.380
 4360SOL    HW213980   1.424   3.203   1.445
 4361SOL     OW13981   5.207   2.033   1.639
 4361SOL    HW113982   5.201   1.934   1.624
 4361SOL    HW213983   5.193   2.080   1.552
 4362SOL     OW13984   5.885   4.786   3.990
 4362SOL    HW113985   5.980   4.813   4.003
 4362SOL    HW213986   5.881   4.687   3.973
 4363SOL     OW13987   5.221   1.592   6.281
 4363SOL    HW113988   5.214   1.492   6.290
 4363SOL    HW213989   5.211   1.634   6.372
 4364SOL     OW13990   3.632   3.788   5.041
 4364SOL    HW113991   3.716   3.763   4.993
 4364SOL    HW213992   3.570   3.709   5.043
 4365SOL     OW13993   3.652   1.218   1.297
 4365SOL    HW113994   3.671   1.305   1.344
 4365SOL    HW213995   3.700   1.217   1.209
 4366SOL     OW13996   5.247   5.116   0.966
 4366SOL    HW113997   5.184   5.075   0.900
 4366SOL    HW213998   5.334   5.136   0.921
 4367SOL     OW13999   1.114   6.257   6.715
 4367SOL    HW114000   1.126   6.293   6.808
 4367SOL    HW214001   1.080   6.163   6.720
 4368SOL     OW14002   5.556   3.789   1.730
 4368SOL    HW114003   5.506   3.744   1.804
 4368SOL    HW214004   5.651   3.760   1.731
 4369SOL     OW14005   3.926   5.930   1.986
 4369SOL    HW114006   3.870   5.909   1.906
 4369SOL    HW214007   4.022   5.908   1.967
 4370SOL     OW14008   5.769   5.167   3.029
 4370SOL    HW114009   5.765   5.201   3.123
 4370SOL    HW214010   5.776   5.067   3.031
 4371SOL     OW14011   6.037   2.027   2.348
 4371SOL    HW114012   6.000   1.955   2.407
 4371SOL    HW214013   6.008   2.116   2.382
 4372SOL     OW14014   4.578   0.252   3.147
 4372SOL    HW114015   4.497   0.262   3.089
 4372SOL    HW214016   4.625   0.167   3.125
 4373SOL     OW14017   6.779   2.159   6.095
 4373SOL    HW114018   6.745   2.070   6.124
 4373SOL    HW214019   6.707   2.228   6.104
 4374SOL     OW14020   2.499   2.458   1.520
 4374SOL    HW114021   2.541   2.368   1.526
 4374SOL    HW214022   2.562   2.521   1.474
 4375SOL     OW14023   2.787   6.750   4.203
 4375SOL    HW114024   2.744   6.716   4.119
 4375SOL    HW214025   2.740   6.833   4.233
 4376SOL     OW14026   5.616   1.537   3.454
 4376SOL    HW114027   5.625   1.472   3.529
 4376SOL    HW214028   5.678   1.511   3.379
 4377SOL     OW14029   5.207   4.638   6.471
 4377SOL    HW114030   5.174   4.608   6.381
 4377SOL    HW214031   5.232   4.735   6.466
 4378SOL     OW14032   1.857   0.854   3.914
 4378SOL    HW114033   1.851   0.830   4.011
 4378SOL    HW214034   1.948   0.889   3.894
 4379SOL     OW14035   2.658   1.708   5.337
 4379SOL    HW114036   2.573   1.736   5.383
 4379SOL    HW214037   2.656   1.738   5.242
 4380SOL     OW14038   0.270   0.851   1.809
 4380SOL    HW114039   0.356   0.899   1.793
 4380SOL    HW214040   0.194   0.913   1.795
 4381SOL     OW14041   1.732   6.133   6.348
 4381SOL    HW114042   1.677   6.056   6.317
 4381SOL    HW214043   1.674   6.196   6.400
 4382SOL     OW14044   0.117   2.996   5.201
 4382SOL    HW114045   0.089   3.073   5.143
 4382SOL    HW214046   0.036   2.954   5.241
 4383SOL     OW14047   6.341   2.748   0.456
 4383SOL    HW114048   6.440   2.733   0.451
 4383SOL    HW214049   6.302   2.691   0.527
 4384SOL     OW14050   5.657   6.794   4.271
 4384SOL    HW114051   5.562   6.765   4.262
 4384SOL    HW214052   5.718   6.722   4.240
 4385SOL     OW14053   4.836   1.597   5.074
 4385SOL    HW114054   4.791   1.517   5.034
 4385SOL    HW214055   4.907   1.567   5.137
 4386SOL     OW14056   1.222   3.216   4.547
 4386SOL    HW114057   1.168   3.300   4.550
 4386SOL    HW214058   1.191   3.153   4.618
 4387SOL     OW14059   6.799   2.012   0.481
 4387SOL    HW114060   6.880   1.999   0.538
 4387SOL    HW214061   6.755   1.923   0.465
 4388SOL     OW14062   5.822   2.779   6.601
 4388SOL    HW114063   5.759   2.705   6.625
 4388SOL    HW214064   5.872   2.755   6.518
 4389SOL     OW14065   0.690   3.763   1.160
 4389SOL    HW114066   0.786   3.744   1.143
 4389SOL    HW214067   0.640   3.769   1.073
 4390SOL     OW14068   6.778   1.206   1.161
 4390SOL    HW114069   6.752   1.287   1.109
 4390SOL    HW214070   6.851   1.230   1.225
 4391SOL     OW14071   2.177   6.089   0.334
 4391SOL    HW114072   2.250   6.126   0.390
 4391SOL    HW214073   2.212   6.011   0.282
 4392SOL     OW14074   1.740   2.702   5.307
 4392SOL    HW114075   1.838   2.685   5.312
 4392SOL    HW214076   1.690   2.619   5.331
 4393SOL     OW14077   4.846   0.986   2.063
 4393SOL    HW114078   4.759   1.000   2.016
 4393SOL    HW214079   4.918   0.965   1.996
 4394SOL     OW14080   1.096   0.400   2.122
 4394SOL    HW114081   1.002   0.434   2.127
 4394SOL    HW214082   1.103   0.332   2.049
 4395SOL     OW14083   2.921   5.437   1.840
 4395SOL    HW114084   2.946   5.347   1.876
 4395SOL    HW214085   3.002   5.497   1.840
 4396SOL     OW14086   2.750   0.379   3.381
 4396SOL    HW114087   2.820   0.317   3.417
 4396SOL    HW214088   2.661   0.351   3.415
 4397SOL     OW14089   3.357   1.850   4.187
 4397SOL    HW114090   3.387   1.765   4.143
 4397SOL    HW214091   3.365   1.926   4.123
 4398SOL     OW14092   2.024   2.863   4.953
 4398SOL    HW114093   2.021   2.884   5.051
 4398SOL    HW214094   1.940   2.895   4.909
 4399SOL     OW14095   3.002   7.010   2.493
 4399SOL    HW114096   2.933   0.023   2.428
 4399SOL    HW214097   3.014   0.059   2.565
 4400SOL     OW14098   1.639   5.379   4.776
 4400SOL    HW114099   1.727   5.332   4.770
 4400SOL    HW214100   1.651   5.467   4.821
 4401SOL     OW14101   3.793   6.967   6.288
 4401SOL    HW114102   3.724   6.954   6.359
 4401SOL    HW214103   3.775   0.032   6.239
 4402SOL     OW14104   1.294   1.012   3.261
 4402SOL    HW114105   1.279   0.947   3.336
 4402SOL    HW214106   1.389   1.007   3.230
 4403SOL     OW14107   1.450   4.971   1.867
 4403SOL    HW114108   1.483   5.065   1.879
 4403SOL    HW214109   1.445   4.926   1.956
 4404SOL     OW14110   0.883   6.676   6.271
 4404SOL    HW114111   0.840   6.766   6.266
 4404SOL    HW214112   0.813   6.606   6.288
 4405SOL     OW14113   1.617   5.900   3.024
 4405SOL    HW114114   1.570   5.947   2.950
 4405SOL    HW214115   1.664   5.966   3.082
 4406SOL     OW14116   6.622   3.867   2.076
 4406SOL    HW114117   6.524   3.880   2.063
 4406SOL    HW214118   6.672   3.940   2.030
 4407SOL     OW14119   5.350   5.853   2.091
 4407SOL    HW114120   5.345   5.809   2.001
 4407SOL    HW214121   5.351   5.952   2.080
 4408SOL     OW14122   4.360   0.805   0.307
 4408SOL    HW114123   4.441   0.864   0.298
 4408SOL    HW214124   4.329   0.777   0.216
 4409SOL     OW14125   2.817   0.170   3.163
 4409SOL    HW114126   2.821   0.203   3.258
 4409SOL    HW214127   2.738   0.209   3.117
 4410SOL     OW14128   1.369   6.611   1.139
 4410SOL    HW114129   1.309   6.578   1.212
 4410SOL    HW214130   1.313   6.638   1.061
 4411SOL     OW14131   3.500   4.478   5.292
 4411SOL    HW114132   3.590   4.449   5.325
 4411SOL    HW214133   3.453   4.401   5.249
 4412SOL     OW14134   4.414   6.119   2.783
 4412SOL    HW114135   4.458   6.176   2.853
 4412SOL    HW214136   4.471   6.119   2.701
 4413SOL     OW14137   4.531   6.794   3.869
 4413SOL    HW114138   4.448   6.799   3.926
 4413SOL    HW214139   4.609   6.767   3.926
 4414SOL     OW14140   4.347   4.217   1.412
 4414SOL    HW114141   4.390   4.295   1.367
 4414SOL    HW214142   4.252   4.209   1.383
 4415SOL     OW14143   2.006   2.718   1.459
 4415SOL    HW114144   1.947   2.763   1.526
 4415SOL    HW214145   2.089   2.773   1.447
 4416SOL     OW14146   4.441   2.463   3.490
 4416SOL    HW114147   4.393   2.389   3.538
 4416SOL    HW214148   4.460   2.537   3.554
 4417SOL     OW14149   0.296   3.938   3.102
 4417SOL    HW114150   0.257   3.938   3.010
 4417SOL    HW214151   0.365   4.009   3.110
 4418SOL     OW14152   6.608   6.701   6.063
 4418SOL    HW114153   6.564   6.778   6.017
 4418SOL    HW214154   6.681   6.665   6.005
 4419SOL     OW14155   5.850   5.399   6.188
 4419SOL    HW114156   5.813   5.468   6.250
 4419SOL    HW214157   5.833   5.308   6.225
 4420SOL     OW14158   3.268   2.377   0.904
 4420SOL    HW114159   3.288   2.322   0.985
 4420SOL    HW214160   3.176   2.417   0.913
 4421SOL     OW14161   1.841   2.296   6.126
 4421SOL    HW114162   1.797   2.228   6.183
 4421SOL    HW214163   1.939   2.276   6.120
 4422SOL     OW14164   6.736   3.825   6.369
 4422SOL    HW114165   6.707   3.737   6.332
 4422SOL    HW214166   6.669   3.857   6.436
 4423SOL     OW14167   5.739   4.432   5.049
 4423SOL    HW114168   5.790   4.444   5.133
 4423SOL    HW214169   5.801   4.401   4.976
 4424SOL     OW14170   4.694   5.387   3.306
 4424SOL    HW114171   4.781   5.426   3.336
 4424SOL    HW214172   4.711   5.313   3.242
 4425SOL     OW14173   1.778   4.985   1.428
 4425SOL    HW114174   1.734   5.048   1.491
 4425SOL    HW214175   1.782   5.026   1.337
 4426SOL     OW14176   0.532   0.448   5.140
 4426SOL    HW114177   0.558   0.424   5.233
 4426SOL    HW214178   0.467   0.381   5.105
 4427SOL     OW14179   2.335   6.347   3.007
 4427SOL    HW114180   2.390   6.263   3.003
 4427SOL    HW214181   2.292   6.362   2.918
 4428SOL     OW14182   5.374   6.691   3.486
 4428SOL    HW114183   5.432   6.671   3.565
 4428SOL    HW214184   5.312   6.614   3.470
 4429SOL     OW14185   2.471   6.107   3.035
 4429SOL    HW114186   2.515   6.070   2.954
 4429SOL    HW214187   2.432   6.033   3.090
 4430SOL     OW14188   4.480   3.706   5.528
 4430SOL    HW114189   4.571   3.700   5.569
 4430SOL    HW214190   4.412   3.714   5.601
 4431SOL     OW14191   3.002   6.451   3.744
 4431SOL    HW114192   3.051   6.429   3.660
 4431SOL    HW214193   2.920   6.505   3.721
 4432SOL     OW14194   0.724   3.473   5.842
 4432SOL    HW114195   0.722   3.503   5.937
 4432SOL    HW214196   0.674   3.386   5.833
 4433SOL     OW14197   0.231   1.002   5.583
 4433SOL    HW114198   0.309   0.940   5.594
 4433SOL    HW214199   0.263   1.090   5.549
 4434SOL     OW14200   0.316   0.472   2.785
 4434SOL    HW114201   0.306   0.570   2.803
 4434SOL    HW214202   0.301   0.421   2.870
 4435SOL     OW14203   2.335   4.180   0.260
 4435SOL    HW114204   2.348   4.277   0.239
 4435SOL    HW214205   2.416   4.129   0.232
 4436SOL     OW14206   4.238   1.678   1.819
 4436SOL    HW114207   4.177   1.724   1.883
 4436SOL    HW214208   4.244   1.581   1.843
 4437SOL     OW14209   6.868   3.921   0.362
 4437SOL    HW114210   6.899   4.015   0.373
 4437SOL    HW214211   6.784   3.907   0.415
 4438SOL     OW14212   3.550   0.218   5.513
 4438SOL    HW114213   3.560   0.190   5.608
 4438SOL    HW214214   3.476   0.284   5.505
 4439SOL     OW14215   2.745   0.125   2.682
 4439SOL    HW114216   2.838   0.162   2.683
 4439SOL    HW214217   2.744   0.036   2.637
 4440SOL     OW14218   1.408   5.255   0.087
 4440SOL    HW114219   1.418   5.214   0.177
 4440SOL    HW214220   1.435   5.351   0.091
 4441SOL     OW14221   0.387   1.546   0.389
 4441SOL    HW114222   0.298   1.517   0.425
 4441SOL    HW214223   0.379   1.639   0.352
 4442SOL     OW14224   1.650   4.736   6.578
 4442SOL    HW114225   1.565   4.788   6.574
 4442SOL    HW214226   1.672   4.716   6.674
 4443SOL     OW14227   1.137   5.532   6.171
 4443SOL    HW114228   1.167   5.544   6.266
 4443SOL    HW214229   1.141   5.620   6.123
 4444SOL     OW14230   5.838   4.483   6.980
 4444SOL    HW114231   5.892   4.551   6.930
 4444SOL    HW214232   5.797   4.527   0.040
 4445SOL     OW14233   0.205   4.899   0.604
 4445SOL    HW114234   0.240   4.992   0.614
 4445SOL    HW214235   0.268   4.835   0.648
 4446SOL     OW14236   4.875   1.384   0.900
 4446SOL    HW114237   4.784   1.354   0.874
 4446SOL    HW214238   4.943   1.322   0.861
 4447SOL     OW14239   4.808   5.455   5.954
 4447SOL    HW114240   4.864   5.444   5.872
 4447SOL    HW214241   4.768   5.367   5.978
 4448SOL     OW14242   3.594   6.437   2.054
 4448SOL    HW114243   3.605   6.412   2.150
 4448SOL    HW214244   3.497   6.439   2.031
 4449SOL     OW14245   3.457   1.317   5.505
 4449SOL    HW114246   3.443   1.251   5.431
 4449SOL    HW214247   3.551   1.312   5.538
 4450SOL     OW14248   3.372   0.011   0.061
 4450SOL    HW114249   3.280   0.037   0.090
 4450SOL    HW214250   3.366   6.972   7.000
 4451SOL     OW14251   5.245   4.655   2.812
 4451SOL    HW114252   5.211   4.743   2.781
 4451SOL    HW214253   5.184   4.582   2.779
 4452SOL     OW14254   4.197   6.508   4.558
 4452SOL    HW114255   4.262   6.545   4.492
 4452SOL    HW214256   4.143   6.583   4.596
 4453SOL     OW14257   6.367   4.085   0.742
 4453SOL    HW114258   6.355   4.087   0.642
 4453SOL    HW214259   6.281   4.058   0.785
 4454SOL     OW14260   1.352   2.812   6.954
 4454SOL    HW114261   1.257   2.844   6.960
 4454SOL    HW214262   1.365   2.765   6.867
 4455SOL     OW14263   0.704   6.389   5.637
 4455SOL    HW114264   0.710   6.464   5.702
 4455SOL    HW214265   0.740   6.305   5.679
 4456SOL     OW14266   2.313   0.280   4.495
 4456SOL    HW114267   2.256   0.354   4.457
 4456SOL    HW214268   2.407   0.311   4.501
 4457SOL     OW14269   1.516   2.141   4.970
 4457SOL    HW114270   1.504   2.062   5.030
 4457SOL    HW214271   1.587   2.201   5.007
 4458SOL     OW14272   1.653   3.583   6.593
 4458SOL    HW114273   1.555   3.574   6.571
 4458SOL    HW214274   1.705   3.596   6.508
 4459SOL     OW14275   0.500   2.700   3.014
 4459SOL    HW114276   0.479   2.625   3.077
 4459SOL    HW214277   0.432   2.772   3.025
 4460SOL     OW14278   6.635   2.707   4.637
 4460SOL    HW114279   6.711   2.678   4.695
 4460SOL    HW214280   6.574   2.629   4.622
 4461SOL     OW14281   2.036   1.334   0.847
 4461SOL    HW114282   2.103   1.261   0.844
 4461SOL    HW214283   2.082   1.422   0.837
 4462SOL     OW14284   6.393   4.330   3.297
 4462SOL    HW114285   6.415   4.421   3.332
 4462SOL    HW214286   6.344   4.278   3.366
 4463SOL     OW14287   5.580   1.784   0.692
 4463SOL    HW114288   5.647   1.852   0.721
 4463SOL    HW214289   5.570   1.714   0.764
 4464SOL     OW14290   0.161   5.290   1.021
 4464SOL    HW114291   0.088   5.346   0.981
 4464SOL    HW214292   0.122   5.228   1.088
 4465SOL     OW14293   3.452   5.670   0.631
 4465SOL    HW114294   3.477   5.701   0.539
 4465SOL    HW214295   3.396   5.741   0.675
 4466SOL     OW14296   1.768   2.605   3.042
 4466SOL    HW114297   1.739   2.669   2.971
 4466SOL    HW214298   1.857   2.632   3.077
 4467SOL     OW14299   4.554   6.179   3.224
 4467SOL    HW114300   4.619   6.105   3.236
 4467SOL    HW214301   4.559   6.214   3.130
 4468SOL     OW14302   1.822   2.581   1.906
 4468SOL    HW114303   1.917   2.566   1.879
 4468SOL    HW214304   1.805   2.680   1.913
 4469SOL     OW14305   3.175   5.876   1.120
 4469SOL    HW114306   3.219   5.964   1.141
 4469SOL    HW214307   3.237   5.820   1.066
 4470SOL     OW14308   2.083   0.008   2.868
 4470SOL    HW114309   2.181   7.007   2.863
 4470SOL    HW214310   2.042   6.980   2.946
 4471SOL     OW14311   1.213   0.835   6.636
 4471SOL    HW114312   1.267   0.920   6.639
 4471SOL    HW214313   1.253   0.769   6.700
 4472SOL     OW14314   1.956   2.538   1.174
 4472SOL    HW114315   1.895   2.551   1.252
 4472SOL    HW214316   1.999   2.448   1.178
 4473SOL     OW14317   0.519   2.744   4.555
 4473SOL    HW114318   0.432   2.698   4.535
 4473SOL    HW214319   0.502   2.825   4.611
 4474SOL     OW14320   2.894   5.643   0.785
 4474SOL    HW114321   2.884   5.742   0.776
 4474SOL    HW214322   2.963   5.622   0.854
 4475SOL     OW14323   1.264   3.850   0.827
 4475SOL    HW114324   1.237   3.791   0.903
 4475SOL    HW214325   1.192   3.850   0.758
 4476SOL     OW14326   5.123   0.968   3.482
 4476SOL    HW114327   5.194   1.038   3.480
 4476SOL    HW214328   5.071   0.976   3.567
 4477SOL     OW14329   1.623   0.978   4.945
 4477SOL    HW114330   1.648   0.935   5.032
 4477SOL    HW214331   1.535   1.025   4.955
 4478SOL     OW14332   1.981   0.192   0.666
 4478SOL    HW114333   1.889   0.172   0.699
 4478SOL    HW214334   2.009   0.283   0.695
 4479SOL     OW14335   1.428   2.648   0.150
 4479SOL    HW114336   1.404   2.699   0.068
 4479SOL    HW214337   1.512   2.685   0.189
 4480SOL     OW14338   1.186   6.087   3.996
 4480SOL    HW114339   1.102   6.137   4.015
 4480SOL    HW214340   1.263   6.151   3.993
 4481SOL     OW14341   2.022   3.706   5.874
 4481SOL    HW114342   1.981   3.717   5.783
 4481SOL    HW214343   2.104   3.761   5.881
 4482SOL     OW14344   2.545   6.486   0.812
 4482SOL    HW114345   2.466   6.491   0.873
 4482SOL    HW214346   2.600   6.406   0.835
 4483SOL     OW14347   1.093   3.102   0.427
 4483SOL    HW114348   1.159   3.086   0.500
 4483SOL    HW214349   1.085   3.020   0.371
 4484SOL     OW14350   2.629   1.677   0.362
 4484SOL    HW114351   2.707   1.722   0.404
 4484SOL    HW214352   2.655   1.586   0.331
 4485SOL     OW14353   6.564   2.711   5.280
 4485SOL    HW114354   6.530   2.626   5.239
 4485SOL    HW214355   6.487   2.766   5.311
 4486SOL     OW14356   4.620   5.003   4.912
 4486SOL    HW114357   4.654   4.916   4.875
 4486SOL    HW214358   4.522   5.012   4.893
 4487SOL     OW14359   0.656   3.042   6.953
 4487SOL    HW114360   0.702   3.059   0.020
 4487SOL    HW214361   0.631   2.945   6.947
 4488SOL     OW14362   0.146   4.149   3.985
 4488SOL    HW114363   0.212   4.214   4.024
 4488SOL    HW214364   0.055   4.191   3.984
 4489SOL     OW14365   4.517   6.055   5.589
 4489SOL    HW114366   4.522   6.110   5.672
 4489SOL    HW214367   4.546   6.110   5.510
 4490SOL     OW14368   5.328   1.679   1.480
 4490SOL    HW114369   5.242   1.720   1.512
 4490SOL    HW214370   5.332   1.685   1.380
 4491SOL     OW14371   0.922   3.217   3.693
 4491SOL    HW114372   0.988   3.258   3.630
 4491SOL    HW214373   0.831   3.220   3.651
 4492SOL     OW14374   6.239   0.680   2.325
 4492SOL    HW114375   6.188   0.657   2.242
 4492SOL    HW214376   6.263   0.596   2.374
 4493SOL     OW14377   5.474   1.887   4.972
 4493SOL    HW114378   5.453   1.981   4.948
 4493SOL    HW214379   5.485   1.879   5.071
 4494SOL     OW14380   1.412   0.945   1.284
 4494SOL    HW114381   1.362   0.881   1.343
 4494SOL    HW214382   1.403   1.037   1.321
 4495SOL     OW14383   4.470   6.035   0.908
 4495SOL    HW114384   4.563   6.046   0.943
 4495SOL    HW214385   4.412   5.998   0.981
 4496SOL     OW14386   3.513   6.118   6.207
 4496SOL    HW114387   3.474   6.186   6.145
 4496SOL    HW214388   3.530   6.033   6.158
 4497SOL     OW14389   4.289   1.096   5.774
 4497SOL    HW114390   4.358   1.078   5.845
 4497SOL    HW214391   4.334   1.100   5.685
 4498SOL     OW14392   0.139   5.533   4.859
 4498SOL    HW114393   0.098   5.623   4.848
 4498SOL    HW214394   0.099   5.487   4.938
 4499SOL     OW14395   5.656   2.249   2.389
 4499SOL    HW114396   5.615   2.261   2.298
 4499SOL    HW214397   5.752   2.275   2.386
 4500SOL     OW14398   3.852   5.318   6.937
 4500SOL    HW114399   3.929   5.267   6.976
 4500SOL    HW214400   3.837   5.400   6.992
 4501SOL     OW14401   5.692   0.322   2.778
 4501SOL    HW114402   5.619   0.374   2.823
 4501SOL    HW214403   5.653   0.266   2.706
 4502SOL     OW14404   6.983   3.842   6.500
 4502SOL    HW114405   6.916   3.831   6.427
 4502SOL    HW214406   7.015   3.752   6.530
 4503SOL     OW14407   3.289   1.287   2.757
 4503SOL    HW114408   3.239   1.262   2.675
 4503SOL    HW214409   3.278   1.385   2.774
 4504SOL     OW14410   6.884   1.405   2.600
 4504SOL    HW114411   6.856   1.440   2.690
 4504SOL    HW214412   6.846   1.463   2.529
 4505SOL     OW14413   5.683   4.849   4.175
 4505SOL    HW114414   5.747   4.835   4.099
 4505SOL    HW214415   5.708   4.790   4.252
 4506SOL     OW14416   5.450   2.950   5.743
 4506SOL    HW114417   5.475   2.945   5.840
 4506SOL    HW214418   5.421   2.860   5.711
 4507SOL     OW14419   6.099   2.760   3.340
 4507SOL    HW114420   6.099   2.667   3.376
 4507SOL    HW214421   6.116   2.825   3.414
 4508SOL     OW14422   0.321   5.090   0.860
 4508SOL    HW114423   0.312   5.105   0.761
 4508SOL    HW214424   0.266   5.158   0.909
 4509SOL     OW14425   4.998   3.051   1.856
 4509SOL    HW114426   4.904   3.043   1.890
 4509SOL    HW214427   5.061   3.047   1.933
 4510SOL     OW14428   4.037   0.983   4.080
 4510SOL    HW114429   4.106   1.018   4.016
 4510SOL    HW214430   3.947   0.987   4.038
 4511SOL     OW14431   0.289   4.320   0.017
 4511SOL    HW114432   0.293   4.391   6.966
 4511SOL    HW214433   0.381   4.305   0.053
 4512SOL     OW14434   3.117   3.291   5.496
 4512SOL    HW114435   3.018   3.290   5.481
 4512SOL    HW214436   3.147   3.385   5.514
 4513SOL     OW14437   1.171   6.740   0.959
 4513SOL    HW114438   1.074   6.757   0.977
 4513SOL    HW214439   1.198   6.786   0.875
 4514SOL     OW14440   3.600   4.537   6.472
 4514SOL    HW114441   3.623   4.449   6.514
 4514SOL    HW214442   3.613   4.530   6.373
 4515SOL     OW14443   4.050   0.545   5.824
 4515SOL    HW114444   4.122   0.516   5.888
 4515SOL    HW214445   4.066   0.640   5.797
 4516SOL     OW14446   3.374   1.886   5.581
 4516SOL    HW114447   3.361   1.972   5.533
 4516SOL    HW214448   3.302   1.822   5.555
 4517SOL     OW14449   4.005   0.646   5.239
 4517SOL    HW114450   4.030   0.696   5.322
 4517SOL    HW214451   3.999   0.710   5.162
 4518SOL     OW14452   1.006   6.393   1.196
 4518SOL    HW114453   0.939   6.452   1.151
 4518SOL    HW214454   0.976   6.298   1.190
 4519SOL     OW14455   4.674   6.878   0.029
 4519SOL    HW114456   4.773   6.888   0.039
 4519SOL    HW214457   4.632   6.969   0.029
 4520SOL     OW14458   4.249   5.257   5.406
 4520SOL    HW114459   4.281   5.352   5.407
 4520SOL    HW214460   4.166   5.250   5.351
 4521SOL     OW14461   4.519   2.580   3.955
 4521SOL    HW114462   4.601   2.638   3.966
 4521SOL    HW214463   4.516   2.512   4.028
 4522SOL     OW14464   5.996   4.286   3.842
 4522SOL    HW114465   5.922   4.219   3.840
 4522SOL    HW214466   6.076   4.249   3.796
 4523SOL     OW14467   0.591   3.261   5.774
 4523SOL    HW114468   0.620   3.195   5.705
 4523SOL    HW214469   0.510   3.310   5.743
 4524SOL     OW14470   1.669   3.737   2.526
 4524SOL    HW114471   1.588   3.691   2.561
 4524SOL    HW214472   1.641   3.813   2.467
 4525SOL     OW14473   3.496   2.300   5.268
 4525SOL    HW114474   3.411   2.340   5.234
 4525SOL    HW214475   3.558   2.372   5.299
 4526SOL     OW14476   0.854   6.718   5.937
 4526SOL    HW114477   0.858   6.673   6.026
 4526SOL    HW214478   0.792   6.668   5.877
 4527SOL     OW14479   6.724   1.057   2.743
 4527SOL    HW114480   6.767   1.000   2.812
 4527SOL    HW214481   6.792   1.085   2.675
 4528SOL     OW14482   4.838   0.908   5.325
 4528SOL    HW114483   4.853   0.810   5.312
 4528SOL    HW214484   4.748   0.933   5.290
 4529SOL     OW14485   2.249   1.164   3.989
 4529SOL    HW114486   2.190   1.236   4.024
 4529SOL    HW214487   2.343   1.180   4.018
 4530SOL     OW14488   4.020   5.915   6.467
 4530SOL    HW114489   4.078   5.868   6.400
 4530SOL    HW214490   3.952   5.971   6.419
 4531SOL     OW14491   1.293   5.737   5.891
 4531SOL    HW114492   1.380   5.691   5.875
 4531SOL    HW214493   1.307   5.813   5.955
 4532SOL     OW14494   5.443   0.788   2.857
 4532SOL    HW114495   5.394   0.844   2.791
 4532SOL    HW214496   5.378   0.744   2.919
 4533SOL     OW14497   3.068   0.133   1.228
 4533SOL    HW114498   3.002   0.193   1.273
 4533SOL    HW214499   3.141   0.188   1.188
 4534SOL     OW14500   4.239   1.584   3.971
 4534SOL    HW114501   4.219   1.511   4.036
 4534SOL    HW214502   4.337   1.603   3.971
 4535SOL     OW14503   2.166   0.839   0.888
 4535SOL    HW114504   2.142   0.764   0.950
 4535SOL    HW214505   2.265   0.844   0.879
 4536SOL     OW14506   3.023   0.127   5.492
 4536SOL    HW114507   3.073   0.178   5.562
 4536SOL    HW214508   3.024   0.030   5.514
 4537SOL     OW14509   2.924   3.690   3.429
 4537SOL    HW114510   2.903   3.744   3.510
 4537SOL    HW214511   2.981   3.612   3.453
 4538SOL     OW14512   0.681   2.175   0.932
 4538SOL    HW114513   0.617   2.251   0.916
 4538SOL    HW214514   0.753   2.206   0.994
 4539SOL     OW14515   1.408   6.235   5.751
 4539SOL    HW114516   1.437   6.325   5.720
 4539SOL    HW214517   1.409   6.171   5.673
 4540SOL     OW14518   1.136   1.855   0.403
 4540SOL    HW114519   1.137   1.857   0.503
 4540SOL    HW214520   1.227   1.829   0.369
 4541SOL     OW14521   4.206   2.700   5.752
 4541SOL    HW114522   4.235   2.761   5.678
 4541SOL    HW214523   4.107   2.690   5.750
 4542SOL     OW14524   0.442   1.797   0.190
 4542SOL    HW114525   0.516   1.820   0.253
 4542SOL    HW214526   0.450   1.701   0.163
 4543SOL     OW14527   3.528   2.282   0.324
 4543SOL    HW114528   3.574   2.229   0.395
 4543SOL    HW214529   3.531   2.232   0.238
 4544SOL     OW14530   5.479   6.564   0.732
 4544SOL    HW114531   5.399   6.598   0.682
 4544SOL    HW214532   5.506   6.475   0.694
 4545SOL     OW14533   2.019   2.987   5.196
 4545SOL    HW114534   2.109   3.007   5.234
 4545SOL    HW214535   1.950   3.043   5.243
 4546SOL     OW14536   3.396   0.428   4.814
 4546SOL    HW114537   3.303   0.408   4.784
 4546SOL    HW214538   3.461   0.404   4.742
 4547SOL     OW14539   0.018   6.986   0.305
 4547SOL    HW114540   0.014   0.063   0.279
 4547SOL    HW214541   6.945   6.949   0.309
 4548SOL     OW14542   2.837   1.443   2.669
 4548SOL    HW114543   2.876   1.409   2.583
 4548SOL    HW214544   2.907   1.439   2.740
 4549SOL     OW14545   0.227   3.364   4.378
 4549SOL    HW114546   0.319   3.399   4.396
 4549SOL    HW214547   0.189   3.326   4.463
 4550SOL     OW14548   2.309   5.074   3.750
 4550SOL    HW114549   2.227   5.042   3.702
 4550SOL    HW214550   2.285   5.105   3.842
 4551SOL     OW14551   2.395   2.332   5.417
 4551SOL    HW114552   2.396   2.401   5.490
 4551SOL    HW214553   2.436   2.371   5.335
 4552SOL     OW14554   5.561   1.220   0.785
 4552SOL    HW114555   5.587   1.147   0.722
 4552SOL    HW214556   5.498   1.184   0.854
 4553SOL     OW14557   0.192   5.582   0.027
 4553SOL    HW114558   0.221   5.615   6.957
 4553SOL    HW214559   0.264   5.600   0.094
 4554SOL     OW14560   6.258   6.541   3.222
 4554SOL    HW114561   6.249   6.571   3.127
 4554SOL    HW214562   6.342   6.580   3.261
 4555SOL     OW14563   1.700   1.065   0.761
 4555SOL    HW114564   1.657   1.006   0.830
 4555SOL    HW214565   1.691   1.023   0.671
 4556SOL     OW14566   5.498   4.679   4.472
 4556SOL    HW114567   5.476   4.746   4.543
 4556SOL    HW214568   5.594   4.687   4.447
 4557SOL     OW14569   0.405   4.730   4.164
 4557SOL    HW114570   0.322   4.785   4.153
 4557SOL    HW214571   0.381   4.642   4.205
 4558SOL     OW14572   1.305   3.727   4.537
 4558SOL    HW114573   1.335   3.642   4.580
 4558SOL    HW214574   1.240   3.707   4.464
 4559SOL     OW14575   6.853   2.532   3.966
 4559SOL    HW114576   6.762   2.574   3.975
 4559SOL    HW214577   6.853   2.468   3.890
 4560SOL     OW14578   5.969   3.873   2.857
 4560SOL    HW114579   6.026   3.906   2.782
 4560SOL    HW214580   6.003   3.909   2.944
 4561SOL     OW14581   4.340   2.394   3.833
 4561SOL    HW114582   4.377   2.485   3.854
 4561SOL    HW214583   4.414   2.327   3.836
 4562SOL     OW14584   3.936   1.065   0.912
 4562SOL    HW114585   3.881   1.008   0.850
 4562SOL    HW214586   4.021   1.018   0.935
 4563SOL     OW14587   0.734   4.711   2.218
 4563SOL    HW114588   0.669   4.636   2.208
 4563SOL    HW214589   0.693   4.782   2.275
 4564SOL     OW14590   2.066   3.570   2.179
 4564SOL    HW114591   2.011   3.632   2.124
 4564SOL    HW214592   2.130   3.520   2.120
 4565SOL     OW14593   1.970   6.409   6.721
 4565SOL    HW114594   1.895   6.412   6.786
 4565SOL    HW214595   1.940   6.447   6.634
 4566SOL     OW14596   6.587   4.749   3.552
 4566SOL    HW114597   6.676   4.776   3.589
 4566SOL    HW214598   6.530   4.830   3.542
 4567SOL     OW14599   0.147   0.326   6.782
 4567SOL    HW114600   0.145   0.419   6.818
 4567SOL    HW214601   0.058   0.283   6.797
 4568SOL     OW14602   1.599   5.217   2.936
 4568SOL    HW114603   1.538   5.285   2.895
 4568SOL    HW214604   1.646   5.258   3.014
 4569SOL     OW14605   2.013   1.024   3.484
 4569SOL    HW114606   2.038   1.121   3.476
 4569SOL    HW214607   1.922   1.017   3.526
 4570SOL     OW14608   4.840   5.859   1.818
 4570SOL    HW114609   4.824   5.776   1.764
 4570SOL    HW214610   4.775   5.929   1.791
 4571SOL     OW14611   2.417   3.027   6.422
 4571SOL    HW114612   2.341   3.087   6.447
 4571SOL    HW214613   2.474   3.073   6.354
 4572SOL     OW14614   2.929   3.219   2.072
 4572SOL    HW114615   2.863   3.216   1.997
 4572SOL    HW214616   3.019   3.244   2.037
 4573SOL     OW14617   3.124   5.502   1.122
 4573SOL    HW114618   3.134   5.502   1.222
 4573SOL    HW214619   3.201   5.550   1.081
 4574SOL     OW14620   4.867   0.788   1.581
 4574SOL    HW114621   4.920   0.715   1.626
 4574SOL    HW214622   4.772   0.784   1.612
 4575SOL     OW14623   0.760   0.285   5.973
 4575SOL    HW114624   0.755   0.283   6.073
 4575SOL    HW214625   0.668   0.283   5.935
 4576SOL     OW14626   2.798   4.718   5.646
 4576SOL    HW114627   2.753   4.667   5.573
 4576SOL    HW214628   2.896   4.698   5.645
 4577SOL     OW14629   0.608   1.788   2.803
 4577SOL    HW114630   0.575   1.698   2.776
 4577SOL    HW214631   0.695   1.777   2.852
 4578SOL     OW14632   1.585   1.911   2.273
 4578SOL    HW114633   1.644   1.850   2.325
 4578SOL    HW214634   1.503   1.862   2.244
 4579SOL     OW14635   4.951   0.739   3.139
 4579SOL    HW114636   4.873   0.677   3.133
 4579SOL    HW214637   5.020   0.699   3.200
 4580SOL     OW14638   0.659   1.925   0.854
 4580SOL    HW114639   0.665   2.010   0.907
 4580SOL    HW214640   0.585   1.932   0.787
 4581SOL     OW14641   3.384   0.970   0.894
 4581SOL    HW114642   3.422   1.033   0.962
 4581SOL    HW214643   3.288   0.994   0.877
 4582SOL     OW14644   6.216   1.530   3.832
 4582SOL    HW114645   6.124   1.510   3.800
 4582SOL    HW214646   6.211   1.580   3.919
 4583SOL     OW14647   2.155   0.536   0.651
 4583SOL    HW114648   2.173   0.551   0.554
 4583SOL    HW214649   2.233   0.491   0.693
 4584SOL     OW14650   0.896   0.917   4.293
 4584SOL    HW114651   0.810   0.946   4.251
 4584SOL    HW214652   0.972   0.940   4.233
 4585SOL     OW14653   1.870   3.026   3.539
 4585SOL    HW114654   1.797   2.983   3.592
 4585SOL    HW214655   1.888   3.118   3.574
 4586SOL     OW14656   5.591   4.926   6.725
 4586SOL    HW114657   5.569   4.831   6.704
 4586SOL    HW214658   5.506   4.979   6.731
 4587SOL     OW14659   3.263   2.902   5.059
 4587SOL    HW114660   3.192   2.887   5.128
 4587SOL    HW214661   3.349   2.864   5.092
 4588SOL     OW14662   3.156   3.798   6.156
 4588SOL    HW114663   3.213   3.875   6.185
 4588SOL    HW214664   3.212   3.715   6.153
 4589SOL     OW14665   6.121   6.063   2.096
 4589SOL    HW114666   6.203   6.120   2.098
 4589SOL    HW214667   6.077   6.071   2.007
 4590SOL     OW14668   3.245   5.082   0.869
 4590SOL    HW114669   3.153   5.073   0.831
 4590SOL    HW214670   3.266   5.178   0.883
 4591SOL     OW14671   1.905   0.161   4.971
 4591SOL    HW114672   1.988   0.112   4.998
 4591SOL    HW214673   1.825   0.103   4.987
 4592SOL     OW14674   1.589   1.660   3.812
 4592SOL    HW114675   1.578   1.621   3.720
 4592SOL    HW214676   1.602   1.585   3.878
 4593SOL     OW14677   1.565   5.524   4.531
 4593SOL    HW114678   1.573   5.463   4.610
 4593SOL    HW214679   1.491   5.492   4.472
 4594SOL     OW14680   1.640   0.093   3.542
 4594SOL    HW114681   1.691   0.092   3.627
 4594SOL    HW214682   1.554   0.043   3.554
 4595SOL     OW14683   5.382   1.955   6.193
 4595SOL    HW114684   5.413   1.986   6.283
 4595SOL    HW214685   5.418   1.863   6.175
 4596SOL     OW14686   6.446   0.799   2.199
 4596SOL    HW114687   6.360   0.761   2.234
 4596SOL    HW214688   6.505   0.823   2.276
 4597SOL     OW14689   2.799   5.846   6.881
 4597SOL    HW114690   2.725   5.891   6.932
 4597SOL    HW214691   2.759   5.784   6.813
 4598SOL     OW14692   1.217   4.547   0.292
 4598SOL    HW114693   1.186   4.534   0.198
 4598SOL    HW214694   1.303   4.497   0.306
 4599SOL     OW14695   2.919   6.338   1.783
 4599SOL    HW114696   2.845   6.321   1.717
 4599SOL    HW214697   3.007   6.323   1.738
 4600SOL     OW14698   0.621   6.565   6.386
 4600SOL    HW114699   0.621   6.466   6.371
 4600SOL    HW214700   0.527   6.597   6.393
 4601SOL     OW14701   1.731   0.894   5.180
 4601SOL    HW114702   1.677   0.818   5.216
 4601SOL    HW214703   1.827   0.866   5.171
 4602SOL     OW14704   3.226   2.190   6.092
 4602SOL    HW114705   3.188   2.264   6.149
 4602SOL    HW214706   3.152   2.129   6.063
 4603SOL     OW14707   4.914   0.194   1.144
 4603SOL    HW114708   4.965   0.279   1.141
 4603SOL    HW214709   4.913   0.152   1.053
 4604SOL     OW14710   6.586   6.839   5.002
 4604SOL    HW114711   6.528   6.838   4.921
 4604SOL    HW214712   6.544   6.782   5.073
 4605SOL     OW14713   3.985   0.535   1.276
 4605SOL    HW114714   3.919   0.576   1.339
 4605SOL    HW214715   4.065   0.503   1.327
 4606SOL     OW14716   6.739   6.735   5.324
 4606SOL    HW114717   6.801   6.795   5.374
 4606SOL    HW214718   6.782   6.707   5.238
 4607SOL     OW14719   2.235   2.193   0.403
 4607SOL    HW114720   2.279   2.222   0.488
 4607SOL    HW214721   2.300   2.198   0.327
 4608SOL     OW14722   6.600   2.380   4.611
 4608SOL    HW114723   6.569   2.340   4.525
 4608SOL    HW214724   6.676   2.326   4.647
 4609SOL     OW14725   4.978   5.704   6.329
 4609SOL    HW114726   4.924   5.643   6.271
 4609SOL    HW214727   4.918   5.745   6.398
 4610SOL     OW14728   5.180   4.198   6.929
 4610SOL    HW114729   5.128   4.166   6.849
 4610SOL    HW214730   5.225   4.285   6.907
 4611SOL     OW14731   0.989   0.582   6.364
 4611SOL    HW114732   1.073   0.562   6.415
 4611SOL    HW214733   1.006   0.655   6.298
 4612SOL     OW14734   1.846   1.805   1.465
 4612SOL    HW114735   1.851   1.841   1.559
 4612SOL    HW214736   1.785   1.726   1.464
 4613SOL     OW14737   1.728   4.339   1.802
 4613SOL    HW114738   1.643   4.309   1.844
 4613SOL    HW214739   1.726   4.439   1.790
 4614SOL     OW14740   6.600   4.326   4.705
 4614SOL    HW114741   6.604   4.391   4.781
 4614SOL    HW214742   6.621   4.234   4.738
 4615SOL     OW14743   1.114   3.386   6.110
 4615SOL    HW114744   1.038   3.323   6.127
 4615SOL    HW214745   1.095   3.474   6.154
 4616SOL     OW14746   6.874   2.712   5.688
 4616SOL    HW114747   6.833   2.688   5.776
 4616SOL    HW214748   6.808   2.765   5.635
 4617SOL     OW14749   6.853   2.393   3.344
 4617SOL    HW114750   6.757   2.414   3.366
 4617SOL    HW214751   6.909   2.404   3.425
 4618SOL     OW14752   2.290   4.084   6.227
 4618SOL    HW114753   2.228   4.046   6.295
 4618SOL    HW214754   2.245   4.085   6.137
 4619SOL     OW14755   4.972   6.266   5.994
 4619SOL    HW114756   4.937   6.177   6.024
 4619SOL    HW214757   5.037   6.300   6.062
 4620SOL     OW14758   0.970   5.028   2.522
 4620SOL    HW114759   1.045   5.007   2.585
 4620SOL    HW214760   1.008   5.063   2.436
 4621SOL     OW14761   3.635   6.910   2.821
 4621SOL    HW114762   3.686   6.986   2.781
 4621SOL    HW214763   3.697   6.847   2.866
 4622SOL     OW14764   5.359   6.193   0.899
 4622SOL    HW114765   5.399   6.102   0.905
 4622SOL    HW214766   5.262   6.189   0.919
 4623SOL     OW14767   2.715   4.486   1.132
 4623SOL    HW114768   2.658   4.544   1.190
 4623SOL    HW214769   2.780   4.543   1.081
 4624SOL     OW14770   4.159   1.283   2.093
 4624SOL    HW114771   4.249   1.294   2.134
 4624SOL    HW214772   4.106   1.215   2.144
 4625SOL     OW14773   2.385   6.168   1.524
 4625SOL    HW114774   2.393   6.141   1.620
 4625SOL    HW214775   2.384   6.085   1.467
 4626SOL     OW14776   4.337   3.830   1.768
 4626SOL    HW114777   4.329   3.921   1.727
 4626SOL    HW214778   4.429   3.794   1.750
 4627SOL     OW14779   5.528   0.089   4.963
 4627SOL    HW114780   5.502   0.071   4.868
 4627SOL    HW214781   5.576   0.177   4.969
 4628SOL     OW14782   5.496   5.558   3.890
 4628SOL    HW114783   5.533   5.644   3.856
 4628SOL    HW214784   5.399   5.552   3.868
 4629SOL     OW14785   2.232   5.538   6.925
 4629SOL    HW114786   2.208   5.516   7.020
 4629SOL    HW214787   2.160   5.506   6.864
 4630SOL     OW14788   1.813   3.220   2.045
 4630SOL    HW114789   1.780   3.284   1.976
 4630SOL    HW214790   1.912   3.210   2.037
 4631SOL     OW14791   0.055   0.514   3.001
 4631SOL    HW114792   0.040   0.419   2.973
 4631SOL    HW214793   7.004   0.542   3.066
 4632SOL     OW14794   3.701   4.917   2.612
 4632SOL    HW114795   3.626   4.891   2.672
 4632SOL    HW214796   3.675   4.902   2.517
 4633SOL     OW14797   4.612   1.111   4.809
 4633SOL    HW114798   4.533   1.170   4.824
 4633SOL    HW214799   4.673   1.153   4.742
 4634SOL     OW14800   3.134   4.252   5.373
 4634SOL    HW114801   3.156   4.204   5.458
 4634SOL    HW214802   3.035   4.257   5.363
 4635SOL     OW14803   4.438   6.425   1.894
 4635SOL    HW114804   4.362   6.477   1.932
 4635SOL    HW214805   4.457   6.457   1.801
 4636SOL     OW14806   1.828   5.249   0.153
 4636SOL    HW114807   1.894   5.302   0.099
 4636SOL    HW214808   1.862   5.240   0.247
 4637SOL     OW14809   3.136   1.616   3.228
 4637SOL    HW114810   3.071   1.574   3.165
 4637SOL    HW214811   3.151   1.555   3.306
 4638SOL     OW14812   4.013   5.124   0.057
 4638SOL    HW114813   3.934   5.088   0.107
 4638SOL    HW214814   4.086   5.056   0.058
 4639SOL     OW14815   3.757   2.211   1.581
 4639SOL    HW114816   3.727   2.277   1.650
 4639SOL    HW214817   3.746   2.118   1.616
 4640SOL     OW14818   6.591   2.891   6.951
 4640SOL    HW114819   6.567   2.931   0.019
 4640SOL    HW214820   6.653   2.814   6.965
 4641SOL     OW14821   0.879   6.063   4.658
 4641SOL    HW114822   0.886   6.058   4.758
 4641SOL    HW214823   0.785   6.046   4.630
 4642SOL     OW14824   6.340   0.675   4.238
 4642SOL    HW114825   6.346   0.707   4.332
 4642SOL    HW214826   6.345   0.753   4.176
 4643SOL     OW14827   0.625   2.320   0.202
 4643SOL    HW114828   0.624   2.220   0.201
 4643SOL    HW214829   0.660   2.354   0.115
 4644SOL     OW14830   1.529   0.963   0.551
 4644SOL    HW114831   1.496   1.047   0.593
 4644SOL    HW214832   1.590   0.985   0.475
 4645SOL     OW14833   7.004   1.525   4.429
 4645SOL    HW114834   6.985   1.610   4.380
 4645SOL    HW214835   0.075   1.492   4.405
 4646SOL     OW14836   2.283   4.749   4.204
 4646SOL    HW114837   2.268   4.650   4.198
 4646SOL    HW214838   2.212   4.797   4.152
 4647SOL     OW14839   1.198   6.345   1.630
 4647SOL    HW114840   1.241   6.270   1.680
 4647SOL    HW214841   1.269   6.404   1.592
 4648SOL     OW14842   2.768   1.770   4.140
 4648SOL    HW114843   2.732   1.690   4.093
 4648SOL    HW214844   2.694   1.821   4.183
 4649SOL     OW14845   6.573   1.536   6.882
 4649SOL    HW114846   6.500   1.501   6.823
 4649SOL    HW214847   6.556   1.633   6.902
 4650SOL     OW14848   5.055   6.097   0.992
 4650SOL    HW114849   5.054   6.037   1.072
 4650SOL    HW214850   5.053   6.193   1.022
 4651SOL     OW14851   6.645   3.118   6.082
 4651SOL    HW114852   6.545   3.121   6.085
 4651SOL    HW214853   6.674   3.067   6.000
 4652SOL     OW14854   0.482   6.374   5.479
 4652SOL    HW114855   0.563   6.366   5.538
 4652SOL    HW214856   0.503   6.434   5.401
 4653SOL     OW14857   6.179   5.315   0.092
 4653SOL    HW114858   6.209   5.388   0.154
 4653SOL    HW214859   6.258   5.276   0.045
 4654SOL     OW14860   1.384   0.540   5.780
 4654SOL    HW114861   1.431   0.616   5.735
 4654SOL    HW214862   1.394   0.457   5.724
 4655SOL     OW14863   4.666   2.891   1.305
 4655SOL    HW114864   4.572   2.904   1.271
 4655SOL    HW214865   4.667   2.901   1.404
 4656SOL     OW14866   6.998   1.904   1.172
 4656SOL    HW114867   6.899   1.908   1.189
 4656SOL    HW214868   7.017   1.832   1.105
 4657SOL     OW14869   4.207   0.926   2.565
 4657SOL    HW114870   4.246   0.972   2.486
 4657SOL    HW214871   4.150   0.990   2.616
 4658SOL     OW14872   1.497   2.846   5.722
 4658SOL    HW114873   1.567   2.865   5.653
 4658SOL    HW214874   1.525   2.768   5.777
 4659SOL     OW14875   1.640   4.539   0.213
 4659SOL    HW114876   1.689   4.463   0.171
 4659SOL    HW214877   1.700   4.620   0.214
 4660SOL     OW14878   0.863   6.182   3.291
 4660SOL    HW114879   0.949   6.131   3.293
 4660SOL    HW214880   0.824   6.178   3.199
 4661SOL     OW14881   0.906   1.981   5.138
 4661SOL    HW114882   0.812   2.004   5.114
 4661SOL    HW214883   0.949   1.933   5.061
 4662SOL     OW14884   2.209   0.108   5.656
 4662SOL    HW114885   2.261   0.045   5.598
 4662SOL    HW214886   2.257   0.195   5.662
 4663SOL     OW14887   1.832   6.856   0.316
 4663SOL    HW114888   1.898   6.796   0.272
 4663SOL    HW214889   1.793   6.811   0.396
 4664SOL     OW14890   6.340   0.114   0.071
 4664SOL    HW114891   6.318   0.140   6.997
 4664SOL    HW214892   6.386   0.190   0.117
 4665SOL     OW14893   1.593   0.591   4.117
 4665SOL    HW114894   1.594   0.691   4.116
 4665SOL    HW214895   1.577   0.559   4.210
 4666SOL     OW14896   2.243   1.787   4.890
 4666SOL    HW114897   2.237   1.880   4.927
 4666SOL    HW214898   2.225   1.788   4.792
 4667SOL     OW14899   6.893   3.737   1.260
 4667SOL    HW114900   6.986   3.773   1.245
 4667SOL    HW214901   6.897   3.638   1.263
 4668SOL     OW14902   4.767   1.765   4.288
 4668SOL    HW114903   4.758   1.855   4.246
 4668SOL    HW214904   4.748   1.694   4.220
 4669SOL     OW14905   5.470   6.748   6.013
 4669SOL    HW114906   5.417   6.830   5.992
 4669SOL    HW214907   5.510   6.712   5.928
 4670SOL     OW14908   0.566   2.817   0.541
 4670SOL    HW114909   0.570   2.914   0.517
 4670SOL    HW214910   0.597   2.762   0.463
 4671SOL     OW14911   0.436   3.824   0.682
 4671SOL    HW114912   0.415   3.740   0.632
 4671SOL    HW214913   0.530   3.852   0.661
 4672SOL     OW14914   2.636   3.947   6.463
 4672SOL    HW114915   2.666   3.970   6.555
 4672SOL    HW214916   2.559   3.884   6.468
 4673SOL     OW14917   5.891   1.089   0.550
 4673SOL    HW114918   5.940   1.176   0.558
 4673SOL    HW214919   5.944   1.016   0.592
 4674SOL     OW14920   1.105   2.490   1.336
 4674SOL    HW114921   1.119   2.451   1.427
 4674SOL    HW214922   1.015   2.467   1.302
 4675SOL     OW14923   2.154   5.867   6.638
 4675SOL    HW114924   2.200   5.951   6.668
 4675SOL    HW214925   2.216   5.813   6.582
 4676SOL     OW14926   0.594   6.280   4.193
 4676SOL    HW114927   0.591   6.365   4.246
 4676SOL    HW214928   0.687   6.242   4.196
 4677SOL     OW14929   4.398   6.601   6.523
 4677SOL    HW114930   4.343   6.682   6.499
 4677SOL    HW214931   4.495   6.623   6.516
 4678SOL     OW14932   1.733   4.502   6.435
 4678SOL    HW114933   1.707   4.582   6.489
 4678SOL    HW214934   1.728   4.420   6.492
 4679SOL     OW14935   3.330   6.722   5.885
 4679SOL    HW114936   3.336   6.817   5.852
 4679SOL    HW214937   3.234   6.696   5.893
 4680SOL     OW14938   1.945   4.694   0.958
 4680SOL    HW114939   2.045   4.688   0.956
 4680SOL    HW214940   1.917   4.789   0.945
 4681SOL     OW14941   6.973   6.092   5.272
 4681SOL    HW114942   7.012   6.026   5.208
 4681SOL    HW214943   6.891   6.053   5.315
 4682SOL     OW14944   4.037   6.577   0.542
 4682SOL    HW114945   4.023   6.636   0.621
 4682SOL    HW214946   3.986   6.492   0.555
 4683SOL     OW14947   0.130   4.155   3.710
 4683SOL    HW114948   0.170   4.153   3.802
 4683SOL    HW214949   0.077   4.239   3.699
 4684SOL     OW14950   1.399   1.115   4.965
 4684SOL    HW114951   1.425   1.180   5.036
 4684SOL    HW214952   1.303   1.129   4.941
 4685SOL     OW14953   4.667   4.286   5.085
 4685SOL    HW114954   4.665   4.383   5.060
 4685SOL    HW214955   4.588   4.266   5.144
 4686SOL     OW14956   4.323   5.842   0.525
 4686SOL    HW114957   4.229   5.860   0.555
 4686SOL    HW214958   4.352   5.752   0.559
 4687SOL     OW14959   5.310   6.494   4.585
 4687SOL    HW114960   5.275   6.455   4.500
 4687SOL    HW214961   5.354   6.582   4.566
 4688SOL     OW14962   0.671   1.995   6.830
 4688SOL    HW114963   0.661   1.937   6.749
 4688SOL    HW214964   0.676   1.937   6.912
 4689SOL     OW14965   1.560   5.387   5.237
 4689SOL    HW114966   1.614   5.315   5.193
 4689SOL    HW214967   1.519   5.351   5.321
 4690SOL     OW14968   1.250   2.783   0.605
 4690SOL    HW114969   1.271   2.879   0.586
 4690SOL    HW214970   1.301   2.754   0.686
 4691SOL     OW14971   4.128   4.616   0.638
 4691SOL    HW114972   4.093   4.576   0.722
 4691SOL    HW214973   4.055   4.622   0.570
 4692SOL     OW14974   7.000   5.420   3.127
 4692SOL    HW114975   0.005   5.443   3.222
 4692SOL    HW214976   6.966   5.326   3.124
 4693SOL     OW14977   0.481   0.696   3.823
 4693SOL    HW114978   0.561   0.755   3.834
 4693SOL    HW214979   0.427   0.697   3.908
 4694SOL     OW14980   2.193   1.079   6.479
 4694SOL    HW114981   2.273   1.021   6.464
 4694SOL    HW214982   2.110   1.024   6.471
 4695SOL     OW14983   3.534   3.029   1.536
 4695SOL    HW114984   3.453   3.068   1.492
 4695SOL    HW214985   3.601   3.102   1.552
 4696SOL     OW14986   6.417   2.997   0.690
 4696SOL    HW114987   6.496   2.984   0.630
 4696SOL    HW214988   6.337   2.955   0.648
 4697SOL     OW14989   0.782   4.903   0.369
 4697SOL    HW114990   0.700   4.933   0.419
 4697SOL    HW214991   0.812   4.977   0.308
 4698SOL     OW14992   5.864   3.130   1.209
 4698SOL    HW114993   5.884   3.196   1.282
 4698SOL    HW214994   5.794   3.168   1.148
 4699SOL     OW14995   6.409   0.147   3.732
 4699SOL    HW114996   6.445   0.142   3.825
 4699SOL    HW214997   6.447   0.227   3.686
 4700SOL     OW14998   5.836   0.146   1.070
 4700SOL    HW114999   5.907   0.112   1.009
 4700SOL    HW215000   5.747   0.139   1.025
 4701SOL     OW15001   0.934   0.962   0.618
 4701SOL    HW115002   0.868   1.012   0.673
 4701SOL    HW215003   1.027   0.984   0.649
 4702SOL     OW15004   3.266   3.537   0.165
 4702SOL    HW115005   3.263   3.571   0.072
 4702SOL    HW215006   3.173   3.528   0.201
 4703SOL     OW15007   1.811   1.394   1.724
 4703SOL    HW115008   1.725   1.402   1.675
 4703SOL    HW215009   1.830   1.480   1.773
 4704SOL     OW15010   4.617   6.684   0.293
 4704SOL    HW115011   4.609   6.638   0.382
 4704SOL    HW215012   4.698   6.743   0.293
 4705SOL     OW15013   3.592   4.004   4.027
 4705SOL    HW115014   3.641   4.086   4.057
 4705SOL    HW215015   3.621   3.926   4.084
 4706SOL     OW15016   4.616   5.660   1.167
 4706SOL    HW115017   4.585   5.593   1.235
 4706SOL    HW215018   4.647   5.743   1.214
 4707SOL     OW15019   3.209   6.426   0.917
 4707SOL    HW115020   3.179   6.331   0.923
 4707SOL    HW215021   3.233   6.448   0.823
 4708SOL     OW15022   2.291   2.322   2.260
 4708SOL    HW115023   2.362   2.371   2.309
 4708SOL    HW215024   2.222   2.386   2.227
 4709SOL     OW15025   4.221   3.990   6.640
 4709SOL    HW115026   4.153   4.027   6.702
 4709SOL    HW215027   4.244   3.896   6.668
 4710SOL     OW15028   5.315   2.250   0.818
 4710SOL    HW115029   5.221   2.249   0.851
 4710SOL    HW215030   5.362   2.166   0.848
 4711SOL     OW15031   2.958   6.965   3.040
 4711SOL    HW115032   2.889   6.933   2.975
 4711SOL    HW215033   2.936   0.038   3.069
 4712SOL     OW15034   1.390   4.721   6.894
 4712SOL    HW115035   1.431   4.775   6.968
 4712SOL    HW215036   1.402   4.624   6.913
 4713SOL     OW15037   2.685   5.451   0.735
 4713SOL    HW115038   2.734   5.526   0.780
 4713SOL    HW215039   2.650   5.388   0.804
 4714SOL     OW15040   3.533   2.469   0.823
 4714SOL    HW115041   3.444   2.426   0.841
 4714SOL    HW215042   3.520   2.544   0.758
 4715SOL     OW15043   5.852   3.957   4.547
 4715SOL    HW115044   5.934   4.005   4.517
 4715SOL    HW215045   5.846   3.869   4.499
 4716SOL     OW15046   3.554   5.887   0.180
 4716SOL    HW115047   3.555   5.986   0.191
 4716SOL    HW215048   3.637   5.857   0.134
 4717SOL     OW15049   0.974   5.598   3.732
 4717SOL    HW115050   0.911   5.655   3.786
 4717SOL    HW215051   0.932   5.576   3.644
 4718SOL     OW15052   6.041   0.819   6.387
 4718SOL    HW115053   6.106   0.868   6.444
 4718SOL    HW215054   6.056   0.842   6.291
 4719SOL     OW15055   4.475   3.129   0.744
 4719SOL    HW115056   4.527   3.214   0.733
 4719SOL    HW215057   4.388   3.148   0.789
 4720SOL     OW15058   2.944   0.911   3.876
 4720SOL    HW115059   2.983   0.823   3.851
 4720SOL    HW215060   2.884   0.943   3.803
 4721SOL     OW15061   1.554   2.157   1.615
 4721SOL    HW115062   1.577   2.095   1.690
 4721SOL    HW215063   1.620   2.232   1.613
 4722SOL     OW15064   2.718   0.153   1.513
 4722SOL    HW115065   2.718   0.093   1.434
 4722SOL    HW215066   2.718   0.098   1.597
 4723SOL     OW15067   2.862   7.001   6.685
 4723SOL    HW115068   2.786   0.039   6.655
 4723SOL    HW215069   2.948   0.031   6.677
 4724SOL     OW15070   3.720   5.204   1.818
 4724SOL    HW115071   3.647   5.189   1.884
 4724SOL    HW215072   3.809   5.196   1.864
 4725SOL     OW15073   6.010   5.794   3.568
 4725SOL    HW115074   5.951   5.755   3.498
 4725SOL    HW215075   5.955   5.842   3.636
 4726SOL     OW15076   0.690   6.290   6.348
 4726SOL    HW115077   0.746   6.218   6.391
 4726SOL    HW215078   0.598   6.287   6.386
 4727SOL     OW15079   0.255   6.897   0.396
 4727SOL    HW115080   0.280   6.952   0.476
 4727SOL    HW215081   0.182   6.944   0.345
 4728SOL     OW15082   0.272   1.187   0.205
 4728SOL    HW115083   0.247   1.246   0.128
 4728SOL    HW215084   0.368   1.160   0.196
 4729SOL     OW15085   3.498   0.347   0.820
 4729SOL    HW115086   3.484   0.414   0.893
 4729SOL    HW215087   3.411   0.328   0.776
 4730SOL     OW15088   1.732   6.800   5.299
 4730SOL    HW115089   1.765   6.715   5.339
 4730SOL    HW215090   1.642   6.823   5.337
 4731SOL     OW15091   5.661   1.827   5.719
 4731SOL    HW115092   5.720   1.823   5.800
 4731SOL    HW215093   5.711   1.868   5.643
 4732SOL     OW15094   0.626   1.857   0.387
 4732SOL    HW115095   0.683   1.783   0.352
 4732SOL    HW215096   0.680   1.914   0.449
 4733SOL     OW15097   6.717   3.147   4.083
 4733SOL    HW115098   6.638   3.182   4.133
 4733SOL    HW215099   6.772   3.090   4.143
 4734SOL     OW15100   4.137   4.434   6.129
 4734SOL    HW115101   4.120   4.459   6.224
 4734SOL    HW215102   4.095   4.502   6.068
 4735SOL     OW15103   0.464   5.049   3.416
 4735SOL    HW115104   0.407   5.105   3.477
 4735SOL    HW215105   0.492   4.966   3.463
 4736SOL     OW15106   1.510   0.974   1.032
 4736SOL    HW115107   1.463   0.965   1.120
 4736SOL    HW215108   1.453   0.939   0.959
 4737SOL     OW15109   2.954   5.631   1.567
 4737SOL    HW115110   2.972   5.726   1.541
 4737SOL    HW215111   2.898   5.630   1.650
 4738SOL     OW15112   6.881   6.495   2.500
 4738SOL    HW115113   6.845   6.584   2.527
 4738SOL    HW215114   6.850   6.426   2.566
 4739SOL     OW15115   4.790   0.324   1.449
 4739SOL    HW115116   4.837   0.411   1.440
 4739SOL    HW215117   4.767   0.309   1.545
 4740SOL     OW15118   0.589   2.368   3.914
 4740SOL    HW115119   0.667   2.313   3.882
 4740SOL    HW215120   0.601   2.390   4.011
 4741SOL     OW15121   3.798   4.281   1.276
 4741SOL    HW115122   3.744   4.199   1.257
 4741SOL    HW215123   3.810   4.291   1.375
 4742SOL     OW15124   3.328   0.785   0.561
 4742SOL    HW115125   3.347   0.747   0.652
 4742SOL    HW215126   3.407   0.838   0.530
 4743SOL     OW15127   1.494   4.616   1.098
 4743SOL    HW115128   1.547   4.578   1.174
 4743SOL    HW215129   1.525   4.709   1.078
 4744SOL     OW15130   2.397   5.699   1.376
 4744SOL    HW115131   2.335   5.627   1.408
 4744SOL    HW215132   2.482   5.696   1.429
 4745SOL     OW15133   0.976   3.961   6.957
 4745SOL    HW115134   0.883   3.985   6.928
 4745SOL    HW215135   0.973   3.879   7.014
 4746SOL     OW15136   4.156   5.917   4.240
 4746SOL    HW115137   4.237   5.924   4.180
 4746SOL    HW215138   4.162   5.832   4.293
 4747SOL     OW15139   1.621   1.883   6.944
 4747SOL    HW115140   1.545   1.824   6.916
 4747SOL    HW215141   1.593   1.938   0.002
 4748SOL     OW15142   1.827   6.699   2.421
 4748SOL    HW115143   1.733   6.716   2.395
 4748SOL    HW215144   1.873   6.785   2.441
 4749SOL     OW15145   3.014   1.613   6.709
 4749SOL    HW115146   3.082   1.541   6.709
 4749SOL    HW215147   3.048   1.692   6.759
 4750SOL     OW15148   5.082   2.607   5.839
 4750SOL    HW115149   5.153   2.661   5.793
 4750SOL    HW215150   5.095   2.511   5.816
 4751SOL     OW15151   4.648   0.838   3.286
 4751SOL    HW115152   4.746   0.830   3.269
 4751SOL    HW215153   4.625   0.934   3.306
 4752SOL     OW15154   4.577   1.991   6.488
 4752SOL    HW115155   4.477   1.984   6.490
 4752SOL    HW215156   4.617   1.899   6.493
 4753SOL     OW15157   3.338   6.151   5.486
 4753SOL    HW115158   3.342   6.186   5.580
 4753SOL    HW215159   3.427   6.166   5.442
 4754SOL     OW15160   4.860   4.365   6.618
 4754SOL    HW115161   4.870   4.324   6.527
 4754SOL    HW215162   4.891   4.459   6.616
 4755SOL     OW15163   0.786   1.078   1.637
 4755SOL    HW115164   0.714   1.020   1.600
 4755SOL    HW215165   0.874   1.052   1.597
 4756SOL     OW15166   6.509   4.196   5.908
 4756SOL    HW115167   6.498   4.101   5.938
 4756SOL    HW215168   6.603   4.209   5.875
 4757SOL     OW15169   1.762   3.416   0.466
 4757SOL    HW115170   1.766   3.361   0.382
 4757SOL    HW215171   1.809   3.503   0.451
 4758SOL     OW15172   2.548   6.595   3.048
 4758SOL    HW115173   2.486   6.522   3.080
 4758SOL    HW215174   2.519   6.626   2.958
 4759SOL     OW15175   0.436   6.271   1.358
 4759SOL    HW115176   0.438   6.315   1.268
 4759SOL    HW215177   0.517   6.298   1.410
 4760SOL     OW15178   1.500   5.856   0.754
 4760SOL    HW115179   1.572   5.882   0.689
 4760SOL    HW215180   1.422   5.917   0.743
 4761SOL     OW15181   5.695   6.256   1.625
 4761SOL    HW115182   5.769   6.277   1.690
 4761SOL    HW215183   5.710   6.165   1.587
 4762SOL     OW15184   1.263   0.793   2.399
 4762SOL    HW115185   1.194   0.721   2.388
 4762SOL    HW215186   1.318   0.798   2.315
 4763SOL     OW15187   5.443   5.054   2.197
 4763SOL    HW115188   5.441   4.958   2.224
 4763SOL    HW215189   5.389   5.066   2.113
 4764SOL     OW15190   4.950   2.777   0.576
 4764SOL    HW115191   4.869   2.796   0.631
 4764SOL    HW215192   4.990   2.690   0.605
 4765SOL     OW15193   4.056   1.611   5.154
 4765SOL    HW115194   4.069   1.517   5.122
 4765SOL    HW215195   4.014   1.610   5.244
 4766SOL     OW15196   0.761   0.141   4.405
 4766SOL    HW115197   0.794   0.062   4.354
 4766SOL    HW215198   0.732   0.212   4.340
 4767SOL     OW15199   2.277   4.148   3.373
 4767SOL    HW115200   2.344   4.220   3.395
 4767SOL    HW215201   2.263   4.145   3.274
 4768SOL     OW15202   4.566   2.808   6.429
 4768SOL    HW115203   4.494   2.743   6.454
 4768SOL    HW215204   4.525   2.889   6.388
 4769SOL     OW15205   2.226   3.491   0.472
 4769SOL    HW115206   2.166   3.470   0.395
 4769SOL    HW215207   2.313   3.444   0.461
 4770SOL     OW15208   0.515   1.464   4.412
 4770SOL    HW115209   0.572   1.499   4.486
 4770SOL    HW215210   0.562   1.480   4.325
 4771SOL     OW15211   1.592   6.919   4.077
 4771SOL    HW115212   1.604   6.836   4.022
 4771SOL    HW215213   1.626   6.903   4.170
 4772SOL     OW15214   3.346   5.249   2.287
 4772SOL    HW115215   3.350   5.306   2.205
 4772SOL    HW215216   3.425   5.270   2.345
 4773SOL     OW15217   2.342   5.243   4.692
 4773SOL    HW115218   2.436   5.208   4.699
 4773SOL    HW215219   2.291   5.219   4.774
 4774SOL     OW15220   1.447   4.462   7.000
 4774SOL    HW115221   1.389   4.397   0.029
 4774SOL    HW215222   1.501   4.515   0.046
 4775SOL     OW15223   6.324   6.463   5.667
 4775SOL    HW115224   6.365   6.412   5.591
 4775SOL    HW215225   6.230   6.487   5.645
 4776SOL     OW15226   0.303   1.043   6.084
 4776SOL    HW115227   0.234   1.068   6.151
 4776SOL    HW215228   0.272   1.069   5.992
 4777SOL     OW15229   1.556   0.213   2.518
 4777SOL    HW115230   1.562   0.158   2.435
 4777SOL    HW215231   1.489   0.173   2.580
 4778SOL     OW15232   2.298   1.251   6.857
 4778SOL    HW115233   2.297   1.337   6.909
 4778SOL    HW215234   2.233   1.258   6.781
 4779SOL     OW15235   5.470   0.273   4.723
 4779SOL    HW115236   5.446   0.358   4.769
 4779SOL    HW215237   5.570   0.265   4.717
 4780SOL     OW15238   4.701   2.427   5.635
 4780SOL    HW115239   4.608   2.440   5.670
 4780SOL    HW215240   4.761   2.398   5.709
 4781SOL     OW15241   2.186   6.214   1.827
 4781SOL    HW115242   2.172   6.222   1.728
 4781SOL    HW215243   2.165   6.121   1.856
 4782SOL     OW15244   6.537   7.001   4.591
 4782SOL    HW115245   6.548   6.970   4.496
 4782SOL    HW215246   6.567   0.077   4.598
 4783SOL     OW15247   6.816   3.345   6.048
 4783SOL    HW115248   6.755   3.272   6.078
 4783SOL    HW215249   6.908   3.329   6.086
 4784SOL     OW15250   5.408   3.292   6.718
 4784SOL    HW115251   5.446   3.213   6.766
 4784SOL    HW215252   5.309   3.295   6.732
 4785SOL     OW15253   6.896   6.776   4.487
 4785SOL    HW115254   6.916   6.678   4.496
 4785SOL    HW215255   6.905   6.820   4.576
 4786SOL     OW15256   0.666   6.137   0.353
 4786SOL    HW115257   0.637   6.049   0.392
 4786SOL    HW215258   0.762   6.130   0.327
 4787SOL     OW15259   3.890   1.741   4.035
 4787SOL    HW115260   3.848   1.803   4.100
 4787SOL    HW215261   3.843   1.652   4.039
 4788SOL     OW15262   6.697   6.116   0.287
 4788SOL    HW115263   6.609   6.079   0.258
 4788SOL    HW215264   6.767   6.093   0.219
 4789SOL     OW15265   5.841   1.060   2.820
 4789SOL    HW115266   5.898   0.997   2.768
 4789SOL    HW215267   5.770   1.009   2.869
 4790SOL     OW15268   6.829   1.906   4.808
 4790SOL    HW115269   6.731   1.926   4.801
 4790SOL    HW215270   6.844   1.807   4.801
 4791SOL     OW15271   0.621   0.370   0.705
 4791SOL    HW115272   0.595   0.458   0.746
 4791SOL    HW215273   0.639   0.383   0.608
 4792SOL     OW15274   2.130   3.400   2.660
 4792SOL    HW115275   2.050   3.429   2.607
 4792SOL    HW215276   2.145   3.302   2.647
 4793SOL     OW15277   0.907   3.265   5.293
 4793SOL    HW115278   0.947   3.334   5.232
 4793SOL    HW215279   0.974   3.193   5.311
 4794SOL     OW15280   4.459   2.020   4.668
 4794SOL    HW115281   4.412   1.978   4.745
 4794SOL    HW215282   4.494   1.948   4.607
 4795SOL     OW15283   0.133   0.992   6.549
 4795SOL    HW115284   0.082   0.912   6.579
 4795SOL    HW215285   0.229   0.983   6.577
 4796SOL     OW15286   4.511   1.286   5.501
 4796SOL    HW115287   4.591   1.234   5.533
 4796SOL    HW215288   4.526   1.384   5.518
 4797SOL     OW15289   1.708   5.134   5.184
 4797SOL    HW115290   1.798   5.125   5.141
 4797SOL    HW215291   1.702   5.071   5.261
 4798SOL     OW15292   4.121   5.381   0.160
 4798SOL    HW115293   4.065   5.342   0.233
 4798SOL    HW215294   4.150   5.308   0.098
 4799SOL     OW15295   4.550   2.637   6.764
 4799SOL    HW115296   4.584   2.580   6.839
 4799SOL    HW215297   4.474   2.589   6.718
 4800SOL     OW15298   0.335   3.853   0.079
 4800SOL    HW115299   0.372   3.842   0.171
 4800SOL    HW215300   0.405   3.831   0.011
 4801SOL     OW15301   5.064   2.424   1.587
 4801SOL    HW115302   5.105   2.439   1.677
 4801SOL    HW215303   4.990   2.490   1.572
 4802SOL     OW15304   6.528   0.192   4.309
 4802SOL    HW115305   6.593   0.119   4.287
 4802SOL    HW215306   6.449   0.185   4.248
 4803SOL     OW15307   4.953   3.865   5.899
 4803SOL    HW115308   4.877   3.898   5.954
 4803SOL    HW215309   5.039   3.903   5.933
 4804SOL     OW15310   5.273   1.797   0.393
 4804SOL    HW115311   5.325   1.713   0.407
 4804SOL    HW215312   5.176   1.776   0.383
 4805SOL     OW15313   6.200   1.642   0.132
 4805SOL    HW115314   6.275   1.582   0.160
 4805SOL    HW215315   6.232   1.736   0.124
 4806SOL     OW15316   0.802   1.180   3.679
 4806SOL    HW115317   0.732   1.137   3.736
 4806SOL    HW215318   0.884   1.124   3.679
 4807SOL     OW15319   0.280   4.085   5.347
 4807SOL    HW115320   0.278   4.184   5.331
 4807SOL    HW215321   0.202   4.042   5.302
 4808SOL     OW15322   3.728   5.862   1.787
 4808SOL    HW115323   3.670   5.785   1.763
 4808SOL    HW215324   3.672   5.944   1.799
 4809SOL     OW15325   3.130   3.726   1.689
 4809SOL    HW115326   3.228   3.717   1.671
 4809SOL    HW215327   3.083   3.645   1.655
 4810SOL     OW15328   1.202   4.897   4.079
 4810SOL    HW115329   1.167   4.830   4.144
 4810SOL    HW215330   1.198   4.989   4.119
 4811SOL     OW15331   3.191   3.628   4.156
 4811SOL    HW115332   3.173   3.722   4.186
 4811SOL    HW215333   3.274   3.626   4.100
 4812SOL     OW15334   1.262   0.337   2.662
 4812SOL    HW115335   1.296   0.408   2.600
 4812SOL    HW215336   1.290   0.358   2.756
 4813SOL     OW15337   0.019   1.728   5.588
 4813SOL    HW115338   0.035   1.635   5.621
 4813SOL    HW215339   6.979   1.776   5.653
 4814SOL     OW15340   6.237   3.709   1.578
 4814SOL    HW115341   6.290   3.673   1.501
 4814SOL    HW215342   6.171   3.640   1.608
 4815SOL     OW15343   5.925   4.451   1.896
 4815SOL    HW115344   5.920   4.365   1.947
 4815SOL    HW215345   5.981   4.517   1.946
 4816SOL     OW15346   2.978   1.306   2.463
 4816SOL    HW115347   3.076   1.285   2.467
 4816SOL    HW215348   2.928   1.225   2.435
 4817SOL     OW15349   4.041   1.672   0.599
 4817SOL    HW115350   4.110   1.616   0.552
 4817SOL    HW215351   4.084   1.719   0.676
 4818SOL     OW15352   4.334   0.108   4.932
 4818SOL    HW115353   4.262   0.119   4.863
 4818SOL    HW215354   4.402   0.181   4.920
 4819SOL     OW15355   3.367   0.692   0.821
 4819SOL    HW115356   3.371   0.789   0.842
 4819SOL    HW215357   3.431   0.643   0.881
 4820SOL     OW15358   5.990   4.008   2.088
 4820SOL    HW115359   5.907   3.953   2.087
 4820SOL    HW215360   6.026   4.016   1.995
 4821SOL     OW15361   0.062   5.532   1.504
 4821SOL    HW115362   0.077   5.509   1.408
 4821SOL    HW215363   0.012   5.459   1.549
 4822SOL     OW15364   1.234   3.820   1.983
 4822SOL    HW115365   1.200   3.838   1.890
 4822SOL    HW215366   1.156   3.806   2.044
 4823SOL     OW15367   1.956   1.293   4.212
 4823SOL    HW115368   1.871   1.243   4.197
 4823SOL    HW215369   1.967   1.310   4.310
 4824SOL     OW15370   5.521   2.918   1.716
 4824SOL    HW115371   5.434   2.869   1.725
 4824SOL    HW215372   5.529   2.954   1.623
 4825SOL     OW15373   0.323   3.125   3.413
 4825SOL    HW115374   0.382   3.190   3.460
 4825SOL    HW215375   0.343   3.033   3.445
 4826SOL     OW15376   6.801   6.426   6.969
 4826SOL    HW115377   6.748   6.432   0.034
 4826SOL    HW215378   6.876   6.492   6.972
 4827SOL     OW15379   5.715   0.961   1.012
 4827SOL    HW115380   5.657   1.010   1.077
 4827SOL    HW215381   5.658   0.923   0.939
 4828SOL     OW15382   5.018   3.338   6.437
 4828SOL    HW115383   5.088   3.299   6.378
 4828SOL    HW215384   4.963   3.403   6.385
 4829SOL     OW15385   3.548   0.239   5.107
 4829SOL    HW115386   3.609   0.266   5.032
 4829SOL    HW215387   3.592   0.258   5.195
 4830SOL     OW15388   4.140   6.410   4.832
 4830SOL    HW115389   4.089   6.330   4.864
 4830SOL    HW215390   4.107   6.435   4.741
 4831SOL     OW15391   6.927   3.958   5.418
 4831SOL    HW115392   7.012   3.916   5.387
 4831SOL    HW215393   6.862   3.886   5.443
 4832SOL     OW15394   2.379   2.462   6.187
 4832SOL    HW115395   2.328   2.445   6.102
 4832SOL    HW215396   2.378   2.380   6.243
 4833SOL     OW15397   5.191   1.660   2.837
 4833SOL    HW115398   5.213   1.712   2.920
 4833SOL    HW215399   5.161   1.568   2.863
 4834SOL     OW15400   5.251   1.050   2.911
 4834SOL    HW115401   5.321   1.059   2.981
 4834SOL    HW215402   5.166   1.019   2.953
 4835SOL     OW15403   2.450   0.605   6.130
 4835SOL    HW115404   2.511   0.580   6.055
 4835SOL    HW215405   2.361   0.561   6.117
 4836SOL     OW15406   5.630   2.662   2.464
 4836SOL    HW115407   5.715   2.643   2.513
 4836SOL    HW215408   5.611   2.760   2.466
 4837SOL     OW15409   0.529   4.277   0.418
 4837SOL    HW115410   0.564   4.184   0.426
 4837SOL    HW215411   0.605   4.342   0.431
 4838SOL     OW15412   2.560   5.900   2.516
 4838SOL    HW115413   2.579   5.803   2.504
 4838SOL    HW215414   2.591   5.951   2.436
 4839SOL     OW15415   0.534   6.821   6.731
 4839SOL    HW115416   0.559   6.914   6.759
 4839SOL    HW215417   0.440   6.821   6.697
 4840SOL     OW15418   6.541   6.590   6.712
 4840SOL    HW115419   6.574   6.497   6.729
 4840SOL    HW215420   6.614   6.643   6.670
 4841SOL     OW15421   2.320   6.150   2.369
 4841SOL    HW115422   2.226   6.116   2.365
 4841SOL    HW215423   2.319   6.249   2.384
 4842SOL     OW15424   3.481   6.690   1.192
 4842SOL    HW115425   3.570   6.661   1.157
 4842SOL    HW215426   3.439   6.755   1.128
 4843SOL     OW15427   0.413   3.133   6.940
 4843SOL    HW115428   0.370   3.073   7.008
 4843SOL    HW215429   0.512   3.120   6.940
 4844SOL     OW15430   0.291   1.811   5.619
 4844SOL    HW115431   0.301   1.854   5.708
 4844SOL    HW215432   0.200   1.772   5.610
 4845SOL     OW15433   5.783   5.442   3.756
 4845SOL    HW115434   5.782   5.381   3.835
 4845SOL    HW215435   5.784   5.537   3.787
 4846SOL     OW15436   1.183   5.335   0.868
 4846SOL    HW115437   1.108   5.363   0.808
 4846SOL    HW215438   1.212   5.242   0.845
 4847SOL     OW15439   4.711   2.428   4.830
 4847SOL    HW115440   4.672   2.360   4.767
 4847SOL    HW215441   4.683   2.520   4.801
 4848SOL     OW15442   3.047   2.110   2.177
 4848SOL    HW115443   2.986   2.045   2.222
 4848SOL    HW215444   2.992   2.183   2.134
 4849SOL     OW15445   1.196   6.404   6.933
 4849SOL    HW115446   1.125   6.408   7.002
 4849SOL    HW215447   1.228   6.497   6.912
 4850SOL     OW15448   3.768   0.352   2.246
 4850SOL    HW115449   3.827   0.303   2.182
 4850SOL    HW215450   3.792   0.449   2.246
 4851SOL     OW15451   5.460   0.529   5.136
 4851SOL    HW115452   5.492   0.565   5.224
 4851SOL    HW215453   5.449   0.430   5.142
 4852SOL     OW15454   1.820   2.168   1.110
 4852SOL    HW115455   1.846   2.102   1.180
 4852SOL    HW215456   1.730   2.206   1.131
 4853SOL     OW15457   3.135   1.135   1.773
 4853SOL    HW115458   3.157   1.054   1.719
 4853SOL    HW215459   3.130   1.214   1.713
 4854SOL     OW15460   4.231   6.958   0.133
 4854SOL    HW115461   4.272   0.011   0.188
 4854SOL    HW215462   4.134   6.977   0.119
 4855SOL     OW15463   0.088   2.678   2.659
 4855SOL    HW115464   0.066   2.653   2.754
 4855SOL    HW215465   0.070   2.776   2.645
 4856SOL     OW15466   2.432   4.334   3.495
 4856SOL    HW115467   2.416   4.386   3.411
 4856SOL    HW215468   2.523   4.353   3.530
 4857SOL     OW15469   0.225   1.811   5.922
 4857SOL    HW115470   0.221   1.716   5.953
 4857SOL    HW215471   0.264   1.868   5.993
 4858SOL     OW15472   1.020   1.018   3.628
 4858SOL    HW115473   1.040   1.066   3.543
 4858SOL    HW215474   0.955   0.944   3.610
 4859SOL     OW15475   2.744   5.264   5.101
 4859SOL    HW115476   2.755   5.165   5.087
 4859SOL    HW215477   2.801   5.293   5.177
 4860SOL     OW15478   4.506   4.768   0.824
 4860SOL    HW115479   4.594   4.722   0.823
 4860SOL    HW215480   4.493   4.815   0.912
 4861SOL     OW15481   4.937   3.579   5.892
 4861SOL    HW115482   4.962   3.676   5.890
 4861SOL    HW215483   4.855   3.567   5.948
 4862SOL     OW15484   1.283   6.539   1.894
 4862SOL    HW115485   1.286   6.536   1.794
 4862SOL    HW215486   1.193   6.572   1.923
 4863SOL     OW15487   5.964   4.196   6.536
 4863SOL    HW115488   5.912   4.129   6.588
 4863SOL    HW215489   6.043   4.226   6.590
 4864SOL     OW15490   2.964   1.058   3.552
 4864SOL    HW115491   3.026   1.091   3.481
 4864SOL    HW215492   2.922   1.135   3.599
 4865SOL     OW15493   2.086   6.169   4.908
 4865SOL    HW115494   2.171   6.137   4.867
 4865SOL    HW215495   2.060   6.107   4.982
 4866SOL     OW15496   6.539   3.892   6.534
 4866SOL    HW115497   6.514   3.984   6.562
 4866SOL    HW215498   6.508   3.827   6.603
 4867SOL     OW15499   5.008   6.894   2.793
 4867SOL    HW115500   5.014   6.968   2.861
 4867SOL    HW215501   4.936   6.830   2.821
 4868SOL     OW15502   6.930   4.468   1.517
 4868SOL    HW115503   6.947   4.491   1.613
 4868SOL    HW215504   7.012   4.425   1.479
 4869SOL     OW15505   0.849   0.825   0.403
 4869SOL    HW115506   0.877   0.856   0.494
 4869SOL    HW215507   0.886   0.734   0.386
 4870SOL     OW15508   0.383   5.889   1.920
 4870SOL    HW115509   0.371   5.792   1.899
 4870SOL    HW215510   0.477   5.915   1.902
 4871SOL     OW15511   1.723   1.807   4.367
 4871SOL    HW115512   1.729   1.906   4.377
 4871SOL    HW215513   1.633   1.782   4.330
 4872SOL     OW15514   5.506   6.533   3.226
 4872SOL    HW115515   5.420   6.584   3.225
 4872SOL    HW215516   5.543   6.528   3.134
 4873SOL     OW15517   6.606   5.553   5.694
 4873SOL    HW115518   6.675   5.491   5.656
 4873SOL    HW215519   6.517   5.507   5.695
 4874SOL     OW15520   5.127   2.542   2.909
 4874SOL    HW115521   5.225   2.554   2.896
 4874SOL    HW215522   5.100   2.451   2.878
 4875SOL     OW15523   5.458   6.127   5.224
 4875SOL    HW115524   5.477   6.093   5.132
 4875SOL    HW215525   5.361   6.113   5.245
 4876SOL     OW15526   1.546   1.318   2.679
 4876SOL    HW115527   1.462   1.359   2.645
 4876SOL    HW215528   1.533   1.220   2.689
 4877SOL     OW15529   6.847   1.480   5.074
 4877SOL    HW115530   6.798   1.498   4.989
 4877SOL    HW215531   6.781   1.468   5.148
 4878SOL     OW15532   6.749   2.527   2.525
 4878SOL    HW115533   6.828   2.549   2.468
 4878SOL    HW215534   6.770   2.545   2.621
 4879SOL     OW15535   5.176   1.367   2.776
 4879SOL    HW115536   5.182   1.320   2.687
 4879SOL    HW215537   5.225   1.314   2.845
 4880SOL     OW15538   6.403   2.912   6.249
 4880SOL    HW115539   6.415   2.960   6.162
 4880SOL    HW215540   6.464   2.833   6.252
 4881SOL     OW15541   2.044   2.243   1.834
 4881SOL    HW115542   2.129   2.208   1.875
 4881SOL    HW215543   2.032   2.203   1.743
 4882SOL     OW15544   4.203   1.870   4.581
 4882SOL    HW115545   4.139   1.915   4.519
 4882SOL    HW215546   4.292   1.916   4.576
 4883SOL     OW15547   6.509   4.554   1.129
 4883SOL    HW115548   6.461   4.486   1.073
 4883SOL    HW215549   6.477   4.548   1.223
 4884SOL     OW15550   2.240   6.618   0.938
 4884SOL    HW115551   2.242   6.576   1.029
 4884SOL    HW215552   2.296   6.701   0.939
 4885SOL     OW15553   1.066   4.457   0.031
 4885SOL    HW115554   1.092   4.444   6.955
 4885SOL    HW215555   1.030   4.371   0.066
 4886SOL     OW15556   2.418   1.288   1.924
 4886SOL    HW115557   2.327   1.284   1.965
 4886SOL    HW215558   2.417   1.346   1.843
 4887SOL     OW15559   6.238   6.886   1.364
 4887SOL    HW115560   6.206   6.905   1.456
 4887SOL    HW215561   6.183   6.812   1.324
 4888SOL     OW15562   4.004   6.818   2.734
 4888SOL    HW115563   3.998   6.737   2.793
 4888SOL    HW215564   4.079   6.807   2.669
 4889SOL     OW15565   0.030   3.138   4.254
 4889SOL    HW115566   0.013   3.152   4.156
 4889SOL    HW215567   0.111   3.189   4.282
 4890SOL     OW15568   0.250   1.386   4.401
 4890SOL    HW115569   0.280   1.291   4.406
 4890SOL    HW215570   0.328   1.447   4.414
 4891SOL     OW15571   2.571   5.632   6.108
 4891SOL    HW115572   2.572   5.573   6.027
 4891SOL    HW215573   2.654   5.616   6.162
 4892SOL     OW15574   4.833   5.524   2.999
 4892SOL    HW115575   4.822   5.589   2.924
 4892SOL    HW215576   4.786   5.439   2.977
 4893SOL     OW15577   0.935   3.541   1.431
 4893SOL    HW115578   0.927   3.591   1.344
 4893SOL    HW215579   0.962   3.447   1.412
 4894SOL     OW15580   5.019   0.203   1.958
 4894SOL    HW115581   5.070   0.197   2.044
 4894SOL    HW215582   4.985   0.112   1.934
 4895SOL     OW15583   0.057   4.304   4.553
 4895SOL    HW115584   6.989   4.257   4.560
 4895SOL    HW215585   0.125   4.241   4.514
 4896SOL     OW15586   2.085   4.566   4.671
 4896SOL    HW115587   2.164   4.598   4.618
 4896SOL    HW215588   2.105   4.573   4.768
 4897SOL     OW15589   1.858   6.568   5.331
 4897SOL    HW115590   1.844   6.572   5.232
 4897SOL    HW215591   1.844   6.475   5.364
 4898SOL     OW15592   4.818   1.913   3.743
 4898SOL    HW115593   4.765   1.936   3.662
 4898SOL    HW215594   4.828   1.814   3.750
 4899SOL     OW15595   6.638   6.329   2.003
 4899SOL    HW115596   6.616   6.285   1.916
 4899SOL    HW215597   6.736   6.324   2.021
 4900SOL     OW15598   3.812   6.222   5.384
 4900SOL    HW115599   3.908   6.251   5.389
 4900SOL    HW215600   3.803   6.150   5.316
 4901SOL     OW15601   1.000   1.534   5.763
 4901SOL    HW115602   0.922   1.516   5.704
 4901SOL    HW215603   1.009   1.632   5.780
 4902SOL     OW15604   1.811   6.736   5.763
 4902SOL    HW115605   1.876   6.811   5.752
 4902SOL    HW215606   1.849   6.669   5.827
 4903SOL     OW15607   4.815   4.101   2.443
 4903SOL    HW115608   4.813   4.115   2.542
 4903SOL    HW215609   4.816   4.003   2.423
 4904SOL     OW15610   1.734   6.453   0.253
 4904SOL    HW115611   1.812   6.509   0.279
 4904SOL    HW215612   1.766   6.375   0.198
 4905SOL     OW15613   2.904   6.229   3.023
 4905SOL    HW115614   2.992   6.251   2.982
 4905SOL    HW215615   2.859   6.312   3.054
 4906SOL     OW15616   5.016   3.510   5.135
 4906SOL    HW115617   4.977   3.431   5.182
 4906SOL    HW215618   4.947   3.582   5.130
 4907SOL     OW15619   4.557   1.458   0.104
 4907SOL    HW115620   4.505   1.503   0.031
 4907SOL    HW215621   4.639   1.511   0.124
 4908SOL     OW15622   4.117   6.733   6.789
 4908SOL    HW115623   4.159   6.796   6.724
 4908SOL    HW215624   4.041   6.686   6.746
 4909SOL     OW15625   5.120   4.537   4.753
 4909SOL    HW115626   5.184   4.537   4.676
 4909SOL    HW215627   5.032   4.500   4.724
 4910SOL     OW15628   4.535   2.231   5.953
 4910SOL    HW115629   4.623   2.274   5.935
 4910SOL    HW215630   4.550   2.141   5.994
 4911SOL     OW15631   6.541   2.188   2.389
 4911SOL    HW115632   6.505   2.270   2.435
 4911SOL    HW215633   6.531   2.198   2.290
 4912SOL     OW15634   5.529   2.749   3.943
 4912SOL    HW115635   5.585   2.702   4.012
 4912SOL    HW215636   5.570   2.735   3.853
 4913SOL     OW15637   0.404   3.813   5.712
 4913SOL    HW115638   0.480   3.769   5.664
 4913SOL    HW215639   0.382   3.761   5.794
 4914SOL     OW15640   4.304   0.727   3.463
 4914SOL    HW115641   4.291   0.802   3.398
 4914SOL    HW215642   4.214   0.699   3.498
 4915SOL     OW15643   3.278   5.117   5.740
 4915SOL    HW115644   3.181   5.124   5.765
 4915SOL    HW215645   3.319   5.208   5.740
 4916SOL     OW15646   5.875   2.577   4.406
 4916SOL    HW115647   5.791   2.524   4.409
 4916SOL    HW215648   5.854   2.670   4.376
 4917SOL     OW15649   4.271   6.444   0.128
 4917SOL    HW115650   4.360   6.401   0.116
 4917SOL    HW215651   4.278   6.542   0.110
 4918SOL     OW15652   6.081   4.897   3.000
 4918SOL    HW115653   6.163   4.840   3.002
 4918SOL    HW215654   6.101   4.986   3.041
 4919SOL     OW15655   3.401   3.769   2.304
 4919SOL    HW115656   3.488   3.812   2.278
 4919SOL    HW215657   3.388   3.780   2.403
 4920SOL     OW15658   6.988   1.319   5.893
 4920SOL    HW115659   6.928   1.243   5.919
 4920SOL    HW215660   7.010   1.373   5.974
 4921SOL     OW15661   7.019   6.984   2.610
 4921SOL    HW115662   0.001   6.951   2.704
 4921SOL    HW215663   0.086   0.010   2.589
 4922SOL     OW15664   3.299   2.013   6.663
 4922SOL    HW115665   3.316   2.009   6.761
 4922SOL    HW215666   3.201   2.002   6.646
 4923SOL     OW15667   3.871   1.622   1.865
 4923SOL    HW115668   3.952   1.642   1.921
 4923SOL    HW215669   3.898   1.616   1.769
 4924SOL     OW15670   2.717   0.579   5.185
 4924SOL    HW115671   2.754   0.657   5.136
 4924SOL    HW215672   2.719   0.497   5.127
 4925SOL     OW15673   6.033   6.369   3.737
 4925SOL    HW115674   6.063   6.274   3.730
 4925SOL    HW215675   6.054   6.403   3.829
 4926SOL     OW15676   5.437   2.780   0.871
 4926SOL    HW115677   5.493   2.861   0.854
 4926SOL    HW215678   5.342   2.799   0.849
 4927SOL     OW15679   3.707   1.425   6.535
 4927SOL    HW115680   3.739   1.336   6.569
 4927SOL    HW215681   3.682   1.417   6.438
 4928SOL     OW15682   0.199   2.586   0.896
 4928SOL    HW115683   0.236   2.667   0.941
 4928SOL    HW215684   0.127   2.546   0.953
 4929SOL     OW15685   0.973   6.002   5.319
 4929SOL    HW115686   0.879   6.035   5.303
 4929SOL    HW215687   1.007   5.956   5.237
 4930SOL     OW15688   5.313   6.142   2.043
 4930SOL    HW115689   5.300   6.116   1.947
 4930SOL    HW215690   5.322   6.241   2.050
 4931SOL     OW15691   6.857   5.780   0.380
 4931SOL    HW115692   6.806   5.810   0.461
 4931SOL    HW215693   6.829   5.834   0.301
 4932SOL     OW15694   3.503   3.319   2.012
 4932SOL    HW115695   3.560   3.384   2.062
 4932SOL    HW215696   3.561   3.251   1.967
 4933SOL     OW15697   2.220   6.303   5.629
 4933SOL    HW115698   2.284   6.323   5.703
 4933SOL    HW215699   2.128   6.292   5.667
 4934SOL     OW15700   4.206   5.298   2.576
 4934SOL    HW115701   4.262   5.218   2.598
 4934SOL    HW215702   4.209   5.315   2.478
 4935SOL     OW15703   0.568   1.230   6.164
 4935SOL    HW115704   0.667   1.220   6.158
 4935SOL    HW215705   0.526   1.141   6.178
 4936SOL     OW15706   3.723   2.833   0.776
 4936SOL    HW115707   3.684   2.745   0.749
 4936SOL    HW215708   3.663   2.878   0.841
 4937SOL     OW15709   4.677   2.728   5.055
 4937SOL    HW115710   4.722   2.750   4.968
 4937SOL    HW215711   4.611   2.654   5.040
 4938SOL     OW15712   4.246   5.132   5.977
 4938SOL    HW115713   4.223   5.070   5.903
 4938SOL    HW215714   4.162   5.168   6.019
 4939SOL     OW15715   4.811   3.342   6.031
 4939SOL    HW115716   4.854   3.252   6.026
 4939SOL    HW215717   4.736   3.346   5.965
 4940SOL     OW15718   1.539   5.795   4.333
 4940SOL    HW115719   1.550   5.875   4.273
 4940SOL    HW215720   1.560   5.712   4.282
 4941SOL     OW15721   5.430   0.410   1.137
 4941SOL    HW115722   5.418   0.404   1.038
 4941SOL    HW215723   5.481   0.330   1.169
 4942SOL     OW15724   4.954   3.311   5.751
 4942SOL    HW115725   4.950   3.374   5.828
 4942SOL    HW215726   4.895   3.232   5.770
 4943SOL     OW15727   5.412   2.763   1.331
 4943SOL    HW115728   5.349   2.811   1.392
 4943SOL    HW215729   5.482   2.717   1.386
 4944SOL     OW15730   2.343   4.264   2.258
 4944SOL    HW115731   2.289   4.285   2.339
 4944SOL    HW215732   2.438   4.290   2.273
 4945SOL     OW15733   0.396   6.241   4.772
 4945SOL    HW115734   0.394   6.156   4.824
 4945SOL    HW215735   0.491   6.269   4.757
 4946SOL     OW15736   0.479   4.628   2.114
 4946SOL    HW115737   0.442   4.719   2.098
 4946SOL    HW215738   0.470   4.573   2.031
 4947SOL     OW15739   6.857   0.120   1.025
 4947SOL    HW115740   6.871   0.021   1.029
 4947SOL    HW215741   6.760   0.139   1.009
 4948SOL     OW15742   1.486   1.238   1.875
 4948SOL    HW115743   1.544   1.229   1.956
 4948SOL    HW215744   1.481   1.150   1.828
 4949SOL     OW15745   5.264   1.428   4.561
 4949SOL    HW115746   5.219   1.383   4.483
 4949SOL    HW215747   5.234   1.523   4.567
 4950SOL     OW15748   2.831   5.516   5.208
 4950SOL    HW115749   2.888   5.486   5.132
 4950SOL    HW215750   2.849   5.459   5.288
 4951SOL     OW15751   4.564   2.223   3.770
 4951SOL    HW115752   4.507   2.144   3.790
 4951SOL    HW215753   4.616   2.206   3.686
 4952SOL     OW15754   0.789   5.282   4.684
 4952SOL    HW115755   0.838   5.202   4.719
 4952SOL    HW215756   0.784   5.276   4.584
 4953SOL     OW15757   1.799   5.599   1.530
 4953SOL    HW115758   1.883   5.568   1.485
 4953SOL    HW215759   1.815   5.607   1.628
 4954SOL     OW15760   6.048   5.662   6.769
 4954SOL    HW115761   6.015   5.575   6.733
 4954SOL    HW215762   6.059   5.727   6.693
 4955SOL     OW15763   1.083   6.829   1.638
 4955SOL    HW115764   1.081   6.782   1.550
 4955SOL    HW215765   1.031   6.776   1.705
 4956SOL     OW15766   5.224   6.399   4.333
 4956SOL    HW115767   5.139   6.436   4.295
 4956SOL    HW215768   5.301   6.427   4.277
 4957SOL     OW15769   0.990   6.340   3.630
 4957SOL    HW115770   0.900   6.297   3.641
 4957SOL    HW215771   0.995   6.385   3.541
 4958SOL     OW15772   0.327   6.241   6.637
 4958SOL    HW115773   0.376   6.296   6.705
 4958SOL    HW215774   0.229   6.260   6.644
 4959SOL     OW15775   0.748   0.958   1.002
 4959SOL    HW115776   0.705   0.997   1.084
 4959SOL    HW215777   0.846   0.978   1.003
 4960SOL     OW15778   3.791   6.312   4.752
 4960SOL    HW115779   3.847   6.375   4.806
 4960SOL    HW215780   3.727   6.364   4.696
 4961SOL     OW15781   4.393   0.725   5.768
 4961SOL    HW115782   4.431   0.760   5.682
 4961SOL    HW215783   4.294   0.719   5.760
 4962SOL     OW15784   6.471   2.427   1.782
 4962SOL    HW115785   6.382   2.384   1.761
 4962SOL    HW215786   6.456   2.510   1.834
 4963SOL     OW15787   6.991   4.276   1.844
 4963SOL    HW115788   6.971   4.185   1.806
 4963SOL    HW215789   6.969   4.277   1.942
 4964SOL     OW15790   3.240   6.553   2.824
 4964SOL    HW115791   3.254   6.652   2.824
 4964SOL    HW215792   3.328   6.507   2.813
 4965SOL     OW15793   0.337   6.461   4.897
 4965SOL    HW115794   0.353   6.373   4.853
 4965SOL    HW215795   0.289   6.522   4.833
 4966SOL     OW15796   3.880   5.150   3.713
 4966SOL    HW115797   3.838   5.171   3.625
 4966SOL    HW215798   3.831   5.074   3.757
 4967SOL     OW15799   4.651   1.984   6.073
 4967SOL    HW115800   4.697   2.016   6.157
 4967SOL    HW215801   4.605   1.897   6.091
 4968SOL     OW15802   5.550   3.801   5.694
 4968SOL    HW115803   5.511   3.874   5.751
 4968SOL    HW215804   5.520   3.813   5.599
 4969SOL     OW15805   0.832   2.173   1.674
 4969SOL    HW115806   0.818   2.126   1.587
 4969SOL    HW215807   0.852   2.270   1.657
 4970SOL     OW15808   1.321   2.805   6.055
 4970SOL    HW115809   1.329   2.890   6.003
 4970SOL    HW215810   1.238   2.808   6.111
 4971SOL     OW15811   6.733   6.038   4.063
 4971SOL    HW115812   6.791   6.021   4.143
 4971SOL    HW215813   6.667   6.110   4.084
 4972SOL     OW15814   1.866   2.582   5.641
 4972SOL    HW115815   1.856   2.681   5.636
 4972SOL    HW215816   1.894   2.546   5.552
 4973SOL     OW15817   5.896   6.073   3.084
 4973SOL    HW115818   5.909   6.172   3.077
 4973SOL    HW215819   5.943   6.027   3.008
 4974SOL     OW15820   4.383   6.766   1.265
 4974SOL    HW115821   4.345   6.684   1.223
 4974SOL    HW215822   4.320   6.842   1.255
 4975SOL     OW15823   5.114   6.069   0.004
 4975SOL    HW115824   5.076   5.982   0.036
 4975SOL    HW215825   5.121   6.132   0.080
 4976SOL     OW15826   3.597   0.648   4.481
 4976SOL    HW115827   3.618   0.595   4.563
 4976SOL    HW215828   3.574   0.742   4.507
 4977SOL     OW15829   3.305   3.905   0.564
 4977SOL    HW115830   3.290   3.921   0.467
 4977SOL    HW215831   3.231   3.947   0.617
 4978SOL     OW15832   6.134   2.885   6.188
 4978SOL    HW115833   6.104   2.977   6.162
 4978SOL    HW215834   6.225   2.889   6.228
 4979SOL     OW15835   1.248   2.121   4.541
 4979SOL    HW115836   1.154   2.141   4.514
 4979SOL    HW215837   1.290   2.204   4.578
 4980SOL     OW15838   2.552   5.370   2.529
 4980SOL    HW115839   2.570   5.364   2.627
 4980SOL    HW215840   2.532   5.279   2.493
 4981SOL     OW15841   4.927   6.392   5.669
 4981SOL    HW115842   4.843   6.338   5.666
 4981SOL    HW215843   4.939   6.430   5.760
 4982SOL     OW15844   2.618   2.123   0.101
 4982SOL    HW115845   2.634   2.033   0.141
 4982SOL    HW215846   2.525   2.154   0.125
 4983SOL     OW15847   5.558   2.954   4.663
 4983SOL    HW115848   5.500   3.003   4.728
 4983SOL    HW215849   5.544   2.856   4.672
 4984SOL     OW15850   4.816   4.217   2.722
 4984SOL    HW115851   4.908   4.178   2.728
 4984SOL    HW215852   4.788   4.249   2.812
 4985SOL     OW15853   5.637   3.976   2.817
 4985SOL    HW115854   5.714   3.925   2.857
 4985SOL    HW215855   5.595   4.033   2.888
 4986SOL     OW15856   5.127   4.440   2.675
 4986SOL    HW115857   5.083   4.367   2.726
 4986SOL    HW215858   5.067   4.471   2.601
 4987SOL     OW15859   0.532   3.862   0.958
 4987SOL    HW115860   0.513   3.853   0.860
 4987SOL    HW215861   0.453   3.830   1.010
 4988SOL     OW15862   0.569   2.339   5.396
 4988SOL    HW115863   0.525   2.254   5.425
 4988SOL    HW215864   0.668   2.329   5.400
 4989SOL     OW15865   0.474   0.862   0.410
 4989SOL    HW115866   0.410   0.797   0.371
 4989SOL    HW215867   0.564   0.850   0.368
 4990SOL     OW15868   0.514   2.074   5.650
 4990SOL    HW115869   0.485   2.073   5.554
 4990SOL    HW215870   0.574   1.996   5.668
 4991SOL     OW15871   1.412   2.611   4.819
 4991SOL    HW115872   1.461   2.524   4.809
 4991SOL    HW215873   1.434   2.651   4.907
 4992SOL     OW15874   3.792   0.479   4.952
 4992SOL    HW115875   3.749   0.507   4.866
 4992SOL    HW215876   3.739   0.515   5.029
 4993SOL     OW15877   2.257   5.475   3.732
 4993SOL    HW115878   2.170   5.442   3.695
 4993SOL    HW215879   2.279   5.424   3.815
 4994SOL     OW15880   6.702   6.861   2.247
 4994SOL    HW115881   6.676   6.785   2.187
 4994SOL    HW215882   6.770   6.918   2.200
 4995SOL     OW15883   6.455   2.921   5.618
 4995SOL    HW115884   6.478   3.002   5.565
 4995SOL    HW215885   6.382   2.870   5.572
 4996SOL     OW15886   6.937   1.337   3.841
 4996SOL    HW115887   7.007   1.266   3.837
 4996SOL    HW215888   6.969   1.412   3.899
 4997SOL     OW15889   0.364   2.423   3.550
 4997SOL    HW115890   0.443   2.363   3.567
 4997SOL    HW215891   0.349   2.482   3.629
 4998SOL     OW15892   1.326   5.649   4.819
 4998SOL    HW115893   1.382   5.636   4.900
 4998SOL    HW215894   1.354   5.732   4.772
 4999SOL     OW15895   6.204   4.257   1.283
 4999SOL    HW115896   6.186   4.199   1.362
 4999SOL    HW215897   6.191   4.353   1.309
 5000SOL     OW15898   6.945   5.682   3.991
 5000SOL    HW115899   6.991   5.594   4.000
 5000SOL    HW215900   6.993   5.751   4.046
 5001SOL     OW15901   4.628   4.213   5.482
 5001SOL    HW115902   4.713   4.161   5.474
 5001SOL    HW215903   4.581   4.214   5.394
 5002SOL     OW15904   2.299   1.827   1.181
 5002SOL    HW115905   2.273   1.751   1.241
 5002SOL    HW215906   2.391   1.858   1.204
 5003SOL     OW15907   6.616   5.278   3.235
 5003SOL    HW115908   6.674   5.352   3.201
 5003SOL    HW215909   6.520   5.303   3.224
 5004SOL     OW15910   3.263   5.015   6.872
 5004SOL    HW115911   3.223   5.081   6.809
 5004SOL    HW215912   3.210   4.930   6.869
 5005SOL     OW15913   4.433   2.323   0.184
 5005SOL    HW115914   4.418   2.422   0.177
 5005SOL    HW215915   4.415   2.280   0.096
 5006SOL     OW15916   5.534   4.796   3.673
 5006SOL    HW115917   5.628   4.826   3.658
 5006SOL    HW215918   5.488   4.785   3.585
 5007SOL     OW15919   4.062   1.946   4.826
 5007SOL    HW115920   4.102   1.898   4.747
 5007SOL    HW215921   4.084   2.043   4.820
 5008SOL     OW15922   6.584   1.169   3.658
 5008SOL    HW115923   6.580   1.105   3.736
 5008SOL    HW215924   6.640   1.248   3.683
 5009SOL     OW15925   1.935   6.116   3.553
 5009SOL    HW115926   1.844   6.126   3.594
 5009SOL    HW215927   1.930   6.050   3.478
 5010SOL     OW15928   2.966   3.149   4.563
 5010SOL    HW115929   2.980   3.199   4.478
 5010SOL    HW215930   2.889   3.086   4.552
 5011SOL     OW15931   0.822   2.823   3.335
 5011SOL    HW115932   0.920   2.834   3.318
 5011SOL    HW215933   0.778   2.787   3.254
 5012SOL     OW15934   5.476   3.098   0.412
 5012SOL    HW115935   5.508   3.174   0.355
 5012SOL    HW215936   5.549   3.069   0.473
 5013SOL     OW15937   5.096   1.409   5.862
 5013SOL    HW115938   5.093   1.371   5.769
 5013SOL    HW215939   5.068   1.505   5.859
 5014SOL     OW15940   6.091   6.634   6.988
 5014SOL    HW115941   6.158   6.708   6.986
 5014SOL    HW215942   6.034   6.639   6.906
 5015SOL     OW15943   5.440   2.109   3.302
 5015SOL    HW115944   5.468   2.084   3.209
 5015SOL    HW215945   5.341   2.103   3.310
 5016SOL     OW15946   2.259   6.951   2.139
 5016SOL    HW115947   2.292   6.920   2.228
 5016SOL    HW215948   2.160   6.968   2.145
 5017SOL     OW15949   2.547   2.541   1.774
 5017SOL    HW115950   2.516   2.496   1.690
 5017SOL    HW215951   2.484   2.519   1.849
 5018SOL     OW15952   6.575   5.371   4.394
 5018SOL    HW115953   6.625   5.405   4.314
 5018SOL    HW215954   6.508   5.303   4.365
 5019SOL     OW15955   2.762   5.206   6.007
 5019SOL    HW115956   2.684   5.184   6.067
 5019SOL    HW215957   2.843   5.221   6.064
 5020SOL     OW15958   4.705   5.166   5.934
 5020SOL    HW115959   4.621   5.154   5.988
 5020SOL    HW215960   4.744   5.076   5.913
 5021SOL     OW15961   2.497   4.777   5.762
 5021SOL    HW115962   2.473   4.820   5.849
 5021SOL    HW215963   2.595   4.785   5.747
 5022SOL     OW15964   1.608   4.626   0.624
 5022SOL    HW115965   1.550   4.553   0.660
 5022SOL    HW215966   1.704   4.602   0.639
 5023SOL     OW15967   6.470   2.950   3.376
 5023SOL    HW115968   6.426   2.893   3.307
 5023SOL    HW215969   6.430   2.932   3.465
 5024SOL     OW15970   5.751   3.479   5.676
 5024SOL    HW115971   5.807   3.547   5.723
 5024SOL    HW215972   5.767   3.389   5.716
 5025SOL     OW15973   6.642   1.657   3.110
 5025SOL    HW115974   6.710   1.687   3.177
 5025SOL    HW215975   6.595   1.576   3.145
 5026SOL     OW15976   0.367   6.306   2.965
 5026SOL    HW115977   0.313   6.369   3.020
 5026SOL    HW215978   0.450   6.280   3.015
 5027SOL     OW15979   0.941   6.423   3.370
 5027SOL    HW115980   1.011   6.401   3.302
 5027SOL    HW215981   0.870   6.353   3.370
 5028SOL     OW15982   1.387   0.585   2.545
 5028SOL    HW115983   1.482   0.574   2.516
 5028SOL    HW215984   1.358   0.679   2.528
 5029SOL     OW15985   0.134   0.950   2.733
 5029SOL    HW115986   0.109   0.961   2.637
 5029SOL    HW215987   0.179   1.033   2.766
 5030SOL     OW15988   1.692   5.548   6.969
 5030SOL    HW115989   1.657   5.476   6.909
 5030SOL    HW215990   1.676   5.637   6.926
 5031SOL     OW15991   6.087   0.616   5.167
 5031SOL    HW115992   6.185   0.634   5.167
 5031SOL    HW215993   6.036   0.701   5.153
 5032SOL     OW15994   0.782   6.163   0.957
 5032SOL    HW115995   0.766   6.129   0.864
 5032SOL    HW215996   0.776   6.263   0.956
 5033SOL     OW15997   0.712   4.500   5.442
 5033SOL    HW115998   0.726   4.596   5.469
 5033SOL    HW215999   0.763   4.481   5.359
 5034SOL     OW16000   6.915   3.776   7.013
 5034SOL    HW116001   6.946   3.862   0.033
 5034SOL    HW216002   6.894   3.789   6.916
 5035SOL     OW16003   6.186   4.270   1.772
 5035SOL    HW116004   6.129   4.198   1.811
 5035SOL    HW216005   6.138   4.357   1.776
 5036SOL     OW16006   1.645   0.872   2.302
 5036SOL    HW116007   1.703   0.911   2.374
 5036SOL    HW216008   1.645   0.773   2.308
 5037SOL     OW16009   4.610   2.423   2.522
 5037SOL    HW116010   4.653   2.354   2.581
 5037SOL    HW216011   4.612   2.512   2.568
 5038SOL     OW16012   2.462   6.217   5.816
 5038SOL    HW116013   2.509   6.236   5.730
 5038SOL    HW216014   2.429   6.123   5.816
 5039SOL     OW16015   1.555   1.957   3.730
 5039SOL    HW116016   1.549   1.867   3.686
 5039SOL    HW216017   1.494   1.959   3.809
 5040SOL     OW16018   2.954   3.601   6.158
 5040SOL    HW116019   3.025   3.667   6.132
 5040SOL    HW216020   2.876   3.649   6.198
 5041SOL     OW16021   1.326   5.558   0.781
 5041SOL    HW116022   1.311   5.473   0.831
 5041SOL    HW216023   1.286   5.635   0.832
 5042SOL     OW16024   6.016   1.992   6.140
 5042SOL    HW116025   5.989   2.040   6.224
 5042SOL    HW216026   6.008   1.893   6.154
 5043SOL     OW16027   4.855   0.424   3.192
 5043SOL    HW116028   4.835   0.423   3.094
 5043SOL    HW216029   4.769   0.427   3.244
 5044SOL     OW16030   5.753   4.667   2.800
 5044SOL    HW116031   5.654   4.650   2.793
 5044SOL    HW216032   5.796   4.591   2.848
 5045SOL     OW16033   6.175   3.392   6.233
 5045SOL    HW116034   6.207   3.485   6.218
 5045SOL    HW216035   6.198   3.363   6.326
 5046SOL     OW16036   3.135   2.867   5.304
 5046SOL    HW116037   3.168   2.942   5.361
 5046SOL    HW216038   3.043   2.841   5.332
 5047SOL     OW16039   1.071   1.407   2.409
 5047SOL    HW116040   1.133   1.469   2.361
 5047SOL    HW216041   1.033   1.341   2.344
 5048SOL     OW16042   6.162   3.471   1.724
 5048SOL    HW116043   6.208   3.387   1.695
 5048SOL    HW216044   6.086   3.448   1.784
 5049SOL     OW16045   1.164   2.277   2.391
 5049SOL    HW116046   1.240   2.337   2.414
 5049SOL    HW216047   1.107   2.322   2.321
 5050SOL     OW16048   1.122   3.476   0.713
 5050SOL    HW116049   1.029   3.438   0.710
 5050SOL    HW216050   1.167   3.460   0.626
 5051SOL     OW16051   2.360   3.757   0.346
 5051SOL    HW116052   2.296   3.685   0.372
 5051SOL    HW216053   2.345   3.781   0.250
 5052SOL     OW16054   5.460   3.715   0.677
 5052SOL    HW116055   5.520   3.725   0.598
 5052SOL    HW216056   5.498   3.766   0.755
 5053SOL     OW16057   2.086   4.696   0.415
 5053SOL    HW116058   2.160   4.690   0.482
 5053SOL    HW216059   2.115   4.655   0.329
 5054SOL     OW16060   3.939   5.913   5.019
 5054SOL    HW116061   3.937   5.822   4.978
 5054SOL    HW216062   3.979   5.979   4.954
 5055SOL     OW16063   1.577   1.729   4.158
 5055SOL    HW116064   1.653   1.780   4.119
 5055SOL    HW216065   1.607   1.636   4.181
 5056SOL     OW16066   2.611   2.616   5.300
 5056SOL    HW116067   2.674   2.551   5.342
 5056SOL    HW216068   2.604   2.698   5.357
 5057SOL     OW16069   0.283   4.354   2.666
 5057SOL    HW116070   0.320   4.427   2.609
 5057SOL    HW216071   0.336   4.271   2.652
 5058SOL     OW16072   3.351   3.110   0.166
 5058SOL    HW116073   3.417   3.171   0.211
 5058SOL    HW216074   3.375   3.015   0.187
 5059SOL     OW16075   4.562   1.644   3.159
 5059SOL    HW116076   4.507   1.599   3.230
 5059SOL    HW216077   4.526   1.621   3.069
 5060SOL     OW16078   0.385   3.497   5.022
 5060SOL    HW116079   0.437   3.422   5.063
 5060SOL    HW216080   0.448   3.569   4.992
 5061SOL     OW16081   3.802   2.178   5.420
 5061SOL    HW116082   3.740   2.113   5.377
 5061SOL    HW216083   3.750   2.240   5.479
 5062SOL     OW16084   5.379   1.136   3.396
 5062SOL    HW116085   5.394   1.128   3.297
 5062SOL    HW216086   5.418   1.056   3.442
 5063SOL     OW16087   0.901   1.549   1.535
 5063SOL    HW116088   0.947   1.514   1.454
 5063SOL    HW216089   0.956   1.529   1.616
 5064SOL     OW16090   5.047   5.371   0.912
 5064SOL    HW116091   5.023   5.458   0.955
 5064SOL    HW216092   5.146   5.365   0.902
 5065SOL     OW16093   2.185   1.330   2.075
 5065SOL    HW116094   2.204   1.239   2.111
 5065SOL    HW216095   2.170   1.394   2.150
 5066SOL     OW16096   2.125   4.870   2.791
 5066SOL    HW116097   2.152   4.778   2.821
 5066SOL    HW216098   2.053   4.905   2.851
 5067SOL     OW16099   5.599   3.013   0.782
 5067SOL    HW116100   5.618   2.949   0.708
 5067SOL    HW216101   5.679   3.072   0.795
 5068SOL     OW16102   2.489   5.688   0.615
 5068SOL    HW116103   2.574   5.739   0.631
 5068SOL    HW216104   2.437   5.732   0.542
 5069SOL     OW16105   3.815   4.949   5.176
 5069SOL    HW116106   3.795   4.872   5.236
 5069SOL    HW216107   3.743   4.959   5.108
 5070SOL     OW16108   5.927   3.471   5.270
 5070SOL    HW116109   5.841   3.498   5.314
 5070SOL    HW216110   5.924   3.495   5.173
 5071SOL     OW16111   2.578   6.737   3.737
 5071SOL    HW116112   2.481   6.759   3.754
 5071SOL    HW216113   2.635   6.812   3.771
 5072SOL     OW16114   1.014   1.008   0.995
 5072SOL    HW116115   1.045   0.913   1.000
 5072SOL    HW216116   1.075   1.060   0.935
 5073SOL     OW16117   2.518   0.902   2.511
 5073SOL    HW116118   2.435   0.850   2.529
 5073SOL    HW216119   2.584   0.885   2.585
 5074SOL     OW16120   3.450   2.181   1.795
 5074SOL    HW116121   3.529   2.227   1.836
 5074SOL    HW216122   3.381   2.164   1.866
 5075SOL     OW16123   0.109   3.481   6.802
 5075SOL    HW116124   0.064   3.400   6.763
 5075SOL    HW216125   0.122   3.468   6.900
 5076SOL     OW16126   6.947   0.356   6.483
 5076SOL    HW116127   6.890   0.354   6.565
 5076SOL    HW216128   6.981   0.264   6.464
 5077SOL     OW16129   0.888   4.512   4.140
 5077SOL    HW116130   0.854   4.563   4.219
 5077SOL    HW216131   0.974   4.553   4.109
 5078SOL     OW16132   0.185   2.085   4.126
 5078SOL    HW116133   0.140   2.166   4.089
 5078SOL    HW216134   0.173   2.008   4.064
 5079SOL     OW16135   1.771   2.975   5.482
 5079SOL    HW116136   1.704   2.920   5.431
 5079SOL    HW216137   1.822   3.033   5.418
 5080SOL     OW16138   5.886   5.739   0.540
 5080SOL    HW116139   5.810   5.799   0.564
 5080SOL    HW216140   5.850   5.653   0.503
 5081SOL     OW16141   2.554   5.404   5.448
 5081SOL    HW116142   2.535   5.319   5.398
 5081SOL    HW216143   2.540   5.482   5.386
 5082SOL     OW16144   5.190   5.951   1.705
 5082SOL    HW116145   5.099   5.909   1.702
 5082SOL    HW216146   5.181   6.050   1.717
 5083SOL     OW16147   1.530   0.286   3.325
 5083SOL    HW116148   1.433   0.273   3.307
 5083SOL    HW216149   1.561   0.219   3.392
 5084SOL     OW16150   2.532   4.449   5.540
 5084SOL    HW116151   2.557   4.422   5.633
 5084SOL    HW216152   2.446   4.501   5.543
 5085SOL     OW16153   0.451   4.325   4.816
 5085SOL    HW116154   0.400   4.258   4.871
 5085SOL    HW216155   0.492   4.279   4.737
 5086SOL     OW16156   1.885   5.526   1.772
 5086SOL    HW116157   1.905   5.439   1.726
 5086SOL    HW216158   1.826   5.509   1.851
 5087SOL     OW16159   6.512   4.719   2.463
 5087SOL    HW116160   6.546   4.639   2.512
 5087SOL    HW216161   6.511   4.700   2.365
 5088SOL     OW16162   5.289   5.754   2.345
 5088SOL    HW116163   5.292   5.771   2.247
 5088SOL    HW216164   5.194   5.758   2.377
 5089SOL     OW16165   5.273   5.503   5.701
 5089SOL    HW116166   5.367   5.506   5.734
 5089SOL    HW216167   5.268   5.544   5.610
 5090SOL     OW16168   2.773   6.567   4.889
 5090SOL    HW116169   2.724   6.545   4.805
 5090SOL    HW216170   2.850   6.505   4.899
 5091SOL     OW16171   0.076   6.723   6.096
 5091SOL    HW116172   0.151   6.706   6.032
 5091SOL    HW216173   0.046   6.637   6.137
 5092SOL     OW16174   3.197   3.278   4.022
 5092SOL    HW116175   3.168   3.187   3.992
 5092SOL    HW216176   3.211   3.279   4.121
 5093SOL     OW16177   3.027   2.197   2.561
 5093SOL    HW116178   2.997   2.266   2.495
 5093SOL    HW216179   2.953   2.177   2.624
 5094SOL     OW16180   1.313   5.976   5.073
 5094SOL    HW116181   1.360   5.924   5.144
 5094SOL    HW216182   1.339   5.942   4.983
 5095SOL     OW16183   6.664   0.989   3.061
 5095SOL    HW116184   6.594   0.925   3.094
 5095SOL    HW216185   6.706   0.953   2.977
 5096SOL     OW16186   6.117   2.964   5.388
 5096SOL    HW116187   6.145   3.049   5.432
 5096SOL    HW216188   6.127   2.973   5.289
 5097SOL     OW16189   1.254   0.764   5.582
 5097SOL    HW116190   1.237   0.859   5.557
 5097SOL    HW216191   1.351   0.743   5.570
 5098SOL     OW16192   3.853   3.565   0.598
 5098SOL    HW116193   3.810   3.615   0.523
 5098SOL    HW216194   3.834   3.467   0.588
 5099SOL     OW16195   1.490   6.961   2.218
 5099SOL    HW116196   1.497   6.882   2.157
 5099SOL    HW216197   1.582   6.991   2.244
 5100SOL     OW16198   5.276   4.021   2.495
 5100SOL    HW116199   5.371   4.025   2.526
 5100SOL    HW216200   5.274   3.996   2.398
 5101SOL     OW16201   3.851   0.328   6.608
 5101SOL    HW116202   3.933   0.368   6.568
 5101SOL    HW216203   3.782   0.316   6.537
 5102SOL     OW16204   4.978   4.882   4.207
 5102SOL    HW116205   5.036   4.912   4.283
 5102SOL    HW216206   4.932   4.962   4.168
 5103SOL     OW16207   1.317   1.112   6.648
 5103SOL    HW116208   1.234   1.166   6.663
 5103SOL    HW216209   1.391   1.172   6.617
 5104SOL     OW16210   3.987   3.109   2.123
 5104SOL    HW116211   3.901   3.084   2.076
 5104SOL    HW216212   4.057   3.130   2.055
 5105SOL     OW16213   4.488   3.055   6.332
 5105SOL    HW116214   4.502   3.070   6.234
 5105SOL    HW216215   4.526   3.131   6.383
 5106SOL     OW16216   3.962   2.381   0.939
 5106SOL    HW116217   3.960   2.480   0.926
 5106SOL    HW216218   3.879   2.351   0.987
 5107SOL     OW16219   5.085   3.813   6.973
 5107SOL    HW116220   5.112   3.727   7.017
 5107SOL    HW216221   5.138   3.888   7.012
 5108SOL     OW16222   4.399   4.957   0.441
 5108SOL    HW116223   4.445   5.041   0.411
 5108SOL    HW216224   4.467   4.895   0.480
 5109SOL     OW16225   1.425   2.850   1.358
 5109SOL    HW116226   1.503   2.825   1.415
 5109SOL    HW216227   1.422   2.791   1.278
 5110SOL     OW16228   4.767   0.132   5.466
 5110SOL    HW116229   4.843   0.149   5.529
 5110SOL    HW216230   4.695   0.081   5.514
 5111SOL     OW16231   0.153   5.919   4.819
 5111SOL    HW116232   0.238   5.884   4.857
 5111SOL    HW216233   0.116   5.853   4.754
 5112SOL     OW16234   6.692   6.578   2.909
 5112SOL    HW116235   6.593   6.567   2.914
 5112SOL    HW216236   6.721   6.653   2.968
 5113SOL     OW16237   1.864   4.017   0.374
 5113SOL    HW116238   1.792   4.025   0.304
 5113SOL    HW216239   1.893   4.109   0.402
 5114SOL     OW16240   4.469   4.901   1.343
 5114SOL    HW116241   4.534   4.960   1.390
 5114SOL    HW216242   4.379   4.911   1.385
 5115SOL     OW16243   1.916   4.131   0.744
 5115SOL    HW116244   1.970   4.116   0.826
 5115SOL    HW216245   1.879   4.044   0.711
 5116SOL     OW16246   1.427   0.168   6.035
 5116SOL    HW116247   1.469   0.128   5.954
 5116SOL    HW216248   1.398   0.262   6.016
 5117SOL     OW16249   0.805   2.072   3.641
 5117SOL    HW116250   0.758   2.049   3.555
 5117SOL    HW216251   0.904   2.060   3.629
 5118SOL     OW16252   4.492   5.032   6.624
 5118SOL    HW116253   4.470   5.118   6.578
 5118SOL    HW216254   4.442   5.028   6.711
 5119SOL     OW16255   5.356   0.637   0.501
 5119SOL    HW116256   5.447   0.675   0.513
 5119SOL    HW216257   5.306   0.641   0.588
 5120SOL     OW16258   5.358   6.312   6.528
 5120SOL    HW116259   5.287   6.247   6.501
 5120SOL    HW216260   5.327   6.405   6.512
 5121SOL     OW16261   1.345   3.201   6.155
 5121SOL    HW116262   1.391   3.134   6.096
 5121SOL    HW216263   1.274   3.248   6.104
 5122SOL     OW16264   5.145   4.479   3.862
 5122SOL    HW116265   5.082   4.479   3.785
 5122SOL    HW216266   5.135   4.563   3.914
 5123SOL     OW16267   4.677   2.986   1.565
 5123SOL    HW116268   4.670   3.076   1.609
 5123SOL    HW216269   4.724   2.923   1.625
 5124SOL     OW16270   2.049   5.903   5.437
 5124SOL    HW116271   1.954   5.880   5.414
 5124SOL    HW216272   2.100   5.918   5.353
 5125SOL     OW16273   6.358   2.002   3.303
 5125SOL    HW116274   6.442   1.951   3.282
 5125SOL    HW216275   6.361   2.091   3.256
 5126SOL     OW16276   1.742   0.480   1.706
 5126SOL    HW116277   1.796   0.396   1.708
 5126SOL    HW216278   1.799   0.555   1.671
 5127SOL     OW16279   2.195   5.626   0.398
 5127SOL    HW116280   2.290   5.656   0.406
 5127SOL    HW216281   2.136   5.705   0.378
 5128SOL     OW16282   6.360   0.268   2.089
 5128SOL    HW116283   6.424   0.195   2.111
 5128SOL    HW216284   6.371   0.296   1.994
 5129SOL     OW16285   6.355   6.802   0.663
 5129SOL    HW116286   6.452   6.817   0.683
 5129SOL    HW216287   6.318   6.734   0.726
 5130SOL     OW16288   6.533   4.342   2.810
 5130SOL    HW116289   6.602   4.272   2.790
 5130SOL    HW216290   6.501   4.331   2.904
 5131SOL     OW16291   2.441   2.519   2.650
 5131SOL    HW116292   2.394   2.549   2.567
 5131SOL    HW216293   2.418   2.581   2.726
 5132SOL     OW16294   3.047   6.070   5.171
 5132SOL    HW116295   2.976   6.067   5.101
 5132SOL    HW216296   3.084   6.162   5.178
 5133SOL     OW16297   4.092   6.369   5.394
 5133SOL    HW116298   4.077   6.381   5.296
 5133SOL    HW216299   4.155   6.439   5.427
 5134SOL     OW16300   6.444   4.381   0.042
 5134SOL    HW116301   6.363   4.439   0.041
 5134SOL    HW216302   6.418   4.287   0.022
 5135SOL     OW16303   5.143   1.558   4.083
 5135SOL    HW116304   5.154   1.473   4.135
 5135SOL    HW216305   5.126   1.634   4.147
 5136SOL     OW16306   4.178   1.027   4.586
 5136SOL    HW116307   4.236   0.989   4.657
 5136SOL    HW216308   4.123   1.101   4.624
 5137SOL     OW16309   3.599   4.032   0.074
 5137SOL    HW116310   3.581   4.056   6.999
 5137SOL    HW216311   3.574   3.937   0.090
 5138SOL     OW16312   2.484   3.213   5.929
 5138SOL    HW116313   2.440   3.294   5.891
 5138SOL    HW216314   2.415   3.144   5.949
 5139SOL     OW16315   0.861   0.133   3.560
 5139SOL    HW116316   0.774   0.156   3.604
 5139SOL    HW216317   0.885   0.038   3.581
 5140SOL     OW16318   3.701   2.792   1.524
 5140SOL    HW116319   3.668   2.741   1.603
 5140SOL    HW216320   3.656   2.881   1.520
 5141SOL     OW16321   0.047   3.825   5.778
 5141SOL    HW116322   0.016   3.867   5.863
 5141SOL    HW216323   0.108   3.888   5.730
 5142SOL     OW16324   5.253   3.585   3.628
 5142SOL    HW116325   5.218   3.662   3.682
 5142SOL    HW216326   5.353   3.582   3.636
 5143SOL     OW16327   6.999   4.855   4.356
 5143SOL    HW116328   6.940   4.914   4.301
 5143SOL    HW216329   7.011   4.895   4.447
 5144SOL     OW16330   1.942   1.091   4.501
 5144SOL    HW116331   1.922   1.062   4.407
 5144SOL    HW216332   1.885   1.170   4.524
 5145SOL     OW16333   3.506   5.764   5.881
 5145SOL    HW116334   3.565   5.786   5.958
 5145SOL    HW216335   3.486   5.666   5.881
 5146SOL     OW16336   2.383   4.458   0.204
 5146SOL    HW116337   2.400   4.524   0.277
 5146SOL    HW216338   2.457   4.462   0.137
 5147SOL     OW16339   6.379   5.239   6.941
 5147SOL    HW116340   6.329   5.274   6.862
 5147SOL    HW216341   6.476   5.230   6.917
 5148SOL     OW16342   0.112   0.082   1.822
 5148SOL    HW116343   0.020   0.064   1.856
 5148SOL    HW216344   0.151   0.160   1.871
 5149SOL     OW16345   6.720   1.143   5.821
 5149SOL    HW116346   6.789   1.075   5.844
 5149SOL    HW216347   6.638   1.098   5.786
 5150SOL     OW16348   1.409   4.831   3.922
 5150SOL    HW116349   1.346   4.861   3.993
 5150SOL    HW216350   1.422   4.904   3.855
 5151SOL     OW16351   4.222   1.179   6.203
 5151SOL    HW116352   4.231   1.104   6.137
 5151SOL    HW216353   4.292   1.170   6.273
 5152SOL     OW16354   0.751   5.182   0.262
 5152SOL    HW116355   0.777   5.247   0.190
 5152SOL    HW216356   0.661   5.205   0.298
 5153SOL     OW16357   2.078   1.917   0.998
 5153SOL    HW116358   2.164   1.876   1.027
 5153SOL    HW216359   2.025   1.944   1.078
 5154SOL     OW16360   2.142   3.372   4.570
 5154SOL    HW116361   2.090   3.378   4.485
 5154SOL    HW216362   2.147   3.277   4.599
 5155SOL     OW16363   3.423   0.819   1.950
 5155SOL    HW116364   3.387   0.836   1.858
 5155SOL    HW216365   3.406   0.723   1.975
 5156SOL     OW16366   6.029   3.147   5.877
 5156SOL    HW116367   6.060   3.063   5.832
 5156SOL    HW216368   6.099   3.218   5.867
 5157SOL     OW16369   5.784   3.010   4.090
 5157SOL    HW116370   5.700   3.035   4.041
 5157SOL    HW216371   5.812   3.086   4.149
 5158SOL     OW16372   4.209   1.073   0.728
 5158SOL    HW116373   4.213   1.002   0.797
 5158SOL    HW216374   4.285   1.137   0.741
 5159SOL     OW16375   1.479   2.806   4.615
 5159SOL    HW116376   1.493   2.719   4.661
 5159SOL    HW216377   1.535   2.809   4.532
 5160SOL     OW16378   2.347   2.849   4.217
 5160SOL    HW116379   2.433   2.813   4.252
 5160SOL    HW216380   2.346   2.844   4.117
 5161SOL     OW16381   1.443   3.349   6.369
 5161SOL    HW116382   1.540   3.360   6.348
 5161SOL    HW216383   1.397   3.303   6.293
 5162SOL     OW16384   5.936   5.973   4.734
 5162SOL    HW116385   5.881   6.050   4.701
 5162SOL    HW216386   6.033   5.990   4.715
 5163SOL     OW16387   5.359   3.320   1.058
 5163SOL    HW116388   5.428   3.392   1.043
 5163SOL    HW216389   5.384   3.238   1.007
 5164SOL     OW16390   6.028   5.295   5.944
 5164SOL    HW116391   6.111   5.249   5.974
 5164SOL    HW216392   5.964   5.301   6.020
 5165SOL     OW16393   6.563   3.914   4.151
 5165SOL    HW116394   6.560   3.832   4.096
 5165SOL    HW216395   6.577   3.889   4.247
 5166SOL     OW16396   1.260   0.428   1.758
 5166SOL    HW116397   1.325   0.436   1.682
 5166SOL    HW216398   1.301   0.375   1.832
 5167SOL     OW16399   1.050   6.817   5.780
 5167SOL    HW116400   0.986   6.782   5.849
 5167SOL    HW216401   1.073   6.912   5.802
 5168SOL     OW16402   3.782   1.732   3.053
 5168SOL    HW116403   3.724   1.652   3.037
 5168SOL    HW216404   3.725   1.814   3.054
 5169SOL     OW16405   3.762   4.303   6.504
 5169SOL    HW116406   3.854   4.343   6.507
 5169SOL    HW216407   3.758   4.224   6.566
 5170SOL     OW16408   4.765   4.446   4.264
 5170SOL    HW116409   4.852   4.401   4.286
 5170SOL    HW216410   4.764   4.538   4.304
 5171SOL     OW16411   2.648   4.681   4.867
 5171SOL    HW116412   2.590   4.608   4.903
 5171SOL    HW216413   2.729   4.690   4.924
 5172SOL     OW16414   1.915   4.841   0.620
 5172SOL    HW116415   1.860   4.777   0.567
 5172SOL    HW216416   1.979   4.888   0.559
 5173SOL     OW16417   6.168   3.881   6.012
 5173SOL    HW116418   6.220   3.877   6.097
 5173SOL    HW216419   6.070   3.888   6.032
 5174SOL     OW16420   1.492   4.436   5.680
 5174SOL    HW116421   1.476   4.375   5.758
 5174SOL    HW216422   1.558   4.393   5.617
 5175SOL     OW16423   0.463   5.144   6.544
 5175SOL    HW116424   0.401   5.220   6.564
 5175SOL    HW216425   0.553   5.180   6.518
 5176SOL     OW16426   5.846   3.616   6.837
 5176SOL    HW116427   5.785   3.607   6.916
 5176SOL    HW216428   5.801   3.579   6.756
 5177SOL     OW16429   5.460   6.684   6.568
 5177SOL    HW116430   5.485   6.596   6.610
 5177SOL    HW216431   5.469   6.676   6.469
 5178SOL     OW16432   2.906   2.227   1.578
 5178SOL    HW116433   2.964   2.276   1.513
 5178SOL    HW216434   2.816   2.271   1.584
 5179SOL     OW16435   2.871   6.233   5.284
 5179SOL    HW116436   2.812   6.245   5.205
 5179SOL    HW216437   2.921   6.147   5.275
 5180SOL     OW16438   3.114   2.321   0.671
 5180SOL    HW116439   3.194   2.335   0.731
 5180SOL    HW216440   3.145   2.282   0.584
 5181SOL     OW16441   3.129   5.486   2.230
 5181SOL    HW116442   3.184   5.418   2.182
 5181SOL    HW216443   3.174   5.509   2.317
 5182SOL     OW16444   4.800   4.389   1.493
 5182SOL    HW116445   4.726   4.383   1.561
 5182SOL    HW216446   4.822   4.298   1.460
 5183SOL     OW16447   3.730   0.540   2.893
 5183SOL    HW116448   3.809   0.480   2.892
 5183SOL    HW216449   3.647   0.487   2.910
 5184SOL     OW16450   0.869   2.074   3.264
 5184SOL    HW116451   0.837   2.159   3.304
 5184SOL    HW216452   0.885   2.087   3.166
 5185SOL     OW16453   3.614   0.283   2.453
 5185SOL    HW116454   3.616   0.183   2.454
 5185SOL    HW216455   3.659   0.316   2.371
 5186SOL     OW16456   6.087   4.267   0.582
 5186SOL    HW116457   6.168   4.220   0.547
 5186SOL    HW216458   6.042   4.317   0.508
 5187SOL     OW16459   5.071   1.721   4.280
 5187SOL    HW116460   4.974   1.696   4.274
 5187SOL    HW216461   5.099   1.722   4.375
 5188SOL     OW16462   1.046   3.147   4.750
 5188SOL    HW116463   0.990   3.066   4.730
 5188SOL    HW216464   1.018   3.223   4.691
 5189SOL     OW16465   4.407   5.478   6.678
 5189SOL    HW116466   4.391   5.469   6.776
 5189SOL    HW216467   4.321   5.497   6.631
 5190SOL     OW16468   1.724   2.711   3.612
 5190SOL    HW116469   1.712   2.627   3.559
 5190SOL    HW216470   1.657   2.779   3.582
 5191SOL     OW16471   4.371   0.613   1.527
 5191SOL    HW116472   4.383   0.662   1.441
 5191SOL    HW216473   4.293   0.652   1.577
 5192SOL     OW16474   5.874   4.251   2.056
 5192SOL    HW116475   5.861   4.257   2.155
 5192SOL    HW216476   5.927   4.169   2.034
 5193SOL     OW16477   4.969   3.605   2.711
 5193SOL    HW116478   4.986   3.547   2.790
 5193SOL    HW216479   5.001   3.560   2.628
 5194SOL     OW16480   5.792   1.596   6.229
 5194SOL    HW116481   5.729   1.583   6.153
 5194SOL    HW216482   5.765   1.677   6.281
 5195SOL     OW16483   6.405   6.671   5.128
 5195SOL    HW116484   6.365   6.718   5.207
 5195SOL    HW216485   6.454   6.589   5.159
 5196SOL     OW16486   0.752   3.445   1.898
 5196SOL    HW116487   0.694   3.478   1.824
 5196SOL    HW216488   0.848   3.453   1.871
 5197SOL     OW16489   3.561   6.041   5.031
 5197SOL    HW116490   3.480   6.098   5.022
 5197SOL    HW216491   3.549   5.977   5.107
 5198SOL     OW16492   4.225   0.260   5.430
 5198SOL    HW116493   4.188   0.186   5.486
 5198SOL    HW216494   4.305   0.299   5.475
 5199SOL     OW16495   0.689   5.233   1.811
 5199SOL    HW116496   0.598   5.206   1.781
 5199SOL    HW216497   0.728   5.162   1.870
 5200SOL     OW16498   0.328   0.161   5.304
 5200SOL    HW116499   0.245   0.129   5.350
 5200SOL    HW216500   0.391   0.084   5.292
 5201SOL     OW16501   6.081   4.642   5.131
 5201SOL    HW116502   6.067   4.704   5.054
 5201SOL    HW216503   5.993   4.621   5.174
 5202SOL     OW16504   3.649   3.152   5.607
 5202SOL    HW116505   3.608   3.087   5.671
 5202SOL    HW216506   3.578   3.214   5.573
 5203SOL     OW16507   1.564   0.260   6.467
 5203SOL    HW116508   1.605   0.280   6.557
 5203SOL    HW216509   1.629   0.286   6.395
 5204SOL     OW16510   2.711   0.685   1.009
 5204SOL    HW116511   2.744   0.661   0.918
 5204SOL    HW216512   2.731   0.781   1.028
 5205SOL     OW16513   0.075   6.457   0.604
 5205SOL    HW116514   0.112   6.369   0.574
 5205SOL    HW216515   0.110   6.530   0.545
 5206SOL     OW16516   1.404   4.726   3.573
 5206SOL    HW116517   1.347   4.715   3.491
 5206SOL    HW216518   1.347   4.757   3.649
 5207SOL     OW16519   6.500   6.774   4.209
 5207SOL    HW116520   6.483   6.825   4.125
 5207SOL    HW216521   6.532   6.682   4.187
 5208SOL     OW16522   5.842   1.817   0.827
 5208SOL    HW116523   5.918   1.872   0.862
 5208SOL    HW216524   5.877   1.747   0.765
 5209SOL     OW16525   5.802   6.346   3.528
 5209SOL    HW116526   5.712   6.385   3.512
 5209SOL    HW216527   5.832   6.367   3.621
 5210SOL     OW16528   5.567   4.157   0.648
 5210SOL    HW116529   5.472   4.161   0.618
 5210SOL    HW216530   5.607   4.249   0.645
 5211SOL     OW16531   5.616   2.495   5.030
 5211SOL    HW116532   5.642   2.431   5.102
 5211SOL    HW216533   5.539   2.459   4.978
 5212SOL     OW16534   0.743   3.413   6.990
 5212SOL    HW116535   0.835   3.450   7.007
 5212SOL    HW216536   0.741   3.317   7.017
 5213SOL     OW16537   3.836   3.437   3.561
 5213SOL    HW116538   3.907   3.445   3.631
 5213SOL    HW216539   3.820   3.340   3.541
 5214SOL     OW16540   5.768   3.749   5.171
 5214SOL    HW116541   5.720   3.692   5.105
 5214SOL    HW216542   5.757   3.710   5.263
 5215SOL     OW16543   0.729   3.858   4.768
 5215SOL    HW116544   0.660   3.887   4.835
 5215SOL    HW216545   0.706   3.766   4.735
 5216SOL     OW16546   5.273   5.180   1.240
 5216SOL    HW116547   5.258   5.134   1.153
 5216SOL    HW216548   5.323   5.265   1.224
 5217SOL     OW16549   4.875   6.378   3.193
 5217SOL    HW116550   4.888   6.335   3.282
 5217SOL    HW216551   4.861   6.307   3.124
 5218SOL     OW16552   6.163   0.427   0.371
 5218SOL    HW116553   6.123   0.516   0.391
 5218SOL    HW216554   6.213   0.394   0.451
 5219SOL     OW16555   3.361   1.111   5.307
 5219SOL    HW116556   3.326   1.152   5.222
 5219SOL    HW216557   3.308   1.028   5.327
 5220SOL     OW16558   2.087   5.532   4.138
 5220SOL    HW116559   2.147   5.477   4.080
 5220SOL    HW216560   2.060   5.479   4.218
 5221SOL     OW16561   5.807   5.342   1.202
 5221SOL    HW116562   5.759   5.293   1.275
 5221SOL    HW216563   5.901   5.310   1.196
 5222SOL     OW16564   6.469   3.600   1.320
 5222SOL    HW116565   6.484   3.635   1.228
 5222SOL    HW216566   6.510   3.663   1.387
 5223SOL     OW16567   0.264   3.208   0.552
 5223SOL    HW116568   0.197   3.263   0.601
 5223SOL    HW216569   0.283   3.251   0.463
 5224SOL     OW16570   0.302   1.715   5.118
 5224SOL    HW116571   0.292   1.630   5.170
 5224SOL    HW216572   0.238   1.714   5.041
 5225SOL     OW16573   6.701   1.479   4.052
 5225SOL    HW116574   6.708   1.575   4.081
 5225SOL    HW216575   6.766   1.424   4.105
 5226SOL     OW16576   0.620   6.271   3.827
 5226SOL    HW116577   0.660   6.183   3.852
 5226SOL    HW216578   0.592   6.269   3.731
 5227SOL     OW16579   0.218   3.988   5.626
 5227SOL    HW116580   0.296   3.934   5.659
 5227SOL    HW216581   0.208   3.973   5.527
 5228SOL     OW16582   0.774   1.353   5.249
 5228SOL    HW116583   0.771   1.435   5.306
 5228SOL    HW216584   0.805   1.377   5.157
 5229SOL     OW16585   3.370   1.672   6.208
 5229SOL    HW116586   3.326   1.762   6.206
 5229SOL    HW216587   3.310   1.604   6.166
 5230SOL     OW16588   6.924   6.901   1.889
 5230SOL    HW116589   6.969   6.883   1.802
 5230SOL    HW216590   6.837   6.947   1.873
 5231SOL     OW16591   6.521   3.220   1.787
 5231SOL    HW116592   6.547   3.316   1.792
 5231SOL    HW216593   6.451   3.200   1.855
 5232SOL     OW16594   1.937   2.375   5.827
 5232SOL    HW116595   1.923   2.443   5.755
 5232SOL    HW216596   1.856   2.318   5.836
 5233SOL     OW16597   2.951   6.252   2.717
 5233SOL    HW116598   3.019   6.229   2.786
 5233SOL    HW216599   2.972   6.341   2.678
 5234SOL     OW16600   3.357   2.203   6.422
 5234SOL    HW116601   3.423   2.202   6.347
 5234SOL    HW216602   3.355   2.113   6.466
 5235SOL     OW16603   2.533   1.949   1.297
 5235SOL    HW116604   2.516   1.977   1.391
 5235SOL    HW216605   2.623   1.982   1.268
 5236SOL     OW16606   3.286   5.184   1.479
 5236SOL    HW116607   3.326   5.246   1.547
 5236SOL    HW216608   3.186   5.196   1.478
 5237SOL     OW16609   1.617   2.142   2.594
 5237SOL    HW116610   1.545   2.075   2.578
 5237SOL    HW216611   1.705   2.103   2.569
 5238SOL     OW16612   0.046   6.616   2.711
 5238SOL    HW116613   6.996   6.666   2.660
 5238SOL    HW216614   0.107   6.681   2.758
 5239SOL     OW16615   2.459   3.620   0.838
 5239SOL    HW116616   2.534   3.608   0.903
 5239SOL    HW216617   2.406   3.701   0.863
 5240SOL     OW16618   2.441   4.089   5.582
 5240SOL    HW116619   2.452   4.013   5.646
 5240SOL    HW216620   2.416   4.053   5.492
 5241SOL     OW16621   0.766   6.602   2.462
 5241SOL    HW116622   0.724   6.516   2.431
 5241SOL    HW216623   0.857   6.582   2.498
 5242SOL     OW16624   4.361   0.874   6.290
 5242SOL    HW116625   4.353   0.953   6.351
 5242SOL    HW216626   4.315   0.894   6.204
 5243SOL     OW16627   2.625   6.289   2.159
 5243SOL    HW116628   2.669   6.270   2.071
 5243SOL    HW216629   2.537   6.334   2.143
 5244SOL     OW16630   4.820   1.207   0.371
 5244SOL    HW116631   4.769   1.212   0.284
 5244SOL    HW216632   4.903   1.262   0.364
 5245SOL     OW16633   3.598   3.995   1.459
 5245SOL    HW116634   3.665   4.027   1.392
 5245SOL    HW216635   3.604   3.896   1.468
 5246SOL     OW16636   6.572   3.976   6.076
 5246SOL    HW116637   6.657   4.019   6.046
 5246SOL    HW216638   6.554   4.002   6.171
 5247SOL     OW16639   4.395   1.678   6.536
 5247SOL    HW116640   4.459   1.744   6.576
 5247SOL    HW216641   4.443   1.621   6.469
 5248SOL     OW16642   5.535   1.159   3.704
 5248SOL    HW116643   5.519   1.193   3.797
 5248SOL    HW216644   5.502   1.065   3.697
 5249SOL     OW16645   0.463   4.798   0.686
 5249SOL    HW116646   0.505   4.727   0.630
 5249SOL    HW216647   0.495   4.789   0.780
 5250SOL     OW16648   2.288   5.496   1.506
 5250SOL    HW116649   2.345   5.428   1.460
 5250SOL    HW216650   2.296   5.485   1.605
 5251SOL     OW16651   0.552   4.987   0.459
 5251SOL    HW116652   0.610   5.005   0.539
 5251SOL    HW216653   0.464   4.951   0.490
 5252SOL     OW16654   3.969   6.081   2.840
 5252SOL    HW116655   4.061   6.043   2.845
 5252SOL    HW216656   3.964   6.148   2.767
 5253SOL     OW16657   6.520   6.009   4.656
 5253SOL    HW116658   6.563   6.100   4.657
 5253SOL    HW216659   6.544   5.960   4.740
 5254SOL     OW16660   4.967   6.265   3.412
 5254SOL    HW116661   4.928   6.225   3.495
 5254SOL    HW216662   5.041   6.207   3.378
 5255SOL     OW16663   6.434   1.435   5.004
 5255SOL    HW116664   6.422   1.534   5.001
 5255SOL    HW216665   6.435   1.405   5.100
 5256SOL     OW16666   6.632   1.543   2.155
 5256SOL    HW116667   6.664   1.450   2.138
 5256SOL    HW216668   6.704   1.608   2.134
 5257SOL     OW16669   4.449   1.751   5.938
 5257SOL    HW116670   4.384   1.675   5.933
 5257SOL    HW216671   4.474   1.768   6.033
 5258SOL     OW16672   4.583   1.444   3.993
 5258SOL    HW116673   4.569   1.414   3.898
 5258SOL    HW216674   4.565   1.542   4.001
 5259SOL     OW16675   6.272   4.835   3.741
 5259SOL    HW116676   6.357   4.831   3.690
 5259SOL    HW216677   6.259   4.928   3.777
 5260SOL     OW16678   1.935   0.315   0.951
 5260SOL    HW116679   1.893   0.405   0.948
 5260SOL    HW216680   1.864   0.246   0.968
 5261SOL     OW16681   5.512   4.674   6.711
 5261SOL    HW116682   5.418   4.685   6.743
 5261SOL    HW216683   5.560   4.607   6.769
 5262SOL     OW16684   1.253   1.587   2.283
 5262SOL    HW116685   1.341   1.614   2.244
 5262SOL    HW216686   1.209   1.666   2.325
 5263SOL     OW16687   1.404   6.474   2.112
 5263SOL    HW116688   1.477   6.407   2.101
 5263SOL    HW216689   1.361   6.491   2.023
 5264SOL     OW16690   6.634   1.774   1.469
 5264SOL    HW116691   6.708   1.745   1.409
 5264SOL    HW216692   6.669   1.790   1.561
 5265SOL     OW16693   6.985   5.300   5.300
 5265SOL    HW116694   0.041   5.316   5.364
 5265SOL    HW216695   6.949   5.208   5.314
 5266SOL     OW16696   1.478   0.669   6.413
 5266SOL    HW116697   1.537   0.651   6.491
 5266SOL    HW216698   1.521   0.738   6.354
 5267SOL     OW16699   5.252   2.372   4.353
 5267SOL    HW116700   5.259   2.393   4.255
 5267SOL    HW216701   5.229   2.455   4.404
 5268SOL     OW16702   5.606   0.255   6.028
 5268SOL    HW116703   5.544   0.311   5.972
 5268SOL    HW216704   5.644   0.182   5.971
 5269SOL     OW16705   0.608   6.889   3.598
 5269SOL    HW116706   0.567   6.876   3.689
 5269SOL    HW216707   0.538   6.871   3.528
 5270SOL     OW16708   0.858   1.542   6.206
 5270SOL    HW116709   0.775   1.593   6.226
 5270SOL    HW216710   0.922   1.551   6.282
 5271SOL     OW16711   1.300   4.965   3.241
 5271SOL    HW116712   1.319   5.052   3.195
 5271SOL    HW216713   1.213   4.970   3.289
 5272SOL     OW16714   4.424   0.210   6.749
 5272SOL    HW116715   4.427   0.222   6.849
 5272SOL    HW216716   4.464   0.289   6.705
 5273SOL     OW16717   2.533   1.675   2.477
 5273SOL    HW116718   2.532   1.618   2.394
 5273SOL    HW216719   2.626   1.675   2.515
 5274SOL     OW16720   5.472   5.038   1.381
 5274SOL    HW116721   5.424   5.108   1.329
 5274SOL    HW216722   5.418   5.012   1.461
 5275SOL     OW16723   4.437   1.457   6.697
 5275SOL    HW116724   4.385   1.378   6.664
 5275SOL    HW216725   4.401   1.541   6.656
 5276SOL     OW16726   4.316   6.442   2.166
 5276SOL    HW116727   4.263   6.494   2.099
 5276SOL    HW216728   4.400   6.491   2.189
 5277SOL     OW16729   1.830   2.836   1.637
 5277SOL    HW116730   1.811   2.844   1.735
 5277SOL    HW216731   1.793   2.915   1.589
 5278SOL     OW16732   4.190   3.427   1.617
 5278SOL    HW116733   4.135   3.399   1.695
 5278SOL    HW216734   4.184   3.526   1.605
 5279SOL     OW16735   1.932   6.456   2.362
 5279SOL    HW116736   1.864   6.526   2.380
 5279SOL    HW216737   1.902   6.369   2.402
 5280SOL     OW16738   4.394   0.351   5.201
 5280SOL    HW116739   4.345   0.315   5.281
 5280SOL    HW216740   4.485   0.310   5.197
 5281SOL     OW16741   0.135   2.762   3.341
 5281SOL    HW116742   0.068   2.830   3.372
 5281SOL    HW216743   0.086   2.683   3.303
 5282SOL     OW16744   5.110   1.792   1.607
 5282SOL    HW116745   5.024   1.755   1.573
 5282SOL    HW216746   5.147   1.731   1.678
 5283SOL     OW16747   5.431   5.029   5.875
 5283SOL    HW116748   5.495   4.955   5.854
 5283SOL    HW216749   5.360   5.033   5.804
 5284SOL     OW16750   4.808   2.615   3.349
 5284SOL    HW116751   4.799   2.578   3.441
 5284SOL    HW216752   4.843   2.708   3.354
 5285SOL     OW16753   3.925   5.940   2.540
 5285SOL    HW116754   3.898   5.878   2.466
 5285SOL    HW216755   3.943   5.887   2.623
 5286SOL     OW16756   2.749   5.459   2.075
 5286SOL    HW116757   2.752   5.374   2.022
 5286SOL    HW216758   2.756   5.437   2.173
 5287SOL     OW16759   0.410   1.914   1.820
 5287SOL    HW116760   0.349   1.920   1.900
 5287SOL    HW216761   0.421   1.818   1.793
 5288SOL     OW16762   4.243   0.629   0.487
 5288SOL    HW116763   4.289   0.702   0.437
 5288SOL    HW216764   4.147   0.626   0.459
 5289SOL     OW16765   2.445   6.257   1.076
 5289SOL    HW116766   2.528   6.299   1.113
 5289SOL    HW216767   2.470   6.179   1.018
 5290SOL     OW16768   4.916   6.062   0.771
 5290SOL    HW116769   4.961   6.068   0.860
 5290SOL    HW216770   4.978   6.095   0.700
 5291SOL     OW16771   1.393   5.030   6.518
 5291SOL    HW116772   1.351   4.944   6.550
 5291SOL    HW216773   1.420   5.019   6.422
 5292SOL     OW16774   5.360   1.970   6.830
 5292SOL    HW116775   5.451   1.928   6.826
 5292SOL    HW216776   5.367   2.059   6.876
 5293SOL     OW16777   1.404   1.336   3.966
 5293SOL    HW116778   1.315   1.339   3.920
 5293SOL    HW216779   1.394   1.366   4.061
 5294SOL     OW16780   4.853   2.596   5.387
 5294SOL    HW116781   4.758   2.625   5.397
 5294SOL    HW216782   4.914   2.672   5.409
 5295SOL     OW16783   5.595   1.066   2.103
 5295SOL    HW116784   5.601   1.146   2.163
 5295SOL    HW216785   5.503   1.026   2.110
 5296SOL     OW16786   0.529   3.467   0.346
 5296SOL    HW116787   0.551   3.499   0.254
 5296SOL    HW216788   0.460   3.526   0.387
 5297SOL     OW16789   1.318   2.920   2.582
 5297SOL    HW116790   1.406   2.933   2.627
 5297SOL    HW216791   1.245   2.955   2.640
 5298SOL     OW16792   1.112   5.519   1.415
 5298SOL    HW116793   1.176   5.596   1.414
 5298SOL    HW216794   1.160   5.435   1.388
 5299SOL     OW16795   3.408   0.477   1.316
 5299SOL    HW116796   3.458   0.391   1.303
 5299SOL    HW216797   3.472   0.550   1.339
 5300SOL     OW16798   6.749   5.393   3.857
 5300SOL    HW116799   6.801   5.467   3.815
 5300SOL    HW216800   6.755   5.311   3.800
 5301SOL     OW16801   4.602   0.232   0.538
 5301SOL    HW116802   4.556   0.320   0.529
 5301SOL    HW216803   4.558   0.179   0.610
 5302SOL     OW16804   6.483   4.402   3.675
 5302SOL    HW116805   6.518   4.315   3.711
 5302SOL    HW216806   6.460   4.463   3.751
 5303SOL     OW16807   0.921   5.585   2.864
 5303SOL    HW116808   0.864   5.653   2.911
 5303SOL    HW216809   0.911   5.596   2.765
 5304SOL     OW16810   4.986   2.125   5.352
 5304SOL    HW116811   4.993   2.039   5.403
 5304SOL    HW216812   4.998   2.201   5.416
 5305SOL     OW16813   2.366   1.217   2.876
 5305SOL    HW116814   2.437   1.240   2.942
 5305SOL    HW216815   2.407   1.174   2.796
 5306SOL     OW16816   2.756   6.824   4.665
 5306SOL    HW116817   2.797   6.744   4.622
 5306SOL    HW216818   2.819   6.861   4.733
 5307SOL     OW16819   4.590   6.641   6.815
 5307SOL    HW116820   4.664   6.663   6.751
 5307SOL    HW216821   4.519   6.589   6.768
 5308SOL     OW16822   6.894   1.315   2.249
 5308SOL    HW116823   6.952   1.250   2.298
 5308SOL    HW216824   6.802   1.314   2.287
 5309SOL     OW16825   3.674   3.672   4.744
 5309SOL    HW116826   3.669   3.765   4.781
 5309SOL    HW216827   3.658   3.606   4.817
 5310SOL     OW16828   5.660   2.108   0.565
 5310SOL    HW116829   5.652   2.207   0.552
 5310SOL    HW216830   5.686   2.065   0.478
 5311SOL     OW16831   1.443   6.066   6.706
 5311SOL    HW116832   1.536   6.095   6.730
 5311SOL    HW216833   1.380   6.097   6.777
 5312SOL     OW16834   0.408   3.396   1.988
 5312SOL    HW116835   0.347   3.460   1.941
 5312SOL    HW216836   0.461   3.345   1.921
 5313SOL     OW16837   1.603   6.127   0.408
 5313SOL    HW116838   1.623   6.029   0.417
 5313SOL    HW216839   1.579   6.148   0.314
 5314SOL     OW16840   3.617   5.063   0.853
 5314SOL    HW116841   3.565   4.979   0.867
 5314SOL    HW216842   3.581   5.112   0.774
 5315SOL     OW16843   5.279   2.803   1.767
 5315SOL    HW116844   5.260   2.705   1.773
 5315SOL    HW216845   5.246   2.849   1.850
 5316SOL     OW16846   5.928   5.253   4.391
 5316SOL    HW116847   5.883   5.201   4.464
 5316SOL    HW216848   5.868   5.259   4.312
 5317SOL     OW16849   6.087   5.432   3.022
 5317SOL    HW116850   6.182   5.458   3.000
 5317SOL    HW216851   6.054   5.490   3.096
 5318SOL     OW16852   0.654   2.060   4.550
 5318SOL    HW116853   0.679   2.152   4.579
 5318SOL    HW216854   0.577   2.027   4.605
 5319SOL     OW16855   3.532   0.122   1.425
 5319SOL    HW116856   3.578   0.110   1.513
 5319SOL    HW216857   3.500   0.033   1.392
 5320SOL     OW16858   6.341   4.066   5.413
 5320SOL    HW116859   6.406   4.142   5.419
 5320SOL    HW216860   6.259   4.089   5.464
 5321SOL     OW16861   1.796   5.059   6.236
 5321SOL    HW116862   1.697   5.054   6.228
 5321SOL    HW216863   1.824   5.153   6.253
 5322SOL     OW16864   2.391   5.852   0.938
 5322SOL    HW116865   2.440   5.779   0.986
 5322SOL    HW216866   2.294   5.849   0.961
 5323SOL     OW16867   5.832   3.609   0.524
 5323SOL    HW116868   5.745   3.596   0.476
 5323SOL    HW216869   5.906   3.566   0.471
 5324SOL     OW16870   4.332   3.278   1.391
 5324SOL    HW116871   4.331   3.372   1.423
 5324SOL    HW216872   4.381   3.220   1.457
 5325SOL     OW16873   4.692   6.207   4.594
 5325SOL    HW116874   4.778   6.229   4.639
 5325SOL    HW216875   4.677   6.108   4.595
 5326SOL     OW16876   0.131   0.302   2.668
 5326SOL    HW116877   0.176   0.392   2.675
 5326SOL    HW216878   0.055   0.298   2.733
 5327SOL     OW16879   6.914   0.063   4.330
 5327SOL    HW116880   6.921   0.161   4.316
 5327SOL    HW216881   6.887   0.044   4.425
 5328SOL     OW16882   3.869   4.818   0.390
 5328SOL    HW116883   3.955   4.853   0.428
 5328SOL    HW216884   3.806   4.797   0.464
 5329SOL     OW16885   0.003   6.060   0.309
 5329SOL    HW116886   0.055   6.073   0.393
 5329SOL    HW216887   6.986   5.967   0.306
 5330SOL     OW16888   3.253   4.388   0.293
 5330SOL    HW116889   3.154   4.376   0.297
 5330SOL    HW216890   3.297   4.310   0.338
 5331SOL     OW16891   5.116   2.320   6.675
 5331SOL    HW116892   5.187   2.342   6.742
 5331SOL    HW216893   5.039   2.277   6.722
 5332SOL     OW16894   5.274   3.145   6.947
 5332SOL    HW116895   5.370   3.126   6.925
 5332SOL    HW216896   5.228   3.060   6.971
 5333SOL     OW16897   2.118   1.753   4.656
 5333SOL    HW116898   2.100   1.849   4.677
 5333SOL    HW216899   2.068   1.727   4.573
 5334SOL     OW16900   3.059   6.149   1.347
 5334SOL    HW116901   3.141   6.098   1.372
 5334SOL    HW216902   3.081   6.216   1.276
 5335SOL     OW16903   0.419   5.180   1.720
 5335SOL    HW116904   0.402   5.092   1.674
 5335SOL    HW216905   0.419   5.253   1.653
 5336SOL     OW16906   1.835   3.185   5.291
 5336SOL    HW116907   1.758   3.228   5.243
 5336SOL    HW216908   1.878   3.252   5.351
 5337SOL     OW16909   0.204   4.303   0.820
 5337SOL    HW116910   0.276   4.263   0.763
 5337SOL    HW216911   0.183   4.395   0.787
 5338SOL     OW16912   6.619   3.953   0.500
 5338SOL    HW116913   6.556   3.990   0.431
 5338SOL    HW216914   6.576   3.876   0.546
 5339SOL     OW16915   5.587   3.218   2.286
 5339SOL    HW116916   5.615   3.130   2.248
 5339SOL    HW216917   5.606   3.291   2.219
 5340SOL     OW16918   4.470   3.426   1.641
 5340SOL    HW116919   4.379   3.385   1.642
 5340SOL    HW216920   4.531   3.374   1.701
 5341SOL     OW16921   4.861   4.673   3.398
 5341SOL    HW116922   4.918   4.591   3.388
 5341SOL    HW216923   4.822   4.676   3.490
 5342SOL     OW16924   6.066   5.783   5.171
 5342SOL    HW116925   5.998   5.793   5.098
 5342SOL    HW216926   6.042   5.840   5.249
 5343SOL     OW16927   3.847   3.345   6.348
 5343SOL    HW116928   3.772   3.408   6.334
 5343SOL    HW216929   3.846   3.312   6.442
 5344SOL     OW16930   7.011   1.553   6.958
 5344SOL    HW116931   6.945   1.557   0.013
 5344SOL    HW216932   0.050   1.633   6.962
 5345SOL     OW16933   5.014   1.114   6.578
 5345SOL    HW116934   4.970   1.026   6.596
 5345SOL    HW216935   5.058   1.112   6.488
 5346SOL     OW16936   3.094   5.557   2.769
 5346SOL    HW116937   3.173   5.616   2.785
 5346SOL    HW216938   3.032   5.562   2.848
 5347SOL     OW16939   5.181   1.329   4.251
 5347SOL    HW116940   5.227   1.248   4.286
 5347SOL    HW216941   5.094   1.341   4.299
 5348SOL     OW16942   5.036   2.725   5.180
 5348SOL    HW116943   5.050   2.821   5.156
 5348SOL    HW216944   5.023   2.671   5.097
 5349SOL     OW16945   0.821   3.773   1.905
 5349SOL    HW116946   0.726   3.742   1.907
 5349SOL    HW216947   0.861   3.754   1.816
 5350SOL     OW16948   1.128   6.761   6.991
 5350SOL    HW116949   1.179   6.733   6.910
 5350SOL    HW216950   1.158   6.851   0.001
 5351SOL     OW16951   6.609   5.907   3.101
 5351SOL    HW116952   6.575   5.947   3.186
 5351SOL    HW216953   6.706   5.930   3.090
 5352SOL     OW16954   1.601   3.142   5.968
 5352SOL    HW116955   1.638   3.086   6.042
 5352SOL    HW216956   1.524   3.095   5.925
 5353SOL     OW16957   3.940   4.863   3.512
 5353SOL    HW116958   4.003   4.933   3.544
 5353SOL    HW216959   3.848   4.902   3.504
 5354SOL     OW16960   3.607   5.733   1.212
 5354SOL    HW116961   3.605   5.651   1.154
 5354SOL    HW216962   3.674   5.721   1.285
 5355SOL     OW16963   4.950   5.671   5.160
 5355SOL    HW116964   5.047   5.650   5.173
 5355SOL    HW216965   4.908   5.598   5.105
 5356SOL     OW16966   1.070   6.499   0.829
 5356SOL    HW116967   1.131   6.557   0.884
 5356SOL    HW216968   0.977   6.508   0.864
 5357SOL     OW16969   6.731   3.821   2.693
 5357SOL    HW116970   6.681   3.758   2.752
 5357SOL    HW216971   6.668   3.865   2.629
 5358SOL     OW16972   5.473   1.155   6.319
 5358SOL    HW116973   5.552   1.104   6.355
 5358SOL    HW216974   5.501   1.249   6.300
 5359SOL     OW16975   3.228   2.411   6.954
 5359SOL    HW116976   3.327   2.395   6.958
 5359SOL    HW216977   3.205   2.454   6.867
 5360SOL     OW16978   5.202   5.563   4.151
 5360SOL    HW116979   5.146   5.610   4.219
 5360SOL    HW216980   5.299   5.577   4.171
 5361SOL     OW16981   1.479   4.785   3.132
 5361SOL    HW116982   1.503   4.821   3.041
 5361SOL    HW216983   1.426   4.854   3.181
 5362SOL     OW16984   5.961   1.579   2.813
 5362SOL    HW116985   5.959   1.491   2.767
 5362SOL    HW216986   6.040   1.583   2.874
 5363SOL     OW16987   5.385   5.639   3.385
 5363SOL    HW116988   5.389   5.633   3.285
 5363SOL    HW216989   5.428   5.557   3.424
 5364SOL     OW16990   4.202   2.265   2.504
 5364SOL    HW116991   4.112   2.304   2.487
 5364SOL    HW216992   4.215   2.254   2.603
 5365SOL     OW16993   2.864   3.711   4.960
 5365SOL    HW116994   2.786   3.648   4.958
 5365SOL    HW216995   2.949   3.659   4.964
 5366SOL     OW16996   6.521   6.191   3.133
 5366SOL    HW116997   6.516   6.138   3.218
 5366SOL    HW216998   6.447   6.164   3.072
 5367SOL     OW16999   6.114   6.028   1.330
 5367SOL    HW117000   6.166   5.981   1.259
 5367SOL    HW217001   6.016   6.025   1.308
 5368SOL     OW17002   0.188   6.338   4.585
 5368SOL    HW117003   0.157   6.262   4.528
 5368SOL    HW217004   0.244   6.303   4.660
 5369SOL     OW17005   4.228   5.950   2.902
 5369SOL    HW117006   4.264   5.858   2.914
 5369SOL    HW217007   4.299   6.010   2.865
 5370SOL     OW17008   1.738   2.914   0.327
 5370SOL    HW117009   1.733   3.011   0.306
 5370SOL    HW217010   1.714   2.860   0.246
 5371SOL     OW17011   6.078   5.639   4.798
 5371SOL    HW117012   6.019   5.621   4.719
 5371SOL    HW217013   6.173   5.642   4.769
 5372SOL     OW17014   1.837   6.869   3.265
 5372SOL    HW117015   1.829   6.969   3.271
 5372SOL    HW217016   1.899   6.836   3.336
 5373SOL     OW17017   2.499   1.156   6.389
 5373SOL    HW117018   2.425   1.182   6.451
 5373SOL    HW217019   2.462   1.146   6.296
 5374SOL     OW17020   1.141   4.004   1.201
 5374SOL    HW117021   1.087   4.054   1.269
 5374SOL    HW217022   1.238   4.025   1.214
 5375SOL     OW17023   2.473   4.381   5.194
 5375SOL    HW117024   2.515   4.308   5.247
 5375SOL    HW217025   2.488   4.468   5.240
 5376SOL     OW17026   1.204   0.007   0.108
 5376SOL    HW117027   1.139   6.986   0.171
 5376SOL    HW217028   1.154   0.060   0.039
 5377SOL     OW17029   1.439   1.869   2.965
 5377SOL    HW117030   1.417   1.825   2.878
 5377SOL    HW217031   1.381   1.832   3.037
 5378SOL     OW17032   4.523   6.541   2.487
 5378SOL    HW117033   4.569   6.476   2.549
 5378SOL    HW217034   4.592   6.590   2.434
 5379SOL     OW17035   1.794   2.108   3.726
 5379SOL    HW117036   1.865   2.086   3.659
 5379SOL    HW217037   1.724   2.035   3.726
 5380SOL     OW17038   4.529   5.887   1.523
 5380SOL    HW117039   4.589   5.900   1.444
 5380SOL    HW217040   4.499   5.792   1.527
 5381SOL     OW17041   3.457   1.145   3.330
 5381SOL    HW117042   3.435   1.137   3.233
 5381SOL    HW217043   3.532   1.211   3.342
 5382SOL     OW17044   4.052   0.958   2.982
 5382SOL    HW117045   3.980   0.903   2.939
 5382SOL    HW217046   4.140   0.935   2.941
 5383SOL     OW17047   2.153   3.139   4.718
 5383SOL    HW117048   2.181   3.156   4.812
 5383SOL    HW217049   2.187   3.050   4.688
 5384SOL     OW17050   5.326   5.934   6.006
 5384SOL    HW117051   5.272   5.967   6.084
 5384SOL    HW217052   5.268   5.879   5.946
 5385SOL     OW17053   4.277   3.487   6.906
 5385SOL    HW117054   4.271   3.423   6.983
 5385SOL    HW217055   4.215   3.458   6.833
 5386SOL     OW17056   4.830   4.841   4.709
 5386SOL    HW117057   4.910   4.804   4.661
 5386SOL    HW217058   4.777   4.765   4.748
 5387SOL     OW17059   0.977   2.162   4.461
 5387SOL    HW117060   0.903   2.171   4.394
 5387SOL    HW217061   0.948   2.103   4.536
 5388SOL     OW17062   6.739   6.611   4.197
 5388SOL    HW117063   6.815   6.675   4.196
 5388SOL    HW217064   6.768   6.523   4.158
 5389SOL     OW17065   5.390   1.113   4.283
 5389SOL    HW117066   5.425   1.023   4.309
 5389SOL    HW217067   5.464   1.169   4.247
 5390SOL     OW17068   6.414   3.715   3.269
 5390SOL    HW117069   6.493   3.765   3.303
 5390SOL    HW217070   6.438   3.620   3.254
 5391SOL     OW17071   3.366   2.757   1.417
 5391SOL    HW117072   3.307   2.677   1.404
 5391SOL    HW217073   3.423   2.744   1.498
 5392SOL     OW17074   5.258   0.680   4.510
 5392SOL    HW117075   5.331   0.746   4.528
 5392SOL    HW217076   5.169   0.725   4.519
 5393SOL     OW17077   4.208   1.397   4.156
 5393SOL    HW117078   4.264   1.315   4.148
 5393SOL    HW217079   4.114   1.370   4.177
 5394SOL     OW17080   0.085   2.881   1.695
 5394SOL    HW117081   7.010   2.861   1.671
 5394SOL    HW217082   0.091   2.906   1.791
 5395SOL     OW17083   0.554   1.524   0.637
 5395SOL    HW117084   0.599   1.436   0.652
 5395SOL    HW217085   0.508   1.524   0.548
 5396SOL     OW17086   3.577   3.168   0.953
 5396SOL    HW117087   3.620   3.086   0.988
 5396SOL    HW217088   3.570   3.162   0.853
 5397SOL     OW17089   6.393   0.307   2.587
 5397SOL    HW117090   6.370   0.379   2.522
 5397SOL    HW217091   6.360   0.219   2.552
 5398SOL     OW17092   6.792   2.772   3.225
 5398SOL    HW117093   6.745   2.715   3.292
 5398SOL    HW217094   6.751   2.863   3.223
 5399SOL     OW17095   2.057   3.283   1.136
 5399SOL    HW117096   2.066   3.383   1.138
 5399SOL    HW217097   2.011   3.256   1.051
 5400SOL     OW17098   4.286   3.054   1.216
 5400SOL    HW117099   4.322   2.974   1.264
 5400SOL    HW217100   4.286   3.133   1.277
 5401SOL     OW17101   5.154   3.047   1.195
 5401SOL    HW117102   5.073   3.033   1.252
 5401SOL    HW217103   5.206   3.126   1.229
 5402SOL     OW17104   0.921   6.213   2.187
 5402SOL    HW117105   0.984   6.290   2.178
 5402SOL    HW217106   0.923   6.180   2.281
 5403SOL     OW17107   4.740   2.119   6.325
 5403SOL    HW117108   4.730   2.218   6.317
 5403SOL    HW217109   4.666   2.083   6.382
 5404SOL     OW17110   5.106   6.880   0.299
 5404SOL    HW117111   5.203   6.903   0.306
 5404SOL    HW217112   5.052   6.963   0.288
 5405SOL     OW17113   0.491   4.983   0.031
 5405SOL    HW117114   0.498   5.054   0.101
 5405SOL    HW217115   0.428   4.912   0.061
 5406SOL     OW17116   2.948   1.138   5.631
 5406SOL    HW117117   2.985   1.157   5.722
 5406SOL    HW217118   3.010   1.175   5.562
 5407SOL     OW17119   1.244   6.176   3.669
 5407SOL    HW117120   1.221   6.080   3.682
 5407SOL    HW217121   1.161   6.231   3.674
 5408SOL     OW17122   2.713   1.952   4.397
 5408SOL    HW117123   2.713   1.876   4.461
 5408SOL    HW217124   2.638   2.014   4.419
 5409SOL     OW17125   0.692   2.580   2.427
 5409SOL    HW117126   0.627   2.539   2.491
 5409SOL    HW217127   0.649   2.658   2.381
 5410SOL     OW17128   6.724   2.566   0.576
 5410SOL    HW117129   6.807   2.523   0.541
 5410SOL    HW217130   6.728   2.571   0.676
 5411SOL     OW17131   3.397   5.237   0.609
 5411SOL    HW117132   3.417   5.280   0.697
 5411SOL    HW217133   3.351   5.304   0.550
 5412SOL     OW17134   1.346   2.327   5.265
 5412SOL    HW117135   1.313   2.383   5.190
 5412SOL    HW217136   1.276   2.261   5.290
 5413SOL     OW17137   0.726   5.111   4.963
 5413SOL    HW117138   0.816   5.075   4.938
 5413SOL    HW217139   0.657   5.039   4.949
 5414SOL     OW17140   5.753   4.279   5.647
 5414SOL    HW117141   5.726   4.222   5.569
 5414SOL    HW217142   5.675   4.290   5.708
 5415SOL     OW17143   2.318   1.483   0.014
 5415SOL    HW117144   2.390   1.499   6.966
 5415SOL    HW217145   2.359   1.476   0.105
 5416SOL     OW17146   3.462   5.812   6.873
 5416SOL    HW117147   3.479   5.893   6.930
 5416SOL    HW217148   3.440   5.841   6.780
 5417SOL     OW17149   5.314   0.294   3.495
 5417SOL    HW117150   5.280   0.290   3.401
 5417SOL    HW217151   5.413   0.307   3.494
 5418SOL     OW17152   0.097   3.353   6.054
 5418SOL    HW117153   0.109   3.450   6.077
 5418SOL    HW217154   0.162   3.298   6.106
 5419SOL     OW17155   4.005   2.039   6.574
 5419SOL    HW117156   3.906   2.041   6.562
 5419SOL    HW217157   4.041   1.950   6.545
 5420SOL     OW17158   1.219   2.170   2.070
 5420SOL    HW117159   1.153   2.178   1.995
 5420SOL    HW217160   1.199   2.239   2.140
 5421SOL     OW17161   3.762   5.547   1.986
 5421SOL    HW117162   3.745   5.637   1.946
 5421SOL    HW217163   3.861   5.536   2.001
 5422SOL     OW17164   2.593   5.102   3.825
 5422SOL    HW117165   2.559   5.008   3.822
 5422SOL    HW217166   2.597   5.139   3.732
 5423SOL     OW17167   5.050   0.130   1.428
 5423SOL    HW117168   5.133   0.140   1.373
 5423SOL    HW217169   4.974   0.175   1.382
 5424SOL     OW17170   4.341   4.018   5.323
 5424SOL    HW117171   4.322   3.927   5.285
 5424SOL    HW217172   4.297   4.027   5.412
 5425SOL     OW17173   1.374   4.872   6.266
 5425SOL    HW117174   1.283   4.873   6.225
 5425SOL    HW217175   1.421   4.788   6.242
 5426SOL     OW17176   6.697   4.956   1.657
 5426SOL    HW117177   6.724   4.864   1.683
 5426SOL    HW217178   6.615   4.983   1.707
 5427SOL     OW17179   4.662   3.109   0.273
 5427SOL    HW117180   4.745   3.066   0.308
 5427SOL    HW217181   4.586   3.090   0.334
 5428SOL     OW17182   5.124   4.965   3.421
 5428SOL    HW117183   5.153   4.870   3.407
 5428SOL    HW217184   5.026   4.973   3.400
 5429SOL     OW17185   2.810   0.083   4.267
 5429SOL    HW117186   2.904   0.099   4.238
 5429SOL    HW217187   2.758   0.045   4.190
 5430SOL     OW17188   1.894   3.555   5.657
 5430SOL    HW117189   1.893   3.482   5.726
 5430SOL    HW217190   1.989   3.574   5.630
 5431SOL     OW17191   4.841   4.552   6.985
 5431SOL    HW117192   4.766   4.491   7.012
 5431SOL    HW217193   4.804   4.643   6.966
 5432SOL     OW17194   0.525   5.476   6.349
 5432SOL    HW117195   0.577   5.395   6.376
 5432SOL    HW217196   0.460   5.451   6.277
 5433SOL     OW17197   3.825   0.106   1.107
 5433SOL    HW117198   3.919   0.139   1.093
 5433SOL    HW217199   3.765   0.148   1.040
 5434SOL     OW17200   4.903   6.935   4.093
 5434SOL    HW117201   4.979   6.972   4.041
 5434SOL    HW217202   4.931   6.921   4.188
 5435SOL     OW17203   0.238   5.317   7.018
 5435SOL    HW117204   0.231   5.264   0.082
 5435SOL    HW217205   0.240   5.415   0.020
 5436SOL     OW17206   1.786   4.855   2.257
 5436SOL    HW117207   1.738   4.943   2.264
 5436SOL    HW217208   1.884   4.869   2.274
 5437SOL     OW17209   3.450   6.389   1.099
 5437SOL    HW117210   3.422   6.398   1.004
 5437SOL    HW217211   3.405   6.459   1.154
 5438SOL     OW17212   3.915   6.425   1.749
 5438SOL    HW117213   3.927   6.359   1.824
 5438SOL    HW217214   3.916   6.518   1.786
 5439SOL     OW17215   1.307   4.102   0.912
 5439SOL    HW117216   1.228   4.128   0.968
 5439SOL    HW217217   1.288   4.017   0.864
 5440SOL     OW17218   5.502   6.941   3.606
 5440SOL    HW117219   5.432   6.901   3.546
 5440SOL    HW217220   5.460   6.973   3.690
 5441SOL     OW17221   5.724   2.159   4.592
 5441SOL    HW117222   5.642   2.147   4.536
 5441SOL    HW217223   5.801   2.113   4.548
 5442SOL     OW17224   2.853   0.499   6.616
 5442SOL    HW117225   2.800   0.579   6.587
 5442SOL    HW217226   2.821   0.468   6.706
 5443SOL     OW17227   5.895   1.014   3.188
 5443SOL    HW117228   5.847   1.071   3.121
 5443SOL    HW217229   5.974   0.971   3.144
 5444SOL     OW17230   0.209   1.404   6.383
 5444SOL    HW117231   0.299   1.445   6.368
 5444SOL    HW217232   0.198   1.383   6.480
 5445SOL     OW17233   5.730   6.386   5.345
 5445SOL    HW117234   5.735   6.287   5.354
 5445SOL    HW217235   5.686   6.424   5.427
 5446SOL     OW17236   0.822   4.289   5.554
 5446SOL    HW117237   0.792   4.376   5.516
 5446SOL    HW217238   0.864   4.234   5.482
 5447SOL     OW17239   6.759   1.877   1.695
 5447SOL    HW117240   6.857   1.874   1.710
 5447SOL    HW217241   6.728   1.972   1.697
 5448SOL     OW17242   5.615   5.393   2.378
 5448SOL    HW117243   5.676   5.332   2.428
 5448SOL    HW217244   5.626   5.487   2.410
 5449SOL     OW17245   1.890   0.709   1.563
 5449SOL    HW117246   1.985   0.713   1.592
 5449SOL    HW217247   1.862   0.798   1.526
 5450SOL     OW17248   4.797   5.598   2.242
 5450SOL    HW117249   4.837   5.604   2.334
 5450SOL    HW217250   4.829   5.675   2.187
 5451SOL     OW17251   6.284   6.761   3.415
 5451SOL    HW117252   6.278   6.674   3.463
 5451SOL    HW217253   6.193   6.788   3.384
 5452SOL     OW17254   1.994   4.147   2.923
 5452SOL    HW117255   2.040   4.110   2.842
 5452SOL    HW217256   1.993   4.247   2.917
 5453SOL     OW17257   6.582   4.238   4.440
 5453SOL    HW117258   6.554   4.301   4.513
 5453SOL    HW217259   6.682   4.241   4.431
 5454SOL     OW17260   6.217   4.205   2.841
 5454SOL    HW117261   6.215   4.253   2.928
 5454SOL    HW217262   6.124   4.200   2.803
 5455SOL     OW17263   2.624   2.009   3.417
 5455SOL    HW117264   2.597   1.959   3.334
 5455SOL    HW217265   2.621   1.947   3.495
 5456SOL     OW17266   6.030   2.610   0.379
 5456SOL    HW117267   6.112   2.664   0.396
 5456SOL    HW217268   6.044   2.516   0.412
 5457SOL     OW17269   6.194   1.168   6.707
 5457SOL    HW117270   6.249   1.214   6.637
 5457SOL    HW217271   6.119   1.228   6.735
 5458SOL     OW17272   5.079   4.159   6.675
 5458SOL    HW117273   5.032   4.247   6.663
 5458SOL    HW217274   5.082   4.111   6.587
 5459SOL     OW17275   2.228   3.125   5.014
 5459SOL    HW117276   2.318   3.081   5.006
 5459SOL    HW217277   2.159   3.056   5.034
 5460SOL     OW17278   0.577   0.670   1.491
 5460SOL    HW117279   0.519   0.598   1.453
 5460SOL    HW217280   0.628   0.715   1.417
 5461SOL     OW17281   5.979   1.366   6.251
 5461SOL    HW117282   5.992   1.352   6.153
 5461SOL    HW217283   5.913   1.439   6.266
 5462SOL     OW17284   5.109   4.874   5.852
 5462SOL    HW117285   5.195   4.832   5.823
 5462SOL    HW217286   5.095   4.961   5.804
 5463SOL     OW17287   1.002   3.966   5.699
 5463SOL    HW117288   1.002   4.007   5.608
 5463SOL    HW217289   0.909   3.968   5.736
 5464SOL     OW17290   1.934   5.221   4.573
 5464SOL    HW117291   1.908   5.179   4.660
 5464SOL    HW217292   1.962   5.150   4.508
 5465SOL     OW17293   0.850   0.129   5.115
 5465SOL    HW117294   0.909   0.076   5.054
 5465SOL    HW217295   0.777   0.172   5.061
 5466SOL     OW17296   5.537   1.425   4.540
 5466SOL    HW117297   5.440   1.412   4.561
 5466SOL    HW217298   5.576   1.338   4.508
 5467SOL     OW17299   4.974   3.249   4.472
 5467SOL    HW117300   5.033   3.319   4.433
 5467SOL    HW217301   4.954   3.271   4.567
 5468SOL     OW17302   6.847   2.099   1.413
 5468SOL    HW117303   6.845   2.076   1.315
 5468SOL    HW217304   6.758   2.135   1.440
 5469SOL     OW17305   3.546   0.900   4.555
 5469SOL    HW117306   3.587   0.986   4.525
 5469SOL    HW217307   3.455   0.918   4.593
 5470SOL     OW17308   4.558   5.262   4.261
 5470SOL    HW117309   4.584   5.235   4.354
 5470SOL    HW217310   4.634   5.312   4.219
 5471SOL     OW17311   5.015   0.614   2.628
 5471SOL    HW117312   5.054   0.618   2.720
 5471SOL    HW217313   4.916   0.626   2.633
 5472SOL     OW17314   2.683   3.420   0.327
 5472SOL    HW117315   2.675   3.497   0.265
 5472SOL    HW217316   2.779   3.402   0.347
 5473SOL     OW17317   3.159   5.165   1.816
 5473SOL    HW117318   3.097   5.178   1.739
 5473SOL    HW217319   3.183   5.068   1.823
 5474SOL     OW17320   1.425   4.888   2.159
 5474SOL    HW117321   1.414   4.964   2.223
 5474SOL    HW217322   1.336   4.863   2.120
 5475SOL     OW17323   1.143   0.943   5.041
 5475SOL    HW117324   1.083   0.988   4.975
 5475SOL    HW217325   1.148   0.997   5.125
 5476SOL     OW17326   2.009   6.887   5.255
 5476SOL    HW117327   1.910   6.889   5.267
 5476SOL    HW217328   2.031   6.883   5.158
 5477SOL     OW17329   2.151   3.472   3.810
 5477SOL    HW117330   2.121   3.450   3.717
 5477SOL    HW217331   2.132   3.568   3.830
 5478SOL     OW17332   5.352   4.664   5.811
 5478SOL    HW117333   5.347   4.640   5.908
 5478SOL    HW217334   5.447   4.677   5.785
 5479SOL     OW17335   5.284   1.982   4.290
 5479SOL    HW117336   5.274   2.051   4.219
 5479SOL    HW217337   5.305   1.893   4.248
 5480SOL     OW17338   1.523   3.247   4.342
 5480SOL    HW117339   1.452   3.315   4.357
 5480SOL    HW217340   1.484   3.168   4.294
 5481SOL     OW17341   4.119   1.640   6.516
 5481SOL    HW117342   4.101   1.653   6.419
 5481SOL    HW217343   4.216   1.657   6.535
 5482SOL     OW17344   5.565   3.471   2.130
 5482SOL    HW117345   5.476   3.501   2.164
 5482SOL    HW217346   5.638   3.518   2.179
 5483SOL     OW17347   6.947   2.901   0.041
 5483SOL    HW117348   6.925   2.987   7.015
 5483SOL    HW217349   6.878   2.832   0.018
 5484SOL     OW17350   6.237   6.725   4.891
 5484SOL    HW117351   6.280   6.797   4.836
 5484SOL    HW217352   6.277   6.725   4.983
 5485SOL     OW17353   3.699   0.036   4.707
 5485SOL    HW117354   3.769   0.071   4.644
 5485SOL    HW217355   3.679   6.960   4.684
 5486SOL     OW17356   0.847   0.700   4.034
 5486SOL    HW117357   0.802   0.692   3.945
 5486SOL    HW217358   0.922   0.767   4.028
 5487SOL     OW17359   4.419   5.441   0.853
 5487SOL    HW117360   4.447   5.366   0.913
 5487SOL    HW217361   4.384   5.517   0.908
 5488SOL     OW17362   5.038   1.116   5.767
 5488SOL    HW117363   4.951   1.147   5.804
 5488SOL    HW217364   5.071   1.182   5.699
 5489SOL     OW17365   6.552   4.246   3.059
 5489SOL    HW117366   6.571   4.148   3.059
 5489SOL    HW217367   6.497   4.269   3.139
 5490SOL     OW17368   2.261   2.519   6.878
 5490SOL    HW117369   2.215   2.547   6.962
 5490SOL    HW217370   2.360   2.513   6.895
 5491SOL     OW17371   0.342   5.939   1.513
 5491SOL    HW117372   0.292   5.927   1.598
 5491SOL    HW217373   0.277   5.943   1.437
 5492SOL     OW17374   1.904   0.957   4.885
 5492SOL    HW117375   1.813   0.957   4.926
 5492SOL    HW217376   1.933   1.051   4.868
 5493SOL     OW17377   3.203   2.936   6.945
 5493SOL    HW117378   3.148   2.883   6.881
 5493SOL    HW217379   3.144   2.979   7.013
 5494SOL     OW17380   6.067   2.730   2.230
 5494SOL    HW117381   6.018   2.659   2.179
 5494SOL    HW217382   6.019   2.750   2.315
 5495SOL     OW17383   3.335   2.928   3.052
 5495SOL    HW117384   3.371   2.884   2.970
 5495SOL    HW217385   3.235   2.925   3.052
 5496SOL     OW17386   3.494   5.200   1.305
 5496SOL    HW117387   3.410   5.183   1.357
 5496SOL    HW217388   3.564   5.238   1.366
 5497SOL     OW17389   6.233   0.032   1.778
 5497SOL    HW117390   6.210   0.056   1.684
 5497SOL    HW217391   6.243   0.116   1.832
 5498SOL     OW17392   4.497   6.968   5.115
 5498SOL    HW117393   4.443   7.014   5.045
 5498SOL    HW217394   4.535   0.015   5.178
 5499SOL     OW17395   0.032   1.333   4.969
 5499SOL    HW117396   0.111   1.392   4.954
 5499SOL    HW217397   6.979   1.386   5.012
 5500SOL     OW17398   2.029   5.536   1.360
 5500SOL    HW117399   2.108   5.492   1.403
 5500SOL    HW217400   2.014   5.497   1.269
 5501SOL     OW17401   1.969   0.246   2.944
 5501SOL    HW117402   2.040   0.315   2.936
 5501SOL    HW217403   2.005   0.157   2.914
 5502SOL     OW17404   4.612   3.589   0.371
 5502SOL    HW117405   4.663   3.504   0.359
 5502SOL    HW217406   4.632   3.651   0.295
 5503SOL     OW17407   0.697   6.320   4.557
 5503SOL    HW117408   0.758   6.329   4.635
 5503SOL    HW217409   0.664   6.226   4.551
 5504SOL     OW17410   3.458   2.148   4.332
 5504SOL    HW117411   3.516   2.089   4.276
 5504SOL    HW217412   3.378   2.177   4.279
 5505SOL     OW17413   3.422   4.531   6.194
 5505SOL    HW117414   3.396   4.478   6.275
 5505SOL    HW217415   3.389   4.485   6.112
 5506SOL     OW17416   0.172   0.037   5.497
 5506SOL    HW117417   0.087   0.063   5.542
 5506SOL    HW217418   0.198   6.964   5.525
 5507SOL     OW17419   3.486   5.724   4.343
 5507SOL    HW117420   3.459   5.635   4.381
 5507SOL    HW217421   3.494   5.790   4.418
 5508SOL     OW17422   2.837   0.278   5.984
 5508SOL    HW117423   2.851   0.331   6.068
 5508SOL    HW217424   2.739   0.264   5.970
 5509SOL     OW17425   6.257   6.172   6.986
 5509SOL    HW117426   6.199   6.094   6.964
 5509SOL    HW217427   6.200   6.251   7.007
 5510SOL     OW17428   5.475   0.363   6.240
 5510SOL    HW117429   5.518   0.333   6.155
 5510SOL    HW217430   5.529   0.436   6.282
 5511SOL     OW17431   0.027   1.659   1.921
 5511SOL    HW117432   0.121   1.685   1.940
 5511SOL    HW217433   0.007   1.668   1.824
 5512SOL     OW17434   0.690   0.239   1.048
 5512SOL    HW117435   0.632   0.170   1.004
 5512SOL    HW217436   0.651   0.262   1.137
 5513SOL     OW17437   3.659   5.197   4.736
 5513SOL    HW117438   3.643   5.107   4.695
 5513SOL    HW217439   3.642   5.193   4.834
 5514SOL     OW17440   6.231   5.616   3.684
 5514SOL    HW117441   6.287   5.597   3.603
 5514SOL    HW217442   6.145   5.657   3.655
 5515SOL     OW17443   6.608   3.022   2.664
 5515SOL    HW117444   6.666   3.017   2.583
 5515SOL    HW217445   6.569   3.114   2.672
 5516SOL     OW17446   1.241   3.557   5.918
 5516SOL    HW117447   1.221   3.485   5.985
 5516SOL    HW217448   1.160   3.615   5.907
 5517SOL     OW17449   2.119   1.540   1.910
 5517SOL    HW117450   2.122   1.454   1.961
 5517SOL    HW217451   2.034   1.588   1.931
 5518SOL     OW17452   5.827   4.924   5.239
 5518SOL    HW117453   5.822   4.829   5.269
 5518SOL    HW217454   5.762   4.979   5.293
 5519SOL     OW17455   5.291   3.523   3.360
 5519SOL    HW117456   5.270   3.546   3.455
 5519SOL    HW217457   5.249   3.435   3.337
 5520SOL     OW17458   1.609   3.196   1.148
 5520SOL    HW117459   1.532   3.197   1.212
 5520SOL    HW217460   1.693   3.216   1.198
 5521SOL     OW17461   4.795   5.665   1.549
 5521SOL    HW117462   4.698   5.655   1.527
 5521SOL    HW217463   4.829   5.581   1.590
 5522SOL     OW17464   1.984   3.391   2.412
 5522SOL    HW117465   2.019   3.434   2.328
 5522SOL    HW217466   2.015   3.296   2.415
 5523SOL     OW17467   3.475   0.757   1.182
 5523SOL    HW117468   3.514   0.749   1.274
 5523SOL    HW217469   3.431   0.846   1.172
 5524SOL     OW17470   6.520   5.875   6.262
 5524SOL    HW117471   6.597   5.825   6.221
 5524SOL    HW217472   6.522   5.864   6.361
 5525SOL     OW17473   6.711   5.757   4.481
 5525SOL    HW117474   6.677   5.818   4.554
 5525SOL    HW217475   6.648   5.760   4.404
 5526SOL     OW17476   5.384   2.752   5.199
 5526SOL    HW117477   5.333   2.790   5.121
 5526SOL    HW217478   5.352   2.659   5.217
 5527SOL     OW17479   2.152   3.551   1.193
 5527SOL    HW117480   2.247   3.526   1.174
 5527SOL    HW217481   2.140   3.649   1.175
 5528SOL     OW17482   0.364   3.462   2.927
 5528SOL    HW117483   0.356   3.365   2.951
 5528SOL    HW217484   0.360   3.517   3.010
 5529SOL     OW17485   2.076   1.214   5.185
 5529SOL    HW117486   2.145   1.214   5.257
 5529SOL    HW217487   1.987   1.238   5.224
 5530SOL     OW17488   0.881   3.075   0.931
 5530SOL    HW117489   0.891   3.012   0.854
 5530SOL    HW217490   0.971   3.096   0.969
 5531SOL     OW17491   2.314   2.683   5.827
 5531SOL    HW117492   2.365   2.720   5.904
 5531SOL    HW217493   2.228   2.732   5.818
 5532SOL     OW17494   2.730   2.031   0.902
 5532SOL    HW117495   2.786   2.112   0.885
 5532SOL    HW217496   2.744   1.999   0.995
 5533SOL     OW17497   4.022   6.976   0.636
 5533SOL    HW117498   4.105   6.923   0.614
 5533SOL    HW217499   4.047   0.053   0.646
 5534SOL     OW17500   0.063   4.592   5.673
 5534SOL    HW117501   0.078   4.521   5.742
 5534SOL    HW217502   7.012   4.562   5.610
 5535SOL     OW17503   5.693   3.451   3.568
 5535SOL    HW117504   5.652   3.451   3.477
 5535SOL    HW217505   5.778   3.398   3.567
 5536SOL     OW17506   1.834   0.643   3.440
 5536SOL    HW117507   1.813   0.574   3.510
 5536SOL    HW217508   1.763   0.713   3.440
 5537SOL     OW17509   4.378   1.271   4.894
 5537SOL    HW117510   4.291   1.223   4.894
 5537SOL    HW217511   4.375   1.346   4.828
 5538SOL     OW17512   5.698   2.249   1.024
 5538SOL    HW117513   5.607   2.290   1.027
 5538SOL    HW217514   5.705   2.189   0.944
 5539SOL     OW17515   3.311   6.458   6.988
 5539SOL    HW117516   3.289   6.467   0.065
 5539SOL    HW217517   3.276   6.370   6.954
 5540SOL     OW17518   5.080   0.427   6.922
 5540SOL    HW117519   5.156   0.460   6.866
 5540SOL    HW217520   5.099   0.446   7.018
 5541SOL     OW17521   4.568   3.855   6.233
 5541SOL    HW117522   4.492   3.790   6.224
 5541SOL    HW217523   4.650   3.807   6.265
 5542SOL     OW17524   4.605   4.861   0.190
 5542SOL    HW117525   4.598   4.780   0.132
 5542SOL    HW217526   4.601   4.834   0.286
 5543SOL     OW17527   2.036   0.031   0.382
 5543SOL    HW117528   1.988   0.091   0.445
 5543SOL    HW217529   1.982   6.968   0.367
 5544SOL     OW17530   3.762   5.630   6.269
 5544SOL    HW117531   3.819   5.586   6.339
 5544SOL    HW217532   3.801   5.613   6.179
 5545SOL     OW17533   4.505   0.738   3.088
 5545SOL    HW117534   4.598   0.754   3.121
 5545SOL    HW217535   4.450   0.819   3.105
 5546SOL     OW17536   0.315   5.093   4.584
 5546SOL    HW117537   0.246   5.156   4.618
 5546SOL    HW217538   0.405   5.136   4.587
 5547SOL     OW17539   5.272   1.272   4.796
 5547SOL    HW117540   5.284   1.322   4.882
 5547SOL    HW217541   5.280   1.335   4.719
 5548SOL     OW17542   0.372   3.984   4.614
 5548SOL    HW117543   0.325   4.038   4.684
 5548SOL    HW217544   0.342   3.889   4.621
 5549SOL     OW17545   4.498   3.041   0.477
 5549SOL    HW117546   4.508   3.059   0.575
 5549SOL    HW217547   4.494   2.942   0.461
 5550SOL     OW17548   2.155   4.216   1.846
 5550SOL    HW117549   2.056   4.215   1.840
 5550SOL    HW217550   2.185   4.285   1.911
 5551SOL     OW17551   1.750   5.514   3.540
 5551SOL    HW117552   1.804   5.470   3.469
 5551SOL    HW217553   1.723   5.445   3.608
 5552SOL     OW17554   0.429   6.619   6.874
 5552SOL    HW117555   0.483   6.535   6.866
 5552SOL    HW217556   0.482   6.696   6.840
 5553SOL     OW17557   4.933   0.083   6.977
 5553SOL    HW117558   4.912   0.174   6.939
 5553SOL    HW217559   4.926   0.015   6.904
 5554SOL     OW17560   5.776   2.311   1.664
 5554SOL    HW117561   5.683   2.304   1.628
 5554SOL    HW217562   5.810   2.220   1.684
 5555SOL     OW17563   1.680   4.868   2.581
 5555SOL    HW117564   1.713   4.779   2.612
 5555SOL    HW217565   1.648   4.920   2.660
 5556SOL     OW17566   0.158   1.068   4.561
 5556SOL    HW117567   0.082   1.082   4.624
 5556SOL    HW217568   0.170   0.970   4.544
 5557SOL     OW17569   3.156   5.977   2.717
 5557SOL    HW117570   3.057   5.967   2.707
 5557SOL    HW217571   3.195   5.894   2.756
 5558SOL     OW17572   4.330   4.633   6.983
 5558SOL    HW117573   4.419   4.662   6.949
 5558SOL    HW217574   4.325   4.650   0.062
 5559SOL     OW17575   2.505   0.459   2.612
 5559SOL    HW117576   2.443   0.509   2.552
 5559SOL    HW217577   2.569   0.406   2.558
 5560SOL     OW17578   0.732   6.388   2.932
 5560SOL    HW117579   0.660   6.391   2.862
 5560SOL    HW217580   0.791   6.468   2.922
 5561SOL     OW17581   3.700   6.735   3.413
 5561SOL    HW117582   3.706   6.701   3.319
 5561SOL    HW217583   3.643   6.817   3.415
 5562SOL     OW17584   3.984   4.431   0.856
 5562SOL    HW117585   3.906   4.402   0.912
 5562SOL    HW217586   4.068   4.389   0.890
 5563SOL     OW17587   2.436   4.762   2.725
 5563SOL    HW117588   2.457   4.667   2.748
 5563SOL    HW217589   2.378   4.801   2.796
 5564SOL     OW17590   5.288   0.583   5.908
 5564SOL    HW117591   5.272   0.652   5.978
 5564SOL    HW217592   5.371   0.532   5.931
 5565SOL     OW17593   3.494   2.213   6.175
 5565SOL    HW117594   3.475   2.311   6.188
 5565SOL    HW217595   3.418   2.171   6.126
 5566SOL     OW17596   1.397   3.758   6.535
 5566SOL    HW117597   1.427   3.758   6.439
 5566SOL    HW217598   1.455   3.820   6.588
 5567SOL     OW17599   0.184   4.298   1.467
 5567SOL    HW117600   0.130   4.329   1.389
 5567SOL    HW217601   0.250   4.369   1.492
 5568SOL     OW17602   4.079   5.684   1.442
 5568SOL    HW117603   4.042   5.740   1.516
 5568SOL    HW217604   4.074   5.734   1.356
 5569SOL     OW17605   2.162   3.081   3.765
 5569SOL    HW117606   2.093   3.027   3.815
 5569SOL    HW217607   2.120   3.163   3.728
 5570SOL     OW17608   0.563   3.788   2.812
 5570SOL    HW117609   0.636   3.757   2.873
 5570SOL    HW217610   0.475   3.767   2.853
 5571SOL     OW17611   6.046   4.970   1.938
 5571SOL    HW117612   5.986   5.045   1.909
 5571SOL    HW217613   6.044   4.897   1.871
 5572SOL     OW17614   1.663   4.132   5.101
 5572SOL    HW117615   1.734   4.199   5.077
 5572SOL    HW217616   1.704   4.042   5.114
 5573SOL     OW17617   2.689   5.146   3.523
 5573SOL    HW117618   2.737   5.066   3.487
 5573SOL    HW217619   2.591   5.138   3.501
 5574SOL     OW17620   1.006   2.755   6.647
 5574SOL    HW117621   1.029   2.666   6.608
 5574SOL    HW217622   0.907   2.762   6.658
 5575SOL     OW17623   0.299   0.057   1.620
 5575SOL    HW117624   0.254   0.102   1.543
 5575SOL    HW217625   0.231   0.029   1.688
 5576SOL     OW17626   1.828   4.680   3.393
 5576SOL    HW117627   1.789   4.767   3.363
 5576SOL    HW217628   1.910   4.697   3.447
 5577SOL     OW17629   1.877   2.864   5.747
 5577SOL    HW117630   1.891   2.962   5.733
 5577SOL    HW217631   1.953   2.826   5.799
 5578SOL     OW17632   3.807   3.747   3.537
 5578SOL    HW117633   3.752   3.700   3.606
 5578SOL    HW217634   3.758   3.748   3.450
 5579SOL     OW17635   0.322   3.522   1.405
 5579SOL    HW117636   0.266   3.553   1.328
 5579SOL    HW217637   0.412   3.565   1.400
 5580SOL     OW17638   5.156   2.048   5.126
 5580SOL    HW117639   5.121   2.047   5.033
 5580SOL    HW217640   5.083   2.073   5.190
 5581SOL     OW17641   1.187   1.884   6.616
 5581SOL    HW117642   1.087   1.890   6.618
 5581SOL    HW217643   1.218   1.877   6.522
 5582SOL     OW17644   2.615   2.579   6.187
 5582SOL    HW117645   2.622   2.649   6.116
 5582SOL    HW217646   2.521   2.548   6.195
 5583SOL     OW17647   5.418   0.804   2.309
 5583SOL    HW117648   5.369   0.748   2.376
 5583SOL    HW217649   5.466   0.744   2.244
 5584SOL     OW17650   0.827   3.449   4.908
 5584SOL    HW117651   0.885   3.508   4.852
 5584SOL    HW217652   0.788   3.377   4.850
 5585SOL     OW17653   4.633   4.674   2.251
 5585SOL    HW117654   4.607   4.726   2.333
 5585SOL    HW217655   4.619   4.731   2.170
 5586SOL     OW17656   6.785   3.130   6.953
 5586SOL    HW117657   6.723   3.094   0.004
 5586SOL    HW217658   6.738   3.200   6.900
 5587SOL     OW17659   5.841   0.607   6.165
 5587SOL    HW117660   5.894   0.637   6.086
 5587SOL    HW217661   5.843   0.507   6.171
 5588SOL     OW17662   3.344   6.689   1.614
 5588SOL    HW117663   3.379   6.692   1.708
 5588SOL    HW217664   3.383   6.764   1.561
 5589SOL     OW17665   6.118   4.977   6.219
 5589SOL    HW117666   6.055   4.918   6.169
 5589SOL    HW217667   6.173   4.922   6.282
 5590SOL     OW17668   5.867   5.840   4.054
 5590SOL    HW117669   5.882   5.742   4.065
 5590SOL    HW217670   5.819   5.876   4.134
 5591SOL     OW17671   6.047   1.259   1.261
 5591SOL    HW117672   6.045   1.194   1.337
 5591SOL    HW217673   5.987   1.228   1.188
 5592SOL     OW17674   0.869   4.155   3.078
 5592SOL    HW117675   0.867   4.068   3.028
 5592SOL    HW217676   0.859   4.230   3.013
 5593SOL     OW17677   0.264   2.849   0.362
 5593SOL    HW117678   0.298   2.886   0.449
 5593SOL    HW217679   0.177   2.803   0.377
 5594SOL     OW17680   5.819   2.621   5.724
 5594SOL    HW117681   5.881   2.543   5.737
 5594SOL    HW217682   5.860   2.685   5.658
 5595SOL     OW17683   1.052   2.376   5.612
 5595SOL    HW117684   1.087   2.434   5.686
 5595SOL    HW217685   1.012   2.434   5.540
 5596SOL     OW17686   4.068   6.655   3.125
 5596SOL    HW117687   3.977   6.637   3.090
 5596SOL    HW217688   4.118   6.568   3.135
 5597SOL     OW17689   5.181   3.308   3.240
 5597SOL    HW117690   5.090   3.326   3.277
 5597SOL    HW217691   5.191   3.209   3.224
 5598SOL     OW17692   5.687   2.163   5.396
 5598SOL    HW117693   5.682   2.206   5.305
 5598SOL    HW217694   5.598   2.170   5.441
 5599SOL     OW17695   0.397   1.567   3.872
 5599SOL    HW117696   0.320   1.536   3.817
 5599SOL    HW217697   0.391   1.527   3.963
 5600SOL     OW17698   1.375   2.361   4.105
 5600SOL    HW117699   1.387   2.351   4.006
 5600SOL    HW217700   1.405   2.278   4.152
 5601SOL     OW17701   2.702   0.774   5.550
 5601SOL    HW117702   2.700   0.680   5.585
 5601SOL    HW217703   2.741   0.834   5.619
 5602SOL     OW17704   1.380   1.992   0.695
 5602SOL    HW117705   1.304   1.932   0.718
 5602SOL    HW217706   1.354   2.087   0.710
 5603SOL     OW17707   6.507   2.669   6.756
 5603SOL    HW117708   6.530   2.668   6.854
 5603SOL    HW217709   6.439   2.740   6.740
 5604SOL     OW17710   6.549   1.942   5.947
 5604SOL    HW117711   6.528   1.949   5.850
 5604SOL    HW217712   6.526   2.029   5.993
 5605SOL     OW17713   0.501   2.197   4.910
 5605SOL    HW117714   0.477   2.225   4.817
 5605SOL    HW217715   0.560   2.266   4.952
 5606SOL     OW17716   4.646   6.992   1.759
 5606SOL    HW117717   4.714   0.018   1.702
 5606SOL    HW217718   4.623   0.031   1.836
 5607SOL     OW17719   5.760   1.013   1.675
 5607SOL    HW117720   5.841   1.006   1.733
 5607SOL    HW217721   5.685   1.054   1.727
 5608SOL     OW17722   3.884   6.520   5.046
 5608SOL    HW117723   3.930   6.432   5.056
 5608SOL    HW217724   3.931   6.590   5.100
 5609SOL     OW17725   2.795   6.281   5.997
 5609SOL    HW117726   2.804   6.184   6.021
 5609SOL    HW217727   2.782   6.335   6.080
 5610SOL     OW17728   4.718   0.601   6.564
 5610SOL    HW117729   4.776   0.596   6.645
 5610SOL    HW217730   4.775   0.601   6.482
 5611SOL     OW17731   1.573   5.160   3.299
 5611SOL    HW117732   1.556   5.079   3.356
 5611SOL    HW217733   1.485   5.198   3.269
 5612SOL     OW17734   2.542   6.829   5.303
 5612SOL    HW117735   2.482   6.828   5.223
 5612SOL    HW217736   2.596   6.745   5.305
 5613SOL     OW17737   4.062   4.892   1.787
 5613SOL    HW117738   4.034   4.881   1.882
 5613SOL    HW217739   4.160   4.874   1.778
 5614SOL     OW17740   4.627   2.050   3.017
 5614SOL    HW117741   4.613   2.010   2.926
 5614SOL    HW217742   4.646   1.977   3.083
 5615SOL     OW17743   1.440   1.229   1.351
 5615SOL    HW117744   1.384   1.306   1.322
 5615SOL    HW217745   1.525   1.229   1.300
 5616SOL     OW17746   2.281   0.911   4.533
 5616SOL    HW117747   2.201   0.924   4.475
 5616SOL    HW217748   2.266   0.831   4.592
 5617SOL     OW17749   2.001   0.834   5.124
 5617SOL    HW117750   2.004   0.892   5.042
 5617SOL    HW217751   2.086   0.782   5.130
 5618SOL     OW17752   0.193   4.243   3.246
 5618SOL    HW117753   0.140   4.169   3.204
 5618SOL    HW217754   0.182   4.326   3.192
 5619SOL     OW17755   2.271   3.632   5.310
 5619SOL    HW117756   2.253   3.536   5.289
 5619SOL    HW217757   2.195   3.688   5.276
 5620SOL     OW17758   3.640   1.799   6.210
 5620SOL    HW117759   3.640   1.822   6.113
 5620SOL    HW217760   3.556   1.750   6.232
 5621SOL     OW17761   2.411   2.534   5.614
 5621SOL    HW117762   2.387   2.584   5.698
 5621SOL    HW217763   2.488   2.474   5.633
 5622SOL     OW17764   6.289   0.371   5.962
 5622SOL    HW117765   6.285   0.283   6.009
 5622SOL    HW217766   6.341   0.361   5.877
 5623SOL     OW17767   0.953   6.052   0.393
 5623SOL    HW117768   1.012   6.128   0.365
 5623SOL    HW217769   0.997   5.966   0.368
 5624SOL     OW17770   0.660   4.239   3.628
 5624SOL    HW117771   0.708   4.155   3.605
 5624SOL    HW217772   0.566   4.217   3.655
 5625SOL     OW17773   6.504   2.626   4.971
 5625SOL    HW117774   6.458   2.561   5.032
 5625SOL    HW217775   6.603   2.621   4.985
 5626SOL     OW17776   3.987   0.136   4.589
 5626SOL    HW117777   4.048   0.093   4.523
 5626SOL    HW217778   4.039   0.165   4.669
 5627SOL     OW17779   1.485   6.352   1.068
 5627SOL    HW117780   1.465   6.443   1.104
 5627SOL    HW217781   1.404   6.294   1.076
 5628SOL     OW17782   1.879   1.448   4.430
 5628SOL    HW117783   1.811   1.426   4.500
 5628SOL    HW217784   1.897   1.546   4.431
 5629SOL     OW17785   3.346   3.501   2.819
 5629SOL    HW117786   3.255   3.543   2.819
 5629SOL    HW217787   3.345   3.417   2.873
 5630SOL     OW17788   0.740   4.544   1.629
 5630SOL    HW117789   0.829   4.512   1.663
 5630SOL    HW217790   0.693   4.469   1.582
 5631SOL     OW17791   4.597   0.912   0.270
 5631SOL    HW117792   4.679   0.900   0.326
 5631SOL    HW217793   4.617   0.973   0.194
 5632SOL     OW17794   3.975   3.773   0.007
 5632SOL    HW117795   3.937   3.828   0.081
 5632SOL    HW217796   4.074   3.764   0.020
 5633SOL     OW17797   6.119   2.544   4.517
 5633SOL    HW117798   6.190   2.505   4.459
 5633SOL    HW217799   6.030   2.536   4.471
 5634SOL     OW17800   3.854   5.859   4.618
 5634SOL    HW117801   3.822   5.783   4.562
 5634SOL    HW217802   3.778   5.897   4.671
 5635SOL     OW17803   3.227   2.165   4.815
 5635SOL    HW117804   3.132   2.133   4.808
 5635SOL    HW217805   3.237   2.220   4.898
 5636SOL     OW17806   3.766   5.625   3.671
 5636SOL    HW117807   3.697   5.605   3.741
 5636SOL    HW217808   3.814   5.709   3.696
 5637SOL     OW17809   5.603   0.639   3.404
 5637SOL    HW117810   5.583   0.586   3.322
 5637SOL    HW217811   5.532   0.623   3.472
 5638SOL     OW17812   5.536   3.410   6.342
 5638SOL    HW117813   5.568   3.473   6.270
 5638SOL    HW217814   5.605   3.341   6.359
 5639SOL     OW17815   2.381   1.463   6.126
 5639SOL    HW117816   2.299   1.429   6.081
 5639SOL    HW217817   2.462   1.423   6.083
 5640SOL     OW17818   2.221   0.320   3.387
 5640SOL    HW117819   2.180   0.379   3.456
 5640SOL    HW217820   2.173   0.232   3.385
 5641SOL     OW17821   5.953   5.447   5.012
 5641SOL    HW117822   5.988   5.527   4.964
 5641SOL    HW217823   5.859   5.428   4.982
 5642SOL     OW17824   1.442   1.699   6.280
 5642SOL    HW117825   1.447   1.600   6.284
 5642SOL    HW217826   1.362   1.727   6.227
 5643SOL     OW17827   5.546   2.687   4.670
 5643SOL    HW117828   5.598   2.612   4.629
 5643SOL    HW217829   5.528   2.665   4.766
 5644SOL     OW17830   3.675   0.303   6.407
 5644SOL    HW117831   3.612   0.381   6.405
 5644SOL    HW217832   3.667   0.252   6.321
 5645SOL     OW17833   5.426   2.415   4.832
 5645SOL    HW117834   5.384   2.335   4.789
 5645SOL    HW217835   5.356   2.485   4.847
 5646SOL     OW17836   1.714   4.625   2.735
 5646SOL    HW117837   1.625   4.646   2.776
 5646SOL    HW217838   1.771   4.577   2.802
 5647SOL     OW17839   6.751   5.912   2.633
 5647SOL    HW117840   6.850   5.920   2.621
 5647SOL    HW217841   6.715   5.848   2.564
 5648SOL     OW17842   4.396   6.713   3.050
 5648SOL    HW117843   4.378   6.721   3.148
 5648SOL    HW217844   4.376   6.800   3.005
 5649SOL     OW17845   0.920   6.272   4.010
 5649SOL    HW117846   0.875   6.330   3.942
 5649SOL    HW217847   1.007   6.314   4.037
 5650SOL     OW17848   6.689   4.482   0.167
 5650SOL    HW117849   6.757   4.487   0.094
 5650SOL    HW217850   6.604   4.443   0.131
 5651SOL     OW17851   1.999   0.692   2.164
 5651SOL    HW117852   2.043   0.606   2.138
 5651SOL    HW217853   1.904   0.691   2.132
 5652SOL     OW17854   1.252   6.030   1.507
 5652SOL    HW117855   1.317   6.022   1.583
 5652SOL    HW217856   1.159   6.031   1.543
 5653SOL     OW17857   6.845   6.704   1.016
 5653SOL    HW117858   6.750   6.678   1.036
 5653SOL    HW217859   6.882   6.641   0.948
 5654SOL     OW17860   3.116   5.802   4.476
 5654SOL    HW117861   3.100   5.787   4.379
 5654SOL    HW217862   3.160   5.721   4.515
 5655SOL     OW17863   6.123   3.034   4.790
 5655SOL    HW117864   6.147   2.945   4.752
 5655SOL    HW217865   6.024   3.038   4.807
 5656SOL     OW17866   0.338   3.265   0.275
 5656SOL    HW117867   0.369   3.175   0.246
 5656SOL    HW217868   0.417   3.325   0.290
 5657SOL     OW17869   4.725   5.643   5.580
 5657SOL    HW117870   4.814   5.652   5.535
 5657SOL    HW217871   4.702   5.730   5.624
 5658SOL     OW17872   2.610   2.973   5.853
 5658SOL    HW117873   2.517   2.970   5.816
 5658SOL    HW217874   2.621   3.054   5.911
 5659SOL     OW17875   3.734   4.086   6.682
 5659SOL    HW117876   3.724   3.992   6.648
 5659SOL    HW217877   3.798   4.087   6.759
 5660SOL     OW17878   4.254   0.953   6.058
 5660SOL    HW117879   4.316   0.952   5.979
 5660SOL    HW217880   4.166   0.914   6.032
 5661SOL     OW17881   1.121   5.432   5.251
 5661SOL    HW117882   1.184   5.422   5.328
 5661SOL    HW217883   1.110   5.344   5.205
 5662SOL     OW17884   2.718   6.470   2.333
 5662SOL    HW117885   2.685   6.393   2.279
 5662SOL    HW217886   2.818   6.469   2.335
 5663SOL     OW17887   0.968   2.941   6.288
 5663SOL    HW117888   1.026   2.994   6.350
 5663SOL    HW217889   0.872   2.966   6.302
 5664SOL     OW17890   4.823   4.472   4.680
 5664SOL    HW117891   4.814   4.528   4.762
 5664SOL    HW217892   4.734   4.465   4.635
 5665SOL     OW17893   2.038   2.332   0.807
 5665SOL    HW117894   1.983   2.252   0.784
 5665SOL    HW217895   2.091   2.315   0.889
 5666SOL     OW17896   5.440   1.497   5.053
 5666SOL    HW117897   5.348   1.507   5.017
 5666SOL    HW217898   5.504   1.549   4.996
 5667SOL     OW17899   2.513   5.210   4.078
 5667SOL    HW117900   2.544   5.190   3.985
 5667SOL    HW217901   2.518   5.127   4.134
 5668SOL     OW17902   4.979   2.942   3.502
 5668SOL    HW117903   5.047   3.003   3.541
 5668SOL    HW217904   5.010   2.847   3.510
 5669SOL     OW17905   6.425   4.394   6.426
 5669SOL    HW117906   6.520   4.391   6.394
 5669SOL    HW217907   6.370   4.331   6.371
 5670SOL     OW17908   0.197   1.925   2.968
 5670SOL    HW117909   0.114   1.981   2.960
 5670SOL    HW217910   0.190   1.846   2.907
 5671SOL     OW17911   0.041   6.524   3.285
 5671SOL    HW117912   7.001   6.604   3.277
 5671SOL    HW217913   0.022   6.476   3.371
 5672SOL     OW17914   4.851   2.893   5.541
 5672SOL    HW117915   4.844   2.916   5.638
 5672SOL    HW217916   4.897   2.967   5.492
 5673SOL     OW17917   0.378   1.038   0.814
 5673SOL    HW117918   0.465   1.009   0.776
 5673SOL    HW217919   0.390   1.068   0.908
 5674SOL     OW17920   2.206   4.924   5.756
 5674SOL    HW117921   2.118   4.940   5.711
 5674SOL    HW217922   2.268   4.878   5.694
 5675SOL     OW17923   3.141   2.072   0.973
 5675SOL    HW117924   3.123   1.975   0.987
 5675SOL    HW217925   3.228   2.083   0.924
 5676SOL     OW17926   2.664   1.952   2.129
 5676SOL    HW117927   2.737   1.883   2.125
 5676SOL    HW217928   2.635   1.975   2.036
 5677SOL     OW17929   6.557   1.321   0.818
 5677SOL    HW117930   6.621   1.265   0.765
 5677SOL    HW217931   6.498   1.260   0.873
 5678SOL     OW17932   3.220   2.111   1.957
 5678SOL    HW117933   3.150   2.105   1.886
 5678SOL    HW217934   3.176   2.105   2.047
 5679SOL     OW17935   6.226   3.597   5.119
 5679SOL    HW117936   6.292   3.583   5.192
 5679SOL    HW217937   6.163   3.671   5.145
 5680SOL     OW17938   1.451   5.914   5.281
 5680SOL    HW117939   1.539   5.885   5.318
 5680SOL    HW217940   1.377   5.880   5.340
 5681SOL     OW17941   1.113   3.686   4.333
 5681SOL    HW117942   1.136   3.608   4.276
 5681SOL    HW217943   1.130   3.771   4.283
 5682SOL     OW17944   1.934   4.410   2.174
 5682SOL    HW117945   1.962   4.427   2.268
 5682SOL    HW217946   1.836   4.389   2.172
 5683SOL     OW17947   7.018   1.471   6.126
 5683SOL    HW117948   6.970   1.549   6.165
 5683SOL    HW217949   0.050   1.424   6.197
 5684SOL     OW17950   1.896   2.364   4.934
 5684SOL    HW117951   1.898   2.442   4.997
 5684SOL    HW217952   1.989   2.334   4.915
 5685SOL     OW17953   2.280   1.981   2.706
 5685SOL    HW117954   2.264   1.890   2.667
 5685SOL    HW217955   2.373   2.011   2.683
 5686SOL     OW17956   3.617   5.361   6.032
 5686SOL    HW117957   3.560   5.416   5.971
 5686SOL    HW217958   3.615   5.265   6.003
 5687SOL     OW17959   2.222   6.442   6.810
 5687SOL    HW117960   2.234   6.409   6.904
 5687SOL    HW217961   2.139   6.403   6.771
 5688SOL     OW17962   2.202   2.286   3.217
 5688SOL    HW117963   2.213   2.191   3.187
 5688SOL    HW217964   2.265   2.345   3.166
 5689SOL     OW17965   0.597   2.853   1.442
 5689SOL    HW117966   0.676   2.913   1.431
 5689SOL    HW217967   0.520   2.906   1.479
 5690SOL     OW17968   1.931   5.262   0.433
 5690SOL    HW117969   1.988   5.180   0.443
 5690SOL    HW217970   1.895   5.288   0.522
 5691SOL     OW17971   3.686   1.151   2.490
 5691SOL    HW117972   3.736   1.198   2.417
 5691SOL    HW217973   3.589   1.144   2.464
 5692SOL     OW17974   4.557   4.902   1.662
 5692SOL    HW117975   4.622   4.850   1.606
 5692SOL    HW217976   4.600   4.986   1.694
 5693SOL     OW17977   4.502   0.800   1.104
 5693SOL    HW117978   4.573   0.807   1.174
 5693SOL    HW217979   4.418   0.764   1.145
 5694SOL     OW17980   0.873   6.230   1.513
 5694SOL    HW117981   0.921   6.142   1.515
 5694SOL    HW217982   0.893   6.282   1.596
 5695SOL     OW17983   2.182   0.296   1.063
 5695SOL    HW117984   2.171   0.289   1.162
 5695SOL    HW217985   2.092   0.291   1.019
 5696SOL     OW17986   1.744   0.361   4.000
 5696SOL    HW117987   1.681   0.286   3.985
 5696SOL    HW217988   1.693   0.444   4.024
 5697SOL     OW17989   6.631   2.970   0.501
 5697SOL    HW117990   6.622   2.884   0.450
 5697SOL    HW217991   6.674   3.039   0.443
 5698SOL     OW17992   2.782   2.290   3.813
 5698SOL    HW117993   2.745   2.373   3.857
 5698SOL    HW217994   2.729   2.271   3.730
 5699SOL     OW17995   1.958   2.832   2.834
 5699SOL    HW117996   1.927   2.845   2.740
 5699SOL    HW217997   1.910   2.897   2.893
 5700SOL     OW17998   6.112   0.385   3.017
 5700SOL    HW117999   6.119   0.318   2.943
 5700SOL    HW218000   6.099   0.476   2.977
 5701SOL     OW18001   0.376   1.099   1.217
 5701SOL    HW118002   0.341   1.018   1.171
 5701SOL    HW218003   0.474   1.088   1.235
 5702SOL     OW18004   2.470   6.733   4.464
 5702SOL    HW118005   2.509   6.822   4.443
 5702SOL    HW218006   2.440   6.688   4.380
 5703SOL     OW18007   6.975   2.873   6.323
 5703SOL    HW118008   6.950   2.871   6.419
 5703SOL    HW218009   0.054   2.880   6.313
 5704SOL     OW18010   4.438   5.014   4.168
 5704SOL    HW118011   4.381   5.046   4.092
 5704SOL    HW218012   4.483   5.092   4.211
 5705SOL     OW18013   6.107   6.953   5.206
 5705SOL    HW118014   6.038   6.993   5.267
 5705SOL    HW218015   6.104   7.000   5.117
 5706SOL     OW18016   5.177   1.845   6.999
 5706SOL    HW118017   5.194   1.913   0.050
 5706SOL    HW218018   5.244   1.856   6.926
 5707SOL     OW18019   5.028   5.788   2.402
 5707SOL    HW118020   4.965   5.819   2.331
 5707SOL    HW218021   4.989   5.709   2.449
 5708SOL     OW18022   4.403   5.722   2.846
 5708SOL    HW118023   4.493   5.756   2.818
 5708SOL    HW218024   4.367   5.661   2.776
 5709SOL     OW18025   0.149   1.713   2.208
 5709SOL    HW118026   0.080   1.651   2.244
 5709SOL    HW218027   0.222   1.725   2.276
 5710SOL     OW18028   3.591   1.915   1.381
 5710SOL    HW118029   3.588   1.899   1.479
 5710SOL    HW218030   3.618   2.010   1.363
 5711SOL     OW18031   5.269   1.776   2.371
 5711SOL    HW118032   5.236   1.721   2.448
 5711SOL    HW218033   5.359   1.744   2.343
 5712SOL     OW18034   6.044   0.213   1.229
 5712SOL    HW118035   6.035   0.310   1.250
 5712SOL    HW218036   5.972   0.186   1.164
 5713SOL     OW18037   2.405   0.414   0.704
 5713SOL    HW118038   2.368   0.432   0.795
 5713SOL    HW218039   2.487   0.358   0.712
 5714SOL     OW18040   6.265   0.020   0.917
 5714SOL    HW118041   6.317   7.012   0.837
 5714SOL    HW218042   6.283   0.116   0.938
 5715SOL     OW18043   0.160   0.482   1.449
 5715SOL    HW118044   0.143   0.570   1.492
 5715SOL    HW218045   0.156   0.410   1.519
 5716SOL     OW18046   6.624   5.140   5.081
 5716SOL    HW118047   6.528   5.117   5.098
 5716SOL    HW218048   6.659   5.198   5.154
 5717SOL     OW18049   1.349   5.276   3.180
 5717SOL    HW118050   1.306   5.347   3.236
 5717SOL    HW218051   1.327   5.293   3.083
 5718SOL     OW18052   0.835   3.128   0.156
 5718SOL    HW118053   0.850   3.198   0.226
 5718SOL    HW218054   0.922   3.086   0.131
 5719SOL     OW18055   2.097   3.258   0.804
 5719SOL    HW118056   2.066   3.213   0.721
 5719SOL    HW218057   2.155   3.336   0.780
 5720SOL     OW18058   2.562   4.607   6.445
 5720SOL    HW118059   2.468   4.582   6.468
 5720SOL    HW218060   2.569   4.623   6.346
 5721SOL     OW18061   2.444   3.350   0.415
 5721SOL    HW118062   2.429   3.308   0.325
 5721SOL    HW218063   2.537   3.386   0.420
 5722SOL     OW18064   1.534   1.094   6.010
 5722SOL    HW118065   1.525   1.176   6.067
 5722SOL    HW218066   1.452   1.083   5.954
 5723SOL     OW18067   4.050   3.369   0.836
 5723SOL    HW118068   3.958   3.350   0.870
 5723SOL    HW218069   4.055   3.344   0.739
 5724SOL     OW18070   5.385   2.142   5.009
 5724SOL    HW118071   5.377   2.198   4.927
 5724SOL    HW218072   5.295   2.136   5.054
 5725SOL     OW18073   6.970   4.248   4.846
 5725SOL    HW118074   6.965   4.170   4.784
 5725SOL    HW218075   6.964   4.217   4.941
 5726SOL     OW18076   5.496   4.298   2.378
 5726SOL    HW118077   5.434   4.306   2.300
 5726SOL    HW218078   5.481   4.209   2.423
 5727SOL     OW18079   0.555   1.621   4.936
 5727SOL    HW118080   0.625   1.692   4.932
 5727SOL    HW218081   0.468   1.662   4.964
 5728SOL     OW18082   4.643   6.779   4.989
 5728SOL    HW118083   4.595   6.864   5.011
 5728SOL    HW218084   4.589   6.727   4.923
 5729SOL     OW18085   2.148   2.166   5.158
 5729SOL    HW118086   2.138   2.214   5.246
 5729SOL    HW218087   2.097   2.080   5.162
 5730SOL     OW18088   0.005   3.661   4.844
 5730SOL    HW118089   6.969   3.630   4.767
 5730SOL    HW218090   0.042   3.582   4.892
 5731SOL     OW18091   0.332   6.577   2.391
 5731SOL    HW118092   0.319   6.663   2.342
 5731SOL    HW218093   0.329   6.500   2.327
 5732SOL     OW18094   0.883   6.886   3.567
 5732SOL    HW118095   0.786   6.862   3.566
 5732SOL    HW218096   0.933   6.822   3.509
 5733SOL     OW18097   3.266   6.987   5.857
 5733SOL    HW118098   3.227   6.957   5.944
 5733SOL    HW218099   3.207   0.036   5.815
 5734SOL     OW18100   2.181   6.165   3.308
 5734SOL    HW118101   2.214   6.080   3.268
 5734SOL    HW218102   2.225   6.179   3.397
 5735SOL     OW18103   2.894   0.984   1.438
 5735SOL    HW118104   2.902   1.083   1.430
 5735SOL    HW218105   2.802   0.956   1.412
 5736SOL     OW18106   1.163   5.155   6.660
 5736SOL    HW118107   1.078   5.104   6.648
 5736SOL    HW218108   1.238   5.106   6.617
 5737SOL     OW18109   5.321   4.550   0.923
 5737SOL    HW118110   5.291   4.596   1.006
 5737SOL    HW218111   5.402   4.495   0.942
 5738SOL     OW18112   1.406   4.339   5.922
 5738SOL    HW118113   1.395   4.248   5.962
 5738SOL    HW218114   1.317   4.377   5.898
 5739SOL     OW18115   0.637   1.536   1.527
 5739SOL    HW118116   0.594   1.531   1.617
 5739SOL    HW218117   0.731   1.568   1.536
 5740SOL     OW18118   4.048   5.847   6.202
 5740SOL    HW118119   4.032   5.780   6.131
 5740SOL    HW218120   3.979   5.919   6.197
 5741SOL     OW18121   0.063   4.545   3.084
 5741SOL    HW118122   0.027   4.636   3.063
 5741SOL    HW218123   7.010   4.477   3.074
 5742SOL     OW18124   6.849   6.469   4.845
 5742SOL    HW118125   6.887   6.488   4.754
 5742SOL    HW218126   6.749   6.479   4.842
 5743SOL     OW18127   1.949   6.973   4.387
 5743SOL    HW118128   1.978   0.048   4.378
 5743SOL    HW218129   1.921   6.955   4.482
 5744SOL     OW18130   5.470   6.545   1.813
 5744SOL    HW118131   5.457   6.450   1.786
 5744SOL    HW218132   5.568   6.566   1.815
 5745SOL     OW18133   0.978   1.830   3.615
 5745SOL    HW118134   0.979   1.870   3.707
 5745SOL    HW218135   1.069   1.796   3.593
 5746SOL     OW18136   6.112   4.630   0.316
 5746SOL    HW118137   6.141   4.692   0.390
 5746SOL    HW218138   6.030   4.580   0.345
 5747SOL     OW18139   0.533   6.329   2.734
 5747SOL    HW118140   0.469   6.325   2.810
 5747SOL    HW218141   0.488   6.298   2.650
 5748SOL     OW18142   2.174   6.673   3.210
 5748SOL    HW118143   2.212   6.590   3.252
 5748SOL    HW218144   2.215   6.686   3.120
 5749SOL     OW18145   1.947   1.932   3.156
 5749SOL    HW118146   1.902   1.993   3.222
 5749SOL    HW218147   1.885   1.858   3.132
 5750SOL     OW18148   6.607   5.495   2.681
 5750SOL    HW118149   6.548   5.530   2.754
 5750SOL    HW218150   6.557   5.425   2.630
 5751SOL     OW18151   2.069   2.750   5.939
 5751SOL    HW118152   2.146   2.758   6.002
 5751SOL    HW218153   1.992   2.707   5.986
 5752SOL     OW18154   6.686   0.965   6.806
 5752SOL    HW118155   6.658   0.932   6.896
 5752SOL    HW218156   6.776   1.008   6.813
 5753SOL     OW18157   4.090   2.278   0.388
 5753SOL    HW118158   4.065   2.194   0.342
 5753SOL    HW218159   4.094   2.262   0.487
 5754SOL     OW18160   6.140   4.914   1.078
 5754SOL    HW118161   6.058   4.966   1.055
 5754SOL    HW218162   6.115   4.837   1.137
 5755SOL     OW18163   3.606   3.719   1.529
 5755SOL    HW118164   3.563   3.769   1.605
 5755SOL    HW218165   3.540   3.654   1.491
 5756SOL     OW18166   0.064   6.543   4.138
 5756SOL    HW118167   0.009   6.619   4.174
 5756SOL    HW218168   0.160   6.558   4.162
 5757SOL     OW18169   0.353   5.608   1.826
 5757SOL    HW118170   0.367   5.587   1.923
 5757SOL    HW218171   0.434   5.578   1.774
 5758SOL     OW18172   1.547   1.664   5.562
 5758SOL    HW118173   1.501   1.604   5.628
 5758SOL    HW218174   1.632   1.621   5.532
 5759SOL     OW18175   6.186   1.715   5.408
 5759SOL    HW118176   6.149   1.647   5.344
 5759SOL    HW218177   6.118   1.734   5.479
 5760SOL     OW18178   1.914   5.290   1.642
 5760SOL    HW118179   1.982   5.235   1.594
 5760SOL    HW218180   1.843   5.230   1.679
 5761SOL     OW18181   5.322   0.739   5.044
 5761SOL    HW118182   5.387   0.812   5.066
 5761SOL    HW218183   5.368   0.651   5.048
 5762SOL     OW18184   5.563   6.094   1.300
 5762SOL    HW118185   5.612   6.174   1.266
 5762SOL    HW218186   5.504   6.122   1.376
 5763SOL     OW18187   1.679   1.876   1.077
 5763SOL    HW118188   1.679   1.968   1.038
 5763SOL    HW218189   1.737   1.874   1.158
 5764SOL     OW18190   4.653   3.209   5.798
 5764SOL    HW118191   4.654   3.121   5.750
 5764SOL    HW218192   4.615   3.279   5.739
 5765SOL     OW18193   5.853   4.604   0.442
 5765SOL    HW118194   5.876   4.667   0.516
 5765SOL    HW218195   5.754   4.599   0.432
 5766SOL     OW18196   2.650   1.120   3.477
 5766SOL    HW118197   2.686   1.116   3.570
 5766SOL    HW218198   2.560   1.076   3.474
 5767SOL     OW18199   6.516   0.048   0.752
 5767SOL    HW118200   6.592   7.006   0.772
 5767SOL    HW218201   6.545   0.116   0.685
 5768SOL     OW18202   6.089   0.617   2.656
 5768SOL    HW118203   6.122   0.593   2.565
 5768SOL    HW218204   6.026   0.546   2.689
 5769SOL     OW18205   2.231   5.878   3.165
 5769SOL    HW118206   2.188   5.810   3.225
 5769SOL    HW218207   2.330   5.878   3.181
 5770SOL     OW18208   6.220   1.087   1.682
 5770SOL    HW118209   6.277   1.170   1.674
 5770SOL    HW218210   6.279   1.007   1.687
 5771SOL     OW18211   0.560   1.422   1.882
 5771SOL    HW118212   0.564   1.406   1.981
 5771SOL    HW218213   0.649   1.402   1.841
 5772SOL     OW18214   6.849   4.400   6.956
 5772SOL    HW118215   6.868   4.402   6.858
 5772SOL    HW218216   6.887   4.316   6.996
 5773SOL     OW18217   5.481   6.004   4.189
 5773SOL    HW118218   5.462   5.947   4.269
 5773SOL    HW218219   5.554   6.069   4.210
 5774SOL     OW18220   2.862   4.904   2.629
 5774SOL    HW118221   2.925   4.874   2.700
 5774SOL    HW218222   2.913   4.952   2.557
 5775SOL     OW18223   0.686   0.532   0.458
 5775SOL    HW118224   0.732   0.598   0.400
 5775SOL    HW218225   0.620   0.480   0.404
 5776SOL     OW18226   4.873   1.247   5.968
 5776SOL    HW118227   4.954   1.306   5.966
 5776SOL    HW218228   4.876   1.190   6.051
 5777SOL     OW18229   6.020   0.758   5.570
 5777SOL    HW118230   5.990   0.729   5.479
 5777SOL    HW218231   6.071   0.684   5.613
 5778SOL     OW18232   2.241   0.029   3.636
 5778SOL    HW118233   2.213   0.050   3.542
 5778SOL    HW218234   2.253   0.115   3.686
 5779SOL     OW18235   4.348   0.959   1.864
 5779SOL    HW118236   4.304   0.883   1.817
 5779SOL    HW218237   4.314   0.965   1.958
 5780SOL     OW18238   5.900   3.693   1.472
 5780SOL    HW118239   5.859   3.777   1.436
 5780SOL    HW218240   5.992   3.682   1.434
 5781SOL     OW18241   2.730   4.797   5.175
 5781SOL    HW118242   2.786   4.831   5.250
 5781SOL    HW218243   2.774   4.716   5.135
 5782SOL     OW18244   3.673   1.317   3.393
 5782SOL    HW118245   3.762   1.354   3.365
 5782SOL    HW218246   3.678   1.286   3.487
 5783SOL     OW18247   2.689   6.310   1.646
 5783SOL    HW118248   2.622   6.367   1.693
 5783SOL    HW218249   2.677   6.214   1.673
 5784SOL     OW18250   1.224   5.492   0.350
 5784SOL    HW118251   1.271   5.558   0.409
 5784SOL    HW218252   1.225   5.402   0.393
 5785SOL     OW18253   2.640   1.339   0.230
 5785SOL    HW118254   2.545   1.364   0.250
 5785SOL    HW218255   2.642   1.262   0.165
 5786SOL     OW18256   1.009   3.503   6.959
 5786SOL    HW118257   1.046   3.446   0.013
 5786SOL    HW218258   1.063   3.488   6.876
 5787SOL     OW18259   0.313   3.145   5.314
 5787SOL    HW118260   0.239   3.098   5.267
 5787SOL    HW218261   0.396   3.089   5.310
 5788SOL     OW18262   2.128   2.678   2.235
 5788SOL    HW118263   2.199   2.717   2.176
 5788SOL    HW218264   2.091   2.595   2.191
 5789SOL     OW18265   2.785   5.141   0.081
 5789SOL    HW118266   2.742   5.198   0.151
 5789SOL    HW218267   2.862   5.091   0.122
 5790SOL     OW18268   6.542   6.456   3.189
 5790SOL    HW118269   6.528   6.357   3.186
 5790SOL    HW218270   6.622   6.477   3.245
 5791SOL     OW18271   4.253   1.546   1.163
 5791SOL    HW118272   4.248   1.640   1.196
 5791SOL    HW218273   4.185   1.490   1.211
 5792SOL     OW18274   4.217   2.234   3.037
 5792SOL    HW118275   4.153   2.157   3.039
 5792SOL    HW218276   4.175   2.312   2.990
 5793SOL     OW18277   3.814   2.450   6.876
 5793SOL    HW118278   3.762   2.442   6.961
 5793SOL    HW218279   3.911   2.460   6.897
 5794SOL     OW18280   3.580   6.159   6.903
 5794SOL    HW118281   3.606   6.082   6.844
 5794SOL    HW218282   3.647   6.233   6.891
 5795SOL     OW18283   1.886   6.965   1.682
 5795SOL    HW118284   1.857   0.041   1.674
 5795SOL    HW218285   1.969   6.951   1.630
 5796SOL     OW18286   4.886   0.614   6.781
 5796SOL    HW118287   4.962   0.550   6.791
 5796SOL    HW218288   4.852   0.641   6.871
 5797SOL     OW18289   0.134   2.743   0.674
 5797SOL    HW118290   0.209   2.806   0.691
 5797SOL    HW218291   0.135   2.671   0.744
 5798SOL     OW18292   1.804   3.517   4.577
 5798SOL    HW118293   1.788   3.570   4.660
 5798SOL    HW218294   1.732   3.448   4.567
 5799SOL     OW18295   2.942   0.194   3.478
 5799SOL    HW118296   3.023   0.146   3.444
 5799SOL    HW218297   2.943   0.192   3.578
 5800SOL     OW18298   1.081   0.168   1.978
 5800SOL    HW118299   1.029   0.220   1.911
 5800SOL    HW218300   1.143   0.105   1.931
 5801SOL     OW18301   1.630   1.450   2.215
 5801SOL    HW118302   1.639   1.467   2.313
 5801SOL    HW218303   1.648   1.353   2.196
 5802SOL     OW18304   0.422   0.111   2.929
 5802SOL    HW118305   0.427   0.015   2.957
 5802SOL    HW218306   0.514   0.150   2.926
 5803SOL     OW18307   0.635   6.036   4.535
 5803SOL    HW118308   0.660   5.940   4.547
 5803SOL    HW218309   0.576   6.044   4.454
 5804SOL     OW18310   5.762   2.298   3.407
 5804SOL    HW118311   5.810   2.210   3.417
 5804SOL    HW218312   5.748   2.318   3.311
 5805SOL     OW18313   1.293   2.997   2.318
 5805SOL    HW118314   1.342   3.077   2.284
 5805SOL    HW218315   1.328   2.972   2.408
 5806SOL     OW18316   6.548   3.897   2.515
 5806SOL    HW118317   6.465   3.951   2.506
 5806SOL    HW218318   6.613   3.925   2.444
 5807SOL     OW18319   1.083   1.443   2.066
 5807SOL    HW118320   1.132   1.500   2.132
 5807SOL    HW218321   1.123   1.351   2.066
 5808SOL     OW18322   0.107   0.445   5.919
 5808SOL    HW118323   0.187   0.505   5.919
 5808SOL    HW218324   0.103   0.395   6.005
 5809SOL     OW18325   0.328   2.957   4.971
 5809SOL    HW118326   0.267   3.026   5.010
 5809SOL    HW218327   0.279   2.904   4.902
 5810SOL     OW18328   2.528   6.412   4.947
 5810SOL    HW118329   2.523   6.425   5.046
 5810SOL    HW218330   2.597   6.474   4.910
 5811SOL     OW18331   3.881   4.186   6.971
 5811SOL    HW118332   3.857   4.123   0.025
 5811SOL    HW218333   3.835   4.273   6.986
 5812SOL     OW18334   5.912   2.737   6.298
 5812SOL    HW118335   5.992   2.790   6.271
 5812SOL    HW218336   5.894   2.665   6.231
 5813SOL     OW18337   5.134   5.277   0.563
 5813SOL    HW118338   5.130   5.209   0.489
 5813SOL    HW218339   5.057   5.263   0.625
 5814SOL     OW18340   5.899   1.121   2.065
 5814SOL    HW118341   5.804   1.102   2.091
 5814SOL    HW218342   5.961   1.069   2.123
 5815SOL     OW18343   6.175   3.270   4.598
 5815SOL    HW118344   6.086   3.274   4.553
 5815SOL    HW218345   6.166   3.221   4.685
 5816SOL     OW18346   0.037   3.839   1.995
 5816SOL    HW118347   0.006   3.757   2.044
 5816SOL    HW218348   0.034   3.918   2.055
 5817SOL     OW18349   5.874   3.094   3.268
 5817SOL    HW118350   5.974   3.101   3.267
 5817SOL    HW218351   5.837   3.159   3.335
 5818SOL     OW18352   2.207   0.349   4.828
 5818SOL    HW118353   2.117   0.363   4.870
 5818SOL    HW218354   2.199   0.356   4.728
 5819SOL     OW18355   3.822   3.957   0.456
 5819SOL    HW118356   3.893   4.028   0.453
 5819SOL    HW218357   3.734   3.998   0.433
 5820SOL     OW18358   6.230   0.006   2.911
 5820SOL    HW118359   6.272   6.963   2.845
 5820SOL    HW218360   6.204   0.091   2.864
 5821SOL     OW18361   6.723   0.039   1.831
 5821SOL    HW118362   6.707   0.123   1.779
 5821SOL    HW218363   6.636   7.018   1.856
 5822SOL     OW18364   0.904   4.032   2.368
 5822SOL    HW118365   0.861   3.950   2.405
 5822SOL    HW218366   0.838   4.084   2.314
 5823SOL     OW18367   2.446   6.882   3.998
 5823SOL    HW118368   2.414   6.868   3.904
 5823SOL    HW218369   2.372   6.921   4.053
 5824SOL     OW18370   1.857   6.976   2.520
 5824SOL    HW118371   1.813   6.922   2.592
 5824SOL    HW218372   1.868   0.050   2.551
 5825SOL     OW18373   4.797   1.571   4.083
 5825SOL    HW118374   4.740   1.489   4.080
 5825SOL    HW218375   4.819   1.600   3.990
 5826SOL     OW18376   1.495   6.556   5.029
 5826SOL    HW118377   1.442   6.584   5.108
 5826SOL    HW218378   1.541   6.469   5.049
 5827SOL     OW18379   2.164   3.768   3.557
 5827SOL    HW118380   2.194   3.691   3.501
 5827SOL    HW218381   2.115   3.834   3.500
 5828SOL     OW18382   4.713   0.412   5.542
 5828SOL    HW118383   4.755   0.333   5.586
 5828SOL    HW218384   4.779   0.454   5.480
 5829SOL     OW18385   1.887   0.754   2.998
 5829SOL    HW118386   1.860   0.678   3.058
 5829SOL    HW218387   1.833   0.752   2.914
 5830SOL     OW18388   4.037   5.242   4.259
 5830SOL    HW118389   4.024   5.284   4.169
 5830SOL    HW218390   3.974   5.283   4.324
 5831SOL     OW18391   2.167   2.282   4.895
 5831SOL    HW118392   2.184   2.242   4.985
 5831SOL    HW218393   2.251   2.279   4.840
 5832SOL     OW18394   2.915   5.667   2.453
 5832SOL    HW118395   2.866   5.730   2.393
 5832SOL    HW218396   2.885   5.573   2.436
 5833SOL     OW18397   3.826   5.544   0.069
 5833SOL    HW118398   3.793   5.630   0.030
 5833SOL    HW218399   3.901   5.563   0.133
 5834SOL     OW18400   6.621   3.532   6.082
 5834SOL    HW118401   6.601   3.574   5.994
 5834SOL    HW218402   6.714   3.494   6.080
 5835SOL     OW18403   4.678   1.894   3.215
 5835SOL    HW118404   4.689   1.906   3.314
 5835SOL    HW218405   4.650   1.800   3.196
 5836SOL     OW18406   4.848   6.208   1.941
 5836SOL    HW118407   4.767   6.176   1.990
 5836SOL    HW218408   4.927   6.205   2.002
 5837SOL     OW18409   3.032   4.579   6.730
 5837SOL    HW118410   3.112   4.630   6.698
 5837SOL    HW218411   3.062   4.494   6.773
 5838SOL     OW18412   3.913   3.032   0.303
 5838SOL    HW118413   3.992   2.975   0.324
 5838SOL    HW218414   3.840   2.975   0.265
 5839SOL     OW18415   1.997   2.101   0.464
 5839SOL    HW118416   2.004   2.068   0.558
 5839SOL    HW218417   2.089   2.120   0.429
 5840SOL     OW18418   0.775   3.985   3.583
 5840SOL    HW118419   0.856   4.008   3.529
 5840SOL    HW218420   0.736   3.899   3.549
 5841SOL     OW18421   5.375   1.437   0.095
 5841SOL    HW118422   5.458   1.401   0.139
 5841SOL    HW218423   5.345   1.373   0.024
 5842SOL     OW18424   3.225   1.721   1.559
 5842SOL    HW118425   3.265   1.673   1.636
 5842SOL    HW218426   3.140   1.765   1.587
 5843SOL     OW18427   3.628   3.135   7.012
 5843SOL    HW118428   3.687   3.162   0.069
 5843SOL    HW218429   3.661   3.049   6.974
 5844SOL     OW18430   0.372   5.915   5.234
 5844SOL    HW118431   0.394   5.904   5.331
 5844SOL    HW218432   0.401   6.005   5.203
 5845SOL     OW18433   1.649   0.445   2.621
 5845SOL    HW118434   1.605   0.374   2.565
 5845SOL    HW218435   1.664   0.411   2.713
 5846SOL     OW18436   1.116   4.173   5.189
 5846SOL    HW118437   1.025   4.194   5.153
 5846SOL    HW218438   1.169   4.124   5.120
 5847SOL     OW18439   1.566   3.996   6.368
 5847SOL    HW118440   1.521   3.932   6.305
 5847SOL    HW218441   1.520   4.084   6.363
 5848SOL     OW18442   2.150   5.924   1.970
 5848SOL    HW118443   2.233   5.910   2.024
 5848SOL    HW218444   2.119   5.836   1.934
 5849SOL     OW18445   2.595   5.149   6.219
 5849SOL    HW118446   2.502   5.183   6.233
 5849SOL    HW218447   2.657   5.196   6.281
 5850SOL     OW18448   0.644   1.818   1.514
 5850SOL    HW118449   0.624   1.726   1.482
 5850SOL    HW218450   0.560   1.861   1.548
 5851SOL     OW18451   6.172   3.676   4.507
 5851SOL    HW118452   6.233   3.599   4.528
 5851SOL    HW218453   6.161   3.684   4.408
 5852SOL     OW18454   4.846   4.320   2.303
 5852SOL    HW118455   4.845   4.238   2.360
 5852SOL    HW218456   4.752   4.351   2.287
 5853SOL     OW18457   4.454   4.859   6.370
 5853SOL    HW118458   4.433   4.847   6.467
 5853SOL    HW218459   4.390   4.924   6.330
 5854SOL     OW18460   3.024   5.138   5.198
 5854SOL    HW118461   3.108   5.094   5.228
 5854SOL    HW218462   3.030   5.160   5.101
 5855SOL     OW18463   2.442   2.465   3.070
 5855SOL    HW118464   2.447   2.477   3.170
 5855SOL    HW218465   2.443   2.368   3.049
 5856SOL     OW18466   0.899   6.589   2.852
 5856SOL    HW118467   0.995   6.571   2.833
 5856SOL    HW218468   0.862   6.649   2.782
 5857SOL     OW18469   5.577   4.780   6.419
 5857SOL    HW118470   5.508   4.754   6.486
 5857SOL    HW218471   5.667   4.782   6.463
 5858SOL     OW18472   2.068   1.457   2.694
 5858SOL    HW118473   2.099   1.461   2.789
 5858SOL    HW218474   1.977   1.415   2.690
 5859SOL     OW18475   5.545   5.457   2.110
 5859SOL    HW118476   5.615   5.528   2.103
 5859SOL    HW218477   5.550   5.413   2.199
 5860SOL     OW18478   0.471   4.118   2.683
 5860SOL    HW118479   0.461   4.093   2.586
 5860SOL    HW218480   0.554   4.173   2.695
 5861SOL     OW18481   4.774   0.895   5.656
 5861SOL    HW118482   4.728   0.922   5.741
 5861SOL    HW218483   4.869   0.873   5.675
 5862SOL     OW18484   6.679   5.070   3.467
 5862SOL    HW118485   6.590   5.028   3.488
 5862SOL    HW218486   6.665   5.151   3.411
 5863SOL     OW18487   4.204   0.146   6.243
 5863SOL    HW118488   4.199   0.054   6.281
 5863SOL    HW218489   4.300   0.173   6.233
 5864SOL     OW18490   3.735   3.612   2.411
 5864SOL    HW118491   3.688   3.694   2.444
 5864SOL    HW218492   3.703   3.532   2.462
 5865SOL     OW18493   6.558   0.577   6.716
 5865SOL    HW118494   6.517   0.650   6.771
 5865SOL    HW218495   6.502   0.560   6.635
 5866SOL     OW18496   3.222   3.261   2.562
 5866SOL    HW118497   3.299   3.253   2.498
 5866SOL    HW218498   3.155   3.326   2.525
 5867SOL     OW18499   3.604   1.461   1.593
 5867SOL    HW118500   3.623   1.500   1.503
 5867SOL    HW218501   3.517   1.497   1.628
 5868SOL     OW18502   1.083   0.508   0.632
 5868SOL    HW118503   0.990   0.540   0.649
 5868SOL    HW218504   1.115   0.544   0.544
 5869SOL     OW18505   1.172   5.771   3.383
 5869SOL    HW118506   1.199   5.723   3.466
 5869SOL    HW218507   1.083   5.737   3.352
 5870SOL     OW18508   4.041   0.080   4.006
 5870SOL    HW118509   4.141   0.074   4.015
 5870SOL    HW218510   4.001   7.009   4.011
 5871SOL     OW18511   3.749   2.905   3.713
 5871SOL    HW118512   3.666   2.904   3.658
 5871SOL    HW218513   3.796   2.817   3.706
 5872SOL     OW18514   4.269   6.438   0.399
 5872SOL    HW118515   4.287   6.429   0.301
 5872SOL    HW218516   4.213   6.519   0.415
 5873SOL     OW18517   3.775   6.139   2.092
 5873SOL    HW118518   3.831   6.058   2.074
 5873SOL    HW218519   3.690   6.133   2.039
 5874SOL     OW18520   0.801   4.156   5.300
 5874SOL    HW118521   0.703   4.139   5.312
 5874SOL    HW218522   0.814   4.237   5.243
 5875SOL     OW18523   3.940   1.794   1.489
 5875SOL    HW118524   3.892   1.819   1.405
 5875SOL    HW218525   3.917   1.700   1.514
 5876SOL     OW18526   3.395   3.630   1.776
 5876SOL    HW118527   3.418   3.727   1.767
 5876SOL    HW218528   3.378   3.608   1.872
 5877SOL     OW18529   5.684   4.596   1.414
 5877SOL    HW118530   5.781   4.580   1.396
 5877SOL    HW218531   5.641   4.640   1.335
 5878SOL     OW18532   1.781   3.982   2.911
 5878SOL    HW118533   1.868   4.027   2.933
 5878SOL    HW218534   1.742   4.023   2.829
 5879SOL     OW18535   1.015   4.276   3.785
 5879SOL    HW118536   1.105   4.277   3.829
 5879SOL    HW218537   1.018   4.332   3.702
 5880SOL     OW18538   3.514   6.203   0.138
 5880SOL    HW118539   3.513   6.173   0.043
 5880SOL    HW218540   3.420   6.215   0.171
 5881SOL     OW18541   1.107   5.732   4.428
 5881SOL    HW118542   1.062   5.813   4.392
 5881SOL    HW218543   1.096   5.729   4.527
 5882SOL     OW18544   4.808   0.428   2.872
 5882SOL    HW118545   4.718   0.467   2.852
 5882SOL    HW218546   4.838   0.371   2.795
 5883SOL     OW18547   0.513   3.286   5.146
 5883SOL    HW118548   0.458   3.275   5.229
 5883SOL    HW218549   0.605   3.315   5.170
 5884SOL     OW18550   0.801   0.680   3.167
 5884SOL    HW118551   0.894   0.700   3.135
 5884SOL    HW218552   0.752   0.766   3.180
 5885SOL     OW18553   5.850   6.022   1.240
 5885SOL    HW118554   5.816   6.032   1.147
 5885SOL    HW218555   5.772   6.010   1.302
 5886SOL     OW18556   0.717   1.166   6.669
 5886SOL    HW118557   0.699   1.068   6.684
 5886SOL    HW218558   0.740   1.181   6.573
 5887SOL     OW18559   4.227   6.586   2.877
 5887SOL    HW118560   4.249   6.614   2.784
 5887SOL    HW218561   4.287   6.634   2.941
 5888SOL     OW18562   0.707   1.016   2.557
 5888SOL    HW118563   0.699   0.936   2.617
 5888SOL    HW218564   0.746   1.092   2.609
 5889SOL     OW18565   2.424   7.005   6.846
 5889SOL    HW118566   2.356   6.946   6.889
 5889SOL    HW218567   2.441   0.065   6.904
 5890SOL     OW18568   3.116   4.725   5.524
 5890SOL    HW118569   3.179   4.802   5.533
 5890SOL    HW218570   3.168   4.639   5.525
 5891SOL     OW18571   2.410   3.782   6.474
 5891SOL    HW118572   2.332   3.838   6.446
 5891SOL    HW218573   2.398   3.754   6.569
 5892SOL     OW18574   2.100   6.804   2.668
 5892SOL    HW118575   2.113   6.725   2.728
 5892SOL    HW218576   2.080   6.885   2.723
 5893SOL     OW18577   1.629   0.829   3.467
 5893SOL    HW118578   1.681   0.914   3.472
 5893SOL    HW218579   1.584   0.822   3.378
 5894SOL     OW18580   0.625   3.380   4.134
 5894SOL    HW118581   0.651   3.327   4.054
 5894SOL    HW218582   0.531   3.358   4.160
 5895SOL     OW18583   5.648   3.745   3.450
 5895SOL    HW118584   5.686   3.701   3.368
 5895SOL    HW218585   5.606   3.676   3.509
 5896SOL     OW18586   4.846   2.727   5.858
 5896SOL    HW118587   4.940   2.695   5.863
 5896SOL    HW218588   4.845   2.825   5.837
 5897SOL     OW18589   4.593   6.822   1.444
 5897SOL    HW118590   4.560   6.818   1.539
 5897SOL    HW218591   4.519   6.794   1.383
 5898SOL     OW18592   2.743   6.849   2.873
 5898SOL    HW118593   2.793   6.765   2.852
 5898SOL    HW218594   2.696   6.881   2.791
 5899SOL     OW18595   5.767   0.793   3.562
 5899SOL    HW118596   5.782   0.878   3.512
 5899SOL    HW218597   5.714   0.730   3.505
 5900SOL     OW18598   3.941   4.813   2.671
 5900SOL    HW118599   3.844   4.825   2.648
 5900SOL    HW218600   3.995   4.879   2.620
 5901SOL     OW18601   3.125   6.223   4.797
 5901SOL    HW118602   3.143   6.127   4.818
 5901SOL    HW218603   3.177   6.249   4.716
 5902SOL     OW18604   6.109   1.841   6.916
 5902SOL    HW118605   6.188   1.902   6.909
 5902SOL    HW218606   6.040   1.883   6.975
 5903SOL     OW18607   6.838   3.828   6.716
 5903SOL    HW118608   6.770   3.901   6.715
 5903SOL    HW218609   6.905   3.845   6.643
 5904SOL     OW18610   0.890   4.085   1.957
 5904SOL    HW118611   0.885   3.988   1.980
 5904SOL    HW218612   0.960   4.129   2.013
 5905SOL     OW18613   6.579   5.121   2.017
 5905SOL    HW118614   6.573   5.202   1.960
 5905SOL    HW218615   6.487   5.081   2.028
 5906SOL     OW18616   0.038   1.563   3.943
 5906SOL    HW118617   0.079   1.613   4.019
 5906SOL    HW218618   0.075   1.598   3.856
 5907SOL     OW18619   2.196   0.350   2.385
 5907SOL    HW118620   2.112   0.321   2.339
 5907SOL    HW218621   2.264   0.277   2.378
 5908SOL     OW18622   0.035   2.579   6.062
 5908SOL    HW118623   0.090   2.654   6.100
 5908SOL    HW218624   0.083   2.537   5.986
 5909SOL     OW18625   0.010   4.032   0.728
 5909SOL    HW118626   0.102   4.024   0.690
 5909SOL    HW218627   6.966   4.056   0.655
 5910SOL     OW18628   2.009   1.640   3.939
 5910SOL    HW118629   2.070   1.584   3.996
 5910SOL    HW218630   1.963   1.582   3.872
 5911SOL     OW18631   6.479   5.849   6.817
 5911SOL    HW118632   6.438   5.811   6.900
 5911SOL    HW218633   6.442   5.940   6.800
 5912SOL     OW18634   0.997   0.430   4.090
 5912SOL    HW118635   1.026   0.334   4.095
 5912SOL    HW218636   1.036   0.472   4.008
 5913SOL     OW18637   6.273   1.795   0.440
 5913SOL    HW118638   6.301   1.865   0.506
 5913SOL    HW218639   6.174   1.794   0.431
 5914SOL     OW18640   1.299   6.172   0.330
 5914SOL    HW118641   1.344   6.248   0.379
 5914SOL    HW218642   1.367   6.120   0.280
 5915SOL     OW18643   3.787   1.603   6.002
 5915SOL    HW118644   3.859   1.650   6.054
 5915SOL    HW218645   3.738   1.670   5.946
 5916SOL     OW18646   0.686   6.774   1.899
 5916SOL    HW118647   0.748   6.841   1.942
 5916SOL    HW218648   0.627   6.734   1.968
 5917SOL     OW18649   3.650   4.135   0.312
 5917SOL    HW118650   3.659   4.074   0.233
 5917SOL    HW218651   3.674   4.229   0.285
 5918SOL     OW18652   2.878   6.575   4.502
 5918SOL    HW118653   2.932   6.495   4.530
 5918SOL    HW218654   2.926   6.623   4.429
 5919SOL     OW18655   3.269   3.079   4.649
 5919SOL    HW118656   3.293   3.176   4.645
 5919SOL    HW218657   3.184   3.064   4.599
 5920SOL     OW18658   6.660   0.335   5.637
 5920SOL    HW118659   6.676   0.332   5.736
 5920SOL    HW218660   6.655   0.242   5.601
 5921SOL     OW18661   2.381   4.229   6.861
 5921SOL    HW118662   2.376   4.276   6.773
 5921SOL    HW218663   2.291   4.233   6.906
 5922SOL     OW18664   5.086   2.921   2.290
 5922SOL    HW118665   4.986   2.918   2.284
 5922SOL    HW218666   5.116   2.859   2.363
 5923SOL     OW18667   5.983   1.287   3.510
 5923SOL    HW118668   5.886   1.308   3.508
 5923SOL    HW218669   5.998   1.202   3.562
 5924SOL     OW18670   5.060   6.771   3.417
 5924SOL    HW118671   5.033   6.865   3.435
 5924SOL    HW218672   5.086   6.761   3.321
 5925SOL     OW18673   4.879   1.342   1.191
 5925SOL    HW118674   4.973   1.310   1.180
 5925SOL    HW218675   4.842   1.370   1.102
 5926SOL     OW18676   5.005   4.428   3.422
 5926SOL    HW118677   5.005   4.406   3.325
 5926SOL    HW218678   5.060   4.360   3.471
 5927SOL     OW18679   0.153   4.904   2.198
 5927SOL    HW118680   0.243   4.895   2.154
 5927SOL    HW218681   0.166   4.911   2.297
 5928SOL     OW18682   2.932   6.922   6.998
 5928SOL    HW118683   2.856   6.864   6.970
 5928SOL    HW218684   3.017   6.870   6.994
 5929SOL     OW18685   1.718   0.733   6.890
 5929SOL    HW118686   1.710   0.826   6.925
 5929SOL    HW218687   1.662   0.672   6.945
 5930SOL     OW18688   1.894   3.917   2.471
 5930SOL    HW118689   1.833   3.850   2.513
 5930SOL    HW218690   1.966   3.870   2.420
 5931SOL     OW18691   4.986   6.587   2.897
 5931SOL    HW118692   4.965   6.497   2.859
 5931SOL    HW218693   5.046   6.636   2.833
 5932SOL     OW18694   2.972   0.753   6.749
 5932SOL    HW118695   2.903   0.794   6.808
 5932SOL    HW218696   2.982   0.656   6.771
 5933SOL     OW18697   5.811   6.222   4.677
 5933SOL    HW118698   5.715   6.208   4.653
 5933SOL    HW218699   5.822   6.314   4.715
 5934SOL     OW18700   2.912   3.401   6.723
 5934SOL    HW118701   2.963   3.380   6.806
 5934SOL    HW218702   2.960   3.363   6.644
 5935SOL     OW18703   1.136   6.210   6.233
 5935SOL    HW118704   1.234   6.219   6.216
 5935SOL    HW218705   1.118   6.123   6.279
 5936SOL     OW18706   3.837   2.942   2.309
 5936SOL    HW118707   3.891   2.992   2.242
 5936SOL    HW218708   3.879   2.853   2.326
 5937SOL     OW18709   0.454   3.463   1.110
 5937SOL    HW118710   0.539   3.411   1.119
 5937SOL    HW218711   0.378   3.407   1.142
 5938SOL     OW18712   0.602   4.256   4.166
 5938SOL    HW118713   0.589   4.166   4.206
 5938SOL    HW218714   0.679   4.253   4.101
 5939SOL     OW18715   3.973   1.575   5.399
 5939SOL    HW118716   3.879   1.543   5.410
 5939SOL    HW218717   4.027   1.548   5.479
 5940SOL     OW18718   4.782   5.469   1.806
 5940SOL    HW118719   4.806   5.408   1.731
 5940SOL    HW218720   4.852   5.462   1.878
 5941SOL     OW18721   0.179   2.335   2.899
 5941SOL    HW118722   0.119   2.255   2.908
 5941SOL    HW218723   0.198   2.372   2.990
 5942SOL     OW18724   4.951   3.108   6.041
 5942SOL    HW118725   4.889   3.042   6.084
 5942SOL    HW218726   5.025   3.130   6.105
 5943SOL     OW18727   2.859   4.346   1.690
 5943SOL    HW118728   2.896   4.424   1.741
 5943SOL    HW218729   2.768   4.323   1.725
 5944SOL     OW18730   6.413   3.351   6.055
 5944SOL    HW118731   6.335   3.380   6.111
 5944SOL    HW218732   6.490   3.413   6.072
 5945SOL     OW18733   6.583   6.510   4.857
 5945SOL    HW118734   6.521   6.468   4.923
 5945SOL    HW218735   6.545   6.596   4.825
 5946SOL     OW18736   2.025   3.638   0.009
 5946SOL    HW118737   2.119   3.604   0.013
 5946SOL    HW218738   1.972   3.582   6.965
 5947SOL     OW18739   3.744   3.228   4.646
 5947SOL    HW118740   3.673   3.224   4.576
 5947SOL    HW218741   3.834   3.232   4.603
 5948SOL     OW18742   4.844   3.422   1.749
 5948SOL    HW118743   4.851   3.521   1.733
 5948SOL    HW218744   4.918   3.376   1.700
 5949SOL     OW18745   0.281   4.555   2.870
 5949SOL    HW118746   0.221   4.527   2.945
 5949SOL    HW218747   0.305   4.475   2.815
 5950SOL     OW18748   3.818   0.319   4.468
 5950SOL    HW118749   3.806   0.319   4.369
 5950SOL    HW218750   3.896   0.261   4.492
 5951SOL     OW18751   0.376   3.572   6.788
 5951SOL    HW118752   0.399   3.669   6.788
 5951SOL    HW218753   0.280   3.560   6.814
 5952SOL     OW18754   4.634   4.636   1.269
 5952SOL    HW118755   4.542   4.673   1.279
 5952SOL    HW218756   4.683   4.644   1.356
 5953SOL     OW18757   6.710   2.938   5.163
 5953SOL    HW118758   6.660   2.863   5.208
 5953SOL    HW218759   6.650   2.983   5.097
 5954SOL     OW18760   1.736   5.987   3.998
 5954SOL    HW118761   1.699   5.948   3.914
 5954SOL    HW218762   1.834   5.968   4.003
 5955SOL     OW18763   5.370   3.415   0.319
 5955SOL    HW118764   5.321   3.475   0.383
 5955SOL    HW218765   5.468   3.416   0.341
 5956SOL     OW18766   5.568   2.641   5.626
 5956SOL    HW118767   5.585   2.650   5.528
 5956SOL    HW218768   5.654   2.630   5.674
 5957SOL     OW18769   6.823   1.807   3.349
 5957SOL    HW118770   6.904   1.819   3.291
 5957SOL    HW218771   6.822   1.715   3.387
 5958SOL     OW18772   3.118   6.749   3.126
 5958SOL    HW118773   3.055   6.826   3.118
 5958SOL    HW218774   3.211   6.780   3.102
 5959SOL     OW18775   4.855   2.527   4.110
 5959SOL    HW118776   4.823   2.613   4.070
 5959SOL    HW218777   4.818   2.518   4.202
 5960SOL     OW18778   4.291   0.283   5.898
 5960SOL    HW118779   4.331   0.303   5.987
 5960SOL    HW218780   4.193   0.265   5.909
 5961SOL     OW18781   2.706   2.273   3.177
 5961SOL    HW118782   2.661   2.184   3.166
 5961SOL    HW218783   2.705   2.321   3.089
 5962SOL     OW18784   5.164   5.870   0.626
 5962SOL    HW118785   5.155   5.925   0.709
 5962SOL    HW218786   5.086   5.808   0.619
 5963SOL     OW18787   2.636   4.004   0.721
 5963SOL    HW118788   2.598   3.925   0.672
 5963SOL    HW218789   2.603   4.088   0.679
 5964SOL     OW18790   2.646   6.770   2.356
 5964SOL    HW118791   2.597   6.689   2.391
 5964SOL    HW218792   2.648   6.767   2.256
 5965SOL     OW18793   2.326   0.338   0.466
 5965SOL    HW118794   2.275   0.408   0.416
 5965SOL    HW218795   2.343   0.369   0.560
 5966SOL     OW18796   2.815   1.543   4.388
 5966SOL    HW118797   2.808   1.454   4.432
 5966SOL    HW218798   2.910   1.559   4.362
 5967SOL     OW18799   3.955   1.731   4.451
 5967SOL    HW118800   4.013   1.672   4.396
 5967SOL    HW218801   3.945   1.692   4.543
 5968SOL     OW18802   5.701   2.694   1.736
 5968SOL    HW118803   5.794   2.724   1.757
 5968SOL    HW218804   5.651   2.770   1.694
 5969SOL     OW18805   5.603   0.227   0.659
 5969SOL    HW118806   5.600   0.136   0.619
 5969SOL    HW218807   5.543   0.288   0.607
 5970SOL     OW18808   0.138   3.525   0.215
 5970SOL    HW118809   0.177   3.506   0.125
 5970SOL    HW218810   0.097   3.442   0.252
 5971SOL     OW18811   0.029   6.462   3.872
 5971SOL    HW118812   6.954   6.488   3.854
 5971SOL    HW218813   0.062   6.509   3.954
 5972SOL     OW18814   4.936   4.822   0.557
 5972SOL    HW118815   4.903   4.859   0.644
 5972SOL    HW218816   4.951   4.724   0.565
 5973SOL     OW18817   3.286   1.302   2.477
 5973SOL    HW118818   3.336   1.268   2.397
 5973SOL    HW218819   3.338   1.378   2.518
 5974SOL     OW18820   5.272   1.955   5.375
 5974SOL    HW118821   5.236   1.985   5.286
 5974SOL    HW218822   5.250   2.023   5.445
 5975SOL     OW18823   4.739   4.934   1.035
 5975SOL    HW118824   4.756   4.843   1.072
 5975SOL    HW218825   4.641   4.949   1.027
 5976SOL     OW18826   2.458   3.266   5.628
 5976SOL    HW118827   2.365   3.287   5.599
 5976SOL    HW218828   2.484   3.324   5.705
 5977SOL     OW18829   6.646   4.349   0.661
 5977SOL    HW118830   6.687   4.372   0.750
 5977SOL    HW218831   6.548   4.365   0.665
 5978SOL     OW18832   2.737   3.744   6.892
 5978SOL    HW118833   2.701   3.673   6.831
 5978SOL    HW218834   2.690   3.738   6.980
 5979SOL     OW18835   6.059   0.704   1.809
 5979SOL    HW118836   6.006   0.620   1.793
 5979SOL    HW218837   6.004   0.783   1.785
 5980SOL     OW18838   2.897   3.098   1.288
 5980SOL    HW118839   2.853   3.155   1.218
 5980SOL    HW218840   2.921   3.010   1.248
 5981SOL     OW18841   3.225   2.209   0.455
 5981SOL    HW118842   3.233   2.111   0.469
 5981SOL    HW218843   3.221   2.229   0.357
 5982SOL     OW18844   5.141   3.015   0.313
 5982SOL    HW118845   5.227   2.967   0.291
 5982SOL    HW218846   5.126   3.012   0.412
 5983SOL     OW18847   6.902   0.819   3.702
 5983SOL    HW118848   6.993   0.802   3.664
 5983SOL    HW218849   6.860   0.895   3.653
 5984SOL     OW18850   5.597   0.020   4.134
 5984SOL    HW118851   5.656   0.036   4.055
 5984SOL    HW218852   5.599   6.943   4.158
 5985SOL     OW18853   6.447   3.061   2.220
 5985SOL    HW118854   6.421   3.129   2.289
 5985SOL    HW218855   6.415   3.091   2.130
 5986SOL     OW18856   3.546   3.207   4.462
 5986SOL    HW118857   3.551   3.107   4.465
 5986SOL    HW218858   3.591   3.241   4.380
 5987SOL     OW18859   6.964   6.478   5.373
 5987SOL    HW118860   6.906   6.461   5.294
 5987SOL    HW218861   0.023   6.534   5.347
 5988SOL     OW18862   0.900   2.663   6.226
 5988SOL    HW118863   0.926   2.757   6.245
 5988SOL    HW218864   0.959   2.625   6.155
 5989SOL     OW18865   0.669   6.490   6.048
 5989SOL    HW118866   0.634   6.543   6.125
 5989SOL    HW218867   0.768   6.476   6.058
 5990SOL     OW18868   2.752   4.862   1.929
 5990SOL    HW118869   2.772   4.768   1.958
 5990SOL    HW218870   2.707   4.911   2.003
 5991SOL     OW18871   4.482   0.469   0.413
 5991SOL    HW118872   4.418   0.406   0.368
 5991SOL    HW218873   4.432   0.524   0.480
 5992SOL     OW18874   3.137   6.360   2.263
 5992SOL    HW118875   3.224   6.326   2.229
 5992SOL    HW218876   3.149   6.392   2.357
 5993SOL     OW18877   5.559   1.844   7.017
 5993SOL    HW118878   5.618   1.796   0.063
 5993SOL    HW218879   5.465   1.843   0.030
 5994SOL     OW18880   0.281   3.405   0.003
 5994SOL    HW118881   0.362   3.461   0.021
 5994SOL    HW218882   0.309   3.311   7.004
 5995SOL     OW18883   4.845   3.654   1.530
 5995SOL    HW118884   4.841   3.680   1.433
 5995SOL    HW218885   4.934   3.681   1.568
 5996SOL     OW18886   2.703   5.919   1.264
 5996SOL    HW118887   2.717   6.002   1.319
 5996SOL    HW218888   2.777   5.910   1.197
 5997SOL     OW18889   6.183   0.655   3.776
 5997SOL    HW118890   6.179   0.632   3.873
 5997SOL    HW218891   6.269   0.623   3.737
 5998SOL     OW18892   6.182   5.703   0.362
 5998SOL    HW118893   6.111   5.642   0.325
 5998SOL    HW218894   6.156   5.798   0.344
 5999SOL     OW18895   5.009   3.235   1.647
 5999SOL    HW118896   5.101   3.210   1.617
 5999SOL    HW218897   4.979   3.173   1.719
 6000SOL     OW18898   0.594   4.166   0.818
 6000SOL    HW118899   0.520   4.190   0.756
 6000SOL    HW218900   0.557   4.124   0.901
 6001SOL     OW18901   6.458   5.716   5.915
 6001SOL    HW118902   6.507   5.793   5.957
 6001SOL    HW218903   6.377   5.696   5.970
 6002SOL     OW18904   5.736   4.608   5.714
 6002SOL    HW118905   5.804   4.652   5.656
 6002SOL    HW218906   5.691   4.535   5.663
 6003SOL     OW18907   1.759   2.544   4.766
 6003SOL    HW118908   1.791   2.490   4.844
 6003SOL    HW218909   1.838   2.570   4.709
 6004SOL     OW18910   5.443   2.177   4.449
 6004SOL    HW118911   5.392   2.111   4.394
 6004SOL    HW218912   5.394   2.264   4.451
 6005SOL     OW18913   4.551   4.423   6.537
 6005SOL    HW118914   4.626   4.414   6.602
 6005SOL    HW218915   4.485   4.349   6.551
 6006SOL     OW18916   3.628   6.139   6.478
 6006SOL    HW118917   3.595   6.130   6.384
 6006SOL    HW218918   3.618   6.051   6.525
 6007SOL     OW18919   2.727   5.993   6.089
 6007SOL    HW118920   2.663   5.934   6.137
 6007SOL    HW218921   2.791   6.032   6.155
 6008SOL     OW18922   3.354   3.942   6.277
 6008SOL    HW118923   3.406   3.870   6.323
 6008SOL    HW218924   3.403   4.029   6.288
 6009SOL     OW18925   3.917   5.480   3.174
 6009SOL    HW118926   3.934   5.416   3.249
 6009SOL    HW218927   3.819   5.500   3.170
 6010SOL     OW18928   0.501   5.243   3.742
 6010SOL    HW118929   0.426   5.239   3.676
 6010SOL    HW218930   0.507   5.157   3.791
 6011SOL     OW18931   6.054   1.886   2.078
 6011SOL    HW118932   6.151   1.863   2.068
 6011SOL    HW218933   6.041   1.940   2.161
 6012SOL     OW18934   6.860   0.427   6.234
 6012SOL    HW118935   6.857   0.346   6.175
 6012SOL    HW218936   6.910   0.405   6.317
 6013SOL     OW18937   6.025   1.338   1.985
 6013SOL    HW118938   5.974   1.257   2.015
 6013SOL    HW218939   6.005   1.355   1.888
 6014SOL     OW18940   3.187   4.000   3.993
 6014SOL    HW118941   3.245   3.925   4.025
 6014SOL    HW218942   3.140   4.041   4.071
 6015SOL     OW18943   6.007   0.526   4.231
 6015SOL    HW118944   6.026   0.442   4.281
 6015SOL    HW218945   5.979   0.598   4.295
 6016SOL     OW18946   4.584   1.496   4.567
 6016SOL    HW118947   4.619   1.407   4.538
 6016SOL    HW218948   4.541   1.488   4.657
 6017SOL     OW18949   0.504   1.632   5.698
 6017SOL    HW118950   0.557   1.567   5.644
 6017SOL    HW218951   0.409   1.600   5.705
 6018SOL     OW18952   2.994   0.917   4.462
 6018SOL    HW118953   3.003   0.935   4.560
 6018SOL    HW218954   2.961   1.000   4.416
 6019SOL     OW18955   6.407   4.017   0.042
 6019SOL    HW118956   6.424   3.956   0.120
 6019SOL    HW218957   6.489   4.072   0.025
 6020SOL     OW18958   0.743   4.962   6.139
 6020SOL    HW118959   0.724   5.040   6.079
 6020SOL    HW218960   0.670   4.954   6.207
 6021SOL     OW18961   5.754   6.923   3.619
 6021SOL    HW118962   5.655   6.937   3.615
 6021SOL    HW218963   5.800   7.006   3.586
 6022SOL     OW18964   6.590   2.476   1.466
 6022SOL    HW118965   6.669   2.495   1.407
 6022SOL    HW218966   6.582   2.378   1.481
 6023SOL     OW18967   4.008   0.227   1.772
 6023SOL    HW118968   4.007   0.201   1.676
 6023SOL    HW218969   4.001   0.326   1.780
 6024SOL     OW18970   1.498   6.090   0.144
 6024SOL    HW118971   1.558   6.154   0.097
 6024SOL    HW218972   1.521   5.996   0.116
 6025SOL     OW18973   2.947   0.447   4.467
 6025SOL    HW118974   3.032   0.473   4.422
 6025SOL    HW218975   2.889   0.395   4.404
 6026SOL     OW18976   5.685   5.773   4.464
 6026SOL    HW118977   5.588   5.772   4.442
 6026SOL    HW218978   5.733   5.830   4.397
 6027SOL     OW18979   5.221   4.434   6.637
 6027SOL    HW118980   5.187   4.471   6.723
 6027SOL    HW218981   5.249   4.508   6.576
 6028SOL     OW18982   5.748   5.082   6.049
 6028SOL    HW118983   5.789   5.021   6.116
 6028SOL    HW218984   5.679   5.140   6.093
 6029SOL     OW18985   2.751   0.921   2.680
 6029SOL    HW118986   2.713   1.011   2.703
 6029SOL    HW218987   2.831   0.932   2.622
 6030SOL     OW18988   5.955   3.202   5.022
 6030SOL    HW118989   5.957   3.275   5.090
 6030SOL    HW218990   6.044   3.156   5.019
 6031SOL     OW18991   0.118   6.169   5.462
 6031SOL    HW118992   0.183   6.227   5.411
 6031SOL    HW218993   0.049   6.133   5.399
 6032SOL     OW18994   3.546   6.045   3.100
 6032SOL    HW118995   3.567   6.100   3.181
 6032SOL    HW218996   3.631   6.025   3.050
 6033SOL     OW18997   0.977   1.672   2.473
 6033SOL    HW118998   1.006   1.578   2.459
 6033SOL    HW218999   1.057   1.733   2.464
 6034SOL     OW19000   1.004   0.134   1.287
 6034SOL    HW119001   1.042   0.117   1.378
 6034SOL    HW219002   1.008   0.231   1.267
 6035SOL     OW19003   2.153   0.417   2.816
 6035SOL    HW119004   2.220   0.348   2.789
 6035SOL    HW219005   2.130   0.475   2.738
 6036SOL     OW19006   6.784   3.467   1.013
 6036SOL    HW119007   6.881   3.472   1.034
 6036SOL    HW219008   6.757   3.372   0.998
 6037SOL     OW19009   4.917   1.697   6.981
 6037SOL    HW119010   4.886   1.790   6.998
 6037SOL    HW219011   5.004   1.698   6.932
 6038SOL     OW19012   1.289   1.950   6.055
 6038SOL    HW119013   1.262   2.035   6.010
 6038SOL    HW219014   1.383   1.960   6.090
 6039SOL     OW19015   4.039   3.460   3.755
 6039SOL    HW119016   4.077   3.531   3.815
 6039SOL    HW219017   4.102   3.443   3.680
 6040SOL     OW19018   0.533   1.159   0.195
 6040SOL    HW119019   0.576   1.180   0.283
 6040SOL    HW219020   0.594   1.188   0.121
 6041SOL     OW19021   2.448   3.698   5.651
 6041SOL    HW119022   2.442   3.722   5.554
 6041SOL    HW219023   2.525   3.745   5.693
 6042SOL     OW19024   3.552   5.539   3.837
 6042SOL    HW119025   3.563   5.631   3.873
 6042SOL    HW219026   3.460   5.505   3.859
 6043SOL     OW19027   2.338   0.507   3.233
 6043SOL    HW119028   2.326   0.417   3.275
 6043SOL    HW219029   2.332   0.578   3.304
 6044SOL     OW19030   0.940   3.277   1.395
 6044SOL    HW119031   0.933   3.189   1.348
 6044SOL    HW219032   0.888   3.274   1.480
 6045SOL     OW19033   5.239   1.584   3.496
 6045SOL    HW119034   5.319   1.644   3.489
 6045SOL    HW219035   5.260   1.507   3.556
 6046SOL     OW19036   3.362   2.866   2.770
 6046SOL    HW119037   3.302   2.876   2.690
 6046SOL    HW219038   3.458   2.864   2.740
 6047SOL     OW19039   0.001   1.759   0.535
 6047SOL    HW119040   7.016   1.852   0.572
 6047SOL    HW219041   0.036   1.697   0.605
 6048SOL     OW19042   5.856   6.145   3.963
 6048SOL    HW119043   5.890   6.067   4.015
 6048SOL    HW219044   5.783   6.190   4.014
 6049SOL     OW19045   4.505   4.838   5.962
 6049SOL    HW119046   4.601   4.835   5.937
 6049SOL    HW219047   4.481   4.929   5.995
 6050SOL     OW19048   2.964   6.153   2.256
 6050SOL    HW119049   3.028   6.228   2.271
 6050SOL    HW219050   2.913   6.136   2.340
 6051SOL     OW19051   0.191   1.310   3.376
 6051SOL    HW119052   0.214   1.298   3.279
 6051SOL    HW219053   0.163   1.404   3.393
 6052SOL     OW19054   4.854   6.216   0.131
 6052SOL    HW119055   4.885   6.270   0.053
 6052SOL    HW219056   4.773   6.258   0.172
 6053SOL     OW19057   3.934   2.542   5.914
 6053SOL    HW119058   3.953   2.604   5.838
 6053SOL    HW219059   4.006   2.474   5.921
 6054SOL     OW19060   3.778   4.381   1.017
 6054SOL    HW119061   3.720   4.322   0.961
 6054SOL    HW219062   3.801   4.333   1.102
 6055SOL     OW19063   3.162   4.046   1.145
 6055SOL    HW119064   3.092   3.999   1.198
 6055SOL    HW219065   3.250   4.000   1.159
 6056SOL     OW19066   5.340   6.053   3.703
 6056SOL    HW119067   5.378   6.058   3.795
 6056SOL    HW219068   5.378   6.128   3.648
 6057SOL     OW19069   4.758   0.547   3.990
 6057SOL    HW119070   4.838   0.520   4.044
 6057SOL    HW219071   4.760   0.646   3.975
 6058SOL     OW19072   5.877   2.585   6.074
 6058SOL    HW119073   5.822   2.508   6.040
 6058SOL    HW219074   5.958   2.595   6.016
 6059SOL     OW19075   4.328   3.034   6.995
 6059SOL    HW119076   4.292   3.096   0.045
 6059SOL    HW219077   4.400   2.977   0.016
 6060SOL     OW19078   2.285   3.234   0.122
 6060SOL    HW119079   2.227   3.230   0.204
 6060SOL    HW219080   2.268   3.155   0.065
 6061SOL     OW19081   2.773   4.250   7.015
 6061SOL    HW119082   2.675   4.267   0.002
 6061SOL    HW219083   2.823   4.335   0.011
 6062SOL     OW19084   1.614   2.172   0.192
 6062SOL    HW119085   1.536   2.233   0.204
 6062SOL    HW219086   1.681   2.215   0.132
 6063SOL     OW19087   4.817   4.235   6.369
 6063SOL    HW119088   4.795   4.312   6.309
 6063SOL    HW219089   4.867   4.165   6.318
 6064SOL     OW19090   6.549   5.364   1.093
 6064SOL    HW119091   6.594   5.440   1.140
 6064SOL    HW219092   6.537   5.288   1.157
 6065SOL     OW19093   1.273   7.012   2.364
 6065SOL    HW119094   1.286   0.011   2.461
 6065SOL    HW219095   1.360   6.991   2.321
 6066SOL     OW19096   5.690   5.730   3.764
 6066SOL    HW119097   5.664   5.767   3.853
 6066SOL    HW219098   5.668   5.797   3.693
 6067SOL     OW19099   6.213   6.658   6.272
 6067SOL    HW119100   6.149   6.735   6.278
 6067SOL    HW219101   6.295   6.678   6.326
 6068SOL     OW19102   4.557   2.470   4.267
 6068SOL    HW119103   4.541   2.564   4.299
 6068SOL    HW219104   4.586   2.413   4.343
 6069SOL     OW19105   0.284   4.419   6.220
 6069SOL    HW119106   0.209   4.376   6.271
 6069SOL    HW219107   0.365   4.360   6.224
 6070SOL     OW19108   2.512   1.210   0.499
 6070SOL    HW119109   2.610   1.208   0.519
 6070SOL    HW219110   2.498   1.251   0.408
 6071SOL     OW19111   5.817   0.959   5.743
 6071SOL    HW119112   5.802   1.044   5.693
 6071SOL    HW219113   5.893   0.909   5.702
 6072SOL     OW19114   0.376   2.219   0.595
 6072SOL    HW119115   0.459   2.274   0.583
 6072SOL    HW219116   0.320   2.258   0.669
 6073SOL     OW19117   4.933   2.797   0.115
 6073SOL    HW119118   4.908   2.829   0.024
 6073SOL    HW219119   4.870   2.838   0.182
 6074SOL     OW19120   0.593   6.809   2.359
 6074SOL    HW119121   0.646   6.732   2.394
 6074SOL    HW219122   0.527   6.837   2.428
 6075SOL     OW19123   5.347   0.253   6.674
 6075SOL    HW119124   5.338   0.211   6.584
 6075SOL    HW219125   5.344   0.352   6.665
 6076SOL     OW19126   0.805   6.040   2.987
 6076SOL    HW119127   0.844   6.095   2.913
 6076SOL    HW219128   0.707   6.061   2.995
 6077SOL     OW19129   5.499   6.860   2.405
 6077SOL    HW119130   5.499   6.932   2.475
 6077SOL    HW219131   5.594   6.840   2.379
 6078SOL     OW19132   4.303   4.292   0.622
 6078SOL    HW119133   4.268   4.250   0.538
 6078SOL    HW219134   4.348   4.378   0.599
 6079SOL     OW19135   3.087   2.916   0.638
 6079SOL    HW119136   2.995   2.944   0.666
 6079SOL    HW219137   3.080   2.850   0.563
 6080SOL     OW19138   0.125   5.218   6.526
 6080SOL    HW119139   0.190   5.294   6.522
 6080SOL    HW219140   0.093   5.207   6.620
 6081SOL     OW19141   1.119   3.773   3.577
 6081SOL    HW119142   1.116   3.736   3.670
 6081SOL    HW219143   1.058   3.852   3.569
 6082SOL     OW19144   4.961   0.779   1.082
 6082SOL    HW119145   5.033   0.773   1.013
 6082SOL    HW219146   4.926   0.687   1.102
 6083SOL     OW19147   4.606   0.567   6.177
 6083SOL    HW119148   4.596   0.546   6.080
 6083SOL    HW219149   4.684   0.516   6.214
 6084SOL     OW19150   0.134   6.104   2.424
 6084SOL    HW119151   0.132   6.195   2.465
 6084SOL    HW219152   0.145   6.113   2.325
 6085SOL     OW19153   0.386   0.252   0.778
 6085SOL    HW119154   0.342   0.331   0.821
 6085SOL    HW219155   0.479   0.276   0.751
 6086SOL     OW19156   3.243   4.099   6.971
 6086SOL    HW119157   3.330   4.051   6.964
 6086SOL    HW219158   3.189   4.084   6.888
 6087SOL     OW19159   4.908   6.479   0.799
 6087SOL    HW119160   4.944   6.572   0.808
 6087SOL    HW219161   4.943   6.437   0.715
 6088SOL     OW19162   5.395   6.056   3.366
 6088SOL    HW119163   5.387   6.136   3.426
 6088SOL    HW219164   5.333   5.985   3.398
 6089SOL     OW19165   6.248   3.624   4.057
 6089SOL    HW119166   6.155   3.630   4.021
 6089SOL    HW219167   6.270   3.529   4.078
 6090SOL     OW19168   3.888   5.915   4.210
 6090SOL    HW119169   3.869   5.827   4.167
 6090SOL    HW219170   3.987   5.932   4.208
 6091SOL     OW19171   1.213   1.841   2.458
 6091SOL    HW119172   1.239   1.908   2.388
 6091SOL    HW219173   1.173   1.889   2.536
 6092SOL     OW19174   3.041   5.970   0.782
 6092SOL    HW119175   3.045   6.010   0.690
 6092SOL    HW219176   2.947   5.941   0.802
 6093SOL     OW19177   2.138   2.219   2.691
 6093SOL    HW119178   2.175   2.126   2.693
 6093SOL    HW219179   2.213   2.285   2.683
 6094SOL     OW19180   0.467   6.194   5.096
 6094SOL    HW119181   0.503   6.240   5.015
 6094SOL    HW219182   0.368   6.182   5.086
 6095SOL     OW19183   4.720   4.875   1.932
 6095SOL    HW119184   4.763   4.880   1.842
 6095SOL    HW219185   4.787   4.843   1.999
 6096SOL     OW19186   5.640   6.144   3.303
 6096SOL    HW119187   5.545   6.114   3.314
 6096SOL    HW219188   5.651   6.235   3.344
 6097SOL     OW19189   1.820   5.029   1.861
 6097SOL    HW119190   1.875   5.031   1.944
 6097SOL    HW219191   1.872   4.987   1.787
 6098SOL     OW19192   6.704   0.443   4.799
 6098SOL    HW119193   6.606   0.420   4.796
 6098SOL    HW219194   6.728   0.498   4.720
 6099SOL     OW19195   3.809   0.643   5.931
 6099SOL    HW119196   3.869   0.569   5.961
 6099SOL    HW219197   3.796   0.639   5.833
 6100SOL     OW19198   0.209   6.155   5.015
 6100SOL    HW119199   0.133   6.218   5.003
 6100SOL    HW219200   0.194   6.073   4.958
 6101SOL     OW19201   0.012   3.297   1.646
 6101SOL    HW119202   0.008   3.325   1.742
 6101SOL    HW219203   6.939   3.283   1.611
 6102SOL     OW19204   4.213   0.105   2.636
 6102SOL    HW119205   4.297   0.060   2.606
 6102SOL    HW219206   4.195   0.083   2.731
 6103SOL     OW19207   6.332   1.808   2.073
 6103SOL    HW119208   6.377   1.867   2.140
 6103SOL    HW219209   6.339   1.713   2.103
 6104SOL     OW19210   6.955   0.586   4.104
 6104SOL    HW119211   6.995   0.671   4.070
 6104SOL    HW219212   6.873   0.564   4.052
 6105SOL     OW19213   3.000   4.718   5.277
 6105SOL    HW119214   2.958   4.631   5.251
 6105SOL    HW219215   3.052   4.706   5.361
 6106SOL     OW19216   6.332   5.003   5.675
 6106SOL    HW119217   6.265   4.947   5.723
 6106SOL    HW219218   6.399   5.038   5.741
 6107SOL     OW19219   5.216   5.632   5.195
 6107SOL    HW119220   5.310   5.608   5.172
 6107SOL    HW219221   5.200   5.728   5.173
 6108SOL     OW19222   2.413   1.469   0.305
 6108SOL    HW119223   2.336   1.526   0.276
 6108SOL    HW219224   2.472   1.522   0.366
 6109SOL     OW19225   6.149   6.881   3.839
 6109SOL    HW119226   6.200   6.892   3.754
 6109SOL    HW219227   6.055   6.855   3.819
 6110SOL     OW19228   1.591   1.183   4.577
 6110SOL    HW119229   1.572   1.247   4.503
 6110SOL    HW219230   1.673   1.214   4.627
 6111SOL     OW19231   1.752   4.331   0.840
 6111SOL    HW119232   1.797   4.416   0.815
 6111SOL    HW219233   1.793   4.255   0.789
 6112SOL     OW19234   4.667   6.728   2.957
 6112SOL    HW119235   4.708   6.818   2.940
 6112SOL    HW219236   4.591   6.738   3.021
 6113SOL     OW19237   3.032   5.302   0.589
 6113SOL    HW119238   3.102   5.370   0.569
 6113SOL    HW219239   2.974   5.336   0.664
 6114SOL     OW19240   4.948   2.143   0.123
 6114SOL    HW119241   4.858   2.185   0.137
 6114SOL    HW219242   5.008   2.168   0.199
 6115SOL     OW19243   1.062   0.546   5.660
 6115SOL    HW119244   0.985   0.607   5.641
 6115SOL    HW219245   1.146   0.600   5.666
 6116SOL     OW19246   5.349   2.354   6.336
 6116SOL    HW119247   5.271   2.301   6.370
 6116SOL    HW219248   5.316   2.438   6.294
 6117SOL     OW19249   1.935   1.943   1.233
 6117SOL    HW119250   2.020   1.989   1.262
 6117SOL    HW219251   1.903   1.883   1.307
 6118SOL     OW19252   6.025   0.713   0.920
 6118SOL    HW119253   6.004   0.616   0.927
 6118SOL    HW219254   6.017   0.742   0.825
 6119SOL     OW19255   0.119   1.985   0.221
 6119SOL    HW119256   0.170   1.978   0.136
 6119SOL    HW219257   0.132   2.076   0.261
 6120SOL     OW19258   2.538   1.006   4.493
 6120SOL    HW119259   2.607   0.937   4.475
 6120SOL    HW219260   2.453   0.962   4.523
 6121SOL     OW19261   0.515   2.498   5.183
 6121SOL    HW119262   0.470   2.586   5.200
 6121SOL    HW219263   0.524   2.449   5.270
 6122SOL     OW19264   5.047   4.586   5.823
 6122SOL    HW119265   5.045   4.685   5.835
 6122SOL    HW219266   5.137   4.558   5.790
 6123SOL     OW19267   5.488   1.546   5.326
 6123SOL    HW119268   5.467   1.634   5.370
 6123SOL    HW219269   5.483   1.557   5.227
 6124SOL     OW19270   2.549   5.760   3.958
 6124SOL    HW119271   2.508   5.701   4.028
 6124SOL    HW219272   2.535   5.719   3.868
 6125SOL     OW19273   2.552   2.161   6.768
 6125SOL    HW119274   2.539   2.256   6.798
 6125SOL    HW219275   2.589   2.160   6.675
 6126SOL     OW19276   5.969   3.252   5.428
 6126SOL    HW119277   5.930   3.323   5.369
 6126SOL    HW219278   5.898   3.186   5.451
 6127SOL     OW19279   4.194   2.175   1.726
 6127SOL    HW119280   4.102   2.185   1.763
 6127SOL    HW219281   4.237   2.093   1.764
 6128SOL     OW19282   5.552   5.600   0.358
 6128SOL    HW119283   5.634   5.630   0.308
 6128SOL    HW219284   5.493   5.679   0.375
 6129SOL     OW19285   1.356   5.505   2.349
 6129SOL    HW119286   1.423   5.448   2.300
 6129SOL    HW219287   1.366   5.490   2.448
 6130SOL     OW19288   5.848   2.560   0.159
 6130SOL    HW119289   5.898   2.604   0.234
 6130SOL    HW219290   5.864   2.610   0.074
 6131SOL     OW19291   6.509   1.396   2.941
 6131SOL    HW119292   6.429   1.343   2.915
 6131SOL    HW219293   6.579   1.335   2.978
 6132SOL     OW19294   3.693   1.688   6.607
 6132SOL    HW119295   3.696   1.588   6.608
 6132SOL    HW219296   3.601   1.718   6.582
 6133SOL     OW19297   1.583   1.996   3.448
 6133SOL    HW119298   1.582   2.014   3.546
 6133SOL    HW219299   1.631   1.909   3.431
 6134SOL     OW19300   6.197   0.034   6.295
 6134SOL    HW119301   6.134   6.976   6.300
 6134SOL    HW219302   6.205   0.064   6.199
 6135SOL     OW19303   6.607   0.050   6.798
 6135SOL    HW119304   6.594   0.071   6.701
 6135SOL    HW219305   6.518   0.048   6.844
 6136SOL     OW19306   1.061   3.087   2.432
 6136SOL    HW119307   1.134   3.048   2.376
 6136SOL    HW219308   1.050   3.032   2.515
 6137SOL     OW19309   6.713   3.981   2.311
 6137SOL    HW119310   6.810   4.006   2.308
 6137SOL    HW219311   6.687   3.936   2.225
 6138SOL     OW19312   4.243   0.152   1.870
 6138SOL    HW119313   4.230   0.151   1.970
 6138SOL    HW219314   4.159   0.185   1.827
 6139SOL     OW19315   1.594   0.833   5.871
 6139SOL    HW119316   1.506   0.855   5.830
 6139SOL    HW219317   1.631   0.914   5.917
 6140SOL     OW19318   1.015   0.254   3.344
 6140SOL    HW119319   0.960   0.302   3.276
 6140SOL    HW219320   0.958   0.233   3.424
 6141SOL     OW19321   0.365   1.365   5.949
 6141SOL    HW119322   0.346   1.453   5.994
 6141SOL    HW219323   0.441   1.320   5.996
 6142SOL     OW19324   6.967   0.784   1.128
 6142SOL    HW119325   6.953   0.685   1.121
 6142SOL    HW219326   7.008   0.818   1.044
 6143SOL     OW19327   0.094   3.755   5.417
 6143SOL    HW119328   0.167   3.736   5.351
 6143SOL    HW219329   0.088   3.681   5.484
 6144SOL     OW19330   3.993   5.197   3.292
 6144SOL    HW119331   4.072   5.257   3.288
 6144SOL    HW219332   3.999   5.129   3.219
 6145SOL     OW19333   4.832   3.202   3.814
 6145SOL    HW119334   4.830   3.206   3.714
 6145SOL    HW219335   4.823   3.294   3.852
 6146SOL     OW19336   5.513   6.754   4.825
 6146SOL    HW119337   5.445   6.687   4.855
 6146SOL    HW219338   5.573   6.777   4.902
 6147SOL     OW19339   1.467   2.121   4.187
 6147SOL    HW119340   1.462   2.067   4.103
 6147SOL    HW219341   1.487   2.060   4.265
 6148SOL     OW19342   3.238   6.168   0.137
 6148SOL    HW119343   3.238   6.156   0.038
 6148SOL    HW219344   3.221   6.080   0.181
 6149SOL     OW19345   3.013   0.580   1.583
 6149SOL    HW119346   3.020   0.578   1.483
 6149SOL    HW219347   3.074   0.511   1.622
 6150SOL     OW19348   0.601   3.784   5.383
 6150SOL    HW119349   0.584   3.882   5.392
 6150SOL    HW219350   0.632   3.748   5.471
 6151SOL     OW19351   4.398   5.389   3.994
 6151SOL    HW119352   4.369   5.471   4.042
 6151SOL    HW219353   4.497   5.391   3.981
 6152SOL     OW19354   1.457   4.880   4.384
 6152SOL    HW119355   1.465   4.889   4.285
 6152SOL    HW219356   1.461   4.783   4.409
 6153SOL     OW19357   5.601   5.548   1.487
 6153SOL    HW119358   5.568   5.524   1.579
 6153SOL    HW219359   5.524   5.546   1.423
 6154SOL     OW19360   4.909   3.431   2.021
 6154SOL    HW119361   4.861   3.435   1.934
 6154SOL    HW219362   4.898   3.340   2.062
 6155SOL     OW19363   1.554   1.543   2.856
 6155SOL    HW119364   1.646   1.583   2.860
 6155SOL    HW219365   1.550   1.474   2.784
 6156SOL     OW19366   5.137   5.402   1.471
 6156SOL    HW119367   5.173   5.327   1.527
 6156SOL    HW219368   5.170   5.489   1.507
 6157SOL     OW19369   1.615   2.866   2.246
 6157SOL    HW119370   1.522   2.874   2.209
 6157SOL    HW219371   1.650   2.775   2.227
 6158SOL     OW19372   2.942   2.139   4.937
 6158SOL    HW119373   3.012   2.204   4.967
 6158SOL    HW219374   2.896   2.099   5.017
 6159SOL     OW19375   6.496   2.856   0.958
 6159SOL    HW119376   6.499   2.900   0.868
 6159SOL    HW219377   6.511   2.925   1.029
 6160SOL     OW19378   1.497   0.691   0.610
 6160SOL    HW119379   1.461   0.643   0.531
 6160SOL    HW219380   1.550   0.770   0.579
 6161SOL     OW19381   4.522   3.241   6.544
 6161SOL    HW119382   4.476   3.199   6.621
 6161SOL    HW219383   4.559   3.330   6.571
 6162SOL     OW19384   5.852   5.344   3.289
 6162SOL    HW119385   5.912   5.265   3.296
 6162SOL    HW219386   5.757   5.315   3.297
 6163SOL     OW19387   5.552   6.379   3.828
 6163SOL    HW119388   5.461   6.404   3.797
 6163SOL    HW219389   5.548   6.296   3.883
 6164SOL     OW19390   3.131   3.511   4.719
 6164SOL    HW119391   3.095   3.427   4.761
 6164SOL    HW219392   3.056   3.577   4.709
 6165SOL     OW19393   4.055   1.243   0.381
 6165SOL    HW119394   4.089   1.155   0.415
 6165SOL    HW219395   4.070   1.314   0.449
 6166SOL     OW19396   1.686   3.001   6.184
 6166SOL    HW119397   1.715   2.911   6.216
 6166SOL    HW219398   1.760   3.067   6.196
 6167SOL     OW19399   1.677   3.947   3.580
 6167SOL    HW119400   1.701   3.850   3.582
 6167SOL    HW219401   1.588   3.959   3.537
 6168SOL     OW19402   0.163   3.886   3.882
 6168SOL    HW119403   0.159   3.962   3.947
 6168SOL    HW219404   0.252   3.885   3.837
 6169SOL     OW19405   2.399   0.149   0.037
 6169SOL    HW119406   2.444   0.237   0.046
 6169SOL    HW219407   2.300   0.162   0.027
 6170SOL     OW19408   3.271   3.858   0.277
 6170SOL    HW119409   3.328   3.797   0.221
 6170SOL    HW219410   3.283   3.952   0.246
 6171SOL     OW19411   2.233   4.004   2.335
 6171SOL    HW119412   2.179   4.055   2.403
 6171SOL    HW219413   2.328   4.033   2.339
 6172SOL     OW19414   1.795   6.589   2.826
 6172SOL    HW119415   1.733   6.648   2.775
 6172SOL    HW219416   1.845   6.643   2.893
 6173SOL     OW19417   1.375   6.230   2.468
 6173SOL    HW119418   1.309   6.188   2.530
 6173SOL    HW219419   1.350   6.209   2.373
 6174SOL     OW19420   5.149   5.428   3.029
 6174SOL    HW119421   5.140   5.442   2.930
 6174SOL    HW219422   5.143   5.516   3.076
 6175SOL     OW19423   5.267   0.332   3.231
 6175SOL    HW119424   5.263   0.406   3.163
 6175SOL    HW219425   5.175   0.296   3.245
 6176SOL     OW19426   6.795   3.695   5.536
 6176SOL    HW119427   6.892   3.675   5.525
 6176SOL    HW219428   6.743   3.610   5.537
 6177SOL     OW19429   6.377   2.694   0.033
 6177SOL    HW119430   6.401   2.622   0.097
 6177SOL    HW219431   6.342   2.773   0.082
 6178SOL     OW19432   6.207   3.031   0.991
 6178SOL    HW119433   6.135   2.975   0.951
 6178SOL    HW219434   6.216   3.116   0.939
 6179SOL     OW19435   0.239   2.195   5.560
 6179SOL    HW119436   0.324   2.142   5.572
 6179SOL    HW219437   0.187   2.156   5.484
 6180SOL     OW19438   3.542   0.205   6.930
 6180SOL    HW119439   3.528   0.240   6.838
 6180SOL    HW219440   3.454   0.196   6.976
 6181SOL     OW19441   5.031   6.471   6.644
 6181SOL    HW119442   5.082   6.508   6.566
 6181SOL    HW219443   5.074   6.501   6.729
 6182SOL     OW19444   4.797   5.967   6.576
 6182SOL    HW119445   4.736   6.041   6.548
 6182SOL    HW219446   4.874   6.004   6.628
 6183SOL     OW19447   3.626   0.520   3.266
 6183SOL    HW119448   3.664   0.459   3.336
 6183SOL    HW219449   3.700   0.577   3.230
 6184SOL     OW19450   0.619   0.023   6.846
 6184SOL    HW119451   0.559   0.072   6.909
 6184SOL    HW219452   0.649   0.086   6.774
 6185SOL     OW19453   0.373   3.596   5.937
 6185SOL    HW119454   0.292   3.598   5.996
 6185SOL    HW219455   0.360   3.528   5.865
 6186SOL     OW19456   5.727   0.216   4.656
 6186SOL    HW119457   5.757   0.256   4.570
 6186SOL    HW219458   5.790   0.143   4.683
 6187SOL     OW19459   4.204   4.706   3.377
 6187SOL    HW119460   4.270   4.645   3.421
 6187SOL    HW219461   4.133   4.730   3.443
 6188SOL     OW19462   2.704   6.400   1.405
 6188SOL    HW119463   2.683   6.385   1.501
 6188SOL    HW219464   2.622   6.430   1.357
 6189SOL     OW19465   6.016   4.497   3.227
 6189SOL    HW119466   5.971   4.556   3.294
 6189SOL    HW219467   6.042   4.411   3.270
 6190SOL     OW19468   5.361   2.538   0.211
 6190SOL    HW119469   5.274   2.576   0.242
 6190SOL    HW219470   5.353   2.439   0.200
 6191SOL     OW19471   6.386   2.300   0.004
 6191SOL    HW119472   6.416   2.256   0.089
 6191SOL    HW219473   6.286   2.301   0.001
 6192SOL     OW19474   3.297   2.828   6.621
 6192SOL    HW119475   3.383   2.878   6.622
 6192SOL    HW219476   3.229   2.879   6.568
 6193SOL     OW19477   5.731   0.257   1.436
 6193SOL    HW119478   5.745   0.328   1.506
 6193SOL    HW219479   5.794   0.182   1.452
 6194SOL     OW19480   1.884   0.799   0.483
 6194SOL    HW119481   1.827   0.869   0.440
 6194SOL    HW219482   1.895   0.722   0.421
 6195SOL     OW19483   3.505   0.517   6.374
 6195SOL    HW119484   3.408   0.518   6.396
 6195SOL    HW219485   3.526   0.591   6.311
 6196SOL     OW19486   0.734   1.395   5.878
 6196SOL    HW119487   0.786   1.356   5.955
 6196SOL    HW219488   0.796   1.411   5.801
 6197SOL     OW19489   2.362   3.172   0.615
 6197SOL    HW119490   2.356   3.223   0.529
 6197SOL    HW219491   2.358   3.235   0.692
 6198SOL     OW19492   4.206   4.718   2.682
 6198SOL    HW119493   4.245   4.652   2.618
 6198SOL    HW219494   4.109   4.729   2.663
 6199SOL     OW19495   1.669   6.771   6.335
 6199SOL    HW119496   1.571   6.781   6.319
 6199SOL    HW219497   1.695   6.821   6.418
 6200SOL     OW19498   4.037   0.245   6.072
 6200SOL    HW119499   4.112   0.207   6.127
 6200SOL    HW219500   4.003   0.329   6.115
 6201SOL     OW19501   2.242   4.240   5.125
 6201SOL    HW119502   2.314   4.307   5.145
 6201SOL    HW219503   2.282   4.162   5.078
 6202SOL     OW19504   3.376   1.658   1.332
 6202SOL    HW119505   3.335   1.700   1.413
 6202SOL    HW219506   3.388   1.727   1.261
 6203SOL     OW19507   4.941   1.432   4.287
 6203SOL    HW119508   4.908   1.490   4.361
 6203SOL    HW219509   4.902   1.462   4.200
 6204SOL     OW19510   1.703   6.362   5.821
 6204SOL    HW119511   1.664   6.399   5.737
 6204SOL    HW219512   1.647   6.390   5.899
 6205SOL     OW19513   5.673   6.033   6.767
 6205SOL    HW119514   5.591   6.065   6.815
 6205SOL    HW219515   5.715   6.109   6.718
 6206SOL     OW19516   5.290   6.918   2.216
 6206SOL    HW119517   5.248   7.009   2.212
 6206SOL    HW219518   5.362   6.918   2.286
 6207SOL     OW19519   1.779   4.141   4.746
 6207SOL    HW119520   1.802   4.112   4.653
 6207SOL    HW219521   1.831   4.086   4.812
 6208SOL     OW19522   6.336   6.809   5.696
 6208SOL    HW119523   6.304   6.794   5.790
 6208SOL    HW219524   6.270   6.770   5.632
 6209SOL     OW19525   3.768   5.248   0.638
 6209SOL    HW119526   3.834   5.321   0.655
 6209SOL    HW219527   3.754   5.240   0.539
 6210SOL     OW19528   5.863   4.519   3.879
 6210SOL    HW119529   5.924   4.440   3.890
 6210SOL    HW219530   5.878   4.560   3.789
 6211SOL     OW19531   3.197   6.560   4.723
 6211SOL    HW119532   3.225   6.598   4.811
 6211SOL    HW219533   3.192   6.632   4.655
 6212SOL     OW19534   6.684   6.553   3.552
 6212SOL    HW119535   6.611   6.619   3.571
 6212SOL    HW219536   6.645   6.471   3.510
 6213SOL     OW19537   6.810   0.006   6.572
 6213SOL    HW119538   6.871   0.047   6.504
 6213SOL    HW219539   6.818   0.056   6.659
 6214SOL     OW19540   5.993   4.633   2.588
 6214SOL    HW119541   5.914   4.648   2.648
 6214SOL    HW219542   6.027   4.540   2.600
 6215SOL     OW19543   3.162   3.429   0.692
 6215SOL    HW119544   3.161   3.336   0.656
 6215SOL    HW219545   3.218   3.487   0.633
 6216SOL     OW19546   5.511   1.665   2.383
 6216SOL    HW119547   5.582   1.733   2.365
 6216SOL    HW219548   5.510   1.643   2.481
 6217SOL     OW19549   4.931   3.110   1.393
 6217SOL    HW119550   4.835   3.088   1.374
 6217SOL    HW219551   4.936   3.193   1.448
 6218SOL     OW19552   3.026   5.207   4.900
 6218SOL    HW119553   3.118   5.182   4.869
 6218SOL    HW219554   2.961   5.195   4.824
 6219SOL     OW19555   0.995   1.702   4.700
 6219SOL    HW119556   1.067   1.767   4.677
 6219SOL    HW219557   0.940   1.738   4.775
 6220SOL     OW19558   2.190   4.517   5.416
 6220SOL    HW119559   2.251   4.594   5.433
 6220SOL    HW219560   2.243   4.434   5.404
 6221SOL     OW19561   3.797   5.307   4.411
 6221SOL    HW119562   3.784   5.214   4.376
 6221SOL    HW219563   3.710   5.340   4.448
 6222SOL     OW19564   0.112   0.966   1.315
 6222SOL    HW119565   0.205   0.944   1.285
 6222SOL    HW219566   0.048   0.898   1.280
 6223SOL     OW19567   4.830   2.818   4.832
 6223SOL    HW119568   4.924   2.800   4.805
 6223SOL    HW219569   4.824   2.911   4.869
 6224SOL     OW19570   2.998   1.412   5.184
 6224SOL    HW119571   3.072   1.479   5.179
 6224SOL    HW219572   2.948   1.423   5.270
 6225SOL     OW19573   3.793   2.870   0.050
 6225SOL    HW119574   3.849   2.789   0.030
 6225SOL    HW219575   3.715   2.843   0.107
 6226SOL     OW19576   5.533   0.548   4.839
 6226SOL    HW119577   5.622   0.589   4.819
 6226SOL    HW219578   5.506   0.570   4.932
 6227SOL     OW19579   3.341   4.356   6.008
 6227SOL    HW119580   3.435   4.324   5.999
 6227SOL    HW219581   3.282   4.303   5.946
 6228SOL     OW19582   6.868   0.552   3.162
 6228SOL    HW119583   6.846   0.455   3.171
 6228SOL    HW219584   6.888   0.590   3.252
 6229SOL     OW19585   2.314   2.767   2.044
 6229SOL    HW119586   2.387   2.700   2.056
 6229SOL    HW219587   2.299   2.784   1.947
 6230SOL     OW19588   2.625   2.227   3.584
 6230SOL    HW119589   2.617   2.149   3.522
 6230SOL    HW219590   2.535   2.254   3.617
 6231SOL     OW19591   7.006   5.261   1.556
 6231SOL    HW119592   7.015   5.251   1.655
 6231SOL    HW219593   6.931   5.203   1.523
 6232SOL     OW19594   0.914   1.018   6.831
 6232SOL    HW119595   0.833   0.968   6.801
 6232SOL    HW219596   0.887   1.089   6.896
 6233SOL     OW19597   4.777   1.950   7.010
 6233SOL    HW119598   4.735   1.946   0.081
 6233SOL    HW219599   4.862   2.002   7.014
 6234SOL     OW19600   2.221   2.174   4.237
 6234SOL    HW119601   2.142   2.201   4.181
 6234SOL    HW219602   2.190   2.141   4.326
 6235SOL     OW19603   2.419   0.007   3.242
 6235SOL    HW119604   2.464   6.980   3.166
 6235SOL    HW219605   2.469   0.091   3.264
 6236SOL     OW19606   0.038   4.524   0.771
 6236SOL    HW119607   0.057   4.609   0.819
 6236SOL    HW219608   0.005   4.544   0.679
 6237SOL     OW19609   4.251   6.840   0.601
 6237SOL    HW119610   4.245   6.821   0.699
 6237SOL    HW219611   4.341   6.814   0.568
 6238SOL     OW19612   4.732   5.003   1.371
 6238SOL    HW119613   4.767   5.026   1.280
 6238SOL    HW219614   4.746   4.906   1.389
 6239SOL     OW19615   2.496   0.251   3.476
 6239SOL    HW119616   2.519   0.159   3.508
 6239SOL    HW219617   2.398   0.255   3.457
 6240SOL     OW19618   1.481   3.898   0.661
 6240SOL    HW119619   1.403   3.890   0.723
 6240SOL    HW219620   1.467   3.839   0.581
 6241SOL     OW19621   4.322   0.179   1.277
 6241SOL    HW119622   4.324   0.255   1.211
 6241SOL    HW219623   4.410   0.173   1.323
 6242SOL     OW19624   4.768   2.470   3.612
 6242SOL    HW119625   4.760   2.371   3.601
 6242SOL    HW219626   4.684   2.506   3.653
 6243SOL     OW19627   6.159   6.140   4.082
 6243SOL    HW119628   6.178   6.048   4.049
 6243SOL    HW219629   6.144   6.138   4.181
 6244SOL     OW19630   2.852   1.758   2.135
 6244SOL    HW119631   2.924   1.727   2.197
 6244SOL    HW219632   2.807   1.678   2.094
 6245SOL     OW19633   3.107   4.294   0.771
 6245SOL    HW119634   3.175   4.360   0.740
 6245SOL    HW219635   3.017   4.337   0.774
 6246SOL     OW19636   2.750   0.968   5.736
 6246SOL    HW119637   2.712   0.992   5.825
 6246SOL    HW219638   2.811   1.041   5.705
 6247SOL     OW19639   0.247   6.165   2.768
 6247SOL    HW119640   0.162   6.217   2.756
 6247SOL    HW219641   0.297   6.200   2.846
 6248SOL     OW19642   0.248   4.928   1.300
 6248SOL    HW119643   0.177   4.859   1.286
 6248SOL    HW219644   0.206   5.015   1.324
 6249SOL     OW19645   6.161   3.892   6.568
 6249SOL    HW119646   6.157   3.906   6.667
 6249SOL    HW219647   6.069   3.895   6.530
 6250SOL     OW19648   6.015   6.016   0.058
 6250SOL    HW119649   6.011   5.951   7.001
 6250SOL    HW219650   5.977   6.104   0.029
 6251SOL     OW19651   4.469   1.449   0.375
 6251SOL    HW119652   4.494   1.439   0.278
 6251SOL    HW219653   4.460   1.359   0.417
 6252SOL     OW19654   2.523   6.167   5.339
 6252SOL    HW119655   2.433   6.130   5.364
 6252SOL    HW219656   2.513   6.230   5.262
 6253SOL     OW19657   2.273   3.976   2.026
 6253SOL    HW119658   2.332   3.984   2.106
 6253SOL    HW219659   2.210   4.054   2.024
 6254SOL     OW19660   5.054   0.529   0.475
 6254SOL    HW119661   4.997   0.452   0.501
 6254SOL    HW219662   5.112   0.556   0.553
 6255SOL     OW19663   0.706   1.171   2.328
 6255SOL    HW119664   0.708   1.112   2.408
 6255SOL    HW219665   0.764   1.133   2.257
 6256SOL     OW19666   3.182   5.156   2.553
 6256SOL    HW119667   3.112   5.219   2.587
 6256SOL    HW219668   3.169   5.142   2.455
 6257SOL     OW19669   5.600   2.417   6.938
 6257SOL    HW119670   5.505   2.443   6.949
 6257SOL    HW219671   5.606   2.319   6.920
 6258SOL     OW19672   5.066   1.875   2.187
 6258SOL    HW119673   5.125   1.837   2.258
 6258SOL    HW219674   5.050   1.972   2.204
 6259SOL     OW19675   2.790   2.613   1.710
 6259SOL    HW119676   2.695   2.585   1.725
 6259SOL    HW219677   2.850   2.560   1.771
 6260SOL     OW19678   3.510   3.760   0.004
 6260SOL    HW119679   3.515   3.661   0.018
 6260SOL    HW219680   3.416   3.786   7.002
 6261SOL     OW19681   4.397   1.173   0.468
 6261SOL    HW119682   4.344   1.154   0.386
 6261SOL    HW219683   4.374   1.105   0.538
 6262SOL     OW19684   0.724   5.234   6.350
 6262SOL    HW119685   0.803   5.270   6.301
 6262SOL    HW219686   0.749   5.216   6.445
 6263SOL     OW19687   7.012   0.238   0.550
 6263SOL    HW119688   0.063   0.250   0.620
 6263SOL    HW219689   6.975   0.145   0.557
 6264SOL     OW19690   2.977   1.523   0.797
 6264SOL    HW119691   2.886   1.520   0.756
 6264SOL    HW219692   2.973   1.572   0.884
 6265SOL     OW19693   3.506   3.012   1.250
 6265SOL    HW119694   3.523   3.083   1.318
 6265SOL    HW219695   3.456   2.936   1.293
 6266SOL     OW19696   2.518   0.326   3.073
 6266SOL    HW119697   2.565   0.376   3.001
 6266SOL    HW219698   2.446   0.384   3.112
 6267SOL     OW19699   3.396   0.132   6.371
 6267SOL    HW119700   3.427   0.124   6.276
 6267SOL    HW219701   3.454   0.075   6.430
 6268SOL     OW19702   3.912   5.209   2.470
 6268SOL    HW119703   3.813   5.204   2.484
 6268SOL    HW219704   3.955   5.250   2.551
 6269SOL     OW19705   6.103   5.088   1.378
 6269SOL    HW119706   6.199   5.115   1.366
 6269SOL    HW219707   6.059   5.149   1.443
 6270SOL     OW19708   0.775   0.520   5.089
 6270SOL    HW119709   0.810   0.489   5.001
 6270SOL    HW219710   0.679   0.495   5.098
 6271SOL     OW19711   5.953   1.630   0.636
 6271SOL    HW119712   6.039   1.583   0.657
 6271SOL    HW219713   5.919   1.602   0.547
 6272SOL     OW19714   1.680   1.754   3.337
 6272SOL    HW119715   1.762   1.763   3.394
 6272SOL    HW219716   1.707   1.740   3.242
 6273SOL     OW19717   3.516   1.015   1.381
 6273SOL    HW119718   3.574   1.079   1.331
 6273SOL    HW219719   3.430   1.003   1.333
 6274SOL     OW19720   4.382   6.863   6.004
 6274SOL    HW119721   4.445   6.838   6.078
 6274SOL    HW219722   4.334   6.781   5.972
 6275SOL     OW19723   2.396   0.625   4.665
 6275SOL    HW119724   2.309   0.591   4.701
 6275SOL    HW219725   2.435   0.692   4.728
 6276SOL     OW19726   1.259   5.375   4.086
 6276SOL    HW119727   1.262   5.466   4.128
 6276SOL    HW219728   1.267   5.383   3.987
 6277SOL     OW19729   5.521   3.481   2.962
 6277SOL    HW119730   5.432   3.461   2.921
 6277SOL    HW219731   5.579   3.528   2.896
 6278SOL     OW19732   4.987   0.756   4.609
 6278SOL    HW119733   4.945   0.681   4.660
 6278SOL    HW219734   4.916   0.809   4.562
 6279SOL     OW19735   4.697   1.922   0.250
 6279SOL    HW119736   4.681   1.832   0.289
 6279SOL    HW219737   4.717   1.988   0.323
 6280SOL     OW19738   0.479   4.573   5.923
 6280SOL    HW119739   0.404   4.633   5.951
 6280SOL    HW219740   0.561   4.627   5.906
 6281SOL     OW19741   2.745   6.614   5.273
 6281SOL    HW119742   2.726   6.559   5.354
 6281SOL    HW219743   2.743   6.556   5.191
 6282SOL     OW19744   1.664   6.896   4.350
 6282SOL    HW119745   1.608   6.946   4.416
 6282SOL    HW219746   1.750   6.945   4.337
 6283SOL     OW19747   6.463   2.182   5.193
 6283SOL    HW119748   6.426   2.108   5.250
 6283SOL    HW219749   6.436   2.167   5.098
 6284SOL     OW19750   2.030   4.388   6.110
 6284SOL    HW119751   1.967   4.466   6.112
 6284SOL    HW219752   2.084   4.390   6.025
 6285SOL     OW19753   1.752   4.259   2.425
 6285SOL    HW119754   1.722   4.354   2.435
 6285SOL    HW219755   1.763   4.218   2.515
 6286SOL     OW19756   5.847   1.111   3.738
 6286SOL    HW119757   5.750   1.094   3.721
 6286SOL    HW219758   5.902   1.048   3.683
 6287SOL     OW19759   4.681   4.337   1.716
 6287SOL    HW119760   4.706   4.410   1.779
 6287SOL    HW219761   4.606   4.283   1.754
 6288SOL     OW19762   5.467   3.432   0.738
 6288SOL    HW119763   5.441   3.526   0.718
 6288SOL    HW219764   5.425   3.371   0.672
 6289SOL     OW19765   1.565   1.231   3.694
 6289SOL    HW119766   1.564   1.307   3.759
 6289SOL    HW219767   1.496   1.247   3.624
 6290SOL     OW19768   5.502   3.625   3.196
 6290SOL    HW119769   5.424   3.591   3.249
 6290SOL    HW219770   5.510   3.575   3.110
 6291SOL     OW19771   3.720   4.056   3.355
 6291SOL    HW119772   3.797   4.101   3.401
 6291SOL    HW219773   3.718   4.084   3.259
 6292SOL     OW19774   0.879   2.014   2.544
 6292SOL    HW119775   0.792   2.016   2.592
 6292SOL    HW219776   0.872   1.956   2.463
 6293SOL     OW19777   4.431   0.060   0.325
 6293SOL    HW119778   4.520   0.029   0.359
 6293SOL    HW219779   4.371   0.079   0.403
 6294SOL     OW19780   4.241   5.188   2.914
 6294SOL    HW119781   4.149   5.209   2.881
 6294SOL    HW219782   4.275   5.265   2.968
 6295SOL     OW19783   5.983   6.826   6.370
 6295SOL    HW119784   5.987   6.768   6.452
 6295SOL    HW219785   5.904   6.887   6.377
 6296SOL     OW19786   6.385   1.295   3.283
 6296SOL    HW119787   6.348   1.272   3.373
 6296SOL    HW219788   6.350   1.232   3.215
 6297SOL     OW19789   5.419   7.000   5.406
 6297SOL    HW119790   5.365   0.002   5.324
 6297SOL    HW219791   5.381   6.919   5.449
 6298SOL     OW19792   1.308   1.672   4.963
 6298SOL    HW119793   1.401   1.694   4.993
 6298SOL    HW219794   1.313   1.606   4.888
 6299SOL     OW19795   6.109   3.014   0.084
 6299SOL    HW119796   6.118   3.007   7.004
 6299SOL    HW219797   6.184   2.965   0.128
 6300SOL     OW19798   5.211   0.114   3.711
 6300SOL    HW119799   5.252   0.147   3.626
 6300SOL    HW219800   5.279   0.065   3.765
 6301SOL     OW19801   3.092   6.876   0.623
 6301SOL    HW119802   3.123   6.893   0.530
 6301SOL    HW219803   3.157   6.815   0.670
 6302SOL     OW19804   0.820   0.859   3.557
 6302SOL    HW119805   0.747   0.899   3.501
 6302SOL    HW219806   0.875   0.797   3.501
 6303SOL     OW19807   1.749   6.046   5.448
 6303SOL    HW119808   1.726   5.977   5.379
 6303SOL    HW219809   1.796   6.002   5.524
 6304SOL     OW19810   3.083   1.330   6.368
 6304SOL    HW119811   3.007   1.268   6.354
 6304SOL    HW219812   3.155   1.285   6.421
 6305SOL     OW19813   6.198   0.721   1.115
 6305SOL    HW119814   6.203   0.809   1.162
 6305SOL    HW219815   6.135   0.727   1.038
 6306SOL     OW19816   6.164   2.878   3.994
 6306SOL    HW119817   6.137   2.819   4.070
 6306SOL    HW219818   6.098   2.868   3.919
 6307SOL     OW19819   2.385   5.035   0.848
 6307SOL    HW119820   2.467   5.034   0.791
 6307SOL    HW219821   2.308   4.996   0.795
 6308SOL     OW19822   3.171   2.061   5.235
 6308SOL    HW119823   3.257   2.086   5.281
 6308SOL    HW219824   3.161   2.117   5.153
 6309SOL     OW19825   5.767   2.029   4.350
 6309SOL    HW119826   5.838   2.024   4.420
 6309SOL    HW219827   5.809   2.029   4.260
 6310SOL     OW19828   1.428   5.019   5.163
 6310SOL    HW119829   1.493   5.089   5.191
 6310SOL    HW219830   1.463   4.929   5.191
 6311SOL     OW19831   5.812   0.582   5.000
 6311SOL    HW119832   5.861   0.581   4.912
 6311SOL    HW219833   5.850   0.654   5.058
 6312SOL     OW19834   3.973   5.085   5.638
 6312SOL    HW119835   4.016   5.026   5.570
 6312SOL    HW219836   3.962   5.177   5.601
 6313SOL     OW19837   2.231   5.235   2.624
 6313SOL    HW119838   2.243   5.204   2.719
 6313SOL    HW219839   2.253   5.333   2.618
 6314SOL     OW19840   3.010   6.190   3.294
 6314SOL    HW119841   2.947   6.163   3.221
 6314SOL    HW219842   2.966   6.174   3.383
 6315SOL     OW19843   2.853   3.008   0.735
 6315SOL    HW119844   2.783   3.073   0.707
 6315SOL    HW219845   2.866   3.014   0.834
 6316SOL     OW19846   5.644   2.018   6.052
 6316SOL    HW119847   5.691   1.938   6.015
 6316SOL    HW219848   5.562   1.990   6.101
 6317SOL     OW19849   6.040   6.359   4.363
 6317SOL    HW119850   6.082   6.446   4.336
 6317SOL    HW219851   5.982   6.374   4.443
 6318SOL     OW19852   2.568   1.699   4.556
 6318SOL    HW119853   2.638   1.628   4.551
 6318SOL    HW219854   2.511   1.684   4.637
 6319SOL     OW19855   0.171   1.645   3.278
 6319SOL    HW119856   0.266   1.662   3.303
 6319SOL    HW219857   0.165   1.564   3.220
 6320SOL     OW19858   6.135   3.127   3.416
 6320SOL    HW119859   6.144   3.041   3.468
 6320SOL    HW219860   6.203   3.128   3.342
 6321SOL     OW19861   2.549   3.721   0.552
 6321SOL    HW119862   2.490   3.757   0.480
 6321SOL    HW219863   2.492   3.683   0.625
 6322SOL     OW19864   1.488   1.138   0.082
 6322SOL    HW119865   1.425   1.080   0.134
 6322SOL    HW219866   1.445   1.227   0.066
 6323SOL     OW19867   3.800   2.593   0.457
 6323SOL    HW119868   3.794   2.536   0.375
 6323SOL    HW219869   3.783   2.536   0.538
 6324SOL     OW19870   4.405   1.131   6.392
 6324SOL    HW119871   4.501   1.151   6.410
 6324SOL    HW219872   4.347   1.182   6.456
 6325SOL     OW19873   0.981   2.277   2.611
 6325SOL    HW119874   0.896   2.233   2.582
 6325SOL    HW219875   1.049   2.268   2.538
 6326SOL     OW19876   5.027   5.896   1.184
 6326SOL    HW119877   4.978   5.894   1.271
 6326SOL    HW219878   5.123   5.917   1.201
 6327SOL     OW19879   5.110   5.646   5.877
 6327SOL    HW119880   5.111   5.576   5.948
 6327SOL    HW219881   5.155   5.611   5.795
 6328SOL     OW19882   2.675   4.378   6.646
 6328SOL    HW119883   2.604   4.334   6.591
 6328SOL    HW219884   2.636   4.454   6.697
 6329SOL     OW19885   0.658   1.635   3.406
 6329SOL    HW119886   0.717   1.642   3.326
 6329SOL    HW219887   0.683   1.554   3.459
 6330SOL     OW19888   3.769   1.432   0.379
 6330SOL    HW119889   3.696   1.480   0.426
 6330SOL    HW219890   3.806   1.490   0.307
 6331SOL     OW19891   6.363   2.942   1.665
 6331SOL    HW119892   6.386   2.899   1.578
 6331SOL    HW219893   6.442   2.994   1.698
 6332SOL     OW19894   5.429   6.309   1.654
 6332SOL    HW119895   5.393   6.355   1.573
 6332SOL    HW219896   5.528   6.294   1.644
 6333SOL     OW19897   3.261   4.891   2.583
 6333SOL    HW119898   3.238   4.861   2.491
 6333SOL    HW219899   3.237   4.987   2.594
 6334SOL     OW19900   2.427   1.451   2.770
 6334SOL    HW119901   2.404   1.361   2.806
 6334SOL    HW219902   2.463   1.441   2.677
 6335SOL     OW19903   6.782   1.654   0.072
 6335SOL    HW119904   6.719   1.645   7.015
 6335SOL    HW219905   6.766   1.742   0.118
 6336SOL     OW19906   0.409   2.337   4.703
 6336SOL    HW119907   0.323   2.290   4.681
 6336SOL    HW219908   0.389   2.418   4.759
 6337SOL     OW19909   5.976   4.679   5.559
 6337SOL    HW119910   6.020   4.595   5.592
 6337SOL    HW219911   5.962   4.672   5.461
 6338SOL     OW19912   3.904   1.079   3.368
 6338SOL    HW119913   3.856   1.015   3.309
 6338SOL    HW219914   3.954   1.027   3.438
 6339SOL     OW19915   6.591   2.008   4.518
 6339SOL    HW119916   6.612   2.102   4.492
 6339SOL    HW219917   6.589   1.951   4.435
 6340SOL     OW19918   1.875   5.690   4.030
 6340SOL    HW119919   1.883   5.703   3.932
 6340SOL    HW219920   1.957   5.644   4.064
 6341SOL     OW19921   0.657   4.758   3.105
 6341SOL    HW119922   0.648   4.772   3.204
 6341SOL    HW219923   0.566   4.753   3.064
 6342SOL     OW19924   1.632   2.739   0.881
 6342SOL    HW119925   1.574   2.707   0.956
 6342SOL    HW219926   1.696   2.667   0.855
 6343SOL     OW19927   4.041   1.365   6.514
 6343SOL    HW119928   4.051   1.461   6.538
 6343SOL    HW219929   3.972   1.322   6.572
 6344SOL     OW19930   1.027   4.303   4.486
 6344SOL    HW119931   1.059   4.307   4.392
 6344SOL    HW219932   0.942   4.356   4.495
 6345SOL     OW19933   3.688   1.786   2.333
 6345SOL    HW119934   3.743   1.814   2.253
 6345SOL    HW219935   3.601   1.835   2.332
 6346SOL     OW19936   0.945   4.757   3.440
 6346SOL    HW119937   0.908   4.823   3.505
 6346SOL    HW219938   0.910   4.666   3.460
 6347SOL     OW19939   3.144   0.634   1.313
 6347SOL    HW119940   3.096   0.606   1.230
 6347SOL    HW219941   3.243   0.631   1.297
 6348SOL     OW19942   1.173   3.236   4.247
 6348SOL    HW119943   1.183   3.158   4.308
 6348SOL    HW219944   1.217   3.316   4.288
 6349SOL     OW19945   2.690   0.527   0.370
 6349SOL    HW119946   2.664   0.535   0.274
 6349SOL    HW219947   2.651   0.444   0.409
 6350SOL     OW19948   1.104   6.381   2.186
 6350SOL    HW119949   1.137   6.458   2.132
 6350SOL    HW219950   1.181   6.341   2.236
 6351SOL     OW19951   6.984   0.931   2.970
 6351SOL    HW119952   6.901   0.879   2.946
 6351SOL    HW219953   0.019   0.945   2.888
 6352SOL     OW19954   0.408   5.532   2.091
 6352SOL    HW119955   0.435   5.624   2.121
 6352SOL    HW219956   0.450   5.464   2.150
 6353SOL     OW19957   0.050   6.816   1.665
 6353SOL    HW119958   7.006   6.740   1.680
 6353SOL    HW219959   0.143   6.786   1.687
 6354SOL     OW19960   0.506   6.539   3.579
 6354SOL    HW119961   0.471   6.445   3.585
 6354SOL    HW219962   0.431   6.604   3.592
 6355SOL     OW19963   2.084   2.596   2.918
 6355SOL    HW119964   2.072   2.596   3.018
 6355SOL    HW219965   2.047   2.681   2.881
 6356SOL     OW19966   3.308   3.622   1.358
 6356SOL    HW119967   3.346   3.628   1.265
 6356SOL    HW219968   3.371   3.571   1.416
 6357SOL     OW19969   4.429   1.938   0.141
 6357SOL    HW119970   4.438   1.880   0.060
 6357SOL    HW219971   4.517   1.942   0.188
 6358SOL     OW19972   6.696   2.145   3.640
 6358SOL    HW119973   6.657   2.186   3.558
 6358SOL    HW219974   6.714   2.048   3.624
 6359SOL     OW19975   0.044   0.904   6.985
 6359SOL    HW119976   6.992   0.836   7.000
 6359SOL    HW219977   0.026   0.954   6.900
 6360SOL     OW19978   3.117   5.441   4.049
 6360SOL    HW119979   3.127   5.448   4.148
 6360SOL    HW219980   3.181   5.374   4.013
 6361SOL     OW19981   4.270   6.250   5.779
 6361SOL    HW119982   4.310   6.273   5.690
 6361SOL    HW219983   4.189   6.192   5.765
 6362SOL     OW19984   5.995   5.128   6.585
 6362SOL    HW119985   5.955   5.129   6.493
 6362SOL    HW219986   5.926   5.099   6.651
 6363SOL     OW19987   0.679   5.782   4.572
 6363SOL    HW119988   0.699   5.705   4.632
 6363SOL    HW219989   0.762   5.809   4.522
 6364SOL     OW19990   2.771   2.361   5.889
 6364SOL    HW119991   2.759   2.268   5.853
 6364SOL    HW219992   2.732   2.365   5.981
 6365SOL     OW19993   5.190   6.374   2.919
 6365SOL    HW119994   5.271   6.398   2.973
 6365SOL    HW219995   5.141   6.299   2.964
 6366SOL     OW19996   0.388   4.897   5.732
 6366SOL    HW119997   0.308   4.956   5.717
 6366SOL    HW219998   0.451   4.942   5.795
 6367SOL     OW19999   5.801   6.538   3.840
 6367SOL    HW120000   5.726   6.501   3.895
 6367SOL    HW220001   5.876   6.471   3.837
 6368SOL     OW20002   2.626   0.391   3.961
 6368SOL    HW120003   2.703   0.433   3.913
 6368SOL    HW220004   2.622   0.294   3.936
 6369SOL     OW20005   2.522   5.390   4.320
 6369SOL    HW120006   2.546   5.379   4.223
 6369SOL    HW220007   2.602   5.421   4.371
 6370SOL     OW20008   5.856   2.883   1.512
 6370SOL    HW120009   5.781   2.943   1.484
 6370SOL    HW220010   5.878   2.820   1.437
 6371SOL     OW20011   4.853   2.323   3.152
 6371SOL    HW120012   4.920   2.392   3.180
 6371SOL    HW220013   4.824   2.271   3.232
 6372SOL     OW20014   2.803   6.117   2.507
 6372SOL    HW120015   2.709   6.110   2.541
 6372SOL    HW220016   2.860   6.164   2.575
 6373SOL     OW20017   3.913   4.702   0.008
 6373SOL    HW120018   3.940   4.639   0.081
 6373SOL    HW220019   3.819   4.734   0.025
 6374SOL     OW20020   2.885   3.395   2.283
 6374SOL    HW120021   2.785   3.397   2.281
 6374SOL    HW220022   2.917   3.309   2.244
 6375SOL     OW20023   1.583   6.670   2.663
 6375SOL    HW120024   1.578   6.571   2.668
 6375SOL    HW220025   1.570   6.699   2.568
 6376SOL     OW20026   0.181   2.441   5.425
 6376SOL    HW120027   0.261   2.464   5.370
 6376SOL    HW220028   0.208   2.377   5.498
 6377SOL     OW20029   0.823   0.617   3.734
 6377SOL    HW120030   0.764   0.553   3.685
 6377SOL    HW220031   0.847   0.694   3.674
 6378SOL     OW20032   4.840   4.027   3.640
 6378SOL    HW120033   4.847   4.025   3.740
 6378SOL    HW220034   4.812   4.117   3.609
 6379SOL     OW20035   2.531   4.615   3.009
 6379SOL    HW120036   2.589   4.615   2.927
 6379SOL    HW220037   2.495   4.523   3.024
 6380SOL     OW20038   0.554   0.978   5.919
 6380SOL    HW120039   0.478   0.969   5.984
 6380SOL    HW220040   0.640   0.982   5.970
 6381SOL     OW20041   3.173   4.008   2.692
 6381SOL    HW120042   3.101   3.964   2.745
 6381SOL    HW220043   3.147   4.009   2.595
 6382SOL     OW20044   0.938   3.569   5.443
 6382SOL    HW120045   0.990   3.642   5.486
 6382SOL    HW220046   0.943   3.578   5.344
 6383SOL     OW20047   3.091   1.300   4.210
 6383SOL    HW120048   3.180   1.286   4.167
 6383SOL    HW220049   3.042   1.374   4.165
 6384SOL     OW20050   6.473   4.692   3.211
 6384SOL    HW120051   6.483   4.618   3.278
 6384SOL    HW220052   6.558   4.702   3.160
 6385SOL     OW20053   0.156   5.866   4.414
 6385SOL    HW120054   0.139   5.897   4.320
 6385SOL    HW220055   0.246   5.822   4.419
 6386SOL     OW20056   2.679   5.418   1.456
 6386SOL    HW120057   2.676   5.513   1.426
 6386SOL    HW220058   2.754   5.370   1.409
 6387SOL     OW20059   6.356   0.943   5.368
 6387SOL    HW120060   6.339   0.871   5.301
 6387SOL    HW220061   6.440   0.923   5.419
 6388SOL     OW20062   2.646   4.639   2.431
 6388SOL    HW120063   2.722   4.658   2.368
 6388SOL    HW220064   2.602   4.725   2.457
 6389SOL     OW20065   0.846   4.873   2.734
 6389SOL    HW120066   0.879   4.941   2.668
 6389SOL    HW220067   0.851   4.782   2.693
 6390SOL     OW20068   0.721   3.234   3.917
 6390SOL    HW120069   0.666   3.151   3.912
 6390SOL    HW220070   0.810   3.218   3.875
 6391SOL     OW20071   3.192   1.235   0.557
 6391SOL    HW120072   3.287   1.260   0.576
 6391SOL    HW220073   3.190   1.143   0.516
 6392SOL     OW20074   1.307   6.709   3.923
 6392SOL    HW120075   1.224   6.669   3.885
 6392SOL    HW220076   1.299   6.809   3.924
 6393SOL     OW20077   5.932   6.628   0.655
 6393SOL    HW120078   5.845   6.662   0.619
 6393SOL    HW220079   6.005   6.648   0.589
 6394SOL     OW20080   2.562   4.717   0.726
 6394SOL    HW120081   2.641   4.752   0.675
 6394SOL    HW220082   2.485   4.705   0.664
 6395SOL     OW20083   5.988   1.987   1.043
 6395SOL    HW120084   6.080   1.957   1.068
 6395SOL    HW220085   5.952   2.047   1.115
 6396SOL     OW20086   4.967   4.297   5.084
 6396SOL    HW120087   4.989   4.391   5.057
 6396SOL    HW220088   5.048   4.239   5.072
 6397SOL     OW20089   0.387   1.427   0.968
 6397SOL    HW120090   0.307   1.402   1.024
 6397SOL    HW220091   0.368   1.512   0.919
 6398SOL     OW20092   3.370   1.585   1.739
 6398SOL    HW120093   3.447   1.619   1.793
 6398SOL    HW220094   3.341   1.496   1.775
 6399SOL     OW20095   2.424   5.464   6.477
 6399SOL    HW120096   2.394   5.424   6.563
 6399SOL    HW220097   2.398   5.405   6.401
 6400SOL     OW20098   2.764   5.404   3.411
 6400SOL    HW120099   2.739   5.359   3.497
 6400SOL    HW220100   2.690   5.392   3.345
 6401SOL     OW20101   0.805   4.862   3.934
 6401SOL    HW120102   0.833   4.924   4.008
 6401SOL    HW220103   0.711   4.831   3.951
 6402SOL     OW20104   2.112   1.225   3.202
 6402SOL    HW120105   2.201   1.179   3.207
 6402SOL    HW220106   2.041   1.157   3.182
 6403SOL     OW20107   0.134   6.196   0.517
 6403SOL    HW120108   0.187   6.254   0.455
 6403SOL    HW220109   0.169   6.103   0.514
 6404SOL     OW20110   5.346   0.941   2.661
 6404SOL    HW120111   5.379   1.002   2.589
 6404SOL    HW220112   5.281   0.989   2.719
 6405SOL     OW20113   3.071   1.486   2.205
 6405SOL    HW120114   3.085   1.564   2.266
 6405SOL    HW220115   3.070   1.402   2.259
 6406SOL     OW20116   2.778   1.974   3.866
 6406SOL    HW120117   2.721   1.968   3.783
 6406SOL    HW220118   2.720   1.989   3.945
 6407SOL     OW20119   3.872   5.441   6.448
 6407SOL    HW120120   3.848   5.456   6.544
 6407SOL    HW220121   3.823   5.361   6.413
 6408SOL     OW20122   6.348   1.902   0.156
 6408SOL    HW120123   6.400   1.982   0.186
 6408SOL    HW220124   6.411   1.831   0.125
 6409SOL     OW20125   1.253   4.465   2.203
 6409SOL    HW120126   1.222   4.396   2.137
 6409SOL    HW220127   1.195   4.546   2.196
 6410SOL     OW20128   1.006   1.376   1.326
 6410SOL    HW120129   0.919   1.371   1.376
 6410SOL    HW220130   1.038   1.283   1.307
 6411SOL     OW20131   1.291   0.807   3.463
 6411SOL    HW120132   1.351   0.730   3.442
 6411SOL    HW220133   1.309   0.838   3.556
 6412SOL     OW20134   0.106   1.994   4.748
 6412SOL    HW120135   0.143   1.932   4.679
 6412SOL    HW220136   0.009   1.973   4.763
 6413SOL     OW20137   6.780   4.786   0.590
 6413SOL    HW120138   6.719   4.759   0.664
 6413SOL    HW220139   6.834   4.706   0.561
 6414SOL     OW20140   5.615   6.601   2.154
 6414SOL    HW120141   5.516   6.589   2.165
 6414SOL    HW220142   5.661   6.515   2.173
 6415SOL     OW20143   1.695   2.096   2.107
 6415SOL    HW120144   1.661   2.039   2.182
 6415SOL    HW220145   1.785   2.133   2.132
 6416SOL     OW20146   1.268   0.373   6.721
 6416SOL    HW120147   1.242   0.409   6.631
 6416SOL    HW220148   1.353   0.320   6.713
 6417SOL     OW20149   0.465   6.928   2.572
 6417SOL    HW120150   0.561   6.957   2.577
 6417SOL    HW220151   0.407   7.001   2.608
 6418SOL     OW20152   6.092   5.712   2.297
 6418SOL    HW120153   6.121   5.784   2.234
 6418SOL    HW220154   6.144   5.629   2.280
 6419SOL     OW20155   2.896   5.096   1.680
 6419SOL    HW120156   2.936   5.007   1.704
 6419SOL    HW220157   2.828   5.083   1.608
 6420SOL     OW20158   1.580   3.627   6.973
 6420SOL    HW120159   1.630   3.653   6.890
 6420SOL    HW220160   1.522   3.548   6.953
 6421SOL     OW20161   5.415   2.026   0.903
 6421SOL    HW120162   5.418   2.024   1.003
 6421SOL    HW220163   5.507   2.015   0.867
 6422SOL     OW20164   5.809   1.515   3.265
 6422SOL    HW120165   5.908   1.513   3.278
 6422SOL    HW220166   5.788   1.530   3.168
 6423SOL     OW20167   4.809   4.016   0.284
 6423SOL    HW120168   4.828   4.023   0.186
 6423SOL    HW220169   4.862   3.940   0.322
 6424SOL     OW20170   0.185   5.117   5.632
 6424SOL    HW120171   0.104   5.059   5.620
 6424SOL    HW220172   0.162   5.211   5.607
 6425SOL     OW20173   0.520   4.716   1.640
 6425SOL    HW120174   0.593   4.650   1.657
 6425SOL    HW220175   0.526   4.748   1.546
 6426SOL     OW20176   0.020   3.125   3.943
 6426SOL    HW120177   6.961   3.095   3.889
 6426SOL    HW220178   0.066   3.201   3.895
 6427SOL     OW20179   1.901   3.522   5.100
 6427SOL    HW120180   1.849   3.557   5.177
 6427SOL    HW220181   1.947   3.437   5.127
 6428SOL     OW20182   6.713   3.377   2.631
 6428SOL    HW120183   6.618   3.405   2.619
 6428SOL    HW220184   6.720   3.317   2.711
 6429SOL     OW20185   1.387   0.899   4.254
 6429SOL    HW120186   1.469   0.913   4.199
 6429SOL    HW220187   1.370   0.801   4.263
 6430SOL     OW20188   5.903   3.533   0.998
 6430SOL    HW120189   5.942   3.504   1.085
 6430SOL    HW220190   5.891   3.632   0.998
 6431SOL     OW20191   5.386   0.141   3.050
 6431SOL    HW120192   5.485   0.156   3.057
 6431SOL    HW220193   5.339   0.194   3.121
 6432SOL     OW20194   5.346   3.087   0.783
 6432SOL    HW120195   5.325   3.162   0.721
 6432SOL    HW220196   5.444   3.068   0.781
 6433SOL     OW20197   2.641   3.869   1.649
 6433SOL    HW120198   2.587   3.913   1.721
 6433SOL    HW220199   2.638   3.770   1.661
 6434SOL     OW20200   1.621   4.873   1.054
 6434SOL    HW120201   1.542   4.929   1.030
 6434SOL    HW220202   1.698   4.896   0.994
 6435SOL     OW20203   4.791   4.201   6.824
 6435SOL    HW120204   4.718   4.136   6.803
 6435SOL    HW220205   4.809   4.258   6.744
 6436SOL     OW20206   1.533   3.052   3.292
 6436SOL    HW120207   1.481   3.044   3.207
 6436SOL    HW220208   1.531   2.964   3.340
 6437SOL     OW20209   0.965   0.773   6.923
 6437SOL    HW120210   1.054   0.772   6.970
 6437SOL    HW220211   0.946   0.866   6.891
 6438SOL     OW20212   1.352   3.269   3.486
 6438SOL    HW120213   1.360   3.307   3.393
 6438SOL    HW220214   1.427   3.305   3.542
 6439SOL     OW20215   0.504   0.295   1.719
 6439SOL    HW120216   0.434   0.325   1.783
 6439SOL    HW220217   0.461   0.275   1.630
 6440SOL     OW20218   0.846   1.641   2.707
 6440SOL    HW120219   0.884   1.685   2.789
 6440SOL    HW220220   0.894   1.675   2.626
 6441SOL     OW20221   3.159   1.436   3.416
 6441SOL    HW120222   3.140   1.339   3.400
 6441SOL    HW220223   3.251   1.446   3.454
 6442SOL     OW20224   3.320   1.182   3.649
 6442SOL    HW120225   3.275   1.261   3.692
 6442SOL    HW220226   3.273   1.161   3.563
 6443SOL     OW20227   3.086   1.369   0.352
 6443SOL    HW120228   3.035   1.445   0.391
 6443SOL    HW220229   3.123   1.312   0.426
 6444SOL     OW20230   0.364   0.868   3.371
 6444SOL    HW120231   0.314   0.929   3.309
 6444SOL    HW220232   0.299   0.808   3.418
 6445SOL     OW20233   4.053   3.322   5.357
 6445SOL    HW120234   4.108   3.342   5.438
 6445SOL    HW220235   3.971   3.271   5.384
 6446SOL     OW20236   6.215   1.512   0.542
 6446SOL    HW120237   6.297   1.516   0.598
 6446SOL    HW220238   6.215   1.589   0.477
 6447SOL     OW20239   1.196   0.972   2.691
 6447SOL    HW120240   1.134   0.957   2.613
 6447SOL    HW220241   1.214   0.885   2.736
 6448SOL     OW20242   5.711   2.568   2.823
 6448SOL    HW120243   5.756   2.557   2.734
 6448SOL    HW220244   5.713   2.664   2.849
 6449SOL     OW20245   3.039   3.138   0.946
 6449SOL    HW120246   3.137   3.130   0.964
 6449SOL    HW220247   3.014   3.234   0.941
 6450SOL     OW20248   6.762   3.132   0.315
 6450SOL    HW120249   6.850   3.083   0.313
 6450SOL    HW220250   6.779   3.230   0.311
 6451SOL     OW20251   2.078   0.149   4.582
 6451SOL    HW120252   2.106   0.085   4.653
 6451SOL    HW220253   2.152   0.213   4.562
 6452SOL     OW20254   4.120   6.099   3.511
 6452SOL    HW120255   4.168   6.014   3.490
 6452SOL    HW220256   4.161   6.174   3.458
 6453SOL     OW20257   1.703   5.624   6.469
 6453SOL    HW120258   1.684   5.533   6.506
 6453SOL    HW220259   1.731   5.685   6.544
 6454SOL     OW20260   3.257   1.393   4.911
 6454SOL    HW120261   3.331   1.374   4.845
 6454SOL    HW220262   3.195   1.460   4.872
 6455SOL     OW20263   6.317   2.772   5.437
 6455SOL    HW120264   6.243   2.838   5.425
 6455SOL    HW220265   6.281   2.679   5.438
 6456SOL     OW20266   0.136   0.682   4.305
 6456SOL    HW120267   0.048   0.640   4.279
 6456SOL    HW220268   0.210   0.633   4.259
 6457SOL     OW20269   6.774   2.976   0.986
 6457SOL    HW120270   6.779   2.900   1.052
 6457SOL    HW220271   6.782   2.940   0.893
 6458SOL     OW20272   1.302   5.914   2.837
 6458SOL    HW120273   1.251   5.946   2.917
 6458SOL    HW220274   1.392   5.957   2.835
 6459SOL     OW20275   5.589   4.546   0.483
 6459SOL    HW120276   5.632   4.538   0.573
 6459SOL    HW220277   5.497   4.508   0.487
 6460SOL     OW20278   3.376   5.119   6.115
 6460SOL    HW120279   3.319   5.042   6.145
 6460SOL    HW220280   3.447   5.086   6.053
 6461SOL     OW20281   3.670   5.642   4.776
 6461SOL    HW120282   3.766   5.628   4.801
 6461SOL    HW220283   3.618   5.673   4.856
 6462SOL     OW20284   2.130   3.350   4.095
 6462SOL    HW120285   2.176   3.262   4.108
 6462SOL    HW220286   2.150   3.384   4.003
 6463SOL     OW20287   1.383   4.631   5.509
 6463SOL    HW120288   1.471   4.641   5.461
 6463SOL    HW220289   1.385   4.549   5.566
 6464SOL     OW20290   0.811   5.138   3.111
 6464SOL    HW120291   0.768   5.138   3.202
 6464SOL    HW220292   0.820   5.044   3.079
 6465SOL     OW20293   6.354   0.653   3.018
 6465SOL    HW120294   6.451   0.658   3.040
 6465SOL    HW220295   6.343   0.645   2.919
 6466SOL     OW20296   6.865   2.533   4.774
 6466SOL    HW120297   6.837   2.564   4.865
 6466SOL    HW220298   6.845   2.436   4.763
 6467SOL     OW20299   2.669   0.721   6.549
 6467SOL    HW120300   2.659   0.819   6.566
 6467SOL    HW220301   2.656   0.702   6.452
 6468SOL     OW20302   4.876   4.956   0.790
 6468SOL    HW120303   4.805   4.942   0.858
 6468SOL    HW220304   4.875   5.052   0.760
 6469SOL     OW20305   0.026   1.456   5.675
 6469SOL    HW120306   6.969   1.428   5.618
 6469SOL    HW220307   0.017   1.416   5.766
 6470SOL     OW20308   6.793   6.641   5.889
 6470SOL    HW120309   6.716   6.636   5.825
 6470SOL    HW220310   6.852   6.561   5.877
 6471SOL     OW20311   5.640   4.788   5.977
 6471SOL    HW120312   5.673   4.879   6.003
 6471SOL    HW220313   5.681   4.761   5.890
 6472SOL     OW20314   1.285   6.149   1.073
 6472SOL    HW120315   1.190   6.132   1.047
 6472SOL    HW220316   1.293   6.152   1.172
 6473SOL     OW20317   2.231   1.692   6.149
 6473SOL    HW120318   2.303   1.627   6.174
 6473SOL    HW220319   2.143   1.660   6.184
 6474SOL     OW20320   1.944   3.376   5.431
 6474SOL    HW120321   2.041   3.372   5.453
 6474SOL    HW220322   1.903   3.453   5.480
 6475SOL     OW20323   4.424   6.366   3.956
 6475SOL    HW120324   4.369   6.404   3.881
 6475SOL    HW220325   4.371   6.371   4.041
 6476SOL     OW20326   4.676   5.109   2.876
 6476SOL    HW120327   4.715   5.017   2.879
 6476SOL    HW220328   4.626   5.126   2.961
 6477SOL     OW20329   7.009   5.503   6.748
 6477SOL    HW120330   7.002   5.531   6.844
 6477SOL    HW220331   6.994   5.583   6.690
 6478SOL     OW20332   4.654   6.414   0.886
 6478SOL    HW120333   4.741   6.421   0.837
 6478SOL    HW220334   4.591   6.357   0.833
 6479SOL     OW20335   4.001   5.281   2.769
 6479SOL    HW120336   3.950   5.362   2.800
 6479SOL    HW220337   4.074   5.310   2.707
 6480SOL     OW20338   2.942   2.252   6.858
 6480SOL    HW120339   2.935   2.199   6.774
 6480SOL    HW220340   2.995   2.335   6.840
 6481SOL     OW20341   5.226   0.815   1.237
 6481SOL    HW120342   5.288   0.876   1.285
 6481SOL    HW220343   5.133   0.853   1.241
 6482SOL     OW20344   0.180   0.616   6.601
 6482SOL    HW120345   0.162   0.523   6.569
 6482SOL    HW220346   0.094   0.668   6.601
 6483SOL     OW20347   2.003   6.517   2.652
 6483SOL    HW120348   1.994   6.536   2.554
 6483SOL    HW220349   1.916   6.537   2.698
 6484SOL     OW20350   5.201   6.828   3.698
 6484SOL    HW120351   5.239   6.751   3.646
 6484SOL    HW220352   5.121   6.863   3.651
 6485SOL     OW20353   1.334   2.773   3.207
 6485SOL    HW120354   1.415   2.812   3.164
 6485SOL    HW220355   1.354   2.680   3.238
 6486SOL     OW20356   1.743   3.220   3.360
 6486SOL    HW120357   1.799   3.150   3.404
 6486SOL    HW220358   1.666   3.177   3.314
 6487SOL     OW20359   6.042   6.428   4.010
 6487SOL    HW120360   6.076   6.336   4.034
 6487SOL    HW220361   6.119   6.492   4.010
 6488SOL     OW20362   3.356   5.449   5.922
 6488SOL    HW120363   3.308   5.377   5.972
 6488SOL    HW220364   3.290   5.518   5.891
 6489SOL     OW20365   1.953   1.839   5.597
 6489SOL    HW120366   1.901   1.845   5.683
 6489SOL    HW220367   1.960   1.743   5.569
 6490SOL     OW20368   3.185   1.001   0.427
 6490SOL    HW120369   3.143   1.008   0.336
 6490SOL    HW220370   3.251   0.926   0.427
 6491SOL     OW20371   3.495   1.915   6.528
 6491SOL    HW120372   3.416   1.948   6.578
 6491SOL    HW220373   3.472   1.830   6.480
 6492SOL     OW20374   6.050   5.931   0.304
 6492SOL    HW120375   6.036   5.960   0.209
 6492SOL    HW220376   6.068   6.012   0.361
 6493SOL     OW20377   0.931   6.425   6.116
 6493SOL    HW120378   0.987   6.343   6.102
 6493SOL    HW220379   0.972   6.481   6.189
 6494SOL     OW20380   1.419   0.419   3.841
 6494SOL    HW120381   1.479   0.470   3.779
 6494SOL    HW220382   1.457   0.419   3.933
 6495SOL     OW20383   5.438   4.945   2.962
 6495SOL    HW120384   5.377   4.948   3.041
 6495SOL    HW220385   5.452   5.037   2.926
 6496SOL     OW20386   2.093   0.058   2.340
 6496SOL    HW120387   2.076   0.095   2.431
 6496SOL    HW220388   2.131   6.986   2.348
 6497SOL     OW20389   0.631   4.325   0.047
 6497SOL    HW120390   0.719   4.308   0.003
 6497SOL    HW220391   0.608   4.422   0.039
 6498SOL     OW20392   1.830   4.620   4.118
 6498SOL    HW120393   1.909   4.572   4.079
 6498SOL    HW220394   1.755   4.555   4.130
 6499SOL     OW20395   5.988   1.236   3.974
 6499SOL    HW120396   5.942   1.178   3.906
 6499SOL    HW220397   5.920   1.275   4.035
 6500SOL     OW20398   5.457   5.183   3.703
 6500SOL    HW120399   5.368   5.137   3.713
 6500SOL    HW220400   5.494   5.203   3.794
 6501SOL     OW20401   0.137   4.117   1.098
 6501SOL    HW120402   0.061   4.104   1.035
 6501SOL    HW220403   0.219   4.144   1.047
 6502SOL     OW20404   1.306   5.193   2.543
 6502SOL    HW120405   1.243   5.122   2.574
 6502SOL    HW220406   1.309   5.267   2.610
 6503SOL     OW20407   4.501   0.325   4.888
 6503SOL    HW120408   4.502   0.394   4.816
 6503SOL    HW220409   4.594   0.310   4.921
 6504SOL     OW20410   2.729   1.132   0.847
 6504SOL    HW120411   2.781   1.052   0.816
 6504SOL    HW220412   2.713   1.125   0.945
 6505SOL     OW20413   5.744   5.023   1.272
 6505SOL    HW120414   5.650   5.045   1.296
 6505SOL    HW220415   5.797   5.009   1.356
 6506SOL     OW20416   2.287   2.270   0.684
 6506SOL    HW120417   2.199   2.286   0.729
 6506SOL    HW220418   2.330   2.188   0.723
 6507SOL     OW20419   2.118   1.029   1.758
 6507SOL    HW120420   2.187   0.991   1.820
 6507SOL    HW220421   2.124   1.129   1.758
 6508SOL     OW20422   1.799   1.676   2.819
 6508SOL    HW120423   1.890   1.709   2.846
 6508SOL    HW220424   1.783   1.697   2.723
 6509SOL     OW20425   0.467   2.370   4.440
 6509SOL    HW120426   0.548   2.423   4.418
 6509SOL    HW220427   0.473   2.334   4.533
 6510SOL     OW20428   5.576   4.528   6.031
 6510SOL    HW120429   5.592   4.627   6.031
 6510SOL    HW220430   5.485   4.509   6.068
 6511SOL     OW20431   6.246   5.932   6.205
 6511SOL    HW120432   6.344   5.912   6.199
 6511SOL    HW220433   6.229   5.996   6.280
 6512SOL     OW20434   4.820   6.785   3.757
 6512SOL    HW120435   4.722   6.793   3.777
 6512SOL    HW220436   4.861   6.876   3.760
 6513SOL     OW20437   3.216   0.165   2.891
 6513SOL    HW120438   3.284   0.126   2.953
 6513SOL    HW220439   3.146   0.213   2.944
 6514SOL     OW20440   3.255   6.778   3.787
 6514SOL    HW120441   3.213   6.692   3.815
 6514SOL    HW220442   3.310   6.815   3.862
 6515SOL     OW20443   1.140   0.143   5.173
 6515SOL    HW120444   1.107   0.109   5.084
 6515SOL    HW220445   1.082   0.220   5.202
 6516SOL     OW20446   0.697   1.640   5.426
 6516SOL    HW120447   0.607   1.683   5.421
 6516SOL    HW220448   0.766   1.703   5.390
 6517SOL     OW20449   1.197   1.691   6.931
 6517SOL    HW120450   1.286   1.717   6.969
 6517SOL    HW220451   1.137   1.771   6.931
 6518SOL     OW20452   6.298   6.191   1.183
 6518SOL    HW120453   6.241   6.212   1.263
 6518SOL    HW220454   6.387   6.157   1.214
 6519SOL     OW20455   2.256   2.039   3.493
 6519SOL    HW120456   2.269   2.066   3.588
 6519SOL    HW220457   2.237   2.120   3.438
 6520SOL     OW20458   5.667   5.690   1.088
 6520SOL    HW120459   5.678   5.649   1.178
 6520SOL    HW220460   5.756   5.724   1.056
 6521SOL     OW20461   0.418   1.739   5.388
 6521SOL    HW120462   0.350   1.740   5.462
 6521SOL    HW220463   0.383   1.791   5.310
 6522SOL     OW20464   2.384   5.324   5.653
 6522SOL    HW120465   2.398   5.226   5.666
 6522SOL    HW220466   2.465   5.363   5.609
 6523SOL     OW20467   2.019   1.917   6.126
 6523SOL    HW120468   2.041   1.991   6.189
 6523SOL    HW220469   2.086   1.843   6.136
 6524SOL     OW20470   3.414   4.180   4.546
 6524SOL    HW120471   3.457   4.090   4.542
 6524SOL    HW220472   3.435   4.223   4.633
 6525SOL     OW20473   0.003   2.838   3.800
 6525SOL    HW120474   0.062   2.783   3.859
 6525SOL    HW220475   6.942   2.867   3.851
 6526SOL     OW20476   1.473   6.090   4.540
 6526SOL    HW120477   1.400   6.119   4.478
 6526SOL    HW220478   1.549   6.054   4.486
 6527SOL     OW20479   1.301   1.153   4.280
 6527SOL    HW120480   1.223   1.170   4.221
 6527SOL    HW220481   1.319   1.055   4.284
 6528SOL     OW20482   6.518   0.645   3.765
 6528SOL    HW120483   6.592   0.656   3.831
 6528SOL    HW220484   6.521   0.553   3.727
 6529SOL     OW20485   0.008   2.159   2.367
 6529SOL    HW120486   6.938   2.192   2.398
 6529SOL    HW220487   7.015   2.073   2.317
 6530SOL     OW20488   0.024   2.044   0.634
 6530SOL    HW120489   0.018   2.076   0.728
 6530SOL    HW220490   0.074   2.111   0.579
 6531SOL     OW20491   4.914   2.737   4.439
 6531SOL    HW120492   4.971   2.806   4.484
 6531SOL    HW220493   4.955   2.647   4.450
 6532SOL     OW20494   0.069   2.180   6.477
 6532SOL    HW120495   0.070   2.262   6.534
 6532SOL    HW220496   0.118   2.106   6.523
 6533SOL     OW20497   4.653   0.317   0.923
 6533SOL    HW120498   4.744   0.306   0.963
 6533SOL    HW220499   4.591   0.248   0.963
 6534SOL     OW20500   2.029   4.110   0.994
 6534SOL    HW120501   2.095   4.128   1.066
 6534SOL    HW220502   1.936   4.117   1.032
 6535SOL     OW20503   1.276   3.970   5.741
 6535SOL    HW120504   1.181   3.991   5.762
 6535SOL    HW220505   1.281   3.922   5.653
 6536SOL     OW20506   0.137   2.607   0.154
 6536SOL    HW120507   0.107   2.662   0.232
 6536SOL    HW220508   0.109   2.511   0.168
 6537SOL     OW20509   1.292   6.897   0.761
 6537SOL    HW120510   1.259   6.931   0.673
 6537SOL    HW220511   1.336   6.808   0.748
 6538SOL     OW20512   2.210   3.195   6.477
 6538SOL    HW120513   2.141   3.140   6.522
 6538SOL    HW220514   2.210   3.287   6.516
 6539SOL     OW20515   2.435   1.778   6.894
 6539SOL    HW120516   2.361   1.805   6.832
 6539SOL    HW220517   2.484   1.700   6.856
 6540SOL     OW20518   3.029   1.538   4.075
 6540SOL    HW120519   3.101   1.601   4.047
 6540SOL    HW220520   2.940   1.579   4.056
 6541SOL     OW20521   2.491   2.032   6.240
 6541SOL    HW120522   2.526   1.981   6.161
 6541SOL    HW220523   2.453   1.968   6.306
 6542SOL     OW20524   6.047   4.223   3.321
 6542SOL    HW120525   6.108   4.214   3.400
 6542SOL    HW220526   5.997   4.137   3.308
 6543SOL     OW20527   6.816   5.976   0.080
 6543SOL    HW120528   6.731   5.924   0.067
 6543SOL    HW220529   6.867   5.978   7.014
 6544SOL     OW20530   6.614   6.460   4.419
 6544SOL    HW120531   6.566   6.546   4.431
 6544SOL    HW220532   6.679   6.468   4.343
 6545SOL     OW20533   5.005   2.018   5.835
 6545SOL    HW120534   5.043   1.998   5.925
 6545SOL    HW220535   4.918   1.970   5.824
 6546SOL     OW20536   3.072   4.255   6.366
 6546SOL    HW120537   3.015   4.309   6.428
 6546SOL    HW220538   3.027   4.168   6.346
 6547SOL     OW20539   4.466   2.305   6.668
 6547SOL    HW120540   4.394   2.246   6.706
 6547SOL    HW220541   4.541   2.312   6.734
 6548SOL     OW20542   6.866   5.083   5.437
 6548SOL    HW120543   6.808   5.123   5.508
 6548SOL    HW220544   6.911   5.002   5.473
 6549SOL     OW20545   3.681   1.509   1.036
 6549SOL    HW120546   3.745   1.460   0.978
 6549SOL    HW220547   3.693   1.608   1.023
 6550SOL     OW20548   0.551   5.448   3.290
 6550SOL    HW120549   0.596   5.537   3.279
 6550SOL    HW220550   0.620   5.378   3.308
 6551SOL     OW20551   1.898   5.075   2.588
 6551SOL    HW120552   1.982   5.061   2.537
 6551SOL    HW220553   1.835   4.999   2.571
 6552SOL     OW20554   3.212   4.828   6.147
 6552SOL    HW120555   3.277   4.851   6.074
 6552SOL    HW220556   3.261   4.825   6.235
 6553SOL     OW20557   0.003   2.947   2.594
 6553SOL    HW120558   0.046   3.006   2.526
 6553SOL    HW220559   7.005   2.999   2.677
 6554SOL     OW20560   0.239   2.764   5.409
 6554SOL    HW120561   0.230   2.714   5.496
 6554SOL    HW220562   0.331   2.749   5.372
 6555SOL     OW20563   0.142   1.340   2.040
 6555SOL    HW120564   0.135   1.355   1.942
 6555SOL    HW220565   0.057   1.369   2.085
 6556SOL     OW20566   3.581   6.905   4.158
 6556SOL    HW120567   3.528   6.821   4.147
 6556SOL    HW220568   3.661   6.887   4.216
 6557SOL     OW20569   6.552   5.810   1.088
 6557SOL    HW120570   6.559   5.736   1.154
 6557SOL    HW220571   6.581   5.896   1.130
 6558SOL     OW20572   6.374   5.536   6.822
 6558SOL    HW120573   6.472   5.549   6.839
 6558SOL    HW220574   6.362   5.489   6.734
 6559SOL     OW20575   3.817   3.316   0.970
 6559SOL    HW120576   3.870   3.290   1.051
 6559SOL    HW220577   3.726   3.273   0.975
 6560SOL     OW20578   3.840   2.234   0.179
 6560SOL    HW120579   3.932   2.239   0.139
 6560SOL    HW220580   3.794   2.322   0.168
 6561SOL     OW20581   3.924   3.825   4.388
 6561SOL    HW120582   3.992   3.754   4.372
 6561SOL    HW220583   3.937   3.864   4.479
 6562SOL     OW20584   6.230   4.149   5.897
 6562SOL    HW120585   6.329   4.166   5.890
 6562SOL    HW220586   6.212   4.091   5.976
 6563SOL     OW20587   1.687   5.476   1.949
 6563SOL    HW120588   1.641   5.448   2.033
 6563SOL    HW220589   1.623   5.525   1.890
 6564SOL     OW20590   1.322   5.450   2.655
 6564SOL    HW120591   1.237   5.456   2.707
 6564SOL    HW220592   1.359   5.542   2.642
 6565SOL     OW20593   6.512   3.147   5.513
 6565SOL    HW120594   6.584   3.216   5.519
 6565SOL    HW220595   6.422   3.193   5.515
 6566SOL     OW20596   3.581   6.751   0.623
 6566SOL    HW120597   3.529   6.690   0.564
 6566SOL    HW220598   3.660   6.787   0.573
 6567SOL     OW20599   5.575   3.045   1.473
 6567SOL    HW120600   5.634   3.124   1.459
 6567SOL    HW220601   5.538   3.015   1.385
 6568SOL     OW20602   3.906   4.819   1.358
 6568SOL    HW120603   3.818   4.846   1.399
 6568SOL    HW220604   3.894   4.733   1.309
 6569SOL     OW20605   0.299   4.405   6.643
 6569SOL    HW120606   0.320   4.460   6.724
 6569SOL    HW220607   0.280   4.465   6.565
 6570SOL     OW20608   6.484   2.374   1.102
 6570SOL    HW120609   6.395   2.331   1.084
 6570SOL    HW220610   6.470   2.472   1.117
 6571SOL     OW20611   2.672   5.708   3.481
 6571SOL    HW120612   2.735   5.648   3.530
 6571SOL    HW220613   2.665   5.678   3.385
 6572SOL     OW20614   0.779   3.757   6.141
 6572SOL    HW120615   0.869   3.718   6.121
 6572SOL    HW220616   0.735   3.786   6.056
 6573SOL     OW20617   2.013   1.870   2.427
 6573SOL    HW120618   2.013   1.879   2.327
 6573SOL    HW220619   2.088   1.810   2.456
 6574SOL     OW20620   3.072   5.087   2.897
 6574SOL    HW120621   3.075   5.065   2.994
 6574SOL    HW220622   3.074   5.002   2.844
 6575SOL     OW20623   0.518   1.160   2.872
 6575SOL    HW120624   0.598   1.168   2.812
 6575SOL    HW220625   0.537   1.093   2.944
 6576SOL     OW20626   1.002   6.165   5.998
 6576SOL    HW120627   1.047   6.220   5.928
 6576SOL    HW220628   1.070   6.135   6.066
 6577SOL     OW20629   6.205   1.844   3.993
 6577SOL    HW120630   6.184   1.790   4.075
 6577SOL    HW220631   6.126   1.845   3.933
 6578SOL     OW20632   6.334   5.151   3.717
 6578SOL    HW120633   6.386   5.137   3.801
 6578SOL    HW220634   6.387   5.208   3.654
 6579SOL     OW20635   0.411   4.077   2.421
 6579SOL    HW120636   0.358   4.088   2.337
 6579SOL    HW220637   0.416   3.980   2.445
 6580SOL     OW20638   6.221   2.321   1.700
 6580SOL    HW120639   6.144   2.375   1.666
 6580SOL    HW220640   6.193   2.225   1.709
 6581SOL     OW20641   2.656   1.724   5.830
 6581SOL    HW120642   2.730   1.781   5.794
 6581SOL    HW220643   2.688   1.630   5.839
 6582SOL     OW20644   6.619   6.951   2.849
 6582SOL    HW120645   6.563   6.911   2.777
 6582SOL    HW220646   6.585   0.023   2.871
 6583SOL     OW20647   5.997   1.764   5.628
 6583SOL    HW120648   5.940   1.842   5.602
 6583SOL    HW220649   6.058   1.790   5.703
 6584SOL     OW20650   5.796   1.631   6.579
 6584SOL    HW120651   5.786   1.532   6.567
 6584SOL    HW220652   5.887   1.659   6.549
 6585SOL     OW20653   1.972   1.201   6.910
 6585SOL    HW120654   1.977   1.290   6.956
 6585SOL    HW220655   2.037   1.200   6.834
 6586SOL     OW20656   6.825   2.655   6.223
 6586SOL    HW120657   6.850   2.748   6.249
 6586SOL    HW220658   6.905   2.608   6.186
 6587SOL     OW20659   2.219   6.652   2.928
 6587SOL    HW120660   2.308   6.661   2.883
 6587SOL    HW220661   2.192   6.556   2.928
 6588SOL     OW20662   2.164   3.117   6.822
 6588SOL    HW120663   2.108   3.081   6.748
 6588SOL    HW220664   2.200   3.042   6.877
 6589SOL     OW20665   4.659   1.599   5.819
 6589SOL    HW120666   4.593   1.672   5.839
 6589SOL    HW220667   4.638   1.559   5.730
 6590SOL     OW20668   6.610   1.156   5.321
 6590SOL    HW120669   6.702   1.189   5.301
 6590SOL    HW220670   6.615   1.077   5.382
 6591SOL     OW20671   5.737   0.688   2.532
 6591SOL    HW120672   5.755   0.709   2.628
 6591SOL    HW220673   5.639   0.695   2.514
 6592SOL     OW20674   4.659   5.939   4.627
 6592SOL    HW120675   4.566   5.946   4.664
 6592SOL    HW220676   4.668   5.853   4.577
 6593SOL     OW20677   4.039   0.863   2.305
 6593SOL    HW120678   3.973   0.788   2.302
 6593SOL    HW220679   4.066   0.880   2.400
 6594SOL     OW20680   5.966   0.681   5.954
 6594SOL    HW120681   5.898   0.708   5.886
 6594SOL    HW220682   6.054   0.722   5.930
 6595SOL     OW20683   1.156   4.090   0.280
 6595SOL    HW120684   1.118   4.133   0.361
 6595SOL    HW220685   1.253   4.070   0.295
 6596SOL     OW20686   4.129   6.955   4.758
 6596SOL    HW120687   4.085   6.964   4.847
 6596SOL    HW220688   4.075   7.003   4.689
 6597SOL     OW20689   0.240   4.822   5.253
 6597SOL    HW120690   0.153   4.788   5.288
 6597SOL    HW220691   0.298   4.850   5.330
 6598SOL     OW20692   1.771   5.918   5.687
 6598SOL    HW120693   1.869   5.919   5.709
 6598SOL    HW220694   1.720   5.962   5.760
 6599SOL     OW20695   4.094   4.141   6.087
 6599SOL    HW120696   4.118   4.229   6.046
 6599SOL    HW220697   4.003   4.113   6.056
 6600SOL     OW20698   4.808   6.042   4.167
 6600SOL    HW120699   4.810   6.132   4.211
 6600SOL    HW220700   4.895   6.026   4.121
 6601SOL     OW20701   1.394   0.291   0.930
 6601SOL    HW120702   1.413   0.193   0.929
 6601SOL    HW220703   1.479   0.341   0.945
 6602SOL     OW20704   6.575   1.415   1.477
 6602SOL    HW120705   6.579   1.410   1.577
 6602SOL    HW220706   6.480   1.417   1.447
 6603SOL     OW20707   2.145   3.479   3.480
 6603SOL    HW120708   2.087   3.485   3.399
 6603SOL    HW220709   2.215   3.409   3.465
 6604SOL     OW20710   3.587   6.241   2.766
 6604SOL    HW120711   3.593   6.255   2.667
 6604SOL    HW220712   3.638   6.159   2.791
 6605SOL     OW20713   5.980   6.641   0.290
 6605SOL    HW120714   5.994   6.689   0.376
 6605SOL    HW220715   5.917   6.693   0.232
 6606SOL     OW20716   4.762   1.206   2.620
 6606SOL    HW120717   4.788   1.292   2.665
 6606SOL    HW220718   4.831   1.183   2.552
 6607SOL     OW20719   1.021   2.861   2.910
 6607SOL    HW120720   1.100   2.810   2.944
 6607SOL    HW220721   0.978   2.910   2.986
 6608SOL     OW20722   6.032   3.617   4.737
 6608SOL    HW120723   6.085   3.673   4.674
 6608SOL    HW220724   5.948   3.586   4.693
 6609SOL     OW20725   5.695   1.835   6.774
 6609SOL    HW120726   5.637   1.848   6.855
 6609SOL    HW220727   5.710   1.737   6.759
 6610SOL     OW20728   2.745   0.979   0.261
 6610SOL    HW120729   2.716   1.026   0.177
 6610SOL    HW220730   2.664   0.944   0.308
 6611SOL     OW20731   5.816   3.032   3.005
 6611SOL    HW120732   5.912   3.046   2.981
 6611SOL    HW220733   5.805   3.034   3.104
 6612SOL     OW20734   1.567   6.439   6.725
 6612SOL    HW120735   1.563   6.478   6.818
 6612SOL    HW220736   1.536   6.508   6.659
 6613SOL     OW20737   4.894   5.376   1.577
 6613SOL    HW120738   4.985   5.387   1.537
 6613SOL    HW220739   4.862   5.283   1.561
 6614SOL     OW20740   5.536   5.690   6.142
 6614SOL    HW120741   5.563   5.785   6.124
 6614SOL    HW220742   5.464   5.690   6.213
 6615SOL     OW20743   1.043   3.827   5.080
 6615SOL    HW120744   1.132   3.845   5.037
 6615SOL    HW220745   0.978   3.899   5.053
 6616SOL     OW20746   4.888   0.549   4.758
 6616SOL    HW120747   4.910   0.452   4.768
 6616SOL    HW220748   4.789   0.560   4.751
 6617SOL     OW20749   4.015   0.004   5.017
 6617SOL    HW120750   4.094   0.012   5.078
 6617SOL    HW220751   3.957   0.085   5.027
 6618SOL     OW20752   1.002   4.463   1.667
 6618SOL    HW120753   1.063   4.414   1.604
 6618SOL    HW220754   1.050   4.478   1.754
 6619SOL     OW20755   5.132   5.725   2.704
 6619SOL    HW120756   5.091   5.790   2.640
 6619SOL    HW220757   5.092   5.635   2.690
 6620SOL     OW20758   2.386   2.999   5.665
 6620SOL    HW120759   2.302   2.990   5.611
 6620SOL    HW220760   2.429   3.087   5.647
 6621SOL     OW20761   2.480   3.972   6.937
 6621SOL    HW120762   2.452   4.068   6.938
 6621SOL    HW220763   2.568   3.963   6.892
 6622SOL     OW20764   6.784   7.018   0.582
 6622SOL    HW120765   6.729   6.954   0.529
 6622SOL    HW220766   6.748   0.091   0.571
 6623SOL     OW20767   3.658   3.571   1.933
 6623SOL    HW120768   3.749   3.568   1.892
 6623SOL    HW220769   3.591   3.534   1.868
 6624SOL     OW20770   4.147   4.822   4.026
 6624SOL    HW120771   4.081   4.879   3.977
 6624SOL    HW220772   4.198   4.766   3.961
 6625SOL     OW20773   6.325   0.343   0.576
 6625SOL    HW120774   6.278   0.325   0.662
 6625SOL    HW220775   6.417   0.305   0.579
 6626SOL     OW20776   3.370   4.902   3.411
 6626SOL    HW120777   3.388   4.972   3.479
 6626SOL    HW220778   3.438   4.908   3.338
 6627SOL     OW20779   1.927   5.964   1.512
 6627SOL    HW120780   1.932   5.998   1.606
 6627SOL    HW220781   1.836   5.981   1.475
 6628SOL     OW20782   3.968   6.171   3.112
 6628SOL    HW120783   4.018   6.102   3.164
 6628SOL    HW220784   3.956   6.140   3.018
 6629SOL     OW20785   3.322   4.486   0.050
 6629SOL    HW120786   3.293   4.474   0.144
 6629SOL    HW220787   3.383   4.566   0.044
 6630SOL     OW20788   3.111   2.311   6.365
 6630SOL    HW120789   3.081   2.407   6.364
 6630SOL    HW220790   3.205   2.307   6.400
 6631SOL     OW20791   4.493   0.690   2.235
 6631SOL    HW120792   4.405   0.654   2.265
 6631SOL    HW220793   4.539   0.735   2.312
 6632SOL     OW20794   6.975   1.959   2.140
 6632SOL    HW120795   6.898   1.952   2.077
 6632SOL    HW220796   7.019   1.869   2.148
 6633SOL     OW20797   0.394   0.181   1.178
 6633SOL    HW120798   0.314   0.152   1.231
 6633SOL    HW220799   0.425   0.106   1.120
 6634SOL     OW20800   6.729   3.028   5.838
 6634SOL    HW120801   6.669   2.948   5.828
 6634SOL    HW220802   6.821   3.005   5.806
 6635SOL     OW20803   4.752   4.292   3.544
 6635SOL    HW120804   4.825   4.359   3.532
 6635SOL    HW220805   4.675   4.315   3.485
 6636SOL     OW20806   2.159   2.479   4.449
 6636SOL    HW120807   2.092   2.479   4.374
 6636SOL    HW220808   2.208   2.392   4.449
 6637SOL     OW20809   6.395   1.194   1.055
 6637SOL    HW120810   6.469   1.201   1.122
 6637SOL    HW220811   6.309   1.173   1.102
 6638SOL     OW20812   2.376   5.852   5.753
 6638SOL    HW120813   2.347   5.822   5.663
 6638SOL    HW220814   2.306   5.829   5.821
 6639SOL     OW20815   5.692   5.643   0.010
 6639SOL    HW120816   5.729   5.652   0.103
 6639SOL    HW220817   5.740   5.706   6.969
 6640SOL     OW20818   5.539   3.140   3.568
 6640SOL    HW120819   5.602   3.155   3.644
 6640SOL    HW220820   5.531   3.224   3.514
 6641SOL     OW20821   2.004   4.164   6.419
 6641SOL    HW120822   1.930   4.164   6.351
 6641SOL    HW220823   2.037   4.258   6.431
 6642SOL     OW20824   0.276   6.419   0.414
 6642SOL    HW120825   0.327   6.398   0.331
 6642SOL    HW220826   0.338   6.453   0.485
 6643SOL     OW20827   4.592   5.248   0.157
 6643SOL    HW120828   4.561   5.186   0.085
 6643SOL    HW220829   4.651   5.319   0.117
 6644SOL     OW20830   2.861   4.731   2.242
 6644SOL    HW120831   2.834   4.693   2.153
 6644SOL    HW220832   2.848   4.830   2.241
 6645SOL     OW20833   0.470   5.229   5.547
 6645SOL    HW120834   0.538   5.236   5.620
 6645SOL    HW220835   0.380   5.210   5.587
 6646SOL     OW20836   2.473   5.679   3.723
 6646SOL    HW120837   2.445   5.614   3.652
 6646SOL    HW220838   2.565   5.714   3.701
 6647SOL     OW20839   3.464   1.944   2.280
 6647SOL    HW120840   3.401   2.018   2.305
 6647SOL    HW220841   3.495   1.957   2.186
 6648SOL     OW20842   4.585   5.423   2.178
 6648SOL    HW120843   4.637   5.508   2.180
 6648SOL    HW220844   4.596   5.375   2.265
 6649SOL     OW20845   3.969   2.638   6.395
 6649SOL    HW120846   3.899   2.631   6.324
 6649SOL    HW220847   3.950   2.570   6.466
 6650SOL     OW20848   3.154   2.100   3.169
 6650SOL    HW120849   3.073   2.148   3.203
 6650SOL    HW220850   3.234   2.128   3.222
 6651SOL     OW20851   1.233   2.417   6.660
 6651SOL    HW120852   1.212   2.361   6.740
 6651SOL    HW220853   1.148   2.447   6.616
 6652SOL     OW20854   6.677   5.545   3.089
 6652SOL    HW120855   6.730   5.500   3.018
 6652SOL    HW220856   6.611   5.607   3.047
 6653SOL     OW20857   3.679   3.305   3.795
 6653SOL    HW120858   3.585   3.282   3.818
 6653SOL    HW220859   3.686   3.401   3.770
 6654SOL     OW20860   2.041   3.461   1.773
 6654SOL    HW120861   2.109   3.462   1.846
 6654SOL    HW220862   2.087   3.463   1.684
 6655SOL     OW20863   2.361   6.663   1.499
 6655SOL    HW120864   2.392   6.583   1.448
 6655SOL    HW220865   2.434   6.731   1.502
 6656SOL     OW20866   6.122   2.618   1.308
 6656SOL    HW120867   6.132   2.609   1.209
 6656SOL    HW220868   6.182   2.554   1.354
 6657SOL     OW20869   2.905   6.397   6.236
 6657SOL    HW120870   2.957   6.324   6.192
 6657SOL    HW220871   2.878   6.464   6.166
 6658SOL     OW20872   5.039   0.857   5.723
 6658SOL    HW120873   5.047   0.956   5.719
 6658SOL    HW220874   5.130   0.816   5.717
 6659SOL     OW20875   1.449   3.150   6.602
 6659SOL    HW120876   1.450   3.237   6.553
 6659SOL    HW220877   1.474   3.076   6.540
 6660SOL     OW20878   6.658   6.796   3.086
 6660SOL    HW120879   6.662   6.847   3.000
 6660SOL    HW220880   6.565   6.799   3.123
 6661SOL     OW20881   0.417   6.273   3.604
 6661SOL    HW120882   0.383   6.250   3.513
 6661SOL    HW220883   0.340   6.289   3.666
 6662SOL     OW20884   1.295   3.159   6.836
 6662SOL    HW120885   1.204   3.149   6.795
 6662SOL    HW220886   1.364   3.144   6.766
 6663SOL     OW20887   0.488   5.756   2.206
 6663SOL    HW120888   0.414   5.778   2.270
 6663SOL    HW220889   0.546   5.837   2.193
 6664SOL     OW20890   1.016   1.324   3.226
 6664SOL    HW120891   0.964   1.386   3.168
 6664SOL    HW220892   1.043   1.371   3.310
 6665SOL     OW20893   2.555   6.866   3.073
 6665SOL    HW120894   2.633   6.882   3.013
 6665SOL    HW220895   2.542   6.768   3.086
 6666SOL     OW20896   6.300   0.454   6.961
 6666SOL    HW120897   6.340   0.434   0.030
 6666SOL    HW220898   6.296   0.370   6.907
 6667SOL     OW20899   6.827   4.998   4.775
 6667SOL    HW120900   6.760   5.050   4.722
 6667SOL    HW220901   6.906   4.978   4.717
 6668SOL     OW20902   0.939   4.773   1.548
 6668SOL    HW120903   0.934   4.759   1.449
 6668SOL    HW220904   0.895   4.696   1.595
 6669SOL     OW20905   2.336   6.201   2.652
 6669SOL    HW120906   2.342   6.143   2.570
 6669SOL    HW220907   2.343   6.144   2.734
 6670SOL     OW20908   4.145   4.910   0.017
 6670SOL    HW120909   4.068   4.847   0.024
 6670SOL    HW220910   4.205   4.898   0.096
 6671SOL     OW20911   0.186   2.745   4.850
 6671SOL    HW120912   0.161   2.662   4.799
 6671SOL    HW220913   0.182   2.726   4.948
 6672SOL     OW20914   1.862   1.074   5.574
 6672SOL    HW120915   1.947   1.128   5.576
 6672SOL    HW220916   1.842   1.041   5.666
 6673SOL     OW20917   4.728   4.703   1.509
 6673SOL    HW120918   4.709   4.625   1.570
 6673SOL    HW220919   4.826   4.722   1.509
 6674SOL     OW20920   0.893   6.610   4.334
 6674SOL    HW120921   0.967   6.677   4.327
 6674SOL    HW220922   0.849   6.601   4.244
 6675SOL     OW20923   6.005   5.164   0.247
 6675SOL    HW120924   6.049   5.174   0.336
 6675SOL    HW220925   6.055   5.217   0.178
 6676SOL     OW20926   1.110   2.595   5.788
 6676SOL    HW120927   1.072   2.646   5.711
 6676SOL    HW220928   1.187   2.646   5.826
 6677SOL     OW20929   0.570   3.581   0.097
 6677SOL    HW120930   0.602   3.662   0.047
 6677SOL    HW220931   0.626   3.502   0.073
 6678SOL     OW20932   1.216   3.138   5.601
 6678SOL    HW120933   1.185   3.201   5.673
 6678SOL    HW220934   1.262   3.060   5.643
 6679SOL     OW20935   1.410   1.749   4.485
 6679SOL    HW120936   1.380   1.682   4.418
 6679SOL    HW220937   1.453   1.826   4.437
 6680SOL     OW20938   3.010   6.675   6.178
 6680SOL    HW120939   2.918   6.713   6.184
 6680SOL    HW220940   3.066   6.711   6.252
 6681SOL     OW20941   5.289   5.124   0.297
 6681SOL    HW120942   5.361   5.055   0.312
 6681SOL    HW220943   5.200   5.084   0.318
 6682SOL     OW20944   0.121   6.377   1.756
 6682SOL    HW120945   0.154   6.469   1.735
 6682SOL    HW220946   0.118   6.322   1.672
 6683SOL     OW20947   5.520   2.287   4.036
 6683SOL    HW120948   5.574   2.319   3.958
 6683SOL    HW220949   5.465   2.362   4.071
 6684SOL     OW20950   1.787   6.894   2.789
 6684SOL    HW120951   1.826   6.870   2.878
 6684SOL    HW220952   1.795   6.993   2.776
 6685SOL     OW20953   5.340   3.510   6.514
 6685SOL    HW120954   5.353   3.449   6.592
 6685SOL    HW220955   5.402   3.483   6.440
 6686SOL     OW20956   5.996   3.628   3.949
 6686SOL    HW120957   6.005   3.531   3.927
 6686SOL    HW220958   5.960   3.677   3.870
 6687SOL     OW20959   1.385   1.814   0.121
 6687SOL    HW120960   1.401   1.726   0.166
 6687SOL    HW220961   1.411   1.888   0.183
 6688SOL     OW20962   0.575   4.938   2.804
 6688SOL    HW120963   0.562   5.038   2.806
 6688SOL    HW220964   0.673   4.918   2.799
 6689SOL     OW20965   4.509   5.038   7.014
 6689SOL    HW120966   4.449   4.994   6.947
 6689SOL    HW220967   4.538   4.970   0.062
 6690SOL     OW20968   2.073   2.291   1.077
 6690SOL    HW120969   1.997   2.229   1.097
 6690SOL    HW220970   2.159   2.247   1.105
 6691SOL     OW20971   2.036   4.473   1.520
 6691SOL    HW120972   1.997   4.565   1.522
 6691SOL    HW220973   2.106   4.464   1.590
 6692SOL     OW20974   3.310   3.973   5.913
 6692SOL    HW120975   3.300   4.057   5.966
 6692SOL    HW220976   3.285   3.894   5.969
 6693SOL     OW20977   4.044   3.476   5.131
 6693SOL    HW120978   4.055   3.413   5.208
 6693SOL    HW220979   4.115   3.546   5.135
 6694SOL     OW20980   3.161   6.157   0.970
 6694SOL    HW120981   3.156   6.077   0.909
 6694SOL    HW220982   3.244   6.151   1.026
 6695SOL     OW20983   1.420   2.354   0.227
 6695SOL    HW120984   1.449   2.449   0.215
 6695SOL    HW220985   1.388   2.341   0.321
 6696SOL     OW20986   2.252   3.098   1.767
 6696SOL    HW120987   2.290   3.186   1.737
 6696SOL    HW220988   2.176   3.114   1.830
 6697SOL     OW20989   4.788   1.440   3.076
 6697SOL    HW120990   4.752   1.508   3.013
 6697SOL    HW220991   4.772   1.469   3.170
 6698SOL     OW20992   3.690   3.499   0.263
 6698SOL    HW120993   3.739   3.414   0.242
 6698SOL    HW220994   3.755   3.570   0.289
 6699SOL     OW20995   1.287   3.694   0.217
 6699SOL    HW120996   1.363   3.754   0.192
 6699SOL    HW220997   1.202   3.733   0.183
 6700SOL     OW20998   6.906   6.346   0.357
 6700SOL    HW120999   6.879   6.251   0.367
 6700SOL    HW221000   6.959   6.375   0.436
 6701SOL     OW21001   0.931   1.927   0.849
 6701SOL    HW121002   0.832   1.939   0.839
 6701SOL    HW221003   0.974   2.017   0.862
 6702SOL     OW21004   2.663   2.345   1.050
 6702SOL    HW121005   2.717   2.384   1.125
 6702SOL    HW221006   2.724   2.302   0.983
 6703SOL     OW21007   0.400   2.301   6.491
 6703SOL    HW121008   0.438   2.283   6.582
 6703SOL    HW221009   0.393   2.400   6.476
 6704SOL     OW21010   5.385   2.025   2.428
 6704SOL    HW121011   5.480   2.019   2.459
 6704SOL    HW221012   5.349   1.933   2.413
 6705SOL     OW21013   5.934   1.116   0.250
 6705SOL    HW121014   5.947   1.100   0.348
 6705SOL    HW221015   6.015   1.084   0.201
 6706SOL     OW21016   0.521   4.969   6.340
 6706SOL    HW121017   0.484   4.882   6.372
 6706SOL    HW221018   0.506   5.039   6.410
 6707SOL     OW21019   1.326   6.503   2.380
 6707SOL    HW121020   1.341   6.417   2.429
 6707SOL    HW221021   1.364   6.497   2.288
 6708SOL     OW21022   2.209   5.945   1.168
 6708SOL    HW121023   2.162   5.877   1.223
 6708SOL    HW221024   2.305   5.951   1.197
 6709SOL     OW21025   4.490   1.586   2.899
 6709SOL    HW121026   4.428   1.654   2.859
 6709SOL    HW221027   4.535   1.534   2.827
 6710SOL     OW21028   3.032   2.472   1.007
 6710SOL    HW121029   3.008   2.389   1.057
 6710SOL    HW221030   2.959   2.494   0.942
 6711SOL     OW21031   3.685   4.056   1.189
 6711SOL    HW121032   3.751   3.983   1.204
 6711SOL    HW221033   3.643   4.046   1.098
 6712SOL     OW21034   3.419   5.744   0.371
 6712SOL    HW121035   3.331   5.721   0.331
 6712SOL    HW221036   3.475   5.793   0.303
 6713SOL     OW21037   1.897   2.104   2.538
 6713SOL    HW121038   1.969   2.164   2.574
 6713SOL    HW221039   1.939   2.028   2.490
 6714SOL     OW21040   6.003   0.324   3.690
 6714SOL    HW121041   6.066   0.400   3.677
 6714SOL    HW221042   6.052   0.246   3.727
 6715SOL     OW21043   0.602   1.940   1.148
 6715SOL    HW121044   0.562   1.904   1.232
 6715SOL    HW221045   0.609   1.867   1.080
 6716SOL     OW21046   2.511   6.077   0.858
 6716SOL    HW121047   2.447   6.133   0.806
 6716SOL    HW221048   2.468   5.991   0.884
 6717SOL     OW21049   3.438   1.549   6.826
 6717SOL    HW121050   3.516   1.541   6.889
 6717SOL    HW221051   3.382   1.627   6.853
 6718SOL     OW21052   3.694   0.618   6.948
 6718SOL    HW121053   3.730   0.711   6.950
 6718SOL    HW221054   3.628   0.609   6.873
 6719SOL     OW21055   0.525   0.309   5.820
 6719SOL    HW121056   0.469   0.250   5.761
 6719SOL    HW221057   0.468   0.379   5.861
 6720SOL     OW21058   1.899   4.682   2.048
 6720SOL    HW121059   1.873   4.735   2.128
 6720SOL    HW221060   1.891   4.584   2.070
 6721SOL     OW21061   6.455   6.470   3.826
 6721SOL    HW121062   6.410   6.387   3.860
 6721SOL    HW221063   6.529   6.444   3.764
 6722SOL     OW21064   4.635   3.751   0.147
 6722SOL    HW121065   4.590   3.717   0.064
 6722SOL    HW221066   4.721   3.796   0.122
 6723SOL     OW21067   4.237   6.606   1.963
 6723SOL    HW121068   4.222   6.569   1.871
 6723SOL    HW221069   4.212   6.703   1.964
 6724SOL     OW21070   3.504   4.749   5.296
 6724SOL    HW121071   3.507   4.649   5.290
 6724SOL    HW221072   3.480   4.776   5.389
 6725SOL     OW21073   0.497   4.805   2.574
 6725SOL    HW121074   0.506   4.826   2.671
 6725SOL    HW221075   0.575   4.844   2.524
 6726SOL     OW21076   2.523   2.043   2.619
 6726SOL    HW121077   2.517   2.026   2.520
 6726SOL    HW221078   2.531   2.142   2.634
 6727SOL     OW21079   3.910   3.983   0.159
 6727SOL    HW121080   3.992   4.005   0.212
 6727SOL    HW221081   3.831   3.981   0.220
 6728SOL     OW21082   4.541   0.973   4.193
 6728SOL    HW121083   4.444   0.969   4.216
 6728SOL    HW221084   4.555   1.035   4.116
 6729SOL     OW21085   5.888   0.017   2.628
 6729SOL    HW121086   5.910   0.106   2.590
 6729SOL    HW221087   5.859   0.028   2.723
 6730SOL     OW21088   1.886   0.609   0.689
 6730SOL    HW121089   1.980   0.588   0.662
 6730SOL    HW221090   1.844   0.668   0.620
 6731SOL     OW21091   2.560   4.975   2.113
 6731SOL    HW121092   2.504   5.049   2.075
 6731SOL    HW221093   2.501   4.910   2.161
 6732SOL     OW21094   2.121   4.174   1.279
 6732SOL    HW121095   2.045   4.112   1.297
 6732SOL    HW221096   2.088   4.269   1.278
 6733SOL     OW21097   5.596   5.940   6.049
 6733SOL    HW121098   5.635   6.026   6.018
 6733SOL    HW221099   5.501   5.932   6.019
 6734SOL     OW21100   2.141   3.556   5.544
 6734SOL    HW121101   2.204   3.598   5.478
 6734SOL    HW221102   2.179   3.468   5.574
 6735SOL     OW21103   0.215   5.198   5.997
 6735SOL    HW121104   0.232   5.103   6.025
 6735SOL    HW221105   0.134   5.232   6.044
 6736SOL     OW21106   2.139   3.691   2.652
 6736SOL    HW121107   2.109   3.688   2.557
 6736SOL    HW221108   2.191   3.608   2.673
 6737SOL     OW21109   2.382   1.514   0.961
 6737SOL    HW121110   2.297   1.544   0.918
 6737SOL    HW221111   2.363   1.437   1.022
 6738SOL     OW21112   3.880   1.358   2.021
 6738SOL    HW121113   3.852   1.440   1.971
 6738SOL    HW221114   3.971   1.372   2.060
 6739SOL     OW21115   3.785   6.608   4.829
 6739SOL    HW121116   3.816   6.572   4.917
 6739SOL    HW221117   3.685   6.614   4.830
 6740SOL     OW21118   6.104   2.782   4.637
 6740SOL    HW121119   6.094   2.685   4.612
 6740SOL    HW221120   6.013   2.824   4.642
 6741SOL     OW21121   7.015   0.082   6.405
 6741SOL    HW121122   0.086   0.044   6.420
 6741SOL    HW221123   6.977   0.045   6.320
 6742SOL     OW21124   6.424   6.105   6.004
 6742SOL    HW121125   6.396   6.159   6.084
 6742SOL    HW221126   6.369   6.132   5.925
 6743SOL     OW21127   4.855   3.280   1.029
 6743SOL    HW121128   4.786   3.247   1.093
 6743SOL    HW221129   4.832   3.373   0.999
 6744SOL     OW21130   4.903   4.791   5.601
 6744SOL    HW121131   4.993   4.748   5.611
 6744SOL    HW221132   4.913   4.890   5.606
 6745SOL     OW21133   6.876   3.987   3.901
 6745SOL    HW121134   6.971   3.954   3.898
 6745SOL    HW221135   6.824   3.943   3.828
 6746SOL     OW21136   0.094   1.480   1.082
 6746SOL    HW121137   0.167   1.526   1.132
 6746SOL    HW221138   0.010   1.533   1.088
 6747SOL     OW21139   5.710   6.178   6.000
 6747SOL    HW121140   5.740   6.229   5.919
 6747SOL    HW221141   5.765   6.205   6.079
 6748SOL     OW21142   7.005   0.231   2.044
 6748SOL    HW121143   6.964   0.162   2.104
 6748SOL    HW221144   0.068   0.267   2.086
 6749SOL     OW21145   3.560   5.988   1.294
 6749SOL    HW121146   3.655   6.007   1.319
 6749SOL    HW221147   3.554   5.897   1.253
 6750SOL     OW21148   2.571   3.263   5.392
 6750SOL    HW121149   2.516   3.261   5.476
 6750SOL    HW221150   2.529   3.205   5.323
 6751SOL     OW21151   3.375   2.136   5.472
 6751SOL    HW121152   3.374   2.172   5.565
 6751SOL    HW221153   3.438   2.189   5.416
 6752SOL     OW21154   6.221   2.255   0.378
 6752SOL    HW121155   6.218   2.257   0.278
 6752SOL    HW221156   6.311   2.226   0.408
 6753SOL     OW21157   5.114   1.986   6.081
 6753SOL    HW121158   5.213   1.981   6.095
 6753SOL    HW221159   5.068   1.994   6.169
 6754SOL     OW21160   5.395   0.806   0.205
 6754SOL    HW121161   5.373   0.762   0.292
 6754SOL    HW221162   5.327   0.780   0.136
 6755SOL     OW21163   5.242   1.596   3.130
 6755SOL    HW121164   5.217   1.599   3.227
 6755SOL    HW221165   5.316   1.661   3.112
 6756SOL     OW21166   5.159   4.092   3.832
 6756SOL    HW121167   5.219   4.105   3.910
 6756SOL    HW221168   5.068   4.065   3.864
 6757SOL     OW21169   5.105   5.145   2.119
 6757SOL    HW121170   5.159   5.228   2.132
 6757SOL    HW221171   5.034   5.141   2.190
 6758SOL     OW21172   5.466   1.969   3.078
 6758SOL    HW121173   5.385   2.013   3.040
 6758SOL    HW221174   5.544   1.984   3.017
 6759SOL     OW21175   0.220   4.775   3.538
 6759SOL    HW121176   0.238   4.702   3.603
 6759SOL    HW221177   0.242   4.743   3.445
 6760SOL     OW21178   0.214   4.486   4.674
 6760SOL    HW121179   0.153   4.422   4.627
 6760SOL    HW221180   0.212   4.467   4.773
 6761SOL     OW21181   5.864   3.560   6.465
 6761SOL    HW121182   5.952   3.524   6.496
 6761SOL    HW221183   5.792   3.532   6.528
 6762SOL     OW21184   5.819   4.987   3.818
 6762SOL    HW121185   5.901   5.043   3.804
 6762SOL    HW221186   5.845   4.901   3.861
 6763SOL     OW21187   5.250   6.198   5.871
 6763SOL    HW121188   5.217   6.108   5.898
 6763SOL    HW221189   5.256   6.202   5.771
 6764SOL     OW21190   2.265   3.512   0.076
 6764SOL    HW121191   2.248   3.413   0.083
 6764SOL    HW221192   2.364   3.529   0.076
 6765SOL     OW21193   4.985   5.228   2.708
 6765SOL    HW121194   4.973   5.193   2.800
 6765SOL    HW221195   4.991   5.151   2.643
 6766SOL     OW21196   1.369   1.489   5.445
 6766SOL    HW121197   1.314   1.450   5.519
 6766SOL    HW221198   1.444   1.542   5.484
 6767SOL     OW21199   1.393   2.513   5.591
 6767SOL    HW121200   1.317   2.448   5.583
 6767SOL    HW221201   1.376   2.576   5.666
 6768SOL     OW21202   0.336   0.497   5.588
 6768SOL    HW121203   0.250   0.452   5.615
 6768SOL    HW221204   0.384   0.439   5.523
 6769SOL     OW21205   1.627   2.979   6.459
 6769SOL    HW121206   1.665   2.889   6.480
 6769SOL    HW221207   1.628   2.993   6.360
 6770SOL     OW21208   6.689   1.418   3.741
 6770SOL    HW121209   6.671   1.500   3.795
 6770SOL    HW221210   6.783   1.387   3.759
 6771SOL     OW21211   4.045   1.744   2.025
 6771SOL    HW121212   4.125   1.804   2.037
 6771SOL    HW221213   3.961   1.796   2.040
 6772SOL     OW21214   0.307   1.118   1.562
 6772SOL    HW121215   0.312   1.187   1.634
 6772SOL    HW221216   0.229   1.136   1.503
 6773SOL     OW21217   1.078   1.131   1.861
 6773SOL    HW121218   1.001   1.127   1.924
 6773SOL    HW221219   1.094   1.041   1.821
 6774SOL     OW21220   3.163   1.243   5.506
 6774SOL    HW121221   3.236   1.194   5.553
 6774SOL    HW221222   3.193   1.268   5.414
 6775SOL     OW21223   0.782   2.823   5.038
 6775SOL    HW121224   0.822   2.913   5.053
 6775SOL    HW221225   0.847   2.752   5.068
 6776SOL     OW21226   3.418   3.691   3.586
 6776SOL    HW121227   3.345   3.721   3.525
 6776SOL    HW221228   3.408   3.736   3.675
 6777SOL     OW21229   0.072   6.288   6.707
 6777SOL    HW121230   7.004   6.246   6.683
 6777SOL    HW221231   0.077   6.302   6.806
 6778SOL     OW21232   5.835   5.722   2.402
 6778SOL    HW121233   5.786   5.800   2.441
 6778SOL    HW221234   5.934   5.740   2.405
 6779SOL     OW21235   5.084   4.017   6.430
 6779SOL    HW121236   5.172   3.970   6.435
 6779SOL    HW221237   5.046   4.008   6.338
 6780SOL     OW21238   3.875   1.110   1.880
 6780SOL    HW121239   3.900   1.182   1.944
 6780SOL    HW221240   3.789   1.134   1.835
 6781SOL     OW21241   6.188   2.704   3.063
 6781SOL    HW121242   6.156   2.728   3.155
 6781SOL    HW221243   6.110   2.681   3.005
 6782SOL     OW21244   0.034   1.875   3.227
 6782SOL    HW121245   0.111   1.919   3.181
 6782SOL    HW221246   0.068   1.797   3.280
 6783SOL     OW21247   0.471   6.345   5.957
 6783SOL    HW121248   0.508   6.324   5.866
 6783SOL    HW221249   0.538   6.396   6.010
 6784SOL     OW21250   1.181   4.444   1.207
 6784SOL    HW121251   1.276   4.416   1.217
 6784SOL    HW221252   1.176   4.532   1.160
 6785SOL     OW21253   5.290   4.809   3.782
 6785SOL    HW121254   5.243   4.726   3.751
 6785SOL    HW221255   5.386   4.805   3.754
 6786SOL     OW21256   6.295   2.126   5.844
 6786SOL    HW121257   6.226   2.053   5.843
 6786SOL    HW221258   6.338   2.129   5.934
 6787SOL     OW21259   3.180   1.570   0.582
 6787SOL    HW121260   3.185   1.613   0.492
 6787SOL    HW221261   3.086   1.542   0.600
 6788SOL     OW21262   0.543   4.402   1.016
 6788SOL    HW121263   0.477   4.441   0.952
 6788SOL    HW221264   0.594   4.329   0.971
 6789SOL     OW21265   5.969   5.071   2.417
 6789SOL    HW121266   5.878   5.040   2.446
 6789SOL    HW221267   5.963   5.115   2.328
 6790SOL     OW21268   0.614   5.880   0.459
 6790SOL    HW121269   0.635   5.782   0.461
 6790SOL    HW221270   0.550   5.902   0.532
 6791SOL     OW21271   2.297   6.438   3.275
 6791SOL    HW121272   2.304   6.431   3.176
 6791SOL    HW221273   2.222   6.380   3.307
 6792SOL     OW21274   3.819   6.794   6.080
 6792SOL    HW121275   3.901   6.814   6.026
 6792SOL    HW221276   3.797   6.872   6.138
 6793SOL     OW21277   2.268   3.195   6.218
 6793SOL    HW121278   2.197   3.258   6.186
 6793SOL    HW221279   2.261   3.184   6.317
 6794SOL     OW21280   5.624   2.682   5.345
 6794SOL    HW121281   5.693   2.745   5.309
 6794SOL    HW221282   5.552   2.671   5.277
 6795SOL     OW21283   1.341   0.751   1.527
 6795SOL    HW121284   1.315   0.808   1.605
 6795SOL    HW221285   1.373   0.662   1.560
 6796SOL     OW21286   6.847   1.833   3.064
 6796SOL    HW121287   6.857   1.735   3.045
 6796SOL    HW221288   6.927   1.864   3.115
 6797SOL     OW21289   0.726   3.033   1.136
 6797SOL    HW121290   0.782   2.984   1.202
 6797SOL    HW221291   0.783   3.058   1.057
 6798SOL     OW21292   4.899   1.449   1.995
 6798SOL    HW121293   4.904   1.486   2.088
 6798SOL    HW221294   4.884   1.524   1.931
 6799SOL     OW21295   6.494   0.209   2.810
 6799SOL    HW121296   6.474   0.257   2.725
 6799SOL    HW221297   6.471   0.269   2.888
 6800SOL     OW21298   6.691   2.803   1.405
 6800SOL    HW121299   6.750   2.784   1.483
 6800SOL    HW221300   6.596   2.806   1.434
 6801SOL     OW21301   1.098   5.983   6.350
 6801SOL    HW121302   1.158   5.956   6.426
 6801SOL    HW221303   1.033   5.909   6.332
 6802SOL     OW21304   3.010   4.853   1.752
 6802SOL    HW121305   3.092   4.860   1.809
 6802SOL    HW221306   2.950   4.781   1.787
 6803SOL     OW21307   5.086   5.202   6.188
 6803SOL    HW121308   5.047   5.119   6.229
 6803SOL    HW221309   5.116   5.264   6.260
 6804SOL     OW21310   3.699   5.311   2.120
 6804SOL    HW121311   3.710   5.404   2.086
 6804SOL    HW221312   3.781   5.284   2.170
 6805SOL     OW21313   0.903   4.059   4.509
 6805SOL    HW121314   0.933   4.154   4.514
 6805SOL    HW221315   0.803   4.055   4.501
 6806SOL     OW21316   6.340   3.167   1.982
 6806SOL    HW121317   6.264   3.103   1.965
 6806SOL    HW221318   6.303   3.258   2.000
 6807SOL     OW21319   3.448   4.141   2.641
 6807SOL    HW121320   3.481   4.179   2.728
 6807SOL    HW221321   3.358   4.101   2.655
 6808SOL     OW21322   3.442   0.659   3.433
 6808SOL    HW121323   3.496   0.610   3.364
 6808SOL    HW221324   3.471   0.755   3.436
 6809SOL     OW21325   5.776   3.085   0.346
 6809SOL    HW121326   5.749   3.113   0.254
 6809SOL    HW221327   5.867   3.122   0.367
 6810SOL     OW21328   2.799   0.628   4.647
 6810SOL    HW121329   2.838   0.552   4.594
 6810SOL    HW221330   2.753   0.691   4.584
 6811SOL     OW21331   6.524   1.539   1.204
 6811SOL    HW121332   6.599   1.528   1.139
 6811SOL    HW221333   6.555   1.514   1.296
 6812SOL     OW21334   3.187   4.835   5.028
 6812SOL    HW121335   3.238   4.756   4.994
 6812SOL    HW221336   3.127   4.806   5.103
 6813SOL     OW21337   0.416   4.182   2.067
 6813SOL    HW121338   0.355   4.105   2.050
 6813SOL    HW221339   0.461   4.209   1.982
 6814SOL     OW21340   5.714   1.432   0.827
 6814SOL    HW121341   5.677   1.339   0.822
 6814SOL    HW221342   5.651   1.491   0.877
 6815SOL     OW21343   0.831   5.992   6.852
 6815SOL    HW121344   0.773   6.031   6.924
 6815SOL    HW221345   0.775   5.960   6.777
 6816SOL     OW21346   6.505   6.763   4.730
 6816SOL    HW121347   6.523   6.849   4.683
 6816SOL    HW221348   6.441   6.708   4.676
 6817SOL     OW21349   4.619   2.022   1.366
 6817SOL    HW121350   4.708   2.029   1.412
 6817SOL    HW221351   4.565   1.949   1.409
 6818SOL     OW21352   0.915   0.262   5.351
 6818SOL    HW121353   0.841   0.255   5.417
 6818SOL    HW221354   0.886   0.224   5.263
 6819SOL     OW21355   5.211   4.333   1.671
 6819SOL    HW121356   5.279   4.311   1.740
 6819SOL    HW221357   5.121   4.301   1.700
 6820SOL     OW21358   2.416   5.132   1.752
 6820SOL    HW121359   2.475   5.212   1.744
 6820SOL    HW221360   2.471   5.050   1.769
 6821SOL     OW21361   3.318   2.954   5.804
 6821SOL    HW121362   3.283   2.959   5.898
 6821SOL    HW221363   3.245   2.922   5.743
 6822SOL     OW21364   5.817   3.928   5.401
 6822SOL    HW121365   5.805   3.852   5.464
 6822SOL    HW221366   5.733   3.982   5.396
 6823SOL     OW21367   0.759   2.727   5.728
 6823SOL    HW121368   0.827   2.789   5.766
 6823SOL    HW221369   0.759   2.641   5.781
 6824SOL     OW21370   1.361   0.400   5.306
 6824SOL    HW121371   1.455   0.364   5.304
 6824SOL    HW221372   1.306   0.353   5.238
 6825SOL     OW21373   4.112   4.278   1.256
 6825SOL    HW121374   4.171   4.258   1.178
 6825SOL    HW221375   4.016   4.270   1.229
 6826SOL     OW21376   5.831   0.348   3.376
 6826SOL    HW121377   5.753   0.398   3.415
 6826SOL    HW221378   5.908   0.410   3.363
 6827SOL     OW21379   4.501   5.932   5.177
 6827SOL    HW121380   4.403   5.930   5.198
 6827SOL    HW221381   4.519   6.003   5.108
 6828SOL     OW21382   3.554   1.976   2.029
 6828SOL    HW121383   3.510   1.929   1.953
 6828SOL    HW221384   3.594   2.062   1.997
 6829SOL     OW21385   4.137   6.875   3.297
 6829SOL    HW121386   4.117   6.806   3.227
 6829SOL    HW221387   4.134   6.832   3.387
 6830SOL     OW21388   4.308   4.665   2.275
 6830SOL    HW121389   4.211   4.690   2.268
 6830SOL    HW221390   4.340   4.631   2.186
 6831SOL     OW21391   1.825   1.382   6.574
 6831SOL    HW121392   1.786   1.297   6.607
 6831SOL    HW221393   1.769   1.417   6.498
 6832SOL     OW21394   2.712   2.614   6.856
 6832SOL    HW121395   2.795   2.560   6.873
 6832SOL    HW221396   2.738   2.705   6.826
 6833SOL     OW21397   3.685   5.263   6.352
 6833SOL    HW121398   3.605   5.323   6.341
 6833SOL    HW221399   3.702   5.214   6.267
 6834SOL     OW21400   6.316   6.333   6.543
 6834SOL    HW121401   6.269   6.365   6.461
 6834SOL    HW221402   6.362   6.410   6.588
 6835SOL     OW21403   3.377   1.043   4.103
 6835SOL    HW121404   3.321   1.027   4.022
 6835SOL    HW221405   3.391   1.142   4.115
 6836SOL     OW21406   0.627   4.303   6.390
 6836SOL    HW121407   0.722   4.281   6.408
 6836SOL    HW221408   0.622   4.375   6.320
 6837SOL     OW21409   6.112   0.644   2.084
 6837SOL    HW121410   6.017   0.666   2.105
 6837SOL    HW221411   6.129   0.660   1.987
 6838SOL     OW21412   2.944   3.894   6.009
 6838SOL    HW121413   2.979   3.983   5.980
 6838SOL    HW221414   3.010   3.850   6.070
 6839SOL     OW21415   5.932   3.177   4.499
 6839SOL    HW121416   5.919   3.084   4.464
 6839SOL    HW221417   5.900   3.182   4.594
 6840SOL     OW21418   2.935   6.318   4.553
 6840SOL    HW121419   2.968   6.248   4.615
 6840SOL    HW221420   2.955   6.292   4.458
 6841SOL     OW21421   4.658   6.580   1.111
 6841SOL    HW121422   4.620   6.535   1.192
 6841SOL    HW221423   4.653   6.518   1.033
 6842SOL     OW21424   0.622   4.006   4.544
 6842SOL    HW121425   0.532   4.010   4.586
 6842SOL    HW221426   0.683   3.951   4.601
 6843SOL     OW21427   4.484   2.654   1.519
 6843SOL    HW121428   4.564   2.616   1.474
 6843SOL    HW221429   4.513   2.709   1.598
 6844SOL     OW21430   3.343   5.492   4.441
 6844SOL    HW121431   3.329   5.426   4.367
 6844SOL    HW221432   3.378   5.444   4.522
 6845SOL     OW21433   3.961   4.197   0.414
 6845SOL    HW121434   3.904   4.254   0.474
 6845SOL    HW221435   4.036   4.252   0.378
 6846SOL     OW21436   4.060   3.158   2.420
 6846SOL    HW121437   3.993   3.084   2.407
 6846SOL    HW221438   4.082   3.199   2.332
 6847SOL     OW21439   6.562   3.653   1.058
 6847SOL    HW121440   6.630   3.723   1.037
 6847SOL    HW221441   6.605   3.563   1.059
 6848SOL     OW21442   6.684   6.116   3.802
 6848SOL    HW121443   6.730   6.080   3.883
 6848SOL    HW221444   6.609   6.054   3.777
 6849SOL     OW21445   3.684   6.546   3.988
 6849SOL    HW121446   3.765   6.566   3.932
 6849SOL    HW221447   3.633   6.470   3.947
 6850SOL     OW21448   5.257   3.311   1.314
 6850SOL    HW121449   5.200   3.392   1.329
 6850SOL    HW221450   5.294   3.314   1.221
 6851SOL     OW21451   1.132   5.298   4.892
 6851SOL    HW121452   1.129   5.252   4.980
 6851SOL    HW221453   1.224   5.291   4.853
 6852SOL     OW21454   7.006   5.058   2.062
 6852SOL    HW121455   7.014   5.144   2.113
 6852SOL    HW221456   0.058   4.995   2.092
 6853SOL     OW21457   6.380   3.917   5.147
 6853SOL    HW121458   6.348   3.837   5.198
 6853SOL    HW221459   6.379   3.997   5.207
 6854SOL     OW21460   0.174   1.758   6.944
 6854SOL    HW121461   0.236   1.708   6.883
 6854SOL    HW221462   0.219   1.841   6.977
 6855SOL     OW21463   2.922   6.815   2.024
 6855SOL    HW121464   2.986   6.829   2.100
 6855SOL    HW221465   2.831   6.795   2.061
 6856SOL     OW21466   0.542   4.911   4.914
 6856SOL    HW121467   0.511   4.885   5.006
 6856SOL    HW221468   0.548   4.829   4.857
 6857SOL     OW21469   3.719   1.286   5.635
 6857SOL    HW121470   3.785   1.357   5.658
 6857SOL    HW221471   3.728   1.210   5.699
 6858SOL     OW21472   3.734   2.740   5.263
 6858SOL    HW121473   3.746   2.839   5.260
 6858SOL    HW221474   3.823   2.696   5.271
 6859SOL     OW21475   3.686   0.631   0.418
 6859SOL    HW121476   3.705   0.593   0.327
 6859SOL    HW221477   3.676   0.556   0.483
 6860SOL     OW21478   4.316   4.919   6.833
 6860SOL    HW121479   4.317   4.844   6.766
 6860SOL    HW221480   4.235   4.911   6.891
 6861SOL     OW21481   5.724   4.126   0.916
 6861SOL    HW121482   5.818   4.152   0.937
 6861SOL    HW221483   5.694   4.175   0.834
 6862SOL     OW21484   2.989   5.285   3.696
 6862SOL    HW121485   3.042   5.364   3.727
 6862SOL    HW221486   3.050   5.218   3.654
 6863SOL     OW21487   0.737   2.995   4.183
 6863SOL    HW121488   0.751   2.898   4.203
 6863SOL    HW221489   0.826   3.038   4.164
 6864SOL     OW21490   4.344   5.478   5.807
 6864SOL    HW121491   4.358   5.380   5.791
 6864SOL    HW221492   4.365   5.499   5.903
 6865SOL     OW21493   6.646   3.141   4.497
 6865SOL    HW121494   6.576   3.105   4.559
 6865SOL    HW221495   6.603   3.168   4.411
 6866SOL     OW21496   0.504   3.236   1.801
 6866SOL    HW121497   0.457   3.184   1.730
 6866SOL    HW221498   0.592   3.194   1.821
 6867SOL     OW21499   2.253   4.893   2.530
 6867SOL    HW121500   2.342   4.853   2.553
 6867SOL    HW221501   2.199   4.906   2.613
 6868SOL     OW21502   1.872   5.140   4.838
 6868SOL    HW121503   1.782   5.097   4.848
 6868SOL    HW221504   1.917   5.145   4.928
 6869SOL     OW21505   6.273   3.303   5.290
 6869SOL    HW121506   6.283   3.402   5.282
 6869SOL    HW221507   6.180   3.282   5.320
 6870SOL     OW21508   5.255   3.957   2.225
 6870SOL    HW121509   5.204   3.963   2.139
 6870SOL    HW221510   5.263   3.862   2.253
 6871SOL     OW21511   4.571   0.155   1.389
 6871SOL    HW121512   4.546   0.112   1.476
 6871SOL    HW221513   4.643   0.223   1.405
 6872SOL     OW21514   2.650   3.578   6.707
 6872SOL    HW121515   2.611   3.552   6.618
 6872SOL    HW221516   2.731   3.522   6.725
 6873SOL     OW21517   4.911   3.722   5.577
 6873SOL    HW121518   4.852   3.685   5.648
 6873SOL    HW221519   4.858   3.739   5.494
 6874SOL     OW21520   1.241   2.729   5.415
 6874SOL    HW121521   1.147   2.702   5.434
 6874SOL    HW221522   1.261   2.714   5.318
 6875SOL     OW21523   3.228   1.975   3.803
 6875SOL    HW121524   3.289   2.022   3.867
 6875SOL    HW221525   3.139   1.960   3.846
 6876SOL     OW21526   3.614   6.467   5.116
 6876SOL    HW121527   3.713   6.477   5.105
 6876SOL    HW221528   3.574   6.434   5.030
 6877SOL     OW21529   2.771   3.654   0.150
 6877SOL    HW121530   2.774   3.677   0.248
 6877SOL    HW221531   2.839   3.708   0.101
 6878SOL     OW21532   1.544   1.721   5.062
 6878SOL    HW121533   1.596   1.649   5.017
 6878SOL    HW221534   1.608   1.785   5.106
 6879SOL     OW21535   1.041   1.159   5.595
 6879SOL    HW121536   0.998   1.116   5.674
 6879SOL    HW221537   0.985   1.143   5.513
 6880SOL     OW21538   1.940   3.952   4.892
 6880SOL    HW121539   2.026   3.988   4.855
 6880SOL    HW221540   1.930   3.857   4.866
 6881SOL     OW21541   6.169   5.235   1.736
 6881SOL    HW121542   6.249   5.258   1.681
 6881SOL    HW221543   6.086   5.250   1.682
 6882SOL     OW21544   2.296   6.557   4.969
 6882SOL    HW121545   2.366   6.485   4.963
 6882SOL    HW221546   2.338   6.640   5.005
 6883SOL     OW21547   2.981   6.491   1.432
 6883SOL    HW121548   2.894   6.445   1.449
 6883SOL    HW221549   3.032   6.443   1.361
 6884SOL     OW21550   2.716   4.654   2.820
 6884SOL    HW121551   2.780   4.631   2.746
 6884SOL    HW221552   2.725   4.750   2.843
 6885SOL     OW21553   3.881   5.404   4.962
 6885SOL    HW121554   3.836   5.327   4.916
 6885SOL    HW221555   3.940   5.369   5.036
 6886SOL     OW21556   5.045   2.452   2.184
 6886SOL    HW121557   5.142   2.434   2.201
 6886SOL    HW221558   5.029   2.460   2.086
 6887SOL     OW21559   5.046   1.072   5.006
 6887SOL    HW121560   4.949   1.049   5.000
 6887SOL    HW221561   5.099   1.011   4.947
 6888SOL     OW21562   5.353   6.333   5.029
 6888SOL    HW121563   5.379   6.274   5.105
 6888SOL    HW221564   5.254   6.328   5.015
 6889SOL     OW21565   1.435   4.237   6.371
 6889SOL    HW121566   1.463   4.274   6.282
 6889SOL    HW221567   1.340   4.261   6.388
 6890SOL     OW21568   2.143   0.861   0.586
 6890SOL    HW121569   2.069   0.857   0.519
 6890SOL    HW221570   2.104   0.851   0.678
 6891SOL     OW21571   3.510   4.971   5.125
 6891SOL    HW121572   3.508   4.910   5.204
 6891SOL    HW221573   3.437   4.946   5.061
 6892SOL     OW21574   3.750   1.060   4.422
 6892SOL    HW121575   3.836   1.021   4.453
 6892SOL    HW221576   3.700   0.993   4.367
 6893SOL     OW21577   6.556   6.888   1.513
 6893SOL    HW121578   6.571   6.977   1.470
 6893SOL    HW221579   6.488   6.837   1.460
 6894SOL     OW21580   6.406   4.568   5.932
 6894SOL    HW121581   6.373   4.514   6.009
 6894SOL    HW221582   6.341   4.562   5.856
 6895SOL     OW21583   3.714   5.081   6.837
 6895SOL    HW121584   3.754   5.167   6.870
 6895SOL    HW221585   3.651   5.101   6.762
 6896SOL     OW21586   4.214   0.334   3.203
 6896SOL    HW121587   4.292   0.395   3.213
 6896SOL    HW221588   4.236   0.246   3.245
 6897SOL     OW21589   3.568   1.759   0.504
 6897SOL    HW121590   3.543   1.840   0.557
 6897SOL    HW221591   3.612   1.692   0.564
 6898SOL     OW21592   3.766   1.131   2.975
 6898SOL    HW121593   3.677   1.175   2.960
 6898SOL    HW221594   3.803   1.100   2.887
 6899SOL     OW21595   5.596   6.397   6.627
 6899SOL    HW121596   5.518   6.344   6.593
 6899SOL    HW221597   5.612   6.372   6.723
 6900SOL     OW21598   4.167   1.230   5.551
 6900SOL    HW121599   4.149   1.221   5.649
 6900SOL    HW221600   4.228   1.157   5.522
 6901SOL     OW21601   1.326   0.616   0.115
 6901SOL    HW121602   1.251   0.552   0.099
 6901SOL    HW221603   1.342   0.626   0.213
 6902SOL     OW21604   6.551   5.753   1.493
 6902SOL    HW121605   6.473   5.814   1.478
 6902SOL    HW221606   6.604   5.786   1.571
 6903SOL     OW21607   4.057   4.780   0.956
 6903SOL    HW121608   4.126   4.828   0.903
 6903SOL    HW221609   4.082   4.782   1.053
 6904SOL     OW21610   0.412   1.782   3.333
 6904SOL    HW121611   0.432   1.827   3.246
 6904SOL    HW221612   0.494   1.783   3.391
 6905SOL     OW21613   4.253   5.091   1.044
 6905SOL    HW121614   4.238   5.124   0.951
 6905SOL    HW221615   4.167   5.061   1.084
 6906SOL     OW21616   4.310   5.696   3.885
 6906SOL    HW121617   4.398   5.742   3.898
 6906SOL    HW221618   4.270   5.674   3.974
 6907SOL     OW21619   3.912   1.170   1.160
 6907SOL    HW121620   3.936   1.130   1.072
 6907SOL    HW221621   3.964   1.254   1.174
 6908SOL     OW21622   0.024   6.546   6.953
 6908SOL    HW121623   0.101   6.540   7.018
 6908SOL    HW221624   0.017   6.639   6.918
 6909SOL     OW21625   4.335   3.070   6.737
 6909SOL    HW121626   4.336   3.077   6.837
 6909SOL    HW221627   4.416   3.020   6.706
 6910SOL     OW21628   6.698   1.302   2.017
 6910SOL    HW121629   6.607   1.261   2.026
 6910SOL    HW221630   6.760   1.237   1.975
 6911SOL     OW21631   4.344   0.781   5.231
 6911SOL    HW121632   4.410   0.729   5.177
 6911SOL    HW221633   4.299   0.721   5.296
 6912SOL     OW21634   4.896   5.065   1.580
 6912SOL    HW121635   4.897   4.982   1.635
 6912SOL    HW221636   4.843   5.049   1.497
 6913SOL     OW21637   4.313   5.739   5.393
 6913SOL    HW121638   4.309   5.795   5.475
 6913SOL    HW221639   4.274   5.789   5.316
 6914SOL     OW21640   6.218   5.010   6.952
 6914SOL    HW121641   6.256   5.054   0.014
 6914SOL    HW221642   6.284   5.018   6.877
 6915SOL     OW21643   1.302   5.699   1.441
 6915SOL    HW121644   1.306   5.743   1.530
 6915SOL    HW221645   1.378   5.635   1.432
 6916SOL     OW21646   6.522   1.037   6.235
 6916SOL    HW121647   6.498   1.134   6.235
 6916SOL    HW221648   6.504   0.998   6.144
 6917SOL     OW21649   4.891   7.018   6.435
 6917SOL    HW121650   4.802   0.044   6.438
 6917SOL    HW221651   4.914   6.984   6.526
 6918SOL     OW21652   2.279   2.872   3.952
 6918SOL    HW121653   2.304   2.842   3.860
 6918SOL    HW221654   2.281   2.972   3.956
 6919SOL     OW21655   1.321   6.242   3.405
 6919SOL    HW121656   1.334   6.230   3.504
 6919SOL    HW221657   1.401   6.287   3.367
 6920SOL     OW21658   4.848   6.887   4.708
 6920SOL    HW121659   4.893   6.816   4.761
 6920SOL    HW221660   4.789   6.942   4.768
 6921SOL     OW21661   6.991   6.356   2.838
 6921SOL    HW121662   6.973   6.311   2.750
 6921SOL    HW221663   0.005   6.449   2.821
 6922SOL     OW21664   1.582   5.800   6.824
 6922SOL    HW121665   1.631   5.864   6.765
 6922SOL    HW221666   1.492   5.781   6.784
 6923SOL     OW21667   4.346   6.643   4.369
 6923SOL    HW121668   4.376   6.735   4.392
 6923SOL    HW221669   4.278   6.647   4.297
 6924SOL     OW21670   6.827   6.005   1.348
 6924SOL    HW121671   6.885   6.086   1.356
 6924SOL    HW221672   6.867   5.930   1.400
 6925SOL     OW21673   6.243   5.768   2.970
 6925SOL    HW121674   6.211   5.718   3.052
 6925SOL    HW221675   6.164   5.800   2.918
 6926SOL     OW21676   3.068   3.966   4.847
 6926SOL    HW121677   3.025   3.996   4.932
 6926SOL    HW221678   3.122   3.884   4.864
 6927SOL     OW21679   3.916   3.802   6.522
 6927SOL    HW121680   3.959   3.720   6.485
 6927SOL    HW221681   3.964   3.883   6.487
 6928SOL     OW21682   6.485   6.949   6.525
 6928SOL    HW121683   6.432   6.877   6.480
 6928SOL    HW221684   6.581   6.922   6.527
 6929SOL     OW21685   3.588   5.149   0.420
 6929SOL    HW121686   3.543   5.064   0.396
 6929SOL    HW221687   3.553   5.182   0.508
 6930SOL     OW21688   0.968   6.976   3.082
 6930SOL    HW121689   0.959   6.996   3.179
 6930SOL    HW221690   0.932   6.884   3.064
 6931SOL     OW21691   1.518   0.616   1.824
 6931SOL    HW121692   1.591   0.566   1.778
 6931SOL    HW221693   1.554   0.700   1.864
 6932SOL     OW21694   3.076   2.033   0.178
 6932SOL    HW121695   3.157   1.982   0.149
 6932SOL    HW221696   3.101   2.128   0.196
 6933SOL     OW21697   3.179   6.389   6.592
 6933SOL    HW121698   3.227   6.322   6.535
 6933SOL    HW221699   3.235   6.472   6.600
 6934SOL     OW21700   6.000   4.138   6.218
 6934SOL    HW121701   5.921   4.097   6.171
 6934SOL    HW221702   5.978   4.152   6.314
 6935SOL     OW21703   4.430   5.184   3.685
 6935SOL    HW121704   4.338   5.224   3.689
 6935SOL    HW221705   4.492   5.250   3.642
 6936SOL     OW21706   1.100   4.739   1.138
 6936SOL    HW121707   1.169   4.695   1.080
 6936SOL    HW221708   1.073   4.826   1.097
 6937SOL     OW21709   4.620   6.629   5.905
 6937SOL    HW121710   4.664   6.550   5.950
 6937SOL    HW221711   4.529   6.642   5.944
 6938SOL     OW21712   5.605   2.227   5.141
 6938SOL    HW121713   5.525   2.192   5.093
 6938SOL    HW221714   5.677   2.249   5.076
 6939SOL     OW21715   0.561   5.105   2.336
 6939SOL    HW121716   0.601   5.168   2.402
 6939SOL    HW221717   0.476   5.144   2.300
 6940SOL     OW21718   3.793   0.848   4.759
 6940SOL    HW121719   3.696   0.870   4.755
 6940SOL    HW221720   3.837   0.874   4.672
 6941SOL     OW21721   3.740   2.879   3.306
 6941SOL    HW121722   3.690   2.793   3.295
 6941SOL    HW221723   3.677   2.956   3.297
 6942SOL     OW21724   0.155   1.732   0.325
 6942SOL    HW121725   0.154   1.814   0.268
 6942SOL    HW221726   0.107   1.750   0.411
 6943SOL     OW21727   5.569   6.337   6.926
 6943SOL    HW121728   5.544   6.423   6.970
 6943SOL    HW221729   5.495   6.271   6.939
 6944SOL     OW21730   1.256   6.545   6.032
 6944SOL    HW121731   1.302   6.595   5.958
 6944SOL    HW221732   1.200   6.472   5.994
 6945SOL     OW21733   4.521   2.109   5.401
 6945SOL    HW121734   4.579   2.044   5.351
 6945SOL    HW221735   4.552   2.202   5.382
 6946SOL     OW21736   6.100   4.396   4.079
 6946SOL    HW121737   6.060   4.339   4.006
 6946SOL    HW221738   6.160   4.340   4.136
 6947SOL     OW21739   4.121   0.008   2.874
 6947SOL    HW121740   4.083   0.010   2.966
 6947SOL    HW221741   4.069   6.964   2.817
 6948SOL     OW21742   3.924   1.998   4.549
 6948SOL    HW121743   3.925   1.898   4.539
 6948SOL    HW221744   3.830   2.030   4.561
 6949SOL     OW21745   4.667   0.761   2.416
 6949SOL    HW121746   4.680   0.758   2.515
 6949SOL    HW221747   4.752   0.791   2.372
 6950SOL     OW21748   2.386   1.336   3.542
 6950SOL    HW121749   2.455   1.389   3.493
 6950SOL    HW221750   2.412   1.328   3.638
 6951SOL     OW21751   5.494   5.355   5.776
 6951SOL    HW121752   5.504   5.256   5.785
 6951SOL    HW221753   5.522   5.399   5.861
 6952SOL     OW21754   0.527   5.299   4.623
 6952SOL    HW121755   0.476   5.385   4.633
 6952SOL    HW221756   0.625   5.319   4.627
 6953SOL     OW21757   5.565   2.397   5.782
 6953SOL    HW121758   5.560   2.487   5.739
 6953SOL    HW221759   5.505   2.395   5.862
 6954SOL     OW21760   0.916   5.309   2.904
 6954SOL    HW121761   0.890   5.307   3.001
 6954SOL    HW221762   0.932   5.404   2.876
 6955SOL     OW21763   6.203   5.602   2.675
 6955SOL    HW121764   6.207   5.504   2.692
 6955SOL    HW221765   6.108   5.631   2.669
 6956SOL     OW21766   3.004   5.135   1.250
 6956SOL    HW121767   3.079   5.107   1.190
 6956SOL    HW221768   3.011   5.089   1.338
 6957SOL     OW21769   0.644   3.787   6.966
 6957SOL    HW121770   0.699   3.785   6.882
 6957SOL    HW221771   0.627   3.882   6.992
 6958SOL     OW21772   2.408   3.779   6.179
 6958SOL    HW121773   2.433   3.802   6.085
 6958SOL    HW221774   2.366   3.858   6.223
 6959SOL     OW21775   2.990   1.227   3.848
 6959SOL    HW121776   2.991   1.132   3.877
 6959SOL    HW221777   3.081   1.267   3.859
 6960SOL     OW21778   0.014   4.976   0.024
 6960SOL    HW121779   0.042   4.934   6.958
 6960SOL    HW221780   7.010   4.904   0.090
 6961SOL     OW21781   6.719   1.233   3.004
 6961SOL    HW121782   6.731   1.216   2.906
 6961SOL    HW221783   6.686   1.150   3.048
 6962SOL     OW21784   4.009   3.216   0.530
 6962SOL    HW121785   3.951   3.195   0.452
 6962SOL    HW221786   3.971   3.172   0.612
 6963SOL     OW21787   5.963   5.494   2.036
 6963SOL    HW121788   5.901   5.567   2.067
 6963SOL    HW221789   5.934   5.463   1.945
 6964SOL     OW21790   3.775   6.212   5.021
 6964SOL    HW121791   3.710   6.154   5.070
 6964SOL    HW221792   3.743   6.224   4.927
 6965SOL     OW21793   6.733   3.309   5.752
 6965SOL    HW121794   6.733   3.211   5.771
 6965SOL    HW221795   6.781   3.357   5.826
 6966SOL     OW21796   4.798   2.827   3.698
 6966SOL    HW121797   4.863   2.770   3.747
 6966SOL    HW221798   4.844   2.872   3.621
 6967SOL     OW21799   2.027   1.590   6.683
 6967SOL    HW121800   1.953   1.538   6.640
 6967SOL    HW221801   2.003   1.611   6.777
 6968SOL     OW21802   4.472   7.019   2.308
 6968SOL    HW121803   4.373   7.004   2.319
 6968SOL    HW221804   4.522   6.940   2.343
 6969SOL     OW21805   3.249   1.996   1.453
 6969SOL    HW121806   3.286   1.904   1.466
 6969SOL    HW221807   3.317   2.064   1.481
 6970SOL     OW21808   4.732   3.680   0.630
 6970SOL    HW121809   4.658   3.650   0.570
 6970SOL    HW221810   4.695   3.736   0.704
 6971SOL     OW21811   5.410   0.691   2.578
 6971SOL    HW121812   5.375   0.780   2.606
 6971SOL    HW221813   5.351   0.619   2.616
 6972SOL     OW21814   5.418   4.890   4.635
 6972SOL    HW121815   5.468   4.972   4.665
 6972SOL    HW221816   5.388   4.838   4.714
 6973SOL     OW21817   2.086   4.811   3.989
 6973SOL    HW121818   2.057   4.715   3.984
 6973SOL    HW221819   2.022   4.863   4.045
 6974SOL     OW21820   3.880   3.621   4.574
 6974SOL    HW121821   3.813   3.617   4.648
 6974SOL    HW221822   3.864   3.703   4.520
 6975SOL     OW21823   3.916   1.256   5.428
 6975SOL    HW121824   4.010   1.242   5.459
 6975SOL    HW221825   3.858   1.281   5.505
 6976SOL     OW21826   1.957   5.473   0.026
 6976SOL    HW121827   1.880   5.468   6.982
 6976SOL    HW221828   1.970   5.568   0.054
 6977SOL     OW21829   4.059   2.026   3.030
 6977SOL    HW121830   4.117   1.951   3.061
 6977SOL    HW221831   3.988   1.990   2.969
 6978SOL     OW21832   6.012   0.873   2.721
 6978SOL    HW121833   6.064   0.945   2.675
 6978SOL    HW221834   6.035   0.785   2.682
 6979SOL     OW21835   0.643   4.646   3.359
 6979SOL    HW121836   0.582   4.572   3.390
 6979SOL    HW221837   0.738   4.614   3.362
 6980SOL     OW21838   3.334   1.566   3.965
 6980SOL    HW121839   3.377   1.560   4.055
 6980SOL    HW221840   3.404   1.557   3.894
 6981SOL     OW21841   2.749   4.712   6.629
 6981SOL    HW121842   2.829   4.654   6.647
 6981SOL    HW221843   2.704   4.681   6.545
 6982SOL     OW21844   0.170   6.648   4.774
 6982SOL    HW121845   0.130   6.673   4.862
 6982SOL    HW221846   0.206   6.730   4.730
 6983SOL     OW21847   6.280   0.993   3.791
 6983SOL    HW121848   6.289   1.092   3.802
 6983SOL    HW221849   6.187   0.971   3.763
 6984SOL     OW21850   2.107   1.253   6.675
 6984SOL    HW121851   2.126   1.192   6.597
 6984SOL    HW221852   2.021   1.302   6.659
 6985SOL     OW21853   5.296   6.048   2.479
 6985SOL    HW121854   5.201   6.068   2.502
 6985SOL    HW221855   5.305   5.953   2.451
 6986SOL     OW21856   2.061   6.649   4.778
 6986SOL    HW121857   2.019   6.558   4.782
 6986SOL    HW221858   2.145   6.649   4.832
 6987SOL     OW21859   6.780   3.558   6.729
 6987SOL    HW121860   6.766   3.654   6.706
 6987SOL    HW221861   6.856   3.550   6.793
 6988SOL     OW21862   5.115   1.212   5.229
 6988SOL    HW121863   5.098   1.155   5.310
 6988SOL    HW221864   5.104   1.156   5.147
 6989SOL     OW21865   1.293   2.858   3.986
 6989SOL    HW121866   1.294   2.954   3.959
 6989SOL    HW221867   1.243   2.805   3.918
 6990SOL     OW21868   3.815   3.245   0.195
 6990SOL    HW121869   3.869   3.170   0.232
 6990SOL    HW221870   3.872   3.302   0.136
 6991SOL     OW21871   4.389   4.378   5.559
 6991SOL    HW121872   4.414   4.341   5.469
 6991SOL    HW221873   4.358   4.304   5.618
 6992SOL     OW21874   5.338   6.380   5.370
 6992SOL    HW121875   5.356   6.281   5.371
 6992SOL    HW221876   5.260   6.399   5.310
 6993SOL     OW21877   0.601   6.289   3.161
 6993SOL    HW121878   0.591   6.363   3.227
 6993SOL    HW221879   0.652   6.323   3.082
 6994SOL     OW21880   1.341   2.981   0.180
 6994SOL    HW121881   1.344   2.919   0.101
 6994SOL    HW221882   1.357   2.929   0.264
 6995SOL     OW21883   0.471   5.362   3.060
 6995SOL    HW121884   0.401   5.418   3.017
 6995SOL    HW221885   0.508   5.410   3.140
 6996SOL     OW21886   2.675   6.923   6.000
 6996SOL    HW121887   2.581   6.955   5.987
 6996SOL    HW221888   2.722   6.920   5.911
 6997SOL     OW21889   4.932   0.331   4.492
 6997SOL    HW121890   4.927   0.430   4.481
 6997SOL    HW221891   4.999   0.294   4.427
 6998SOL     OW21892   1.748   2.547   3.382
 6998SOL    HW121893   1.830   2.491   3.366
 6998SOL    HW221894   1.705   2.569   3.295
 6999SOL     OW21895   4.032   1.656   6.257
 6999SOL    HW121896   3.957   1.685   6.316
 6999SOL    HW221897   4.033   1.712   6.174
 7000SOL     OW21898   6.859   6.532   1.426
 7000SOL    HW121899   6.872   6.584   1.511
 7000SOL    HW221900   6.926   6.458   1.422
 7001SOL     OW21901   2.884   1.792   5.471
 7001SOL    HW121902   2.785   1.786   5.457
 7001SOL    HW221903   2.924   1.851   5.401
 7002SOL     OW21904   1.962   5.418   3.299
 7002SOL    HW121905   1.912   5.333   3.317
 7002SOL    HW221906   2.004   5.413   3.208
 7003SOL     OW21907   2.371   6.091   0.022
 7003SOL    HW121908   2.287   6.131   7.004
 7003SOL    HW221909   2.347   6.016   0.083
 7004SOL     OW21910   0.761   5.053   0.642
 7004SOL    HW121911   0.759   5.086   0.736
 7004SOL    HW221912   0.850   5.011   0.623
 7005SOL     OW21913   5.459   6.650   5.310
 7005SOL    HW121914   5.449   6.703   5.395
 7005SOL    HW221915   5.375   6.657   5.257
 7006SOL     OW21916   4.206   4.788   4.986
 7006SOL    HW121917   4.251   4.700   4.998
 7006SOL    HW221918   4.194   4.806   4.888
 7007SOL     OW21919   5.112   5.387   2.395
 7007SOL    HW121920   5.047   5.323   2.355
 7007SOL    HW221921   5.204   5.349   2.391
 7008SOL     OW21922   1.026   4.795   4.506
 7008SOL    HW121923   1.078   4.718   4.542
 7008SOL    HW221924   1.088   4.872   4.491
 7009SOL     OW21925   0.199   4.897   2.480
 7009SOL    HW121926   0.279   4.884   2.538
 7009SOL    HW221927   0.116   4.868   2.528
 7010SOL     OW21928   3.902   4.782   6.535
 7010SOL    HW121929   3.805   4.779   6.559
 7010SOL    HW221930   3.949   4.849   6.593
 7011SOL     OW21931   2.419   1.615   4.765
 7011SOL    HW121932   2.416   1.518   4.789
 7011SOL    HW221933   2.354   1.665   4.822
 7012SOL     OW21934   1.046   1.504   1.773
 7012SOL    HW121935   1.126   1.444   1.776
 7012SOL    HW221936   1.058   1.579   1.839
 7013SOL     OW21937   0.753   0.733   2.372
 7013SOL    HW121938   0.718   0.640   2.362
 7013SOL    HW221939   0.685   0.799   2.339
 7014SOL     OW21940   2.290   4.647   1.204
 7014SOL    HW121941   2.382   4.614   1.226
 7014SOL    HW221942   2.252   4.692   1.285
 7015SOL     OW21943   4.947   2.462   1.922
 7015SOL    HW121944   4.883   2.392   1.953
 7015SOL    HW221945   4.897   2.540   1.885
 7016SOL     OW21946   3.006   4.728   0.833
 7016SOL    HW121947   2.939   4.779   0.887
 7016SOL    HW221948   2.973   4.720   0.739
 7017SOL     OW21949   4.192   1.756   4.242
 7017SOL    HW121950   4.134   1.747   4.162
 7017SOL    HW221951   4.181   1.847   4.281
 7018SOL     OW21952   0.308   5.225   3.571
 7018SOL    HW121953   0.224   5.174   3.553
 7018SOL    HW221954   0.299   5.317   3.531
 7019SOL     OW21955   2.314   6.206   0.724
 7019SOL    HW121956   2.239   6.216   0.790
 7019SOL    HW221957   2.311   6.280   0.658
 7020SOL     OW21958   0.281   6.770   5.607
 7020SOL    HW121959   0.211   6.715   5.652
 7020SOL    HW221960   0.270   6.762   5.507
 7021SOL     OW21961   3.335   0.414   5.506
 7021SOL    HW121962   3.310   0.508   5.527
 7021SOL    HW221963   3.303   0.390   5.414
 7022SOL     OW21964   5.129   4.889   6.134
 7022SOL    HW121965   5.125   4.885   6.034
 7022SOL    HW221966   5.221   4.864   6.165
 7023SOL     OW21967   5.864   4.004   3.296
 7023SOL    HW121968   5.805   3.930   3.264
 7023SOL    HW221969   5.887   3.989   3.392
 7024SOL     OW21970   0.449   6.189   0.819
 7024SOL    HW121971   0.480   6.240   0.738
 7024SOL    HW221972   0.440   6.093   0.795
 7025SOL     OW21973   2.845   0.438   6.229
 7025SOL    HW121974   2.910   0.514   6.233
 7025SOL    HW221975   2.755   0.470   6.260
 7026SOL     OW21976   4.084   2.084   0.918
 7026SOL    HW121977   4.157   2.087   0.987
 7026SOL    HW221978   4.023   2.162   0.931
 7027SOL     OW21979   4.414   6.900   4.465
 7027SOL    HW121980   4.435   6.897   4.562
 7027SOL    HW221981   4.496   6.878   4.412
 7028SOL     OW21982   3.020   6.692   4.311
 7028SOL    HW121983   2.937   6.705   4.257
 7028SOL    HW221984   3.096   6.671   4.250
 7029SOL     OW21985   3.447   0.103   4.732
 7029SOL    HW121986   3.437   0.191   4.685
 7029SOL    HW221987   3.542   0.073   4.727
 7030SOL     OW21988   2.079   3.759   3.832
 7030SOL    HW121989   1.986   3.791   3.849
 7030SOL    HW221990   2.093   3.745   3.734
 7031SOL     OW21991   2.385   6.824   5.054
 7031SOL    HW121992   2.450   6.888   5.013
 7031SOL    HW221993   2.295   6.866   5.058
 7032SOL     OW21994   5.888   2.342   2.863
 7032SOL    HW121995   5.949   2.421   2.872
 7032SOL    HW221996   5.905   2.296   2.775
 7033SOL     OW21997   6.603   0.282   4.538
 7033SOL    HW121998   6.646   0.371   4.521
 7033SOL    HW221999   6.543   0.259   4.462
 7034SOL     OW22000   6.650   5.788   2.863
 7034SOL    HW122001   6.646   5.853   2.786
 7034SOL    HW222002   6.648   5.838   2.949
 7035SOL     OW22003   6.495   5.271   1.769
 7035SOL    HW122004   6.443   5.342   1.815
 7035SOL    HW222005   6.444   5.185   1.772
 7036SOL     OW22006   6.730   4.316   1.441
 7036SOL    HW122007   6.705   4.296   1.347
 7036SOL    HW222008   6.816   4.367   1.443
 7037SOL     OW22009   0.989   6.897   0.257
 7037SOL    HW122010   0.962   6.940   0.343
 7037SOL    HW222011   1.044   6.816   0.277
 7038SOL     OW22012   1.689   3.911   4.101
 7038SOL    HW122013   1.714   3.963   4.019
 7038SOL    HW222014   1.669   3.816   4.075
 7039SOL     OW22015   4.213   1.578   6.006
 7039SOL    HW122016   4.220   1.541   6.098
 7039SOL    HW222017   4.150   1.656   6.006
 7040SOL     OW22018   4.750   2.389   6.246
 7040SOL    HW122019   4.693   2.399   6.328
 7040SOL    HW222020   4.743   2.471   6.190
 7041SOL     OW22021   2.526   1.454   2.318
 7041SOL    HW122022   2.547   1.367   2.275
 7041SOL    HW222023   2.465   1.439   2.396
 7042SOL     OW22024   1.821   0.334   6.894
 7042SOL    HW122025   1.840   0.265   6.963
 7042SOL    HW222026   1.907   0.370   6.858
 7043SOL     OW22027   1.451   2.339   3.146
 7043SOL    HW122028   1.550   2.329   3.144
 7043SOL    HW222029   1.417   2.361   3.054
 7044SOL     OW22030   4.878   6.096   2.577
 7044SOL    HW122031   4.919   6.180   2.611
 7044SOL    HW222032   4.787   6.115   2.541
 7045SOL     OW22033   5.884   5.017   1.057
 7045SOL    HW122034   5.949   5.091   1.075
 7045SOL    HW222035   5.822   5.008   1.135
 7046SOL     OW22036   2.501   1.039   4.243
 7046SOL    HW122037   2.516   1.034   4.342
 7046SOL    HW222038   2.482   0.948   4.207
 7047SOL     OW22039   2.162   1.427   4.078
 7047SOL    HW122040   2.214   1.442   4.163
 7047SOL    HW222041   2.070   1.394   4.101
 7048SOL     OW22042   6.340   6.489   0.684
 7048SOL    HW122043   6.395   6.438   0.750
 7048SOL    HW222044   6.378   6.477   0.592
 7049SOL     OW22045   1.912   1.215   0.521
 7049SOL    HW122046   1.871   1.270   0.594
 7049SOL    HW222047   2.002   1.251   0.498
 7050SOL     OW22048   4.191   3.758   5.100
 7050SOL    HW122049   4.199   3.695   5.023
 7050SOL    HW222050   4.277   3.758   5.152
 7051SOL     OW22051   6.263   6.629   2.232
 7051SOL    HW122052   6.326   6.576   2.176
 7051SOL    HW222053   6.208   6.689   2.174
 7052SOL     OW22054   6.674   2.017   3.225
 7052SOL    HW122055   6.719   1.954   3.288
 7052SOL    HW222056   6.654   1.970   3.139
 7053SOL     OW22057   6.695   4.428   6.101
 7053SOL    HW122058   6.604   4.460   6.075
 7053SOL    HW222059   6.705   4.432   6.200
 7054SOL     OW22060   6.821   0.106   1.557
 7054SOL    HW122061   6.811   0.090   1.656
 7054SOL    HW222062   6.737   0.146   1.521
 7055SOL     OW22063   3.353   6.997   5.282
 7055SOL    HW122064   3.274   0.019   5.238
 7055SOL    HW222065   3.326   6.958   5.370
 7056SOL     OW22066   4.836   5.071   3.812
 7056SOL    HW122067   4.869   4.979   3.791
 7056SOL    HW222068   4.906   5.121   3.862
 7057SOL     OW22069   0.612   5.869   3.444
 7057SOL    HW122070   0.704   5.874   3.483
 7057SOL    HW222071   0.591   5.955   3.396
 7058SOL     OW22072   0.383   5.277   5.085
 7058SOL    HW122073   0.321   5.281   5.006
 7058SOL    HW222074   0.406   5.182   5.104
 7059SOL     OW22075   1.627   0.607   2.401
 7059SOL    HW122076   1.620   0.527   2.342
 7059SOL    HW222077   1.672   0.580   2.487
 7060SOL     OW22078   3.287   0.192   1.567
 7060SOL    HW122079   3.273   0.095   1.588
 7060SOL    HW222080   3.371   0.202   1.514
 7061SOL     OW22081   0.137   1.018   2.453
 7061SOL    HW122082   0.234   1.007   2.475
 7061SOL    HW222083   0.121   0.995   2.357
 7062SOL     OW22084   6.158   1.469   5.256
 7062SOL    HW122085   6.242   1.418   5.235
 7062SOL    HW222086   6.095   1.410   5.307
 7063SOL     OW22087   2.526   6.749   1.848
 7063SOL    HW122088   2.508   6.660   1.806
 7063SOL    HW222089   2.454   6.813   1.822
 7064SOL     OW22090   4.337   2.391   0.429
 7064SOL    HW122091   4.245   2.360   0.405
 7064SOL    HW222092   4.393   2.397   0.347
 7065SOL     OW22093   4.360   4.081   1.654
 7065SOL    HW122094   4.360   4.138   1.571
 7065SOL    HW222095   4.395   4.134   1.731
 7066SOL     OW22096   3.264   6.285   0.409
 7066SOL    HW122097   3.244   6.245   0.498
 7066SOL    HW222098   3.234   6.222   0.337
 7067SOL     OW22099   0.256   4.099   4.862
 7067SOL    HW122100   0.172   4.090   4.809
 7067SOL    HW222101   0.270   4.017   4.917
 7068SOL     OW22102   0.780   1.197   2.724
 7068SOL    HW122103   0.821   1.130   2.786
 7068SOL    HW222104   0.849   1.264   2.697
 7069SOL     OW22105   1.561   3.798   4.726
 7069SOL    HW122106   1.511   3.885   4.723
 7069SOL    HW222107   1.630   3.802   4.797
 7070SOL     OW22108   5.396   5.751   4.377
 7070SOL    HW122109   5.385   5.696   4.460
 7070SOL    HW222110   5.306   5.773   4.340
 7071SOL     OW22111   1.357   6.656   5.563
 7071SOL    HW122112   1.350   6.680   5.466
 7071SOL    HW222113   1.267   6.632   5.598
 7072SOL     OW22114   6.791   6.511   6.588
 7072SOL    HW122115   6.789   6.487   6.491
 7072SOL    HW222116   6.747   6.439   6.641
 7073SOL     OW22117   1.212   1.132   6.194
 7073SOL    HW122118   1.206   1.232   6.191
 7073SOL    HW222119   1.209   1.101   6.289
 7074SOL     OW22120   3.543   2.261   1.387
 7074SOL    HW122121   3.462   2.279   1.443
 7074SOL    HW222122   3.623   2.251   1.445
 7075SOL     OW22123   0.953   5.655   3.248
 7075SOL    HW122124   1.018   5.598   3.198
 7075SOL    HW222125   0.914   5.723   3.186
 7076SOL     OW22126   3.051   2.483   6.755
 7076SOL    HW122127   3.071   2.580   6.742
 7076SOL    HW222128   3.034   2.441   6.665
 7077SOL     OW22129   2.008   5.383   5.930
 7077SOL    HW122130   1.956   5.469   5.931
 7077SOL    HW222131   1.956   5.313   5.882
 7078SOL     OW22132   6.620   0.562   3.029
 7078SOL    HW122133   6.640   0.534   2.935
 7078SOL    HW222134   6.704   0.586   3.075
 7079SOL     OW22135   5.202   5.341   5.417
 7079SOL    HW122136   5.170   5.328   5.511
 7079SOL    HW222137   5.274   5.410   5.416
 7080SOL     OW22138   5.378   0.302   4.022
 7080SOL    HW122139   5.284   0.281   4.048
 7080SOL    HW222140   5.430   0.329   4.103
 7081SOL     OW22141   3.737   1.167   5.229
 7081SOL    HW122142   3.814   1.197   5.284
 7081SOL    HW222143   3.730   1.223   5.147
 7082SOL     OW22144   5.402   0.978   6.067
 7082SOL    HW122145   5.444   1.034   6.137
 7082SOL    HW222146   5.470   0.915   6.029
 7083SOL     OW22147   3.611   6.900   5.935
 7083SOL    HW122148   3.615   6.882   5.836
 7083SOL    HW222149   3.689   6.858   5.980
 7084SOL     OW22150   6.173   6.658   0.503
 7084SOL    HW122151   6.237   6.721   0.547
 7084SOL    HW222152   6.207   6.564   0.511
 7085SOL     OW22153   2.535   2.567   0.859
 7085SOL    HW122154   2.483   2.547   0.776
 7085SOL    HW222155   2.539   2.486   0.917
 7086SOL     OW22156   6.789   1.003   6.330
 7086SOL    HW122157   6.797   0.913   6.373
 7086SOL    HW222158   6.693   1.021   6.308
 7087SOL     OW22159   1.994   2.480   4.259
 7087SOL    HW122160   1.937   2.547   4.210
 7087SOL    HW222161   1.999   2.395   4.205
 7088SOL     OW22162   6.801   2.246   5.063
 7088SOL    HW122163   6.742   2.171   5.092
 7088SOL    HW222164   6.864   2.269   5.138
 7089SOL     OW22165   2.937   1.589   0.402
 7089SOL    HW122166   2.940   1.595   0.302
 7089SOL    HW222167   2.917   1.679   0.440
 7090SOL     OW22168   2.497   2.525   4.693
 7090SOL    HW122169   2.485   2.536   4.792
 7090SOL    HW222170   2.592   2.500   4.674
 7091SOL     OW22171   0.356   6.061   0.010
 7091SOL    HW122172   0.310   6.149   7.018
 7091SOL    HW222173   0.367   6.017   6.941
 7092SOL     OW22174   2.793   3.426   0.720
 7092SOL    HW122175   2.860   3.352   0.725
 7092SOL    HW222176   2.835   3.506   0.677
 7093SOL     OW22177   3.650   2.873   4.879
 7093SOL    HW122178   3.556   2.896   4.855
 7093SOL    HW222179   3.713   2.927   4.822
 7094SOL     OW22180   0.790   0.637   5.936
 7094SOL    HW122181   0.832   0.559   5.890
 7094SOL    HW222182   0.700   0.611   5.970
 7095SOL     OW22183   0.357   3.026   6.436
 7095SOL    HW122184   0.331   3.033   6.532
 7095SOL    HW222185   0.432   3.089   6.417
 7096SOL     OW22186   4.678   1.499   2.273
 7096SOL    HW122187   4.612   1.572   2.291
 7096SOL    HW222188   4.771   1.536   2.276
 7097SOL     OW22189   0.574   0.660   2.038
 7097SOL    HW122190   0.540   0.652   1.945
 7097SOL    HW222191   0.499   0.652   2.103
 7098SOL     OW22192   2.156   6.796   5.907
 7098SOL    HW122193   2.135   6.760   5.998
 7098SOL    HW222194   2.253   6.786   5.889
 7099SOL     OW22195   0.650   0.955   6.230
 7099SOL    HW122196   0.660   0.979   6.327
 7099SOL    HW222197   0.617   0.861   6.222
 7100SOL     OW22198   5.702   2.807   1.117
 7100SOL    HW122199   5.633   2.735   1.111
 7100SOL    HW222200   5.778   2.776   1.174
 7101SOL     OW22201   2.231   0.056   4.809
 7101SOL    HW122202   2.321   0.020   4.783
 7101SOL    HW222203   2.234   0.156   4.810
 7102SOL     OW22204   4.536   2.757   0.528
 7102SOL    HW122205   4.519   2.664   0.560
 7102SOL    HW222206   4.589   2.807   0.596
 7103SOL     OW22207   4.015   6.232   6.118
 7103SOL    HW122208   4.068   6.301   6.167
 7103SOL    HW222209   3.940   6.277   6.069
 7104SOL     OW22210   0.912   2.080   2.973
 7104SOL    HW122211   0.846   2.094   2.899
 7104SOL    HW222212   1.003   2.107   2.943
 7105SOL     OW22213   2.874   3.899   5.189
 7105SOL    HW122214   2.874   3.833   5.114
 7105SOL    HW222215   2.828   3.983   5.159
 7106SOL     OW22216   3.165   2.364   5.465
 7106SOL    HW122217   3.158   2.267   5.490
 7106SOL    HW222218   3.183   2.371   5.367
 7107SOL     OW22219   2.879   1.057   6.749
 7107SOL    HW122220   2.829   1.003   6.682
 7107SOL    HW222221   2.865   1.154   6.732
 7108SOL     OW22222   4.748   6.989   1.237
 7108SOL    HW122223   4.800   0.052   1.219
 7108SOL    HW222224   4.685   7.004   1.313
 7109SOL     OW22225   3.745   5.837   6.532
 7109SOL    HW122226   3.810   5.837   6.457
 7109SOL    HW222227   3.673   5.770   6.514
 7110SOL     OW22228   4.544   4.486   3.073
 7110SOL    HW122229   4.483   4.552   3.117
 7110SOL    HW222230   4.524   4.483   2.975
 7111SOL     OW22231   1.619   2.984   3.648
 7111SOL    HW122232   1.556   3.032   3.709
 7111SOL    HW222233   1.567   2.947   3.570
 7112SOL     OW22234   1.163   6.550   2.776
 7112SOL    HW122235   1.193   6.458   2.802
 7112SOL    HW222236   1.188   6.615   2.848
 7113SOL     OW22237   3.962   3.901   4.646
 7113SOL    HW122238   3.874   3.942   4.669
 7113SOL    HW222239   4.010   3.875   4.730
 7114SOL     OW22240   4.167   0.904   0.941
 7114SOL    HW122241   4.112   0.825   0.915
 7114SOL    HW222242   4.263   0.876   0.953
 7115SOL     OW22243   4.424   1.913   0.982
 7115SOL    HW122244   4.441   1.855   1.062
 7115SOL    HW222245   4.455   2.006   1.002
 7116SOL     OW22246   5.850   3.622   3.002
 7116SOL    HW122247   5.827   3.608   2.906
 7116SOL    HW222248   5.948   3.636   3.012
 7117SOL     OW22249   5.902   6.761   1.620
 7117SOL    HW122250   5.936   6.676   1.579
 7117SOL    HW222251   5.962   6.789   1.694
 7118SOL     OW22252   6.973   3.171   1.378
 7118SOL    HW122253   6.878   3.180   1.409
 7118SOL    HW222254   0.011   3.143   1.455
 7119SOL     OW22255   6.424   1.784   2.941
 7119SOL    HW122256   6.497   1.736   2.989
 7119SOL    HW222257   6.427   1.881   2.964
 7120SOL     OW22258   5.396   0.666   3.582
 7120SOL    HW122259   5.382   0.590   3.646
 7120SOL    HW222260   5.308   0.691   3.542
 7121SOL     OW22261   3.558   6.809   2.233
 7121SOL    HW122262   3.519   6.739   2.293
 7121SOL    HW222263   3.608   6.765   2.158
 7122SOL     OW22264   6.410   0.809   6.585
 7122SOL    HW122265   6.442   0.887   6.639
 7122SOL    HW222266   6.335   0.765   6.632
 7123SOL     OW22267   2.533   4.600   1.297
 7123SOL    HW122268   2.585   4.589   1.382
 7123SOL    HW222269   2.537   4.696   1.269
 7124SOL     OW22270   0.830   5.307   1.338
 7124SOL    HW122271   0.854   5.404   1.344
 7124SOL    HW222272   0.855   5.261   1.423
 7125SOL     OW22273   6.061   6.027   2.495
 7125SOL    HW122274   5.998   6.031   2.418
 7125SOL    HW222275   6.120   5.947   2.486
 7126SOL     OW22276   0.885   4.614   0.325
 7126SOL    HW122277   0.846   4.706   0.319
 7126SOL    HW222278   0.982   4.618   0.303
 7127SOL     OW22279   3.489   6.663   4.180
 7127SOL    HW122280   3.517   6.664   4.276
 7127SOL    HW222281   3.564   6.630   4.124
 7128SOL     OW22282   2.899   4.606   1.366
 7128SOL    HW122283   2.816   4.624   1.419
 7128SOL    HW222284   2.917   4.508   1.364
 7129SOL     OW22285   2.355   0.859   1.854
 7129SOL    HW122286   2.394   0.911   1.778
 7129SOL    HW222287   2.257   0.846   1.838
 7130SOL     OW22288   2.013   5.548   2.471
 7130SOL    HW122289   2.075   5.488   2.422
 7130SOL    HW222290   1.980   5.502   2.554
 7131SOL     OW22291   3.072   0.850   2.938
 7131SOL    HW122292   3.056   0.949   2.943
 7131SOL    HW222293   3.140   0.830   2.867
 7132SOL     OW22294   3.624   4.103   3.080
 7132SOL    HW122295   3.619   4.173   3.151
 7132SOL    HW222296   3.536   4.100   3.031
 7133SOL     OW22297   5.505   4.890   2.673
 7133SOL    HW122298   5.511   4.799   2.633
 7133SOL    HW222299   5.518   4.884   2.772
 7134SOL     OW22300   5.344   3.882   4.069
 7134SOL    HW122301   5.256   3.835   4.076
 7134SOL    HW222302   5.334   3.977   4.100
 7135SOL     OW22303   0.972   1.450   4.808
 7135SOL    HW122304   0.988   1.527   4.746
 7135SOL    HW222305   0.903   1.389   4.769
 7136SOL     OW22306   2.528   1.898   0.260
 7136SOL    HW122307   2.530   1.951   0.345
 7136SOL    HW222308   2.560   1.805   0.278
 7137SOL     OW22309   4.316   0.929   4.805
 7137SOL    HW122310   4.411   0.901   4.813
 7137SOL    HW222311   4.273   0.928   4.895
 7138SOL     OW22312   2.509   3.989   0.391
 7138SOL    HW122313   2.437   3.936   0.346
 7138SOL    HW222314   2.598   3.960   0.357
 7139SOL     OW22315   3.469   2.081   1.008
 7139SOL    HW122316   3.433   2.154   1.067
 7139SOL    HW222317   3.552   2.114   0.962
 7140SOL     OW22318   6.419   3.618   5.297
 7140SOL    HW122319   6.503   3.566   5.285
 7140SOL    HW222320   6.422   3.668   5.383
 7141SOL     OW22321   2.872   6.497   0.704
 7141SOL    HW122322   2.836   6.457   0.788
 7141SOL    HW222323   2.878   6.596   0.714
 7142SOL     OW22324   3.756   6.375   4.364
 7142SOL    HW122325   3.725   6.334   4.278
 7142SOL    HW222326   3.827   6.317   4.404
 7143SOL     OW22327   1.857   3.688   4.774
 7143SOL    HW122328   1.954   3.667   4.782
 7143SOL    HW222329   1.807   3.639   4.846
 7144SOL     OW22330   0.575   2.676   3.939
 7144SOL    HW122331   0.610   2.582   3.938
 7144SOL    HW222332   0.549   2.701   4.033
 7145SOL     OW22333   4.583   6.933   6.722
 7145SOL    HW122334   4.608   6.860   6.658
 7145SOL    HW222335   4.564   6.893   6.812
 7146SOL     OW22336   2.976   4.376   0.288
 7146SOL    HW122337   2.943   4.433   0.213
 7146SOL    HW222338   2.904   4.312   0.316
 7147SOL     OW22339   0.335   0.166   4.014
 7147SOL    HW122340   0.375   0.158   4.105
 7147SOL    HW222341   0.236   0.179   4.022
 7148SOL     OW22342   0.586   1.241   0.602
 7148SOL    HW122343   0.645   1.210   0.677
 7148SOL    HW222344   0.491   1.216   0.622
 7149SOL     OW22345   6.234   1.265   3.910
 7149SOL    HW122346   6.144   1.242   3.947
 7149SOL    HW222347   6.236   1.361   3.883
 7150SOL     OW22348   5.587   3.401   6.976
 7150SOL    HW122349   5.496   3.402   6.934
 7150SOL    HW222350   5.601   3.486   0.006
 7151SOL     OW22351   2.458   6.045   1.296
 7151SOL    HW122352   2.527   5.975   1.278
 7151SOL    HW222353   2.484   6.130   1.250
 7152SOL     OW22354   1.360   2.573   3.838
 7152SOL    HW122355   1.422   2.634   3.887
 7152SOL    HW222356   1.294   2.628   3.786
 7153SOL     OW22357   3.688   1.262   3.940
 7153SOL    HW122358   3.648   1.297   3.855
 7153SOL    HW222359   3.741   1.333   3.985
 7154SOL     OW22360   4.878   5.941   4.430
 7154SOL    HW122361   4.788   5.928   4.470
 7154SOL    HW222362   4.870   5.992   4.344
 7155SOL     OW22363   2.723   0.422   1.823
 7155SOL    HW122364   2.641   0.367   1.807
 7155SOL    HW222365   2.705   0.490   1.894
 7156SOL     OW22366   6.897   5.566   4.432
 7156SOL    HW122367   6.820   5.629   4.435
 7156SOL    HW222368   6.868   5.478   4.395
 7157SOL     OW22369   4.831   4.119   1.114
 7157SOL    HW122370   4.742   4.093   1.075
 7157SOL    HW222371   4.901   4.057   1.080
 7158SOL     OW22372   6.115   6.868   4.271
 7158SOL    HW122373   6.156   6.778   4.283
 7158SOL    HW222374   6.036   6.861   4.210
 7159SOL     OW22375   0.640   6.075   0.029
 7159SOL    HW122376   0.646   6.162   0.079
 7159SOL    HW222377   0.544   6.050   0.017
 7160SOL     OW22378   5.853   0.765   2.131
 7160SOL    HW122379   5.805   0.733   2.049
 7160SOL    HW222380   5.793   0.827   2.182
 7161SOL     OW22381   4.121   3.680   3.881
 7161SOL    HW122382   4.211   3.713   3.850
 7161SOL    HW222383   4.056   3.755   3.877
 7162SOL     OW22384   3.147   4.988   3.135
 7162SOL    HW122385   3.125   4.934   3.217
 7162SOL    HW222386   3.244   4.977   3.113
 7163SOL     OW22387   2.551   0.124   2.872
 7163SOL    HW122388   2.635   0.132   2.820
 7163SOL    HW222389   2.557   0.182   2.954
 7164SOL     OW22390   2.666   1.508   2.893
 7164SOL    HW122391   2.718   1.483   2.811
 7164SOL    HW222392   2.573   1.474   2.885
 7165SOL     OW22393   4.863   0.522   1.859
 7165SOL    HW122394   4.770   0.550   1.884
 7165SOL    HW222395   4.862   0.425   1.833
 7166SOL     OW22396   4.945   4.853   1.756
 7166SOL    HW122397   4.963   4.764   1.713
 7166SOL    HW222398   5.029   4.907   1.756
 7167SOL     OW22399   4.757   2.921   5.250
 7167SOL    HW122400   4.799   2.883   5.333
 7167SOL    HW222401   4.725   2.846   5.192
 7168SOL     OW22402   1.516   0.909   4.701
 7168SOL    HW122403   1.555   0.990   4.655
 7168SOL    HW222404   1.543   0.910   4.797
 7169SOL     OW22405   1.866   2.577   6.122
 7169SOL    HW122406   1.884   2.481   6.102
 7169SOL    HW222407   1.821   2.620   6.043
 7170SOL     OW22408   6.767   4.706   4.272
 7170SOL    HW122409   6.866   4.703   4.284
 7170SOL    HW222410   6.724   4.737   4.356
 7171SOL     OW22411   3.811   2.968   5.085
 7171SOL    HW122412   3.742   2.968   5.013
 7171SOL    HW222413   3.897   2.933   5.047
 7172SOL     OW22414   1.535   6.802   1.034
 7172SOL    HW122415   1.602   6.755   0.977
 7172SOL    HW222416   1.475   6.734   1.076
 7173SOL     OW22417   6.293   6.170   5.782
 7173SOL    HW122418   6.346   6.236   5.728
 7173SOL    HW222419   6.199   6.167   5.749
 7174SOL     OW22420   1.062   5.805   0.333
 7174SOL    HW122421   1.074   5.829   0.236
 7174SOL    HW222422   1.004   5.724   0.340
 7175SOL     OW22423   6.638   3.436   5.332
 7175SOL    HW122424   6.704   3.366   5.304
 7175SOL    HW222425   6.620   3.426   5.430
 7176SOL     OW22426   6.141   3.947   1.632
 7176SOL    HW122427   6.155   3.851   1.609
 7176SOL    HW222428   6.206   4.004   1.581
 7177SOL     OW22429   0.608   6.438   1.752
 7177SOL    HW122430   0.686   6.501   1.756
 7177SOL    HW222431   0.561   6.438   1.840
 7178SOL     OW22432   0.305   2.717   6.032
 7178SOL    HW122433   0.272   2.629   5.998
 7178SOL    HW222434   0.337   2.772   5.954
 7179SOL     OW22435   2.451   4.232   6.520
 7179SOL    HW122436   2.470   4.134   6.535
 7179SOL    HW222437   2.449   4.251   6.422
 7180SOL     OW22438   6.993   6.427   2.247
 7180SOL    HW122439   7.014   6.506   2.190
 7180SOL    HW222440   6.971   6.458   2.340
 7181SOL     OW22441   4.929   1.137   2.430
 7181SOL    HW122442   4.927   1.038   2.422
 7181SOL    HW222443   4.856   1.177   2.373
 7182SOL     OW22444   3.002   3.590   5.457
 7182SOL    HW122445   2.935   3.664   5.460
 7182SOL    HW222446   2.964   3.513   5.406
 7183SOL     OW22447   1.278   5.311   2.930
 7183SOL    HW122448   1.219   5.233   2.952
 7183SOL    HW222449   1.238   5.394   2.969
 7184SOL     OW22450   1.703   6.763   3.582
 7184SOL    HW122451   1.724   6.805   3.671
 7184SOL    HW222452   1.612   6.794   3.552
 7185SOL     OW22453   4.147   2.287   6.710
 7185SOL    HW122454   4.102   2.242   6.787
 7185SOL    HW222455   4.161   2.221   6.636
 7186SOL     OW22456   0.569   6.545   4.482
 7186SOL    HW122457   0.606   6.623   4.534
 7186SOL    HW222458   0.618   6.462   4.508
 7187SOL     OW22459   2.040   5.044   1.536
 7187SOL    HW122460   1.954   5.021   1.491
 7187SOL    HW222461   2.113   5.048   1.469
 7188SOL     OW22462   5.194   1.061   1.410
 7188SOL    HW122463   5.286   1.025   1.426
 7188SOL    HW222464   5.183   1.147   1.460
 7189SOL     OW22465   6.206   0.676   4.607
 7189SOL    HW122466   6.229   0.660   4.703
 7189SOL    HW222467   6.268   0.744   4.569
 7190SOL     OW22468   4.886   4.806   3.713
 7190SOL    HW122469   4.844   4.761   3.791
 7190SOL    HW222470   4.972   4.762   3.690
 7191SOL     OW22471   1.395   3.284   2.526
 7191SOL    HW122472   1.308   3.238   2.511
 7191SOL    HW222473   1.463   3.251   2.460
 7192SOL     OW22474   3.377   4.885   5.950
 7192SOL    HW122475   3.329   4.918   5.868
 7192SOL    HW222476   3.396   4.788   5.940
 7193SOL     OW22477   4.590   1.268   2.859
 7193SOL    HW122478   4.613   1.315   2.773
 7193SOL    HW222479   4.640   1.311   2.934
 7194SOL     OW22480   3.062   1.424   1.704
 7194SOL    HW122481   3.049   1.451   1.799
 7194SOL    HW222482   3.067   1.505   1.646
 7195SOL     OW22483   0.889   5.219   1.590
 7195SOL    HW122484   0.931   5.130   1.571
 7195SOL    HW222485   0.821   5.208   1.663
 7196SOL     OW22486   3.974   3.008   1.677
 7196SOL    HW122487   3.996   3.084   1.616
 7196SOL    HW222488   4.016   2.924   1.641
 7197SOL     OW22489   1.221   2.195   5.672
 7197SOL    HW122490   1.163   2.270   5.641
 7197SOL    HW222491   1.269   2.155   5.594
 7198SOL     OW22492   1.257   5.920   6.573
 7198SOL    HW122493   1.188   5.918   6.646
 7198SOL    HW222494   1.343   5.955   6.609
 7199SOL     OW22495   6.289   6.327   2.833
 7199SOL    HW122496   6.313   6.322   2.736
 7199SOL    HW222497   6.287   6.236   2.872
 7200SOL     OW22498   2.438   1.775   0.835
 7200SOL    HW122499   2.508   1.712   0.802
 7200SOL    HW222500   2.377   1.727   0.898
 7201SOL     OW22501   2.347   4.244   3.734
 7201SOL    HW122502   2.382   4.289   3.652
 7201SOL    HW222503   2.282   4.173   3.708
 7202SOL     OW22504   3.727   0.838   6.635
 7202SOL    HW122505   3.675   0.753   6.627
 7202SOL    HW222506   3.672   0.915   6.601
 7203SOL     OW22507   5.736   0.673   6.614
 7203SOL    HW122508   5.787   0.649   6.697
 7203SOL    HW222509   5.778   0.628   6.535
 7204SOL     OW22510   5.870   1.346   2.396
 7204SOL    HW122511   5.952   1.291   2.385
 7204SOL    HW222512   5.891   1.442   2.376
 7205SOL     OW22513   2.014   4.544   2.393
 7205SOL    HW122514   2.030   4.638   2.363
 7205SOL    HW222515   1.927   4.539   2.442
 7206SOL     OW22516   5.872   1.445   1.753
 7206SOL    HW122517   5.814   1.494   1.819
 7206SOL    HW222518   5.957   1.494   1.740
 7207SOL     OW22519   3.585   7.000   1.693
 7207SOL    HW122520   3.632   6.919   1.657
 7207SOL    HW222521   3.491   6.976   1.718
 7208SOL     OW22522   3.016   6.883   4.859
 7208SOL    HW122523   3.109   6.851   4.878
 7208SOL    HW222524   2.953   6.842   4.925
 7209SOL     OW22525   4.175   3.629   4.863
 7209SOL    HW122526   4.143   3.542   4.824
 7209SOL    HW222527   4.246   3.668   4.804
 7210SOL     OW22528   3.966   0.628   4.482
 7210SOL    HW122529   3.882   0.576   4.465
 7210SOL    HW222530   4.012   0.592   4.563
 7211SOL     OW22531   1.638   5.639   2.772
 7211SOL    HW122532   1.616   5.681   2.685
 7211SOL    HW222533   1.734   5.656   2.795
 7212SOL     OW22534   5.359   6.721   4.248
 7212SOL    HW122535   5.272   6.709   4.199
 7212SOL    HW222536   5.355   6.804   4.303
 7213SOL     OW22537   5.307   0.745   5.668
 7213SOL    HW122538   5.240   0.710   5.602
 7213SOL    HW222539   5.312   0.682   5.746
 7214SOL     OW22540   0.733   5.044   5.245
 7214SOL    HW122541   0.695   5.102   5.173
 7214SOL    HW222542   0.684   4.957   5.248
 7215SOL     OW22543   1.071   3.178   3.249
 7215SOL    HW122544   1.078   3.239   3.169
 7215SOL    HW222545   1.055   3.233   3.331
 7216SOL     OW22546   2.015   1.198   1.387
 7216SOL    HW122547   2.070   1.278   1.414
 7216SOL    HW222548   1.984   1.210   1.293
 7217SOL     OW22549   0.719   3.158   2.423
 7217SOL    HW122550   0.786   3.110   2.478
 7217SOL    HW222551   0.688   3.098   2.348
 7218SOL     OW22552   5.601   2.542   6.228
 7218SOL    HW122553   5.665   2.552   6.152
 7218SOL    HW222554   5.624   2.460   6.280
 7219SOL     OW22555   4.145   1.355   1.813
 7219SOL    HW122556   4.135   1.303   1.898
 7219SOL    HW222557   4.097   1.307   1.739
 7220SOL     OW22558   6.979   0.632   2.794
 7220SOL    HW122559   7.019   0.614   2.704
 7220SOL    HW222560   0.018   0.593   2.864
 7221SOL     OW22561   6.025   5.201   5.514
 7221SOL    HW122562   6.075   5.115   5.527
 7221SOL    HW222563   5.947   5.203   5.576
 7222SOL     OW22564   6.608   6.380   2.396
 7222SOL    HW122565   6.661   6.301   2.366
 7222SOL    HW222566   6.664   6.436   2.457
 7223SOL     OW22567   3.646   0.587   5.170
 7223SOL    HW122568   3.567   0.648   5.167
 7223SOL    HW222569   3.631   0.516   5.239
 7224SOL     OW22570   4.684   0.241   4.396
 7224SOL    HW122571   4.765   0.282   4.438
 7224SOL    HW222572   4.670   0.280   4.305
 7225SOL     OW22573   2.167   6.430   0.073
 7225SOL    HW122574   2.239   6.390   0.130
 7225SOL    HW222575   2.132   6.513   0.117
 7226SOL     OW22576   6.326   7.012   0.467
 7226SOL    HW122577   6.404   6.998   0.407
 7226SOL    HW222578   6.331   6.948   0.544
 7227SOL     OW22579   6.543   2.676   6.192
 7227SOL    HW122580   6.643   2.673   6.199
 7227SOL    HW222581   6.503   2.616   6.261
 7228SOL     OW22582   1.421   1.095   2.574
 7228SOL    HW122583   1.337   1.057   2.613
 7228SOL    HW222584   1.410   1.103   2.475
 7229SOL     OW22585   0.748   0.373   3.878
 7229SOL    HW122586   0.676   0.423   3.927
 7229SOL    HW222587   0.838   0.405   3.909
 7230SOL     OW22588   5.725   4.282   3.077
 7230SOL    HW122589   5.748   4.290   3.174
 7230SOL    HW222590   5.639   4.231   3.067
 7231SOL     OW22591   5.773   1.028   6.422
 7231SOL    HW122592   5.740   1.045   6.515
 7231SOL    HW222593   5.827   1.106   6.391
 7232SOL     OW22594   3.864   4.554   1.285
 7232SOL    HW122595   3.905   4.464   1.296
 7232SOL    HW222596   3.820   4.560   1.195
 7233SOL     OW22597   0.386   2.267   5.785
 7233SOL    HW122598   0.435   2.188   5.749
 7233SOL    HW222599   0.293   2.268   5.748
 7234SOL     OW22600   5.645   2.000   2.463
 7234SOL    HW122601   5.669   1.950   2.380
 7234SOL    HW222602   5.676   2.095   2.455
 7235SOL     OW22603   6.394   3.201   5.075
 7235SOL    HW122604   6.432   3.288   5.045
 7235SOL    HW222605   6.348   3.213   5.163
 7236SOL     OW22606   3.163   1.146   2.975
 7236SOL    HW122607   3.242   1.094   3.007
 7236SOL    HW222608   3.188   1.195   2.892
 7237SOL     OW22609   6.209   5.677   6.086
 7237SOL    HW122610   6.171   5.612   6.153
 7237SOL    HW222611   6.226   5.765   6.130
 7238SOL     OW22612   1.015   1.004   1.481
 7238SOL    HW122613   1.031   0.909   1.509
 7238SOL    HW222614   1.092   1.061   1.512
 7239SOL     OW22615   4.496   1.263   2.169
 7239SOL    HW122616   4.595   1.269   2.164
 7239SOL    HW222617   4.469   1.169   2.189
 7240SOL     OW22618   3.242   3.806   0.906
 7240SOL    HW122619   3.171   3.746   0.944
 7240SOL    HW222620   3.199   3.876   0.849
 7241SOL     OW22621   3.898   0.238   5.025
 7241SOL    HW122622   3.959   0.285   5.088
 7241SOL    HW222623   3.846   0.306   4.973
 7242SOL     OW22624   4.791   4.663   0.751
 7242SOL    HW122625   4.853   4.637   0.826
 7242SOL    HW222626   4.831   4.635   0.664
 7243SOL     OW22627   0.109   5.893   0.069
 7243SOL    HW122628   0.061   5.979   0.086
 7243SOL    HW222629   0.207   5.907   0.082
 7244SOL     OW22630   5.549   1.566   1.005
 7244SOL    HW122631   5.484   1.634   0.970
 7244SOL    HW222632   5.617   1.611   1.062
 7245SOL     OW22633   6.579   1.825   4.326
 7245SOL    HW122634   6.632   1.789   4.248
 7245SOL    HW222635   6.594   1.767   4.406
 7246SOL     OW22636   1.187   5.824   5.401
 7246SOL    HW122637   1.111   5.879   5.366
 7246SOL    HW222638   1.161   5.782   5.487
 7247SOL     OW22639   3.577   5.605   2.736
 7247SOL    HW122640   3.632   5.586   2.655
 7247SOL    HW222641   3.539   5.519   2.772
 7248SOL     OW22642   3.230   0.827   4.770
 7248SOL    HW122643   3.243   0.748   4.710
 7248SOL    HW222644   3.298   0.826   4.843
 7249SOL     OW22645   6.165   4.863   6.653
 7249SOL    HW122646   6.112   4.803   6.713
 7249SOL    HW222647   6.128   4.956   6.657
 7250SOL     OW22648   2.865   4.207   6.732
 7250SOL    HW122649   2.871   4.246   6.824
 7250SOL    HW222650   2.796   4.256   6.679
 7251SOL     OW22651   5.473   0.272   5.237
 7251SOL    HW122652   5.500   0.261   5.333
 7251SOL    HW222653   5.389   0.219   5.221
 7252SOL     OW22654   4.423   3.727   5.262
 7252SOL    HW122655   4.435   3.694   5.356
 7252SOL    HW222656   4.508   3.717   5.211
 7253SOL     OW22657   5.320   5.417   0.851
 7253SOL    HW122658   5.390   5.346   0.861
 7253SOL    HW222659   5.303   5.434   0.754
 7254SOL     OW22660   4.838   6.569   5.078
 7254SOL    HW122661   4.900   6.611   5.145
 7254SOL    HW222662   4.774   6.638   5.045
 7255SOL     OW22663   3.702   3.991   2.213
 7255SOL    HW122664   3.665   3.908   2.171
 7255SOL    HW222665   3.799   3.977   2.234
 7256SOL     OW22666   4.505   4.830   3.994
 7256SOL    HW122667   4.454   4.897   4.048
 7256SOL    HW222668   4.448   4.799   3.917
 7257SOL     OW22669   5.919   3.977   3.567
 7257SOL    HW122670   5.879   4.052   3.618
 7257SOL    HW222671   5.945   3.904   3.629
 7258SOL     OW22672   3.152   6.591   5.271
 7258SOL    HW122673   3.174   6.561   5.363
 7258SOL    HW222674   3.104   6.679   5.274
 7259SOL     OW22675   1.714   5.910   6.032
 7259SOL    HW122676   1.814   5.909   6.031
 7259SOL    HW222677   1.680   5.984   5.974
 7260SOL     OW22678   3.802   1.882   2.093
 7260SOL    HW122679   3.712   1.895   2.051
 7260SOL    HW222680   3.841   1.971   2.117
 7261SOL     OW22681   1.433   4.355   1.589
 7261SOL    HW122682   1.477   4.265   1.584
 7261SOL    HW222683   1.334   4.343   1.600
 7262SOL     OW22684   6.264   1.742   5.747
 7262SOL    HW122685   6.361   1.763   5.734
 7262SOL    HW222686   6.243   1.738   5.844
 7263SOL     OW22687   4.910   6.712   2.114
 7263SOL    HW122688   4.959   6.799   2.121
 7263SOL    HW222689   4.874   6.703   2.021
 7264SOL     OW22690   1.306   6.674   4.443
 7264SOL    HW122691   1.347   6.672   4.352
 7264SOL    HW222692   1.370   6.718   4.507
 7265SOL     OW22693   4.101   3.735   6.226
 7265SOL    HW122694   4.068   3.669   6.293
 7265SOL    HW222695   4.114   3.824   6.270
 7266SOL     OW22696   5.043   1.370   1.736
 7266SOL    HW122697   4.978   1.442   1.711
 7266SOL    HW222698   4.998   1.305   1.798
 7267SOL     OW22699   0.372   2.944   4.321
 7267SOL    HW122700   0.306   2.884   4.367
 7267SOL    HW222701   0.392   3.022   4.380
 7268SOL     OW22702   2.921   0.066   0.780
 7268SOL    HW122703   2.938   7.006   0.722
 7268SOL    HW222704   2.917   0.148   0.723
 7269SOL     OW22705   1.227   7.006   1.821
 7269SOL    HW122706   1.256   6.950   1.899
 7269SOL    HW222707   1.160   6.956   1.767
 7270SOL     OW22708   3.324   1.793   2.470
 7270SOL    HW122709   3.315   1.855   2.548
 7270SOL    HW222710   3.370   1.840   2.395
 7271SOL     OW22711   5.900   4.824   4.623
 7271SOL    HW122712   5.848   4.799   4.705
 7271SOL    HW222713   5.996   4.802   4.637
 7272SOL     OW22714   6.200   1.873   1.201
 7272SOL    HW122715   6.264   1.812   1.154
 7272SOL    HW222716   6.168   1.830   1.285
 7273SOL     OW22717   6.046   6.048   6.023
 7273SOL    HW122718   6.077   6.131   5.976
 7273SOL    HW222719   6.121   6.011   6.078
 7274SOL     OW22720   0.710   4.361   4.416
 7274SOL    HW122721   0.666   4.354   4.326
 7274SOL    HW222722   0.660   4.426   4.473
 7275SOL     OW22723   5.541   6.641   1.388
 7275SOL    HW122724   5.537   6.740   1.399
 7275SOL    HW222725   5.625   6.606   1.429
 7276SOL     OW22726   2.555   2.146   3.955
 7276SOL    HW122727   2.476   2.206   3.947
 7276SOL    HW222728   2.626   2.175   3.891
 7277SOL     OW22729   5.321   1.432   3.887
 7277SOL    HW122730   5.287   1.459   3.797
 7277SOL    HW222731   5.301   1.503   3.954
 7278SOL     OW22732   2.270   1.693   3.049
 7278SOL    HW122733   2.288   1.654   3.139
 7278SOL    HW222734   2.326   1.775   3.037
 7279SOL     OW22735   3.966   4.150   1.021
 7279SOL    HW122736   3.936   4.057   1.046
 7279SOL    HW222737   4.018   4.147   0.936
 7280SOL     OW22738   6.572   1.757   5.644
 7280SOL    HW122739   6.620   1.770   5.557
 7280SOL    HW222740   6.624   1.694   5.702
 7281SOL     OW22741   3.869   5.805   2.313
 7281SOL    HW122742   3.844   5.716   2.276
 7281SOL    HW222743   3.917   5.858   2.243
 7282SOL     OW22744   6.981   3.718   2.234
 7282SOL    HW122745   6.937   3.805   2.257
 7282SOL    HW222746   6.987   3.661   2.316
 7283SOL     OW22747   4.291   4.922   3.023
 7283SOL    HW122748   4.281   5.011   2.979
 7283SOL    HW222749   4.213   4.907   3.084
 7284SOL     OW22750   0.517   1.283   2.149
 7284SOL    HW122751   0.589   1.251   2.210
 7284SOL    HW222752   0.443   1.323   2.203
 7285SOL     OW22753   4.654   3.233   1.716
 7285SOL    HW122754   4.733   3.294   1.722
 7285SOL    HW222755   4.663   3.160   1.783
 7286SOL     OW22756   6.286   1.924   3.594
 7286SOL    HW122757   6.325   1.952   3.507
 7286SOL    HW222758   6.249   1.831   3.586
 7287SOL     OW22759   2.979   1.507   2.916
 7287SOL    HW122760   2.957   1.424   2.967
 7287SOL    HW222761   3.078   1.516   2.907
 7288SOL     OW22762   2.685   1.563   2.031
 7288SOL    HW122763   2.588   1.560   2.055
 7288SOL    HW222764   2.698   1.524   1.940
 7289SOL     OW22765   6.749   2.491   1.722
 7289SOL    HW122766   6.773   2.456   1.812
 7289SOL    HW222767   6.655   2.464   1.700
 7290SOL     OW22768   3.753   1.312   5.004
 7290SOL    HW122769   3.727   1.329   4.909
 7290SOL    HW222770   3.853   1.316   5.012
 7291SOL     OW22771   2.750   1.299   0.643
 7291SOL    HW122772   2.815   1.271   0.571
 7291SOL    HW222773   2.761   1.238   0.722
 7292SOL     OW22774   2.668   0.291   2.497
 7292SOL    HW122775   2.748   0.350   2.490
 7292SOL    HW222776   2.683   0.222   2.567
 7293SOL     OW22777   6.434   1.483   4.108
 7293SOL    HW122778   6.530   1.499   4.086
 7293SOL    HW222779   6.424   1.392   4.148
 7294SOL     OW22780   3.216   6.436   2.510
 7294SOL    HW122781   3.142   6.475   2.566
 7294SOL    HW222782   3.239   6.345   2.544
 7295SOL     OW22783   5.509   4.304   1.251
 7295SOL    HW122784   5.534   4.341   1.340
 7295SOL    HW222785   5.409   4.291   1.247
 7296SOL     OW22786   4.246   5.310   2.298
 7296SOL    HW122787   4.258   5.226   2.246
 7296SOL    HW222788   4.292   5.386   2.251
 7297SOL     OW22789   4.215   6.712   0.847
 7297SOL    HW122790   4.123   6.684   0.820
 7297SOL    HW222791   4.276   6.634   0.843
 7298SOL     OW22792   4.157   5.381   0.858
 7298SOL    HW122793   4.146   5.286   0.828
 7298SOL    HW222794   4.254   5.401   0.870
 7299SOL     OW22795   1.308   3.056   5.901
 7299SOL    HW122796   1.320   3.140   5.848
 7299SOL    HW222797   1.212   3.047   5.928
 7300SOL     OW22798   0.157   5.563   2.341
 7300SOL    HW122799   0.129   5.534   2.249
 7300SOL    HW222800   0.155   5.663   2.346
 7301SOL     OW22801   4.259   2.217   6.418
 7301SOL    HW122802   4.239   2.211   6.321
 7301SOL    HW222803   4.348   2.259   6.432
 7302SOL     OW22804   5.656   2.261   6.180
 7302SOL    HW122805   5.628   2.276   6.275
 7302SOL    HW222806   5.614   2.177   6.146
 7303SOL     OW22807   2.952   1.668   1.610
 7303SOL    HW122808   2.903   1.581   1.613
 7303SOL    HW222809   2.894   1.741   1.647
 7304SOL     OW22810   2.530   5.275   0.875
 7304SOL    HW122811   2.478   5.195   0.847
 7304SOL    HW222812   2.510   5.295   0.971
 7305SOL     OW22813   5.903   1.046   6.835
 7305SOL    HW122814   5.965   0.999   6.772
 7305SOL    HW222815   5.948   1.128   6.871
 7306SOL     OW22816   1.127   3.040   1.567
 7306SOL    HW122817   1.191   3.115   1.553
 7306SOL    HW222818   1.173   2.953   1.550
 7307SOL     OW22819   2.177   0.395   1.362
 7307SOL    HW122820   2.162   0.348   1.449
 7307SOL    HW222821   2.097   0.452   1.341
 7308SOL     OW22822   3.838   1.229   2.709
 7308SOL    HW122823   3.846   1.327   2.727
 7308SOL    HW222824   3.776   1.214   2.632
 7309SOL     OW22825   2.046   5.417   3.598
 7309SOL    HW122826   2.082   5.444   3.509
 7309SOL    HW222827   1.997   5.330   3.590
 7310SOL     OW22828   2.703   2.899   6.257
 7310SOL    HW122829   2.683   2.846   6.174
 7310SOL    HW222830   2.632   2.968   6.271
 7311SOL     OW22831   0.200   5.926   5.607
 7311SOL    HW122832   0.289   5.919   5.561
 7311SOL    HW222833   0.162   6.017   5.591
 7312SOL     OW22834   6.146   2.144   4.174
 7312SOL    HW122835   6.218   2.146   4.104
 7312SOL    HW222836   6.173   2.081   4.248
 7313SOL     OW22837   2.635   0.487   2.883
 7313SOL    HW122838   2.674   0.578   2.877
 7313SOL    HW222839   2.596   0.461   2.794
 7314SOL     OW22840   1.190   4.797   5.632
 7314SOL    HW122841   1.261   4.740   5.589
 7314SOL    HW222842   1.158   4.865   5.567
 7315SOL     OW22843   2.069   4.857   2.300
 7315SOL    HW122844   2.116   4.871   2.213
 7315SOL    HW222845   2.128   4.889   2.374
 7316SOL     OW22846   4.102   1.361   1.345
 7316SOL    HW122847   4.140   1.389   1.433
 7316SOL    HW222848   4.137   1.270   1.321
 7317SOL     OW22849   4.109   2.029   0.228
 7317SOL    HW122850   4.155   2.053   0.142
 7317SOL    HW222851   4.177   2.010   0.299
 7318SOL     OW22852   5.250   6.686   0.616
 7318SOL    HW122853   5.187   6.709   0.690
 7318SOL    HW222854   5.227   6.739   0.534
 7319SOL     OW22855   5.986   6.581   6.502
 7319SOL    HW122856   6.084   6.584   6.523
 7319SOL    HW222857   5.935   6.555   6.584
 7320SOL     OW22858   0.592   2.750   1.051
 7320SOL    HW122859   0.565   2.713   0.963
 7320SOL    HW222860   0.619   2.846   1.041
 7321SOL     OW22861   2.038   1.940   0.129
 7321SOL    HW122862   2.130   1.902   0.132
 7321SOL    HW222863   2.042   2.031   0.088
 7322SOL     OW22864   0.661   3.334   3.297
 7322SOL    HW122865   0.698   3.245   3.324
 7322SOL    HW222866   0.562   3.334   3.307
 7323SOL     OW22867   1.227   2.592   0.342
 7323SOL    HW122868   1.297   2.627   0.280
 7323SOL    HW222869   1.270   2.570   0.430
 7324SOL     OW22870   5.014   3.979   3.178
 7324SOL    HW122871   4.967   3.950   3.095
 7324SOL    HW222872   5.025   3.900   3.239
 7325SOL     OW22873   3.984   1.259   6.025
 7325SOL    HW122874   3.958   1.277   6.120
 7325SOL    HW222875   3.993   1.346   5.977
 7326SOL     OW22876   3.553   0.265   0.404
 7326SOL    HW122877   3.596   0.317   0.478
 7326SOL    HW222878   3.556   0.318   0.320
 7327SOL     OW22879   1.689   4.465   3.494
 7327SOL    HW122880   1.600   4.460   3.449
 7327SOL    HW222881   1.739   4.545   3.461
 7328SOL     OW22882   4.597   5.014   5.376
 7328SOL    HW122883   4.600   4.917   5.398
 7328SOL    HW222884   4.609   5.068   5.460
 7329SOL     OW22885   2.498   3.345   0.981
 7329SOL    HW122886   2.432   3.282   0.940
 7329SOL    HW222887   2.467   3.439   0.967
 7330SOL     OW22888   2.318   3.216   1.224
 7330SOL    HW122889   2.355   3.125   1.240
 7330SOL    HW222890   2.242   3.211   1.159
 7331SOL     OW22891   5.300   2.402   2.193
 7331SOL    HW122892   5.357   2.414   2.275
 7331SOL    HW222893   5.349   2.437   2.113
 7332SOL     OW22894   3.199   6.468   6.213
 7332SOL    HW122895   3.277   6.526   6.189
 7332SOL    HW222896   3.114   6.521   6.203
 7333SOL     OW22897   0.772   1.294   1.459
 7333SOL    HW122898   0.768   1.215   1.519
 7333SOL    HW222899   0.719   1.369   1.498
 7334SOL     OW22900   1.433   5.423   3.805
 7334SOL    HW122901   1.454   5.503   3.862
 7334SOL    HW222902   1.489   5.346   3.835
 7335SOL     OW22903   6.763   3.610   2.494
 7335SOL    HW122904   6.750   3.536   2.561
 7335SOL    HW222905   6.741   3.698   2.537
 7336SOL     OW22906   2.157   6.700   1.773
 7336SOL    HW122907   2.208   6.769   1.823
 7336SOL    HW222908   2.108   6.743   1.697
 7337SOL     OW22909   2.979   1.291   3.091
 7337SOL    HW122910   3.056   1.231   3.067
 7337SOL    HW222911   2.924   1.246   3.161
 7338SOL     OW22912   5.301   3.990   1.066
 7338SOL    HW122913   5.354   3.933   1.129
 7338SOL    HW222914   5.243   4.053   1.118
 7339SOL     OW22915   6.874   6.311   5.144
 7339SOL    HW122916   6.925   6.299   5.058
 7339SOL    HW222917   6.913   6.251   5.214
 7340SOL     OW22918   3.021   6.386   0.097
 7340SOL    HW122919   3.031   6.477   0.137
 7340SOL    HW222920   3.090   6.325   0.134
 7341SOL     OW22921   6.541   5.912   4.902
 7341SOL    HW122922   6.459   5.919   4.960
 7341SOL    HW222923   6.617   5.876   4.956
 7342SOL     OW22924   1.541   5.200   1.429
 7342SOL    HW122925   1.521   5.103   1.413
 7342SOL    HW222926   1.460   5.245   1.465
 7343SOL     OW22927   5.194   2.336   3.545
 7343SOL    HW122928   5.126   2.378   3.605
 7343SOL    HW222929   5.285   2.370   3.569
 7344SOL     OW22930   2.640   1.120   0.039
 7344SOL    HW122931   2.663   1.162   6.971
 7344SOL    HW222932   2.611   1.025   0.024
 7345SOL     OW22933   2.848   6.122   0.180
 7345SOL    HW122934   2.787   6.186   0.225
 7345SOL    HW222935   2.910   6.172   0.119
 7346SOL     OW22936   3.748   4.913   1.779
 7346SOL    HW122937   3.697   4.996   1.755
 7346SOL    HW222938   3.694   4.859   1.843
 7347SOL     OW22939   6.683   3.308   2.328
 7347SOL    HW122940   6.679   3.289   2.426
 7347SOL    HW222941   6.599   3.355   2.300
 7348SOL     OW22942   0.362   1.466   4.689
 7348SOL    HW122943   0.353   1.380   4.639
 7348SOL    HW222944   0.457   1.480   4.715
 7349SOL     OW22945   3.654   1.244   0.726
 7349SOL    HW122946   3.614   1.265   0.815
 7349SOL    HW222947   3.750   1.219   0.738
 7350SOL     OW22948   1.947   1.194   2.879
 7350SOL    HW122949   2.036   1.240   2.870
 7350SOL    HW222950   1.875   1.255   2.845
 7351SOL     OW22951   4.775   5.061   0.231
 7351SOL    HW122952   4.720   5.142   0.214
 7351SOL    HW222953   4.723   4.979   0.204
 7352SOL     OW22954   6.281   0.897   3.165
 7352SOL    HW122955   6.287   0.828   3.093
 7352SOL    HW222956   6.242   0.856   3.248
 7353SOL     OW22957   5.314   1.914   4.596
 7353SOL    HW122958   5.348   1.919   4.503
 7353SOL    HW222959   5.383   1.871   4.655
 7354SOL     OW22960   6.771   4.491   5.236
 7354SOL    HW122961   6.753   4.409   5.181
 7354SOL    HW222962   6.802   4.565   5.176
 7355SOL     OW22963   0.856   4.757   1.288
 7355SOL    HW122964   0.783   4.804   1.239
 7355SOL    HW222965   0.940   4.761   1.235
 7356SOL     OW22966   6.984   1.886   5.862
 7356SOL    HW122967   6.970   1.976   5.903
 7356SOL    HW222968   0.057   1.855   5.882
 7357SOL     OW22969   0.870   1.748   0.338
 7357SOL    HW122970   0.894   1.656   0.369
 7357SOL    HW222971   0.953   1.804   0.330
 7358SOL     OW22972   3.056   0.642   3.799
 7358SOL    HW122973   3.138   0.688   3.765
 7358SOL    HW222974   3.079   0.589   3.880
 7359SOL     OW22975   3.236   3.264   3.089
 7359SOL    HW122976   3.140   3.235   3.078
 7359SOL    HW222977   3.288   3.238   3.008
 7360SOL     OW22978   0.346   3.393   5.745
 7360SOL    HW122979   0.263   3.354   5.784
 7360SOL    HW222980   0.335   3.403   5.646
 7361SOL     OW22981   4.996   6.905   1.851
 7361SOL    HW122982   5.044   6.882   1.936
 7361SOL    HW222983   4.988   6.823   1.794
 7362SOL     OW22984   1.888   6.573   6.513
 7362SOL    HW122985   1.875   6.670   6.496
 7362SOL    HW222986   1.962   6.539   6.455
 7363SOL     OW22987   5.367   3.078   6.413
 7363SOL    HW122988   5.445   3.019   6.431
 7363SOL    HW222989   5.394   3.174   6.425
 7364SOL     OW22990   5.430   0.937   1.406
 7364SOL    HW122991   5.439   0.965   1.502
 7364SOL    HW222992   5.510   0.967   1.354
 7365SOL     OW22993   3.584   0.505   1.706
 7365SOL    HW122994   3.560   0.426   1.763
 7365SOL    HW222995   3.503   0.539   1.660
 7366SOL     OW22996   1.116   5.580   0.107
 7366SOL    HW122997   1.162   5.590   0.019
 7366SOL    HW222998   1.178   5.539   0.174
 7367SOL     OW22999   4.633   3.111   6.816
 7367SOL    HW123000   4.725   3.074   6.817
 7367SOL    HW223001   4.570   3.045   6.775
 7368SOL     OW23002   3.129   3.562   3.549
 7368SOL    HW123003   3.062   3.490   3.568
 7368SOL    HW223004   3.155   3.607   3.634
 7369SOL     OW23005   4.998   2.030   6.322
 7369SOL    HW123006   4.900   2.050   6.310
 7369SOL    HW223007   5.040   2.105   6.374
 7370SOL     OW23008   1.832   5.677   1.119
 7370SOL    HW123009   1.758   5.677   1.052
 7370SOL    HW223010   1.878   5.766   1.118
 7371SOL     OW23011   2.509   4.833   3.793
 7371SOL    HW123012   2.412   4.818   3.809
 7371SOL    HW223013   2.556   4.744   3.787
 7372SOL     OW23014   2.879   6.027   5.713
 7372SOL    HW123015   2.853   6.013   5.808
 7372SOL    HW223016   2.979   6.019   5.704
 7373SOL     OW23017   3.846   0.511   1.762
 7373SOL    HW123018   3.746   0.511   1.758
 7373SOL    HW223019   3.877   0.549   1.849
 7374SOL     OW23020   2.411   3.741   6.741
 7374SOL    HW123021   2.422   3.836   6.771
 7374SOL    HW223022   2.498   3.693   6.750
 7375SOL     OW23023   1.582   6.752   3.206
 7375SOL    HW123024   1.550   6.788   3.119
 7375SOL    HW223025   1.670   6.795   3.230
 7376SOL     OW23026   2.874   3.948   5.602
 7376SOL    HW123027   2.848   3.879   5.534
 7376SOL    HW223028   2.941   3.909   5.665
 7377SOL     OW23029   4.905   5.172   1.899
 7377SOL    HW123030   4.981   5.166   1.964
 7377SOL    HW223031   4.831   5.112   1.929
 7378SOL     OW23032   6.821   2.482   5.934
 7378SOL    HW123033   6.862   2.443   5.851
 7378SOL    HW223034   6.893   2.502   6.000
 7379SOL     OW23035   4.494   1.432   1.132
 7379SOL    HW123036   4.407   1.476   1.153
 7379SOL    HW223037   4.530   1.469   1.046
 7380SOL     OW23038   6.181   2.144   5.277
 7380SOL    HW123039   6.143   2.236   5.274
 7380SOL    HW223040   6.131   2.085   5.214
 7381SOL     OW23041   5.115   2.339   0.291
 7381SOL    HW123042   5.195   2.315   0.345
 7381SOL    HW223043   5.036   2.351   0.352
 7382SOL     OW23044   0.076   5.905   3.739
 7382SOL    HW123045   0.153   5.961   3.707
 7382SOL    HW223046   0.037   5.946   3.821
 7383SOL     OW23047   6.999   5.733   3.548
 7383SOL    HW123048   6.994   5.794   3.469
 7383SOL    HW223049   7.010   5.788   3.632
 7384SOL     OW23050   6.171   1.549   1.729
 7384SOL    HW123051   6.206   1.460   1.758
 7384SOL    HW223052   6.112   1.586   1.800
 7385SOL     OW23053   5.389   0.251   1.634
 7385SOL    HW123054   5.453   0.322   1.663
 7385SOL    HW223055   5.295   0.280   1.652
 7386SOL     OW23056   0.525   2.953   6.030
 7386SOL    HW123057   0.556   2.872   6.080
 7386SOL    HW223058   0.511   2.930   5.934
 7387SOL     OW23059   4.269   6.086   3.900
 7387SOL    HW123060   4.342   6.077   3.833
 7387SOL    HW223061   4.304   6.062   3.991
 7388SOL     OW23062   5.918   4.491   4.799
 7388SOL    HW123063   5.848   4.560   4.819
 7388SOL    HW223064   6.006   4.520   4.839
 7389SOL     OW23065   0.809   4.408   5.177
 7389SOL    HW123066   0.791   4.339   5.108
 7389SOL    HW223067   0.781   4.498   5.142
 7390SOL     OW23068   2.384   0.064   5.942
 7390SOL    HW123069   2.320   0.099   6.010
 7390SOL    HW223070   2.333   0.033   5.862
 7391SOL     OW23071   6.891   4.137   0.051
 7391SOL    HW123072   6.891   4.181   0.141
 7391SOL    HW223073   6.986   4.115   0.025
 7392SOL     OW23074   1.879   4.955   3.275
 7392SOL    HW123075   1.843   5.042   3.310
 7392SOL    HW223076   1.970   4.939   3.313
 7393SOL     OW23077   0.784   3.309   0.367
 7393SOL    HW123078   0.697   3.357   0.376
 7393SOL    HW223079   0.820   3.287   0.458
 7394SOL     OW23080   3.108   3.235   6.536
 7394SOL    HW123081   3.103   3.304   6.464
 7394SOL    HW223082   3.190   3.251   6.592
 7395SOL     OW23083   1.954   6.087   0.612
 7395SOL    HW123084   1.861   6.054   0.628
 7395SOL    HW223085   1.950   6.173   0.561
 7396SOL     OW23086   0.806   0.195   1.530
 7396SOL    HW123087   0.717   0.234   1.507
 7396SOL    HW223088   0.860   0.185   1.446
 7397SOL     OW23089   6.161   4.716   4.681
 7397SOL    HW123090   6.242   4.768   4.706
 7397SOL    HW223091   6.178   4.664   4.598
 7398SOL     OW23092   4.132   5.955   3.161
 7398SOL    HW123093   4.205   5.932   3.225
 7398SOL    HW223094   4.169   5.962   3.069
 7399SOL     OW23095   5.122   4.537   5.021
 7399SOL    HW123096   5.129   4.534   4.922
 7399SOL    HW223097   5.042   4.592   5.048
 7400SOL     OW23098   1.948   5.187   6.796
 7400SOL    HW123099   1.972   5.108   6.853
 7400SOL    HW223100   1.857   5.172   6.756
 7401SOL     OW23101   5.473   1.756   4.744
 7401SOL    HW123102   5.523   1.671   4.732
 7401SOL    HW223103   5.466   1.777   4.841
 7402SOL     OW23104   2.297   6.836   3.785
 7402SOL    HW123105   2.283   6.764   3.717
 7402SOL    HW223106   2.265   6.923   3.748
 7403SOL     OW23107   1.836   3.293   1.297
 7403SOL    HW123108   1.821   3.392   1.303
 7403SOL    HW223109   1.924   3.274   1.254
 7404SOL     OW23110   0.959   1.753   2.935
 7404SOL    HW123111   0.991   1.845   2.912
 7404SOL    HW223112   1.038   1.692   2.942
 7405SOL     OW23113   3.000   5.241   6.482
 7405SOL    HW123114   3.082   5.263   6.535
 7405SOL    HW223115   2.931   5.201   6.542
 7406SOL     OW23116   0.917   5.717   2.208
 7406SOL    HW123117   0.868   5.672   2.282
 7406SOL    HW223118   0.852   5.757   2.143
 7407SOL     OW23119   2.148   0.734   5.770
 7407SOL    HW123120   2.080   0.709   5.701
 7407SOL    HW223121   2.164   0.657   5.831
 7408SOL     OW23122   0.663   3.585   5.209
 7408SOL    HW123123   0.658   3.667   5.265
 7408SOL    HW223124   0.678   3.505   5.267
 7409SOL     OW23125   3.176   5.927   5.773
 7409SOL    HW123126   3.269   5.937   5.806
 7409SOL    HW223127   3.140   5.837   5.799
 7410SOL     OW23128   5.525   4.954   0.311
 7410SOL    HW123129   5.519   4.925   0.406
 7410SOL    HW223130   5.590   5.030   0.303
 7411SOL     OW23131   5.262   5.053   5.679
 7411SOL    HW123132   5.191   5.122   5.664
 7411SOL    HW223133   5.307   5.032   5.591
 7412SOL     OW23134   1.358   2.037   6.948
 7412SOL    HW123135   1.320   2.127   6.971
 7412SOL    HW223136   1.352   1.976   0.007
 7413SOL     OW23137   0.158   3.191   4.672
 7413SOL    HW123138   0.135   3.097   4.645
 7413SOL    HW223139   0.106   3.255   4.616
 7414SOL     OW23140   6.876   5.624   2.735
 7414SOL    HW123141   6.828   5.678   2.805
 7414SOL    HW223142   6.810   5.564   2.689
 7415SOL     OW23143   2.793   1.706   2.582
 7415SOL    HW123144   2.798   1.610   2.612
 7415SOL    HW223145   2.807   1.766   2.661
 7416SOL     OW23146   5.375   0.465   3.783
 7416SOL    HW123147   5.421   0.432   3.700
 7416SOL    HW223148   5.375   0.393   3.852
 7417SOL     OW23149   0.917   6.134   0.642
 7417SOL    HW123150   0.990   6.202   0.646
 7417SOL    HW223151   0.917   6.089   0.552
 7418SOL     OW23152   1.514   3.731   0.431
 7418SOL    HW123153   1.508   3.635   0.401
 7418SOL    HW223154   1.585   3.777   0.378
 7419SOL     OW23155   5.691   1.370   5.371
 7419SOL    HW123156   5.653   1.308   5.439
 7419SOL    HW223157   5.622   1.438   5.346
 7420SOL     OW23158   0.014   5.958   2.151
 7420SOL    HW123159   6.974   6.013   2.092
 7420SOL    HW223160   6.978   5.904   2.214
 7421SOL     OW23161   3.792   3.006   1.337
 7421SOL    HW123162   3.774   2.913   1.304
 7421SOL    HW223163   3.874   3.006   1.394
 7422SOL     OW23164   0.929   2.672   1.152
 7422SOL    HW123165   1.005   2.692   1.213
 7422SOL    HW223166   0.872   2.601   1.192
 7423SOL     OW23167   2.235   5.185   0.142
 7423SOL    HW123168   2.153   5.136   0.171
 7423SOL    HW223169   2.221   5.283   0.155
 7424SOL     OW23170   6.029   1.080   4.791
 7424SOL    HW123171   6.086   1.154   4.827
 7424SOL    HW223172   6.037   1.077   4.692
 7425SOL     OW23173   4.283   6.837   5.288
 7425SOL    HW123174   4.294   6.914   5.224
 7425SOL    HW223175   4.268   6.873   5.380
 7426SOL     OW23176   1.141   1.292   0.226
 7426SOL    HW123177   1.052   1.248   0.215
 7426SOL    HW223178   1.133   1.388   0.201
 7427SOL     OW23179   4.380   5.543   4.518
 7427SOL    HW123180   4.366   5.478   4.593
 7427SOL    HW223181   4.359   5.499   4.431
 7428SOL     OW23182   2.795   1.457   5.876
 7428SOL    HW123183   2.894   1.468   5.868
 7428SOL    HW223184   2.758   1.423   5.789
 7429SOL     OW23185   6.402   6.868   3.973
 7429SOL    HW123186   6.307   6.881   3.942
 7429SOL    HW223187   6.446   6.957   3.984
 7430SOL     OW23188   0.756   4.326   4.699
 7430SOL    HW123189   0.792   4.412   4.661
 7430SOL    HW223190   0.720   4.270   4.624
 7431SOL     OW23191   0.942   4.720   2.392
 7431SOL    HW123192   0.870   4.727   2.322
 7431SOL    HW223193   0.900   4.702   2.481
 7432SOL     OW23194   1.343   6.397   4.785
 7432SOL    HW123195   1.320   6.326   4.851
 7432SOL    HW223196   1.403   6.465   4.828
 7433SOL     OW23197   6.763   6.384   1.093
 7433SOL    HW123198   6.724   6.408   1.181
 7433SOL    HW223199   6.861   6.402   1.094
 7434SOL     OW23200   4.717   0.121   6.652
 7434SOL    HW123201   4.649   0.052   6.677
 7434SOL    HW223202   4.749   0.168   6.734
 7435SOL     OW23203   1.366   5.766   0.221
 7435SOL    HW123204   1.422   5.687   0.247
 7435SOL    HW223205   1.338   5.816   0.303
 7436SOL     OW23206   5.143   2.666   6.878
 7436SOL    HW123207   5.137   2.713   6.791
 7436SOL    HW223208   5.170   2.730   6.950
 7437SOL     OW23209   0.032   5.600   5.951
 7437SOL    HW123210   0.037   5.598   6.051
 7437SOL    HW223211   0.102   5.662   5.915
 7438SOL     OW23212   6.413   4.867   1.972
 7438SOL    HW123213   6.431   4.780   1.925
 7438SOL    HW223214   6.336   4.856   2.034
 7439SOL     OW23215   1.180   5.929   3.710
 7439SOL    HW123216   1.190   5.935   3.809
 7439SOL    HW223217   1.249   5.866   3.673
 7440SOL     OW23218   0.773   2.171   3.892
 7440SOL    HW123219   0.840   2.150   3.963
 7440SOL    HW223220   0.796   2.121   3.809
 7441SOL     OW23221   5.730   0.125   3.898
 7441SOL    HW123222   5.718   0.224   3.905
 7441SOL    HW223223   5.762   0.102   3.806
 7442SOL     OW23224   1.943   0.925   6.705
 7442SOL    HW123225   2.016   0.960   6.765
 7442SOL    HW223226   1.875   0.877   6.761
 7443SOL     OW23227   6.913   1.359   0.728
 7443SOL    HW123228   6.892   1.314   0.815
 7443SOL    HW223229   6.945   1.291   0.662
 7444SOL     OW23230   0.528   2.487   6.112
 7444SOL    HW123231   0.524   2.493   6.012
 7444SOL    HW223232   0.482   2.566   6.151
 7445SOL     OW23233   5.658   2.993   2.152
 7445SOL    HW123234   5.752   2.965   2.138
 7445SOL    HW223235   5.621   3.032   2.068
 7446SOL     OW23236   0.125   3.618   0.909
 7446SOL    HW123237   0.036   3.658   0.888
 7446SOL    HW223238   0.114   3.545   0.977
 7447SOL     OW23239   0.036   4.320   6.266
 7447SOL    HW123240   7.014   4.267   6.339
 7447SOL    HW223241   0.053   4.261   6.187
 7448SOL     OW23242   6.783   6.473   6.310
 7448SOL    HW123243   6.871   6.467   6.263
 7448SOL    HW223244   6.709   6.467   6.243
 7449SOL     OW23245   4.544   0.852   1.577
 7449SOL    HW123246   4.557   0.874   1.673
 7449SOL    HW223247   4.465   0.903   1.541
 7450SOL     OW23248   3.356   0.099   2.639
 7450SOL    HW123249   3.444   0.079   2.682
 7450SOL    HW223250   3.289   0.124   2.709
 7451SOL     OW23251   1.306   1.215   2.966
 7451SOL    HW123252   1.241   1.206   3.041
 7451SOL    HW223253   1.257   1.224   2.880
 7452SOL     OW23254   1.599   6.348   4.303
 7452SOL    HW123255   1.632   6.443   4.301
 7452SOL    HW223256   1.543   6.334   4.385
 7453SOL     OW23257   5.601   5.679   5.474
 7453SOL    HW123258   5.534   5.752   5.486
 7453SOL    HW223259   5.669   5.684   5.547
 7454SOL     OW23260   0.679   2.945   0.288
 7454SOL    HW123261   0.740   3.005   0.236
 7454SOL    HW223262   0.627   3.000   0.354
 7455SOL     OW23263   5.516   1.324   0.312
 7455SOL    HW123264   5.501   1.354   0.406
 7455SOL    HW223265   5.536   1.226   0.311
 7456SOL     OW23266   1.902   3.131   5.666
 7456SOL    HW123267   1.832   3.187   5.711
 7456SOL    HW223268   1.860   3.081   5.590
 7457SOL     OW23269   6.261   0.069   6.006
 7457SOL    HW123270   6.208   0.037   5.927
 7457SOL    HW223271   6.331   0.001   6.029
 7458SOL     OW23272   2.467   0.661   0.574
 7458SOL    HW123273   2.384   0.683   0.626
 7458SOL    HW223274   2.511   0.581   0.613
 7459SOL     OW23275   4.589   0.450   4.636
 7459SOL    HW123276   4.550   0.512   4.568
 7459SOL    HW223277   4.633   0.373   4.590
 7460SOL     OW23278   0.631   5.295   6.869
 7460SOL    HW123279   0.649   5.205   6.828
 7460SOL    HW223280   0.640   5.288   6.968
 7461SOL     OW23281   4.721   0.386   3.766
 7461SOL    HW123282   4.738   0.451   3.839
 7461SOL    HW223283   4.774   0.412   3.685
 7462SOL     OW23284   1.653   1.521   2.487
 7462SOL    HW123285   1.703   1.607   2.497
 7462SOL    HW223286   1.653   1.472   2.574
 7463SOL     OW23287   3.568   3.796   2.066
 7463SOL    HW123288   3.625   3.743   2.004
 7463SOL    HW223289   3.474   3.761   2.064
 7464SOL     OW23290   5.036   6.610   6.370
 7464SOL    HW123291   4.945   6.640   6.343
 7464SOL    HW223292   5.041   6.510   6.368
 7465SOL     OW23293   3.219   1.033   2.047
 7465SOL    HW123294   3.133   1.066   2.009
 7465SOL    HW223295   3.265   0.975   1.979
 7466SOL     OW23296   0.512   0.368   6.465
 7466SOL    HW123297   0.551   0.450   6.509
 7466SOL    HW223298   0.413   0.378   6.461
 7467SOL     OW23299   5.939   1.533   1.299
 7467SOL    HW123300   6.009   1.601   1.316
 7467SOL    HW223301   5.982   1.447   1.272
 7468SOL     OW23302   6.321   3.462   4.494
 7468SOL    HW123303   6.412   3.467   4.535
 7468SOL    HW223304   6.279   3.374   4.516
 7469SOL     OW23305   6.855   1.224   1.636
 7469SOL    HW123306   6.912   1.261   1.709
 7469SOL    HW223307   6.906   1.154   1.586
 7470SOL     OW23308   7.010   2.557   2.425
 7470SOL    HW123309   0.039   2.596   2.503
 7470SOL    HW223310   0.056   2.516   2.361
 7471SOL     OW23311   5.871   5.140   6.309
 7471SOL    HW123312   5.791   5.080   6.318
 7471SOL    HW223313   5.952   5.084   6.294
 7472SOL     OW23314   3.562   5.320   3.693
 7472SOL    HW123315   3.547   5.408   3.738
 7472SOL    HW223316   3.652   5.319   3.651
 7473SOL     OW23317   0.628   3.597   4.693
 7473SOL    HW123318   0.650   3.634   4.602
 7473SOL    HW223319   0.629   3.497   4.689
 7474SOL     OW23320   4.094   1.096   2.752
 7474SOL    HW123321   4.004   1.137   2.733
 7474SOL    HW223322   4.152   1.164   2.796
 7475SOL     OW23323   4.287   1.280   6.941
 7475SOL    HW123324   4.187   1.282   6.933
 7475SOL    HW223325   4.322   1.373   6.948
 7476SOL     OW23326   3.312   6.778   4.893
 7476SOL    HW123327   3.325   6.731   4.980
 7476SOL    HW223328   3.346   6.872   4.902
 7477SOL     OW23329   4.806   2.729   2.978
 7477SOL    HW123330   4.764   2.640   2.965
 7477SOL    HW223331   4.872   2.746   2.905
 7478SOL     OW23332   1.969   4.932   1.194
 7478SOL    HW123333   1.888   4.984   1.168
 7478SOL    HW223334   2.051   4.983   1.167
 7479SOL     OW23335   4.548   0.462   5.875
 7479SOL    HW123336   4.538   0.406   5.793
 7479SOL    HW223337   4.470   0.524   5.883
 7480SOL     OW23338   6.806   4.914   1.287
 7480SOL    HW123339   6.829   4.832   1.340
 7480SOL    HW223340   6.800   4.992   1.349
 7481SOL     OW23341   6.460   5.683   0.348
 7481SOL    HW123342   6.362   5.696   0.330
 7481SOL    HW223343   6.474   5.679   0.447
 7482SOL     OW23344   4.921   0.803   3.843
 7482SOL    HW123345   4.838   0.818   3.897
 7482SOL    HW223346   4.938   0.705   3.835
 7483SOL     OW23347   3.459   7.002   6.123
 7483SOL    HW123348   3.362   6.979   6.117
 7483SOL    HW223349   3.511   6.944   6.061
 7484SOL     OW23350   2.868   0.447   2.402
 7484SOL    HW123351   2.952   0.394   2.409
 7484SOL    HW223352   2.890   0.543   2.384
 7485SOL     OW23353   1.499   6.705   5.928
 7485SOL    HW123354   1.509   6.735   5.833
 7485SOL    HW223355   1.452   6.776   5.980
 7486SOL     OW23356   1.508   0.215   5.109
 7486SOL    HW123357   1.475   0.309   5.095
 7486SOL    HW223358   1.505   0.166   5.022
 7487SOL     OW23359   4.193   5.043   3.455
 7487SOL    HW123360   4.196   5.075   3.361
 7487SOL    HW223361   4.185   5.122   3.517
 7488SOL     OW23362   3.665   0.718   5.419
 7488SOL    HW123363   3.653   0.813   5.388
 7488SOL    HW223364   3.695   0.662   5.342
 7489SOL     OW23365   6.162   3.395   3.250
 7489SOL    HW123366   6.174   3.463   3.178
 7489SOL    HW223367   6.120   3.438   3.330
 7490SOL     OW23368   5.439   1.359   1.869
 7490SOL    HW123369   5.469   1.420   1.943
 7490SOL    HW223370   5.435   1.411   1.784
 7491SOL     OW23371   6.826   5.867   6.812
 7491SOL    HW123372   6.728   5.863   6.794
 7491SOL    HW223373   6.876   5.833   6.732
 7492SOL     OW23374   2.470   2.602   4.285
 7492SOL    HW123375   2.436   2.647   4.367
 7492SOL    HW223376   2.534   2.529   4.311
 7493SOL     OW23377   5.225   4.011   0.084
 7493SOL    HW123378   5.220   4.090   0.023
 7493SOL    HW223379   5.261   4.039   0.173
 7494SOL     OW23380   4.930   1.975   0.783
 7494SOL    HW123381   4.891   2.030   0.709
 7494SOL    HW223382   4.989   2.032   0.840
 7495SOL     OW23383   0.301   1.391   2.304
 7495SOL    HW123384   0.258   1.391   2.214
 7495SOL    HW223385   0.294   1.300   2.345
 7496SOL     OW23386   1.207   4.748   5.283
 7496SOL    HW123387   1.248   4.660   5.305
 7496SOL    HW223388   1.111   4.735   5.257
 7497SOL     OW23389   2.001   5.149   2.083
 7497SOL    HW123390   2.088   5.100   2.072
 7497SOL    HW223391   2.017   5.247   2.070
 7498SOL     OW23392   4.732   1.283   4.406
 7498SOL    HW123393   4.802   1.274   4.336
 7498SOL    HW223394   4.644   1.305   4.363
 7499SOL     OW23395   4.723   5.986   3.776
 7499SOL    HW123396   4.780   5.905   3.778
 7499SOL    HW223397   4.671   5.993   3.862
 7500SOL     OW23398   5.387   4.598   1.407
 7500SOL    HW123399   5.358   4.688   1.440
 7500SOL    HW223400   5.452   4.558   1.472
 7501SOL     OW23401   6.961   4.365   3.963
 7501SOL    HW123402   6.866   4.396   3.956
 7501SOL    HW223403   7.005   4.374   3.873
 7502SOL     OW23404   2.468   1.611   4.301
 7502SOL    HW123405   2.385   1.555   4.306
 7502SOL    HW223406   2.497   1.638   4.393
 7503SOL     OW23407   2.767   2.756   6.488
 7503SOL    HW123408   2.762   2.664   6.448
 7503SOL    HW223409   2.762   2.825   6.415
 7504SOL     OW23410   4.316   5.620   4.140
 7504SOL    HW123411   4.362   5.675   4.209
 7504SOL    HW223412   4.290   5.532   4.180
 7505SOL     OW23413   1.471   2.015   4.433
 7505SOL    HW123414   1.515   2.029   4.521
 7505SOL    HW223415   1.376   2.046   4.438
 7506SOL     OW23416   4.353   1.725   3.509
 7506SOL    HW123417   4.254   1.722   3.521
 7506SOL    HW223418   4.397   1.715   3.599
 7507SOL     OW23419   1.532   6.446   6.085
 7507SOL    HW123420   1.593   6.448   6.164
 7507SOL    HW223421   1.500   6.538   6.066
 7508SOL     OW23422   4.643   0.066   4.082
 7508SOL    HW123423   4.597   0.038   4.166
 7508SOL    HW223424   4.722   0.008   4.065
 7509SOL     OW23425   4.496   3.325   6.093
 7509SOL    HW123426   4.429   3.359   6.028
 7509SOL    HW223427   4.505   3.226   6.084
 7510SOL     OW23428   3.757   3.948   4.822
 7510SOL    HW123429   3.819   3.971   4.897
 7510SOL    HW223430   3.703   4.029   4.798
 7511SOL     OW23431   1.274   1.071   2.336
 7511SOL    HW123432   1.190   1.107   2.295
 7511SOL    HW223433   1.258   0.978   2.369
 7512SOL     OW23434   2.260   2.816   1.772
 7512SOL    HW123435   2.241   2.913   1.788
 7512SOL    HW223436   2.259   2.798   1.674
 7513SOL     OW23437   1.075   3.404   6.707
 7513SOL    HW123438   1.080   3.304   6.713
 7513SOL    HW223439   1.152   3.438   6.653
 7514SOL     OW23440   2.553   6.227   3.283
 7514SOL    HW123441   2.476   6.246   3.344
 7514SOL    HW223442   2.518   6.192   3.196
 7515SOL     OW23443   6.419   5.350   2.988
 7515SOL    HW123444   6.398   5.372   3.084
 7515SOL    HW223445   6.424   5.435   2.936
 7516SOL     OW23446   1.050   0.774   3.137
 7516SOL    HW123447   1.104   0.728   3.067
 7516SOL    HW223448   1.061   0.873   3.129
 7517SOL     OW23449   0.595   4.345   1.511
 7517SOL    HW123450   0.623   4.276   1.444
 7517SOL    HW223451   0.497   4.360   1.503
 7518SOL     OW23452   5.077   6.017   3.229
 7518SOL    HW123453   5.121   6.019   3.140
 7518SOL    HW223454   5.127   5.955   3.290
 7519SOL     OW23455   1.967   5.663   3.778
 7519SOL    HW123456   2.013   5.575   3.772
 7519SOL    HW223457   1.946   5.696   3.686
 7520SOL     OW23458   2.265   6.963   4.178
 7520SOL    HW123459   2.313   6.967   4.266
 7520SOL    HW223460   2.183   6.905   4.187
 7521SOL     OW23461   5.353   4.174   6.249
 7521SOL    HW123462   5.304   4.248   6.295
 7521SOL    HW223463   5.439   4.156   6.298
 7522SOL     OW23464   1.765   0.609   2.024
 7522SOL    HW123465   1.737   0.536   2.087
 7522SOL    HW223466   1.691   0.676   2.016
 7523SOL     OW23467   5.871   6.771   6.784
 7523SOL    HW123468   5.788   6.747   6.834
 7523SOL    HW223469   5.867   6.868   6.758
 7524SOL     OW23470   6.534   1.284   4.302
 7524SOL    HW123471   6.537   1.235   4.215
 7524SOL    HW223472   6.613   1.345   4.309
 7525SOL     OW23473   1.769   6.432   1.078
 7525SOL    HW123474   1.757   6.513   1.135
 7525SOL    HW223475   1.679   6.390   1.062
 7526SOL     OW23476   3.691   3.186   5.178
 7526SOL    HW123477   3.617   3.205   5.113
 7526SOL    HW223478   3.742   3.106   5.149
 7527SOL     OW23479   5.758   4.764   2.064
 7527SOL    HW123480   5.731   4.704   2.139
 7527SOL    HW223481   5.749   4.716   1.977
 7528SOL     OW23482   6.258   3.777   5.771
 7528SOL    HW123483   6.201   3.822   5.841
 7528SOL    HW223484   6.353   3.778   5.801
 7529SOL     OW23485   3.101   0.041   5.173
 7529SOL    HW123486   3.054   0.092   5.245
 7529SOL    HW223487   3.099   0.094   5.088
 7530SOL     OW23488   0.009   3.366   2.597
 7530SOL    HW123489   6.932   3.382   2.579
 7530SOL    HW223490   0.023   3.354   2.696
 7531SOL     OW23491   3.283   1.763   3.407
 7531SOL    HW123492   3.220   1.837   3.432
 7531SOL    HW223493   3.246   1.714   3.328
 7532SOL     OW23494   4.920   4.499   2.132
 7532SOL    HW123495   5.011   4.538   2.143
 7532SOL    HW223496   4.902   4.434   2.206
 7533SOL     OW23497   3.312   6.984   4.507
 7533SOL    HW123498   3.333   0.007   4.419
 7533SOL    HW223499   3.365   0.009   4.579
 7534SOL     OW23500   5.362   6.988   4.378
 7534SOL    HW123501   5.449   0.017   4.377
 7534SOL    HW223502   5.321   6.995   4.469
 7535SOL     OW23503   3.282   4.160   6.604
 7535SOL    HW123504   3.196   4.110   6.616
 7535SOL    HW223505   3.311   4.154   6.508
 7536SOL     OW23506   4.054   6.227   3.741
 7536SOL    HW123507   4.116   6.192   3.811
 7536SOL    HW223508   4.069   6.177   3.656
 7537SOL     OW23509   2.147   4.692   5.916
 7537SOL    HW123510   2.183   4.601   5.895
 7537SOL    HW223511   2.161   4.753   5.838
 7538SOL     OW23512   3.262   3.167   2.817
 7538SOL    HW123513   3.255   3.214   2.728
 7538SOL    HW223514   3.226   3.074   2.808
 7539SOL     OW23515   1.864   2.198   4.725
 7539SOL    HW123516   1.881   2.252   4.642
 7539SOL    HW223517   1.876   2.256   4.805
 7540SOL     OW23518   1.857   1.525   0.296
 7540SOL    HW123519   1.854   1.625   0.290
 7540SOL    HW223520   1.818   1.496   0.383
 7541SOL     OW23521   6.716   2.845   5.527
 7541SOL    HW123522   6.634   2.869   5.579
 7541SOL    HW223523   6.690   2.811   5.437
 7542SOL     OW23524   1.905   0.035   6.722
 7542SOL    HW123525   1.815   7.019   6.749
 7542SOL    HW223526   1.905   0.055   6.624
 7543SOL     OW23527   4.145   2.866   6.858
 7543SOL    HW123528   4.233   2.912   6.850
 7543SOL    HW223529   4.119   2.827   6.769
 7544SOL     OW23530   2.033   1.828   2.879
 7544SOL    HW123531   2.091   1.782   2.946
 7544SOL    HW223532   1.997   1.912   2.918
 7545SOL     OW23533   5.448   0.106   3.830
 7545SOL    HW123534   5.417   0.173   3.897
 7545SOL    HW223535   5.532   0.063   3.862
 7546SOL     OW23536   4.901   0.354   6.546
 7546SOL    HW123537   4.864   0.432   6.597
 7546SOL    HW223538   4.841   0.275   6.558
 7547SOL     OW23539   3.150   0.177   0.186
 7547SOL    HW123540   3.239   0.219   0.203
 7547SOL    HW223541   3.081   0.223   0.242
 7548SOL     OW23542   1.155   2.860   1.268
 7548SOL    HW123543   1.165   2.837   1.171
 7548SOL    HW223544   1.246   2.874   1.308
 7549SOL     OW23545   6.150   2.353   2.063
 7549SOL    HW123546   6.210   2.421   2.021
 7549SOL    HW223547   6.094   2.310   1.992
 7550SOL     OW23548   1.760   5.111   1.183
 7550SOL    HW123549   1.692   5.100   1.110
 7550SOL    HW223550   1.769   5.208   1.206
 7551SOL     OW23551   4.585   4.075   6.404
 7551SOL    HW123552   4.582   4.013   6.326
 7551SOL    HW223553   4.673   4.123   6.405
 7552SOL     OW23554   3.132   5.037   3.643
 7552SOL    HW123555   3.069   4.987   3.584
 7552SOL    HW223556   3.105   5.026   3.738
 7553SOL     OW23557   4.448   4.475   6.075
 7553SOL    HW123558   4.446   4.525   6.161
 7553SOL    HW223559   4.426   4.379   6.091
 7554SOL     OW23560   6.482   0.894   1.203
 7554SOL    HW123561   6.469   0.862   1.110
 7554SOL    HW223562   6.576   0.924   1.216
 7555SOL     OW23563   0.447   5.882   5.487
 7555SOL    HW123564   0.490   5.791   5.483
 7555SOL    HW223565   0.516   5.949   5.515
 7556SOL     OW23566   6.746   2.797   4.386
 7556SOL    HW123567   6.832   2.848   4.382
 7556SOL    HW223568   6.706   2.807   4.477
 7557SOL     OW23569   4.507   3.652   6.930
 7557SOL    HW123570   4.518   3.716   6.854
 7557SOL    HW223571   4.466   3.567   6.897
 7558SOL     OW23572   1.733   3.390   4.220
 7558SOL    HW123573   1.751   3.344   4.133
 7558SOL    HW223574   1.659   3.343   4.267
 7559SOL     OW23575   1.040   4.847   0.689
 7559SOL    HW123576   1.083   4.822   0.602
 7559SOL    HW223577   1.029   4.765   0.745
 7560SOL     OW23578   4.581   6.829   6.264
 7560SOL    HW123579   4.529   6.882   6.331
 7560SOL    HW223580   4.635   6.891   6.208
 7561SOL     OW23581   0.858   3.361   0.750
 7561SOL    HW123582   0.863   3.278   0.694
 7561SOL    HW223583   0.872   3.337   0.846
 7562SOL     OW23584   4.854   5.385   5.697
 7562SOL    HW123585   4.855   5.439   5.613
 7562SOL    HW223586   4.762   5.348   5.711
 7563SOL     OW23587   2.161   1.175   2.368
 7563SOL    HW123588   2.175   1.113   2.290
 7563SOL    HW223589   2.170   1.123   2.453
 7564SOL     OW23590   5.149   6.300   3.727
 7564SOL    HW123591   5.094   6.258   3.800
 7564SOL    HW223592   5.130   6.254   3.640
 7565SOL     OW23593   4.869   4.292   0.690
 7565SOL    HW123594   4.841   4.338   0.606
 7565SOL    HW223595   4.886   4.195   0.670
 7566SOL     OW23596   1.688   5.636   4.982
 7566SOL    HW123597   1.592   5.614   5.001
 7566SOL    HW223598   1.696   5.674   4.890
 7567SOL     OW23599   2.621   3.328   6.915
 7567SOL    HW123600   2.573   3.336   6.828
 7567SOL    HW223601   2.717   3.309   6.899
 7568SOL     OW23602   4.999   4.856   3.019
 7568SOL    HW123603   4.970   4.761   3.006
 7568SOL    HW223604   5.096   4.858   3.044
 7569SOL     OW23605   3.836   0.475   1.060
 7569SOL    HW123606   3.878   0.503   1.147
 7569SOL    HW223607   3.798   0.554   1.014
 7570SOL     OW23608   6.102   4.892   4.905
 7570SOL    HW123609   6.143   4.829   4.839
 7570SOL    HW223610   6.173   4.942   4.953
 7571SOL     OW23611   5.040   4.057   1.961
 7571SOL    HW123612   4.957   4.050   2.017
 7571SOL    HW223613   5.029   4.131   1.894
 7572SOL     OW23614   1.920   2.099   4.371
 7572SOL    HW123615   1.873   2.179   4.408
 7572SOL    HW223616   1.981   2.062   4.441
 7573SOL     OW23617   2.584   5.952   5.049
 7573SOL    HW123618   2.611   6.049   5.050
 7573SOL    HW223619   2.502   5.940   5.105
 7574SOL     OW23620   4.741   5.947   2.998
 7574SOL    HW123621   4.697   5.928   2.910
 7574SOL    HW223622   4.743   5.864   3.054
 7575SOL     OW23623   4.482   2.555   5.013
 7575SOL    HW123624   4.476   2.514   4.922
 7575SOL    HW223625   4.392   2.556   5.056
 7576SOL     OW23626   6.253   3.501   1.221
 7576SOL    HW123627   6.339   3.529   1.263
 7576SOL    HW223628   6.227   3.411   1.256
 7577SOL     OW23629   4.467   0.604   5.098
 7577SOL    HW123630   4.520   0.579   5.016
 7577SOL    HW223631   4.422   0.523   5.134
 7578SOL     OW23632   2.625   4.677   4.595
 7578SOL    HW123633   2.613   4.676   4.695
 7578SOL    HW223634   2.571   4.604   4.554
 7579SOL     OW23635   4.445   2.114   3.474
 7579SOL    HW123636   4.495   2.183   3.421
 7579SOL    HW223637   4.364   2.156   3.515
 7580SOL     OW23638   1.860   4.024   3.387
 7580SOL    HW123639   1.815   4.031   3.476
 7580SOL    HW223640   1.871   3.928   3.362
 7581SOL     OW23641   6.061   0.544   1.278
 7581SOL    HW123642   6.078   0.623   1.219
 7581SOL    HW223643   6.143   0.525   1.332
 7582SOL     OW23644   2.910   1.256   1.190
 7582SOL    HW123645   2.918   1.259   1.289
 7582SOL    HW223646   2.949   1.339   1.150
 7583SOL     OW23647   0.286   3.578   2.488
 7583SOL    HW123648   0.337   3.495   2.466
 7583SOL    HW223649   0.199   3.552   2.530
 7584SOL     OW23650   2.242   1.360   1.395
 7584SOL    HW123651   2.281   1.330   1.308
 7584SOL    HW223652   2.306   1.338   1.469
 7585SOL     OW23653   1.618   5.146   5.893
 7585SOL    HW123654   1.579   5.118   5.981
 7585SOL    HW223655   1.597   5.243   5.877
 7586SOL     OW23656   2.122   1.293   1.700
 7586SOL    HW123657   2.171   1.376   1.673
 7586SOL    HW223658   2.026   1.315   1.718
 7587SOL     OW23659   2.547   0.869   6.226
 7587SOL    HW123660   2.482   0.935   6.190
 7587SOL    HW223661   2.529   0.779   6.185
 7588SOL     OW23662   0.352   4.099   1.274
 7588SOL    HW123663   0.346   4.044   1.358
 7588SOL    HW223664   0.261   4.109   1.234
 7589SOL     OW23665   5.433   6.287   0.200
 7589SOL    HW123666   5.384   6.210   0.241
 7589SOL    HW223667   5.530   6.262   0.188
 7590SOL     OW23668   2.343   0.822   6.440
 7590SOL    HW123669   2.273   0.752   6.423
 7590SOL    HW223670   2.409   0.822   6.365
 7591SOL     OW23671   6.757   5.390   0.469
 7591SOL    HW123672   6.788   5.295   0.481
 7591SOL    HW223673   6.768   5.417   0.373
 7592SOL     OW23674   5.321   6.057   0.295
 7592SOL    HW123675   5.224   6.053   0.273
 7592SOL    HW223676   5.333   6.075   0.393
 7593SOL     OW23677   6.167   3.059   6.563
 7593SOL    HW123678   6.231   3.121   6.518
 7593SOL    HW223679   6.203   2.966   6.559
 7594SOL     OW23680   1.405   6.289   3.922
 7594SOL    HW123681   1.482   6.279   3.984
 7594SOL    HW223682   1.433   6.263   3.829
 7595SOL     OW23683   6.485   2.498   0.210
 7595SOL    HW123684   6.518   2.419   0.157
 7595SOL    HW223685   6.485   2.475   0.307
 7596SOL     OW23686   5.047   4.544   1.880
 7596SOL    HW123687   4.956   4.518   1.910
 7596SOL    HW223688   5.055   4.533   1.781
 7597SOL     OW23689   3.140   5.598   1.807
 7597SOL    HW123690   3.227   5.613   1.761
 7597SOL    HW223691   3.081   5.678   1.795
 7598SOL     OW23692   6.518   0.404   3.322
 7598SOL    HW123693   6.516   0.460   3.239
 7598SOL    HW223694   6.537   0.309   3.298
 7599SOL     OW23695   6.382   2.031   1.865
 7599SOL    HW123696   6.322   2.014   1.787
 7599SOL    HW223697   6.370   1.959   1.933
 7600SOL     OW23698   2.388   2.108   1.524
 7600SOL    HW123699   2.332   2.190   1.535
 7600SOL    HW223700   2.484   2.131   1.540
 7601SOL     OW23701   2.112   6.905   4.984
 7601SOL    HW123702   2.162   6.977   4.936
 7601SOL    HW223703   2.059   6.853   4.917
 7602SOL     OW23704   2.107   3.372   4.951
 7602SOL    HW123705   2.161   3.289   4.963
 7602SOL    HW223706   2.118   3.406   4.858
 7603SOL     OW23707   0.834   0.458   2.144
 7603SOL    HW123708   0.770   0.482   2.216
 7603SOL    HW223709   0.810   0.506   2.060
 7604SOL     OW23710   4.719   6.151   6.235
 7604SOL    HW123711   4.813   6.166   6.205
 7604SOL    HW223712   4.698   6.053   6.232
 7605SOL     OW23713   5.914   4.485   5.913
 7605SOL    HW123714   5.853   4.544   5.861
 7605SOL    HW223715   5.861   4.428   5.974
 7606SOL     OW23716   5.862   1.792   2.672
 7606SOL    HW123717   5.874   1.712   2.730
 7606SOL    HW223718   5.883   1.768   2.577
 7607SOL     OW23719   5.318   6.727   6.872
 7607SOL    HW123720   5.328   6.818   6.911
 7607SOL    HW223721   5.298   6.734   6.775
 7608SOL     OW23722   3.530   2.952   3.559
 7608SOL    HW123723   3.454   2.969   3.621
 7608SOL    HW223724   3.542   3.031   3.498
 7609SOL     OW23725   1.494   3.001   4.150
 7609SOL    HW123726   1.530   2.930   4.211
 7609SOL    HW223727   1.411   2.967   4.105
 7610SOL     OW23728   5.153   0.397   1.455
 7610SOL    HW123729   5.226   0.464   1.438
 7610SOL    HW223730   5.164   0.358   1.546
 7611SOL     OW23731   1.614   1.632   1.429
 7611SOL    HW123732   1.616   1.559   1.361
 7611SOL    HW223733   1.600   1.593   1.520
 7612SOL     OW23734   4.101   1.392   2.443
 7612SOL    HW123735   4.132   1.301   2.415
 7612SOL    HW223736   4.049   1.434   2.369
 7613SOL     OW23737   4.827   1.230   2.153
 7613SOL    HW123738   4.856   1.150   2.101
 7613SOL    HW223739   4.841   1.313   2.099
 7614SOL     OW23740   4.208   1.682   0.181
 7614SOL    HW123741   4.250   1.767   0.150
 7614SOL    HW223742   4.223   1.609   0.114
 7615SOL     OW23743   3.638   5.271   5.708
 7615SOL    HW123744   3.618   5.367   5.691
 7615SOL    HW223745   3.720   5.244   5.658
 7616SOL     OW23746   6.555   5.038   3.844
 7616SOL    HW123747   6.559   4.938   3.840
 7616SOL    HW223748   6.551   5.067   3.940
 7617SOL     OW23749   3.437   5.975   2.466
 7617SOL    HW123750   3.423   6.072   2.488
 7617SOL    HW223751   3.349   5.935   2.438
 7618SOL     OW23752   1.529   2.632   0.566
 7618SOL    HW123753   1.501   2.686   0.487
 7618SOL    HW223754   1.625   2.650   0.587
 7619SOL     OW23755   5.784   3.219   5.819
 7619SOL    HW123756   5.880   3.193   5.829
 7619SOL    HW223757   5.740   3.223   5.909
 7620SOL     OW23758   3.079   6.656   1.619
 7620SOL    HW123759   3.178   6.669   1.607
 7620SOL    HW223760   3.047   6.584   1.558
 7621SOL     OW23761   2.509   1.635   1.735
 7621SOL    HW123762   2.474   1.641   1.828
 7621SOL    HW223763   2.560   1.550   1.723
 7622SOL     OW23764   4.447   2.157   0.541
 7622SOL    HW123765   4.395   2.079   0.505
 7622SOL    HW223766   4.416   2.240   0.495
 7623SOL     OW23767   5.147   0.577   5.562
 7623SOL    HW123768   5.106   0.575   5.471
 7623SOL    HW223769   5.096   0.516   5.622
 7624SOL     OW23770   6.954   0.325   4.279
 7624SOL    HW123771   0.020   0.344   4.326
 7624SOL    HW223772   6.923   0.407   4.231
 7625SOL     OW23773   4.210   6.961   1.268
 7625SOL    HW123774   4.234   0.038   1.265
 7625SOL    HW223775   4.133   6.943   1.207
 7626SOL     OW23776   1.987   4.882   4.712
 7626SOL    HW123777   1.947   4.971   4.735
 7626SOL    HW223778   2.070   4.896   4.658
 7627SOL     OW23779   0.588   2.345   0.475
 7627SOL    HW123780   0.598   2.339   0.375
 7627SOL    HW223781   0.658   2.405   0.512
 7628SOL     OW23782   3.688   2.195   0.877
 7628SOL    HW123783   3.741   2.114   0.851
 7628SOL    HW223784   3.721   2.230   0.964
 7629SOL     OW23785   6.396   5.441   4.159
 7629SOL    HW123786   6.307   5.419   4.197
 7629SOL    HW223787   6.442   5.506   4.219
 7630SOL     OW23788   6.323   0.931   1.987
 7630SOL    HW123789   6.381   0.889   2.057
 7630SOL    HW223790   6.229   0.933   2.019
 7631SOL     OW23791   0.569   2.265   3.586
 7631SOL    HW123792   0.614   2.243   3.499
 7631SOL    HW223793   0.590   2.195   3.654
 7632SOL     OW23794   4.512   1.504   6.340
 7632SOL    HW123795   4.580   1.460   6.282
 7632SOL    HW223796   4.425   1.456   6.334
 7633SOL     OW23797   5.588   4.433   6.857
 7633SOL    HW123798   5.681   4.438   6.892
 7633SOL    HW223799   5.574   4.345   6.812
 7634SOL     OW23800   0.935   1.792   1.954
 7634SOL    HW123801   0.857   1.752   2.003
 7634SOL    HW223802   0.908   1.812   1.860
 7635SOL     OW23803   3.135   4.500   6.120
 7635SOL    HW123804   3.194   4.420   6.106
 7635SOL    HW223805   3.162   4.547   6.204
 7636SOL     OW23806   1.634   0.254   4.264
 7636SOL    HW123807   1.703   0.193   4.226
 7636SOL    HW223808   1.670   0.348   4.265
 7637SOL     OW23809   1.945   5.809   4.292
 7637SOL    HW123810   1.936   5.825   4.194
 7637SOL    HW223811   2.023   5.750   4.309
 7638SOL     OW23812   4.539   4.648   1.783
 7638SOL    HW123813   4.610   4.603   1.838
 7638SOL    HW223814   4.568   4.741   1.762
 7639SOL     OW23815   1.048   1.872   4.424
 7639SOL    HW123816   1.038   1.891   4.327
 7639SOL    HW223817   1.118   1.932   4.463
 7640SOL     OW23818   2.481   2.492   6.676
 7640SOL    HW123819   2.566   2.520   6.720
 7640SOL    HW223820   2.501   2.431   6.600
 7641SOL     OW23821   6.296   3.155   3.198
 7641SOL    HW123822   6.379   3.158   3.254
 7641SOL    HW223823   6.245   3.240   3.207
 7642SOL     OW23824   2.909   1.944   2.411
 7642SOL    HW123825   2.857   1.880   2.467
 7642SOL    HW223826   2.959   2.007   2.470
 7643SOL     OW23827   4.869   3.011   2.782
 7643SOL    HW123828   4.941   3.050   2.838
 7643SOL    HW223829   4.780   3.024   2.827
 7644SOL     OW23830   6.667   3.771   3.346
 7644SOL    HW123831   6.681   3.679   3.310
 7644SOL    HW223832   6.698   3.774   3.441
 7645SOL     OW23833   4.627   3.464   6.660
 7645SOL    HW123834   4.675   3.422   6.738
 7645SOL    HW223835   4.661   3.557   6.646
 7646SOL     OW23836   1.399   1.830   1.838
 7646SOL    HW123837   1.305   1.813   1.807
 7646SOL    HW223838   1.463   1.814   1.763
 7647SOL     OW23839   1.874   4.068   1.374
 7647SOL    HW123840   1.873   4.166   1.396
 7647SOL    HW223841   1.870   4.015   1.459
 7648SOL     OW23842   4.090   0.628   3.117
 7648SOL    HW123843   4.132   0.568   3.184
 7648SOL    HW223844   3.992   0.635   3.136
 7649SOL     OW23845   2.608   0.940   1.343
 7649SOL    HW123846   2.526   0.935   1.287
 7649SOL    HW223847   2.604   0.870   1.414
 7650SOL     OW23848   5.795   4.872   3.183
 7650SOL    HW123849   5.869   4.808   3.159
 7650SOL    HW223850   5.708   4.825   3.181
 7651SOL     OW23851   3.876   1.288   6.299
 7651SOL    HW123852   3.948   1.302   6.366
 7651SOL    HW223853   3.803   1.355   6.313
 7652SOL     OW23854   0.580   2.821   2.657
 7652SOL    HW123855   0.497   2.825   2.602
 7652SOL    HW223856   0.593   2.728   2.692
 7653SOL     OW23857   3.339   2.316   1.572
 7653SOL    HW123858   3.273   2.376   1.617
 7653SOL    HW223859   3.394   2.269   1.641
 7654SOL     OW23860   4.867   3.782   3.522
 7654SOL    HW123861   4.867   3.873   3.563
 7654SOL    HW223862   4.802   3.723   3.570
 7655SOL     OW23863   4.620   6.227   5.373
 7655SOL    HW123864   4.565   6.204   5.292
 7655SOL    HW223865   4.633   6.326   5.378
 7656SOL     OW23866   1.238   6.199   4.935
 7656SOL    HW123867   1.216   6.162   4.845
 7656SOL    HW223868   1.262   6.123   4.997
 7657SOL     OW23869   4.413   1.166   4.554
 7657SOL    HW123870   4.322   1.126   4.541
 7657SOL    HW223871   4.483   1.095   4.541
 7658SOL     OW23872   4.193   0.547   6.050
 7658SOL    HW123873   4.120   0.535   6.117
 7658SOL    HW223874   4.277   0.574   6.096
 7659SOL     OW23875   5.636   6.979   0.587
 7659SOL    HW123876   5.652   6.899   0.644
 7659SOL    HW223877   5.705   6.982   0.514
 7660SOL     OW23878   6.166   4.760   4.329
 7660SOL    HW123879   6.182   4.747   4.232
 7660SOL    HW223880   6.077   4.723   4.354
 7661SOL     OW23881   5.666   3.327   3.203
 7661SOL    HW123882   5.730   3.384   3.255
 7661SOL    HW223883   5.645   3.371   3.116
 7662SOL     OW23884   0.104   5.780   1.961
 7662SOL    HW123885   0.099   5.802   1.863
 7662SOL    HW223886   0.049   5.846   2.013
 7663SOL     OW23887   0.084   5.376   0.282
 7663SOL    HW123888   0.009   5.414   0.227
 7663SOL    HW223889   0.059   5.379   0.378
 7664SOL     OW23890   2.035   5.408   4.394
 7664SOL    HW123891   2.004   5.337   4.457
 7664SOL    HW223892   2.128   5.437   4.418
 7665SOL     OW23893   2.537   6.288   4.713
 7665SOL    HW123894   2.494   6.325   4.795
 7665SOL    HW223895   2.595   6.358   4.671
 7666SOL     OW23896   1.261   1.128   1.553
 7666SOL    HW123897   1.327   1.157   1.484
 7666SOL    HW223898   1.254   1.197   1.624
 7667SOL     OW23899   4.772   5.332   6.378
 7667SOL    HW123900   4.824   5.369   6.455
 7667SOL    HW223901   4.750   5.236   6.396
 7668SOL     OW23902   3.146   4.063   1.643
 7668SOL    HW123903   3.194   3.986   1.600
 7668SOL    HW223904   3.047   4.049   1.635
 7669SOL     OW23905   4.691   6.269   4.314
 7669SOL    HW123906   4.620   6.339   4.308
 7669SOL    HW223907   4.683   6.221   4.401
 7670SOL     OW23908   2.147   5.015   1.003
 7670SOL    HW123909   2.231   5.034   0.953
 7670SOL    HW223910   2.074   4.991   0.939
 7671SOL     OW23911   5.691   2.419   4.706
 7671SOL    HW123912   5.704   2.336   4.652
 7671SOL    HW223913   5.611   2.408   4.764
 7672SOL     OW23914   5.136   0.649   2.390
 7672SOL    HW123915   5.108   0.637   2.485
 7672SOL    HW223916   5.080   0.720   2.347
 7673SOL     OW23917   0.663   4.777   0.930
 7673SOL    HW123918   0.657   4.715   1.008
 7673SOL    HW223919   0.715   4.858   0.956
 7674SOL     OW23920   6.574   0.669   5.067
 7674SOL    HW123921   6.669   0.671   5.098
 7674SOL    HW223922   6.567   0.617   4.982
 7675SOL     OW23923   4.546   6.959   3.663
 7675SOL    HW123924   4.466   7.016   3.644
 7675SOL    HW223925   4.526   6.900   3.741
 7676SOL     OW23926   1.952   6.726   0.970
 7676SOL    HW123927   2.033   6.670   0.991
 7676SOL    HW223928   1.981   6.818   0.944
 7677SOL     OW23929   1.814   2.995   3.035
 7677SOL    HW123930   1.742   2.937   3.072
 7677SOL    HW223931   1.851   3.053   3.108
 7678SOL     OW23932   5.481   6.986   6.929
 7678SOL    HW123933   5.396   7.017   6.972
 7678SOL    HW223934   5.526   0.043   6.885
 7679SOL     OW23935   0.887   5.208   5.377
 7679SOL    HW123936   0.826   5.153   5.319
 7679SOL    HW223937   0.880   5.304   5.351
 7680SOL     OW23938   4.367   2.005   6.770
 7680SOL    HW123939   4.354   1.982   6.673
 7680SOL    HW223940   4.452   1.963   6.803
 7681SOL     OW23941   3.004   1.578   0.122
 7681SOL    HW123942   2.956   1.653   0.076
 7681SOL    HW223943   3.102   1.600   0.128
 7682SOL     OW23944   3.306   6.745   0.733
 7682SOL    HW123945   3.402   6.759   0.708
 7682SOL    HW223946   3.294   6.761   0.831
 7683SOL     OW23947   5.796   1.798   3.299
 7683SOL    HW123948   5.778   1.702   3.279
 7683SOL    HW223949   5.895   1.812   3.311
 7684SOL     OW23950   3.992   1.768   5.768
 7684SOL    HW123951   4.090   1.788   5.762
 7684SOL    HW223952   3.949   1.792   5.681
 7685SOL     OW23953   3.643   3.561   0.997
 7685SOL    HW123954   3.597   3.614   0.926
 7685SOL    HW223955   3.687   3.481   0.955
 7686SOL     OW23956   3.027   0.342   4.036
 7686SOL    HW123957   2.992   0.272   4.099
 7686SOL    HW223958   3.119   0.316   4.006
 7687SOL     OW23959   4.317   4.962   5.240
 7687SOL    HW123960   4.278   4.969   5.148
 7687SOL    HW223961   4.344   5.053   5.272
 7688SOL     OW23962   6.951   6.791   4.195
 7688SOL    HW123963   6.930   6.825   4.286
 7688SOL    HW223964   0.005   6.845   4.155
 7689SOL     OW23965   3.891   6.615   4.424
 7689SOL    HW123966   3.910   6.630   4.521
 7689SOL    HW223967   3.824   6.541   4.414
 7690SOL     OW23968   6.951   5.955   3.346
 7690SOL    HW123969   6.862   5.997   3.363
 7690SOL    HW223970   6.938   5.863   3.309
 7691SOL     OW23971   5.366   4.258   4.773
 7691SOL    HW123972   5.316   4.250   4.859
 7691SOL    HW223973   5.464   4.253   4.791
 7692SOL     OW23974   1.875   6.412   1.699
 7692SOL    HW123975   1.845   6.507   1.696
 7692SOL    HW223976   1.942   6.396   1.627
 7693SOL     OW23977   5.193   1.237   6.372
 7693SOL    HW123978   5.279   1.208   6.331
 7693SOL    HW223979   5.208   1.258   6.469
 7694SOL     OW23980   6.979   5.150   4.545
 7694SOL    HW123981   0.028   5.199   4.598
 7694SOL    HW223982   6.890   5.196   4.556
 7695SOL     OW23983   4.204   0.121   6.605
 7695SOL    HW123984   4.284   0.152   6.657
 7695SOL    HW223985   4.164   0.199   6.557
 7696SOL     OW23986   0.287   2.983   5.545
 7696SOL    HW123987   0.271   2.900   5.492
 7696SOL    HW223988   0.273   3.064   5.487
 7697SOL     OW23989   4.299   1.919   1.709
 7697SOL    HW123990   4.276   1.829   1.744
 7697SOL    HW223991   4.397   1.936   1.721
 7698SOL     OW23992   0.029   3.599   5.619
 7698SOL    HW123993   0.067   3.519   5.666
 7698SOL    HW223994   0.021   3.675   5.684
 7699SOL     OW23995   2.230   4.660   6.967
 7699SOL    HW123996   2.180   4.608   0.017
 7699SOL    HW223997   2.236   4.605   6.883
 7700SOL     OW23998   5.246   6.697   5.113
 7700SOL    HW123999   5.303   6.778   5.118
 7700SOL    HW224000   5.256   6.653   5.024
 7701SOL     OW24001   6.116   1.705   5.036
 7701SOL    HW124002   6.134   1.652   5.119
 7701SOL    HW224003   6.099   1.644   4.959
 7702SOL     OW24004   2.515   6.227   6.298
 7702SOL    HW124005   2.547   6.321   6.286
 7702SOL    HW224006   2.425   6.227   6.343
 7703SOL     OW24007   0.215   1.998   6.598
 7703SOL    HW124008   0.219   1.946   6.514
 7703SOL    HW224009   0.305   1.998   6.643
 7704SOL     OW24010   4.598   4.687   6.934
 7704SOL    HW124011   4.590   4.730   6.843
 7704SOL    HW224012   4.609   4.588   6.923
 7705SOL     OW24013   3.321   5.349   4.883
 7705SOL    HW124014   3.312   5.254   4.913
 7705SOL    HW224015   3.350   5.406   4.960
 7706SOL     OW24016   6.858   0.758   5.137
 7706SOL    HW124017   6.894   0.672   5.101
 7706SOL    HW224018   6.920   0.792   5.208
 7707SOL     OW24019   0.293   4.935   6.180
 7707SOL    HW124020   0.255   4.967   6.267
 7707SOL    HW224021   0.392   4.924   6.189
 7708SOL     OW24022   4.387   6.599   4.775
 7708SOL    HW124023   4.335   6.536   4.832
 7708SOL    HW224024   4.448   6.547   4.715
 7709SOL     OW24025   3.956   2.154   1.838
 7709SOL    HW124026   3.872   2.182   1.885
 7709SOL    HW224027   3.938   2.074   1.782
 7710SOL     OW24028   2.911   1.820   0.056
 7710SOL    HW124029   2.950   1.888   0.118
 7710SOL    HW224030   2.834   1.860   0.007
 7711SOL     OW24031   5.886   6.297   6.187
 7711SOL    HW124032   5.856   6.391   6.203
 7711SOL    HW224033   5.873   6.243   6.270
 7712SOL     OW24034   5.270   5.651   1.028
 7712SOL    HW124035   5.176   5.679   1.012
 7712SOL    HW224036   5.303   5.598   0.950
 7713SOL     OW24037   1.325   4.799   6.642
 7713SOL    HW124038   1.260   4.741   6.593
 7713SOL    HW224039   1.338   4.764   6.735
 7714SOL     OW24040   5.389   4.431   3.760
 7714SOL    HW124041   5.449   4.495   3.808
 7714SOL    HW224042   5.305   4.418   3.813
 7715SOL     OW24043   4.670   1.863   0.850
 7715SOL    HW124044   4.584   1.912   0.868
 7715SOL    HW224045   4.747   1.919   0.878
 7716SOL     OW24046   4.576   2.526   2.986
 7716SOL    HW124047   4.598   2.538   3.083
 7716SOL    HW224048   4.580   2.429   2.963
 7717SOL     OW24049   3.689   0.901   6.319
 7717SOL    HW124050   3.638   0.910   6.404
 7717SOL    HW224051   3.669   0.812   6.277
 7718SOL     OW24052   2.850   5.684   3.762
 7718SOL    HW124053   2.857   5.600   3.816
 7718SOL    HW224054   2.812   5.757   3.820
 7719SOL     OW24055   6.476   1.712   4.965
 7719SOL    HW124056   6.514   1.731   5.056
 7719SOL    HW224057   6.470   1.798   4.914
 7720SOL     OW24058   5.853   5.549   1.375
 7720SOL    HW124059   5.874   5.491   1.296
 7720SOL    HW224060   5.756   5.544   1.397
 7721SOL     OW24061   1.422   4.421   2.425
 7721SOL    HW124062   1.512   4.458   2.449
 7721SOL    HW224063   1.374   4.486   2.366
 7722SOL     OW24064   0.270   5.243   3.979
 7722SOL    HW124065   0.368   5.248   4.001
 7722SOL    HW224066   0.236   5.335   3.959
 7723SOL     OW24067   6.562   3.052   0.147
 7723SOL    HW124068   6.636   3.060   0.214
 7723SOL    HW224069   6.531   3.143   0.120
 7724SOL     OW24070   1.897   4.647   1.215
 7724SOL    HW124071   1.943   4.722   1.264
 7724SOL    HW224072   1.898   4.665   1.117
 7725SOL     OW24073   4.898   3.252   4.731
 7725SOL    HW124074   4.892   3.344   4.770
 7725SOL    HW224075   4.991   3.217   4.743
 7726SOL     OW24076   6.778   4.487   3.291
 7726SOL    HW124077   6.831   4.564   3.327
 7726SOL    HW224078   6.697   4.473   3.348
 7727SOL     OW24079   6.818   2.749   1.648
 7727SOL    HW124080   6.748   2.789   1.706
 7727SOL    HW224081   6.814   2.649   1.656
 7728SOL     OW24082   2.588   2.304   2.681
 7728SOL    HW124083   2.645   2.299   2.764
 7728SOL    HW224084   2.523   2.380   2.690
 7729SOL     OW24085   5.569   2.373   0.569
 7729SOL    HW124086   5.585   2.462   0.612
 7729SOL    HW224087   5.472   2.364   0.545
 7730SOL     OW24088   4.871   0.834   2.292
 7730SOL    HW124089   4.899   0.747   2.251
 7730SOL    HW224090   4.869   0.905   2.222
 7731SOL     OW24091   6.238   1.062   6.348
 7731SOL    HW124092   6.334   1.042   6.327
 7731SOL    HW224093   6.180   1.026   6.274
 7732SOL     OW24094   4.193   5.127   0.758
 7732SOL    HW124095   4.219   5.031   0.761
 7732SOL    HW224096   4.247   5.174   0.688
 7733SOL     OW24097   3.091   0.100   2.224
 7733SOL    HW124098   3.082   0.001   2.230
 7733SOL    HW224099   3.178   0.128   2.266
 7734SOL     OW24100   1.536   1.535   3.566
 7734SOL    HW124101   1.458   1.495   3.517
 7734SOL    HW224102   1.621   1.512   3.518
 7735SOL     OW24103   5.064   4.096   0.445
 7735SOL    HW124104   5.011   4.167   0.398
 7735SOL    HW224105   5.029   4.006   0.421
 7736SOL     OW24106   6.280   4.631   6.215
 7736SOL    HW124107   6.256   4.704   6.278
 7736SOL    HW224108   6.347   4.570   6.258
 7737SOL     OW24109   5.157   1.163   0.475
 7737SOL    HW124110   5.182   1.101   0.401
 7737SOL    HW224111   5.149   1.256   0.439
 7738SOL     OW24112   2.294   4.934   6.726
 7738SOL    HW124113   2.359   4.929   6.651
 7738SOL    HW224114   2.292   5.027   6.762
 7739SOL     OW24115   6.240   3.217   1.652
 7739SOL    HW124116   6.211   3.129   1.613
 7739SOL    HW224117   6.338   3.213   1.672
 7740SOL     OW24118   0.558   6.520   3.311
 7740SOL    HW124119   0.587   6.614   3.291
 7740SOL    HW224120   0.565   6.503   3.409
 7741SOL     OW24121   2.796   5.431   4.393
 7741SOL    HW124122   2.816   5.466   4.301
 7741SOL    HW224123   2.799   5.506   4.459
 7742SOL     OW24124   6.208   0.795   3.406
 7742SOL    HW124125   6.149   0.722   3.439
 7742SOL    HW224126   6.288   0.804   3.466
 7743SOL     OW24127   4.579   2.621   2.698
 7743SOL    HW124128   4.614   2.703   2.652
 7743SOL    HW224129   4.592   2.629   2.796
 7744SOL     OW24130   0.020   0.287   5.185
 7744SOL    HW124131   7.002   0.340   5.109
 7744SOL    HW224132   0.070   0.348   5.246
 7745SOL     OW24133   5.063   3.461   5.555
 7745SOL    HW124134   5.006   3.406   5.616
 7745SOL    HW224135   5.024   3.552   5.547
 7746SOL     OW24136   1.732   1.002   0.344
 7746SOL    HW124137   1.802   1.065   0.379
 7746SOL    HW224138   1.734   1.003   0.244
 7747SOL     OW24139   5.721   5.538   0.780
 7747SOL    HW124140   5.729   5.467   0.850
 7747SOL    HW224141   5.655   5.606   0.809
 7748SOL     OW24142   3.417   3.281   6.969
 7748SOL    HW124143   3.345   3.245   0.008
 7748SOL    HW224144   3.495   3.218   6.969
 7749SOL     OW24145   5.779   3.267   6.386
 7749SOL    HW124146   5.802   3.187   6.330
 7749SOL    HW224147   5.833   3.267   6.469
 7750SOL     OW24148   5.858   4.908   2.774
 7750SOL    HW124149   5.811   4.823   2.797
 7750SOL    HW224150   5.939   4.918   2.832
 7751SOL     OW24151   0.146   2.459   2.234
 7751SOL    HW124152   0.223   2.476   2.173
 7751SOL    HW224153   0.097   2.378   2.203
 7752SOL     OW24154   4.763   2.191   3.533
 7752SOL    HW124155   4.717   2.205   3.446
 7752SOL    HW224156   4.854   2.153   3.517
 7753SOL     OW24157   3.104   1.849   4.625
 7753SOL    HW124158   3.124   1.815   4.717
 7753SOL    HW224159   3.108   1.949   4.625
 7754SOL     OW24160   5.555   6.078   2.425
 7754SOL    HW124161   5.565   6.114   2.333
 7754SOL    HW224162   5.459   6.084   2.453
 7755SOL     OW24163   0.877   5.003   4.179
 7755SOL    HW124164   0.956   5.005   4.241
 7755SOL    HW224165   0.795   4.978   4.230
 7756SOL     OW24166   2.858   5.193   1.954
 7756SOL    HW124167   2.848   5.110   2.009
 7756SOL    HW224168   2.852   5.170   1.857
 7757SOL     OW24169   0.057   4.643   2.175
 7757SOL    HW124170   0.097   4.593   2.099
 7757SOL    HW224171   0.073   4.741   2.162
 7758SOL     OW24172   1.585   1.367   4.979
 7758SOL    HW124173   1.521   1.338   4.907
 7758SOL    HW224174   1.565   1.317   5.063
 7759SOL     OW24175   3.104   2.290   1.400
 7759SOL    HW124176   3.163   2.218   1.438
 7759SOL    HW224177   3.150   2.378   1.408
 7760SOL     OW24178   5.008   3.168   0.157
 7760SOL    HW124179   5.066   3.110   0.214
 7760SOL    HW224180   5.059   3.249   0.130
 7761SOL     OW24181   4.816   5.482   3.699
 7761SOL    HW124182   4.863   5.480   3.611
 7761SOL    HW224183   4.865   5.543   3.762
 7762SOL     OW24184   5.736   1.613   1.935
 7762SOL    HW124185   5.681   1.559   1.999
 7762SOL    HW224186   5.685   1.694   1.908
 7763SOL     OW24187   2.374   0.462   4.042
 7763SOL    HW124188   2.467   0.439   4.015
 7763SOL    HW224189   2.339   0.393   4.106
 7764SOL     OW24190   2.119   4.127   6.000
 7764SOL    HW124191   2.116   4.129   5.900
 7764SOL    HW224192   2.065   4.202   6.037
 7765SOL     OW24193   5.479   3.089   4.894
 7765SOL    HW124194   5.501   3.186   4.886
 7765SOL    HW224195   5.478   3.062   4.990
 7766SOL     OW24196   6.328   3.682   6.477
 7766SOL    HW124197   6.291   3.765   6.517
 7766SOL    HW224198   6.428   3.683   6.483
 7767SOL     OW24199   3.411   0.763   4.054
 7767SOL    HW124200   3.399   0.857   4.022
 7767SOL    HW224201   3.363   0.751   4.141
 7768SOL     OW24202   4.154   5.288   3.615
 7768SOL    HW124203   4.108   5.326   3.534
 7768SOL    HW224204   4.154   5.357   3.688
 7769SOL     OW24205   3.596   2.789   5.592
 7769SOL    HW124206   3.548   2.703   5.573
 7769SOL    HW224207   3.595   2.847   5.511
 7770SOL     OW24208   1.873   3.004   4.381
 7770SOL    HW124209   1.968   2.973   4.389
 7770SOL    HW224210   1.853   3.068   4.455
 7771SOL     OW24211   2.536   3.541   6.444
 7771SOL    HW124212   2.613   3.519   6.384
 7771SOL    HW224213   2.498   3.630   6.418
 7772SOL     OW24214   5.236   6.771   2.014
 7772SOL    HW124215   5.296   6.781   1.934
 7772SOL    HW224216   5.246   6.852   2.072
 7773SOL     OW24217   2.648   6.290   0.245
 7773SOL    HW124218   2.643   6.363   0.176
 7773SOL    HW224219   2.598   6.318   0.327
 7774SOL     OW24220   4.594   1.481   2.677
 7774SOL    HW124221   4.655   1.557   2.655
 7774SOL    HW224222   4.546   1.452   2.595
 7775SOL     OW24223   2.651   2.249   1.467
 7775SOL    HW124224   2.596   2.273   1.387
 7775SOL    HW224225   2.718   2.179   1.441
 7776SOL     OW24226   2.172   1.380   4.621
 7776SOL    HW124227   2.149   1.293   4.666
 7776SOL    HW224228   2.121   1.454   4.665
 7777SOL     OW24229   6.124   6.098   3.728
 7777SOL    HW124230   6.089   6.076   3.637
 7777SOL    HW224231   6.108   6.022   3.790
 7778SOL     OW24232   6.830   4.627   2.776
 7778SOL    HW124233   6.796   4.582   2.858
 7778SOL    HW224234   6.929   4.619   2.771
 7779SOL     OW24235   4.532   6.010   2.167
 7779SOL    HW124236   4.451   6.037   2.219
 7779SOL    HW224237   4.602   6.080   2.175
 7780SOL     OW24238   5.695   6.098   4.994
 7780SOL    HW124239   5.719   6.168   5.062
 7780SOL    HW224240   5.734   6.122   4.906
 7781SOL     OW24241   1.391   2.835   0.830
 7781SOL    HW124242   1.481   2.805   0.862
 7781SOL    HW224243   1.368   2.922   0.873
 7782SOL     OW24244   5.085   2.993   5.018
 7782SOL    HW124245   5.137   3.062   5.070
 7782SOL    HW224246   5.002   3.034   4.982
 7783SOL     OW24247   1.959   6.276   4.397
 7783SOL    HW124248   1.987   6.261   4.302
 7783SOL    HW224249   1.923   6.191   4.435
 7784SOL     OW24250   1.543   1.944   1.412
 7784SOL    HW124251   1.585   1.857   1.440
 7784SOL    HW224252   1.554   2.012   1.485
 7785SOL     OW24253   6.852   6.729   3.274
 7785SOL    HW124254   6.759   6.725   3.236
 7785SOL    HW224255   6.886   6.823   3.268
 7786SOL     OW24256   4.390   1.029   5.513
 7786SOL    HW124257   4.431   1.114   5.478
 7786SOL    HW224258   4.446   0.951   5.485
 7787SOL     OW24259   2.678   2.307   1.846
 7787SOL    HW124260   2.637   2.391   1.812
 7787SOL    HW224261   2.761   2.329   1.897
 7788SOL     OW24262   0.316   4.970   1.588
 7788SOL    HW124263   0.376   4.892   1.609
 7788SOL    HW224264   0.287   4.964   1.492
 7789SOL     OW24265   3.419   1.337   5.958
 7789SOL    HW124266   3.517   1.356   5.953
 7789SOL    HW224267   3.381   1.330   5.866
 7790SOL     OW24268   4.335   5.053   1.693
 7790SOL    HW124269   4.414   4.993   1.682
 7790SOL    HW224270   4.252   5.007   1.661
 7791SOL     OW24271   2.874   5.851   2.651
 7791SOL    HW124272   2.806   5.915   2.614
 7791SOL    HW224273   2.913   5.798   2.576
 7792SOL     OW24274   0.918   1.566   3.142
 7792SOL    HW124275   1.007   1.571   3.186
 7792SOL    HW224276   0.901   1.651   3.092
 7793SOL     OW24277   4.864   0.648   0.319
 7793SOL    HW124278   4.945   0.615   0.368
 7793SOL    HW224279   4.808   0.704   0.381
 7794SOL     OW24280   0.851   6.711   3.094
 7794SOL    HW124281   0.923   6.667   3.040
 7794SOL    HW224282   0.775   6.735   3.035
 7795SOL     OW24283   3.258   4.556   0.703
 7795SOL    HW124284   3.227   4.616   0.629
 7795SOL    HW224285   3.222   4.590   0.790
 7796SOL     OW24286   3.344   2.705   0.330
 7796SOL    HW124287   3.350   2.717   0.231
 7796SOL    HW224288   3.372   2.612   0.355
 7797SOL     OW24289   0.604   5.715   3.206
 7797SOL    HW124290   0.613   5.771   3.289
 7797SOL    HW224291   0.514   5.729   3.165
 7798SOL     OW24292   1.727   3.223   0.685
 7798SOL    HW124293   1.749   3.287   0.612
 7798SOL    HW224294   1.762   3.258   0.772
 7799SOL     OW24295   3.291   5.705   3.742
 7799SOL    HW124296   3.263   5.766   3.816
 7799SOL    HW224297   3.243   5.730   3.658
 7800SOL     OW24298   0.518   6.707   2.120
 7800SOL    HW124299   0.418   6.720   2.118
 7800SOL    HW224300   0.554   6.745   2.205
 7801SOL     OW24301   1.033   2.139   1.861
 7801SOL    HW124302   1.131   2.139   1.839
 7801SOL    HW224303   0.980   2.125   1.778
 7802SOL     OW24304   6.980   3.356   4.547
 7802SOL    HW124305   6.956   3.446   4.584
 7802SOL    HW224306   6.937   3.346   4.457
 7803SOL     OW24307   2.861   2.626   5.849
 7803SOL    HW124308   2.809   2.542   5.857
 7803SOL    HW224309   2.949   2.616   5.896
 7804SOL     OW24310   3.504   1.806   5.154
 7804SOL    HW124311   3.561   1.728   5.129
 7804SOL    HW224312   3.507   1.874   5.080
 7805SOL     OW24313   5.202   2.866   0.052
 7805SOL    HW124314   5.116   2.862   0.102
 7805SOL    HW224315   5.278   2.873   0.116
 7806SOL     OW24316   6.942   1.687   6.261
 7806SOL    HW124317   6.984   1.693   6.352
 7806SOL    HW224318   6.913   1.779   6.232
 7807SOL     OW24319   2.049   5.016   6.122
 7807SOL    HW124320   1.956   5.052   6.119
 7807SOL    HW224321   2.107   5.068   6.058
 7808SOL     OW24322   6.680   3.859   3.750
 7808SOL    HW124323   6.664   3.798   3.827
 7808SOL    HW224324   6.736   3.813   3.682
 7809SOL     OW24325   4.945   5.553   2.521
 7809SOL    HW124326   4.884   5.497   2.576
 7809SOL    HW224327   5.010   5.494   2.472
 7810SOL     OW24328   2.641   6.462   6.183
 7810SOL    HW124329   2.568   6.444   6.116
 7810SOL    HW224330   2.653   6.561   6.193
 7811SOL     OW24331   1.373   5.885   3.194
 7811SOL    HW124332   1.297   5.827   3.222
 7811SOL    HW224333   1.439   5.832   3.141
 7812SOL     OW24334   3.217   0.733   5.973
 7812SOL    HW124335   3.203   0.809   6.036
 7812SOL    HW224336   3.146   0.735   5.902
 7813SOL     OW24337   5.266   0.419   0.886
 7813SOL    HW124338   5.246   0.322   0.875
 7813SOL    HW224339   5.223   0.471   0.812
 7814SOL     OW24340   6.297   2.772   2.431
 7814SOL    HW124341   6.377   2.828   2.410
 7814SOL    HW224342   6.244   2.757   2.348
 7815SOL     OW24343   5.139   5.280   4.800
 7815SOL    HW124344   5.110   5.197   4.753
 7815SOL    HW224345   5.230   5.266   4.840
 7816SOL     OW24346   0.289   1.239   5.454
 7816SOL    HW124347   0.287   1.304   5.530
 7816SOL    HW224348   0.383   1.213   5.434
 7817SOL     OW24349   4.018   2.693   7.017
 7817SOL    HW124350   4.055   2.760   6.953
 7817SOL    HW224351   4.090   2.660   0.057
 7818SOL     OW24352   5.896   0.616   3.288
 7818SOL    HW124353   5.934   0.684   3.226
 7818SOL    HW224354   5.934   0.629   3.379
 7819SOL     OW24355   1.468   3.071   4.735
 7819SOL    HW124356   1.461   3.159   4.688
 7819SOL    HW224357   1.437   2.998   4.673
 7820SOL     OW24358   1.128   1.027   5.286
 7820SOL    HW124359   1.213   1.019   5.337
 7820SOL    HW224360   1.106   1.123   5.271
 7821SOL     OW24361   3.870   6.520   0.043
 7821SOL    HW124362   3.915   6.604   0.074
 7821SOL    HW224363   3.773   6.524   0.067
 7822SOL     OW24364   7.006   1.098   4.835
 7822SOL    HW124365   0.033   1.025   4.885
 7822SOL    HW224366   7.020   1.185   4.883
 7823SOL     OW24367   2.638   3.527   5.326
 7823SOL    HW124368   2.600   3.436   5.347
 7823SOL    HW224369   2.583   3.597   5.371
 7824SOL     OW24370   5.240   3.714   2.685
 7824SOL    HW124371   5.292   3.798   2.700
 7824SOL    HW224372   5.144   3.737   2.667
 7825SOL     OW24373   3.497   3.528   2.615
 7825SOL    HW124374   3.420   3.520   2.678
 7825SOL    HW224375   3.557   3.448   2.625
 7826SOL     OW24376   6.839   0.535   1.119
 7826SOL    HW124377   6.755   0.563   1.166
 7826SOL    HW224378   6.884   0.462   1.171
 7827SOL     OW24379   4.401   3.493   0.533
 7827SOL    HW124380   4.400   3.396   0.507
 7827SOL    HW224381   4.442   3.547   0.459
 7828SOL     OW24382   0.211   5.936   0.533
 7828SOL    HW124383   0.123   5.908   0.571
 7828SOL    HW224384   0.238   5.871   0.461
 7829SOL     OW24385   4.150   3.524   3.126
 7829SOL    HW124386   4.070   3.464   3.130
 7829SOL    HW224387   4.164   3.567   3.216
 7830SOL     OW24388   5.462   3.877   0.441
 7830SOL    HW124389   5.557   3.899   0.464
 7830SOL    HW224390   5.419   3.956   0.396
 7831SOL     OW24391   2.025   2.674   6.571
 7831SOL    HW124392   2.106   2.658   6.515
 7831SOL    HW224393   2.049   2.729   6.651
 7832SOL     OW24394   2.688   2.360   5.383
 7832SOL    HW124395   2.621   2.345   5.311
 7832SOL    HW224396   2.648   2.336   5.472
 7833SOL     OW24397   1.086   0.139   0.990
 7833SOL    HW124398   1.057   0.231   0.963
 7833SOL    HW224399   1.032   0.110   1.069
 7834SOL     OW24400   6.592   0.314   1.486
 7834SOL    HW124401   6.510   0.367   1.465
 7834SOL    HW224402   6.600   0.237   1.423
 7835SOL     OW24403   2.750   2.105   4.154
 7835SOL    HW124404   2.737   2.042   4.231
 7835SOL    HW224405   2.666   2.109   4.100
 7836SOL     OW24406   2.281   0.784   6.693
 7836SOL    HW124407   2.210   0.714   6.691
 7836SOL    HW224408   2.307   0.808   6.599
 7837SOL     OW24409   4.870   6.164   3.030
 7837SOL    HW124410   4.830   6.073   3.032
 7837SOL    HW224411   4.970   6.156   3.025
 7838SOL     OW24412   3.248   6.507   3.889
 7838SOL    HW124413   3.343   6.481   3.871
 7838SOL    HW224414   3.190   6.426   3.882
 7839SOL     OW24415   7.000   4.361   3.633
 7839SOL    HW124416   6.967   4.345   3.540
 7839SOL    HW224417   0.057   4.425   3.631
 7840SOL     OW24418   5.187   3.083   5.658
 7840SOL    HW124419   5.282   3.052   5.666
 7840SOL    HW224420   5.167   3.149   5.730
 7841SOL     OW24421   1.757   1.817   6.115
 7841SOL    HW124422   1.752   1.749   6.188
 7841SOL    HW224423   1.846   1.862   6.116
 7842SOL     OW24424   2.674   0.618   1.995
 7842SOL    HW124425   2.588   0.662   2.022
 7842SOL    HW224426   2.751   0.680   2.015
 7843SOL     OW24427   0.052   3.419   1.108
 7843SOL    HW124428   0.045   3.434   1.207
 7843SOL    HW224429   0.098   3.332   1.091
 7844SOL     OW24430   3.481   1.309   4.154
 7844SOL    HW124431   3.555   1.265   4.102
 7844SOL    HW224432   3.517   1.384   4.208
 7845SOL     OW24433   1.139   0.934   3.880
 7845SOL    HW124434   1.086   0.968   3.802
 7845SOL    HW224435   1.226   0.896   3.847
 7846SOL     OW24436   3.742   6.697   2.068
 7846SOL    HW124437   3.700   6.608   2.049
 7846SOL    HW224438   3.792   6.728   1.988
 7847SOL     OW24439   6.891   0.486   0.195
 7847SOL    HW124440   6.952   0.433   0.137
 7847SOL    HW224441   6.940   0.514   0.278
 7848SOL     OW24442   4.164   4.138   0.831
 7848SOL    HW124443   4.199   4.191   0.754
 7848SOL    HW224444   4.237   4.080   0.868
 7849SOL     OW24445   5.698   3.998   5.067
 7849SOL    HW124446   5.731   3.919   5.119
 7849SOL    HW224447   5.775   4.042   5.021
 7850SOL     OW24448   0.695   1.479   4.207
 7850SOL    HW124449   0.707   1.405   4.141
 7850SOL    HW224450   0.767   1.474   4.276
 7851SOL     OW24451   4.507   6.659   0.701
 7851SOL    HW124452   4.480   6.630   0.793
 7851SOL    HW224453   4.600   6.695   0.704
 7852SOL     OW24454   1.669   6.985   6.892
 7852SOL    HW124455   1.695   0.037   6.957
 7852SOL    HW224456   1.616   6.915   6.939
 7853SOL     OW24457   1.784   2.701   0.498
 7853SOL    HW124458   1.792   2.786   0.446
 7853SOL    HW224459   1.781   2.624   0.434
 7854SOL     OW24460   3.369   4.069   2.979
 7854SOL    HW124461   3.323   4.017   2.907
 7854SOL    HW224462   3.367   4.017   3.065
 7855SOL     OW24463   3.688   0.018   5.304
 7855SOL    HW124464   3.632   0.059   5.376
 7855SOL    HW224465   3.759   6.980   5.344
 7856SOL     OW24466   4.028   3.575   6.410
 7856SOL    HW124467   3.965   3.499   6.428
 7856SOL    HW224468   4.104   3.572   6.474
 7857SOL     OW24469   0.921   2.013   4.709
 7857SOL    HW124470   0.946   2.078   4.782
 7857SOL    HW224471   0.838   1.964   4.736
 7858SOL     OW24472   6.208   4.303   3.099
 7858SOL    HW124473   6.149   4.242   3.152
 7858SOL    HW224474   6.274   4.348   3.160
 7859SOL     OW24475   1.103   5.945   6.791
 7859SOL    HW124476   1.159   5.927   6.871
 7859SOL    HW224477   1.008   5.956   6.819
 7860SOL     OW24478   3.415   0.292   1.847
 7860SOL    HW124479   3.326   0.327   1.818
 7860SOL    HW224480   3.440   0.214   1.790
 7861SOL     OW24481   5.711   3.966   0.492
 7861SOL    HW124482   5.690   4.022   0.573
 7861SOL    HW224483   5.795   3.915   0.508
 7862SOL     OW24484   3.129   4.495   1.678
 7862SOL    HW124485   3.061   4.538   1.738
 7862SOL    HW224486   3.097   4.501   1.583
 7863SOL     OW24487   5.960   5.800   2.728
 7863SOL    HW124488   5.914   5.805   2.817
 7863SOL    HW224489   5.912   5.734   2.670
 7864SOL     OW24490   0.578   5.604   4.284
 7864SOL    HW124491   0.504   5.565   4.229
 7864SOL    HW224492   0.539   5.654   4.362
 7865SOL     OW24493   3.736   0.923   2.647
 7865SOL    HW124494   3.676   0.864   2.592
 7865SOL    HW224495   3.764   1.002   2.592
 7866SOL     OW24496   2.333   2.297   3.975
 7866SOL    HW124497   2.345   2.390   4.011
 7866SOL    HW224498   2.291   2.239   4.044
 7867SOL     OW24499   5.753   3.883   2.023
 7867SOL    HW124500   5.668   3.934   2.034
 7867SOL    HW224501   5.738   3.802   1.966
 7868SOL     OW24502   5.475   6.902   0.992
 7868SOL    HW124503   5.391   6.924   1.042
 7868SOL    HW224504   5.510   6.814   1.024
 7869SOL     OW24505   6.630   2.027   3.939
 7869SOL    HW124506   6.635   1.928   3.950
 7869SOL    HW224507   6.646   2.051   3.843
 7870SOL     OW24508   0.161   6.785   3.179
 7870SOL    HW124509   0.209   6.700   3.155
 7870SOL    HW224510   0.128   6.780   3.273
 7871SOL     OW24511   5.301   3.178   4.051
 7871SOL    HW124512   5.279   3.275   4.062
 7871SOL    HW224513   5.233   3.123   4.100
 7872SOL     OW24514   6.508   3.221   4.257
 7872SOL    HW124515   6.426   3.165   4.264
 7872SOL    HW224516   6.482   3.317   4.241
 7873SOL     OW24517   6.691   5.399   5.040
 7873SOL    HW124518   6.645   5.441   5.118
 7873SOL    HW224519   6.637   5.320   5.008
 7874SOL     OW24520   6.080   1.269   0.557
 7874SOL    HW124521   6.093   1.264   0.656
 7874SOL    HW224522   6.105   1.360   0.525
 7875SOL     OW24523   4.540   3.260   0.032
 7875SOL    HW124524   4.591   3.246   6.967
 7875SOL    HW224525   4.596   3.232   0.110
 7876SOL     OW24526   6.802   0.743   4.598
 7876SOL    HW124527   6.789   0.779   4.505
 7876SOL    HW224528   6.753   0.800   4.663
 7877SOL     OW24529   6.340   2.409   2.641
 7877SOL    HW124530   6.275   2.373   2.575
 7877SOL    HW224531   6.408   2.466   2.594
 7878SOL     OW24532   4.569   4.340   1.318
 7878SOL    HW124533   4.608   4.430   1.297
 7878SOL    HW224534   4.633   4.288   1.374
 7879SOL     OW24535   5.491   0.695   5.345
 7879SOL    HW124536   5.462   0.781   5.304
 7879SOL    HW224537   5.522   0.711   5.438
 7880SOL     OW24538   1.033   6.647   6.555
 7880SOL    HW124539   1.053   6.555   6.519
 7880SOL    HW224540   0.936   6.666   6.546
 7881SOL     OW24541   0.695   5.170   3.355
 7881SOL    HW124542   0.608   5.122   3.341
 7881SOL    HW224543   0.722   5.162   3.451
 7882SOL     OW24544   0.927   4.202   1.665
 7882SOL    HW124545   0.916   4.301   1.667
 7882SOL    HW224546   0.950   4.168   1.756
 7883SOL     OW24547   3.681   2.119   3.242
 7883SOL    HW124548   3.775   2.139   3.270
 7883SOL    HW224549   3.680   2.091   3.146
 7884SOL     OW24550   0.911   3.751   4.494
 7884SOL    HW124551   0.929   3.849   4.486
 7884SOL    HW224552   0.977   3.700   4.438
 7885SOL     OW24553   5.590   5.285   3.323
 7885SOL    HW124554   5.573   5.324   3.414
 7885SOL    HW224555   5.505   5.282   3.272
 7886SOL     OW24556   5.022   3.449   2.921
 7886SOL    HW124557   5.034   3.478   3.017
 7886SOL    HW224558   4.995   3.353   2.919
 7887SOL     OW24559   2.002   2.466   1.565
 7887SOL    HW124560   1.989   2.548   1.508
 7887SOL    HW224561   2.036   2.494   1.655
 7888SOL     OW24562   6.250   0.897   4.910
 7888SOL    HW124563   6.224   0.902   4.814
 7888SOL    HW224564   6.328   0.957   4.927
 7889SOL     OW24565   5.507   5.217   6.940
 7889SOL    HW124566   5.448   5.144   6.976
 7889SOL    HW224567   5.561   5.256   7.015
 7890SOL     OW24568   2.181   3.073   4.122
 7890SOL    HW124569   2.171   3.071   4.221
 7890SOL    HW224570   2.119   3.006   4.081
 7891SOL     OW24571   6.261   1.690   4.279
 7891SOL    HW124572   6.343   1.647   4.240
 7891SOL    HW224573   6.242   1.648   4.368
 7892SOL     OW24574   0.520   1.383   5.055
 7892SOL    HW124575   0.531   1.462   4.995
 7892SOL    HW224576   0.585   1.389   5.130
 7893SOL     OW24577   5.240   0.242   0.199
 7893SOL    HW124578   5.169   0.309   0.220
 7893SOL    HW224579   5.330   0.283   0.212
 7894SOL     OW24580   3.222   1.433   6.166
 7894SOL    HW124581   3.262   1.351   6.125
 7894SOL    HW224582   3.168   1.407   6.246
 7895SOL     OW24583   5.814   6.773   2.979
 7895SOL    HW124584   5.908   6.740   2.990
 7895SOL    HW224585   5.750   6.703   3.011
 7896SOL     OW24586   2.645   2.296   0.487
 7896SOL    HW124587   2.640   2.342   0.399
 7896SOL    HW224588   2.597   2.349   0.556
 7897SOL     OW24589   3.464   2.673   0.659
 7897SOL    HW124590   3.428   2.750   0.713
 7897SOL    HW224591   3.392   2.635   0.601
 7898SOL     OW24592   5.573   6.460   3.461
 7898SOL    HW124593   5.566   6.537   3.524
 7898SOL    HW224594   5.565   6.493   3.367
 7899SOL     OW24595   6.457   4.217   4.199
 7899SOL    HW124596   6.512   4.146   4.154
 7899SOL    HW224597   6.508   4.255   4.276
 7900SOL     OW24598   0.952   3.638   1.149
 7900SOL    HW124599   0.916   3.596   1.066
 7900SOL    HW224600   1.041   3.679   1.130
 7901SOL     OW24601   0.797   1.667   6.793
 7901SOL    HW124602   0.737   1.617   6.854
 7901SOL    HW224603   0.856   1.602   6.744
 7902SOL     OW24604   1.303   0.073   2.634
 7902SOL    HW124605   1.306   0.168   2.666
 7902SOL    HW224606   1.244   0.020   2.694
 7903SOL     OW24607   2.337   1.944   5.118
 7903SOL    HW124608   2.323   2.040   5.143
 7903SOL    HW224609   2.425   1.935   5.072
 7904SOL     OW24610   4.582   1.938   2.768
 7904SOL    HW124611   4.488   1.954   2.736
 7904SOL    HW224612   4.623   1.864   2.715
 7905SOL     OW24613   4.969   1.492   0.610
 7905SOL    HW124614   4.896   1.464   0.674
 7905SOL    HW224615   4.966   1.591   0.598
 7906SOL     OW24616   1.375   5.014   0.497
 7906SOL    HW124617   1.314   5.086   0.463
 7906SOL    HW224618   1.453   5.005   0.436
 7907SOL     OW24619   5.852   6.478   2.639
 7907SOL    HW124620   5.809   6.390   2.618
 7907SOL    HW224621   5.793   6.530   2.701
 7908SOL     OW24622   0.997   6.920   6.544
 7908SOL    HW124623   1.068   6.947   6.480
 7908SOL    HW224624   0.994   6.820   6.550
 7909SOL     OW24625   5.555   4.059   2.102
 7909SOL    HW124626   5.593   4.150   2.086
 7909SOL    HW224627   5.459   4.067   2.128
 7910SOL     OW24628   0.838   3.577   6.525
 7910SOL    HW124629   0.777   3.598   6.602
 7910SOL    HW224630   0.864   3.662   6.479
 7911SOL     OW24631   6.972   4.572   6.368
 7911SOL    HW124632   0.024   4.504   6.358
 7911SOL    HW224633   6.884   4.526   6.385
 7912SOL     OW24634   6.314   5.267   0.988
 7912SOL    HW124635   6.362   5.181   0.971
 7912SOL    HW224636   6.380   5.339   1.007
 7913SOL     OW24637   1.438   4.813   0.730
 7913SOL    HW124638   1.498   4.736   0.708
 7913SOL    HW224639   1.427   4.871   0.649
 7914SOL     OW24640   0.345   6.933   5.150
 7914SOL    HW124641   0.441   6.956   5.132
 7914SOL    HW224642   0.340   6.849   5.204
 7915SOL     OW24643   3.610   5.607   3.075
 7915SOL    HW124644   3.673   5.668   3.026
 7915SOL    HW224645   3.522   5.652   3.086
 7916SOL     OW24646   0.996   0.204   4.535
 7916SOL    HW124647   0.988   0.207   4.635
 7916SOL    HW224648   0.915   0.160   4.497
 7917SOL     OW24649   4.008   2.387   1.329
 7917SOL    HW124650   4.094   2.427   1.362
 7917SOL    HW224651   3.944   2.460   1.307
 7918SOL     OW24652   1.966   2.356   3.793
 7918SOL    HW124653   2.021   2.375   3.711
 7918SOL    HW224654   1.900   2.284   3.773
 7919SOL     OW24655   1.604   6.310   5.018
 7919SOL    HW124656   1.577   6.237   5.081
 7919SOL    HW224657   1.597   6.278   4.924
 7920SOL     OW24658   4.869   0.529   1.124
 7920SOL    HW124659   4.920   0.483   1.197
 7920SOL    HW224660   4.775   0.543   1.153
 7921SOL     OW24661   5.879   2.718   1.305
 7921SOL    HW124662   5.804   2.653   1.314
 7921SOL    HW224663   5.966   2.670   1.304
 7922SOL     OW24664   2.518   6.427   1.817
 7922SOL    HW124665   2.431   6.385   1.845
 7922SOL    HW224666   2.572   6.450   1.898
 7923SOL     OW24667   5.397   1.026   6.891
 7923SOL    HW124668   5.482   1.050   6.939
 7923SOL    HW224669   5.400   0.929   6.866
 7924SOL     OW24670   6.356   6.217   0.402
 7924SOL    HW124671   6.353   6.163   0.319
 7924SOL    HW224672   6.407   6.302   0.386
 7925SOL     OW24673   1.861   5.354   6.534
 7925SOL    HW124674   1.915   5.405   6.602
 7925SOL    HW224675   1.917   5.334   6.454
 7926SOL     OW24676   4.742   5.986   7.018
 7926SOL    HW124677   4.796   6.063   0.032
 7926SOL    HW224678   4.754   5.907   0.058
 7927SOL     OW24679   4.214   6.954   2.390
 7927SOL    HW124680   4.145   6.999   2.332
 7927SOL    HW224681   4.201   6.981   2.485
 7928SOL     OW24682   5.626   1.976   3.458
 7928SOL    HW124683   5.585   2.033   3.388
 7928SOL    HW224684   5.712   1.937   3.423
 7929SOL     OW24685   4.246   4.447   6.459
 7929SOL    HW124686   4.318   4.465   6.392
 7929SOL    HW224687   4.286   4.405   6.540
 7930SOL     OW24688   4.316   6.169   6.453
 7930SOL    HW124689   4.277   6.139   6.540
 7930SOL    HW224690   4.265   6.128   6.378
 7931SOL     OW24691   4.231   2.378   0.851
 7931SOL    HW124692   4.269   2.352   0.939
 7931SOL    HW224693   4.133   2.397   0.861
 7932SOL     OW24694   1.639   3.913   1.733
 7932SOL    HW124695   1.606   3.922   1.827
 7932SOL    HW224696   1.666   3.819   1.716
 7933SOL     OW24697   0.788   1.842   0.043
 7933SOL    HW124698   0.841   1.824   0.126
 7933SOL    HW224699   0.829   1.793   6.986
 7934SOL     OW24700   0.777   5.454   1.063
 7934SOL    HW124701   0.869   5.416   1.062
 7934SOL    HW224702   0.746   5.463   1.158
 7935SOL     OW24703   5.315   3.173   2.998
 7935SOL    HW124704   5.377   3.094   3.005
 7935SOL    HW224705   5.349   3.247   3.057
 7936SOL     OW24706   3.043   5.750   3.577
 7936SOL    HW124707   3.044   5.678   3.508
 7936SOL    HW224708   2.985   5.721   3.654
 7937SOL     OW24709   3.241   0.833   0.050
 7937SOL    HW124710   3.327   0.868   0.012
 7937SOL    HW224711   3.164   0.883   0.011
 7938SOL     OW24712   2.509   6.484   3.815
 7938SOL    HW124713   2.526   6.415   3.745
 7938SOL    HW224714   2.547   6.572   3.785
 7939SOL     OW24715   0.350   1.284   3.623
 7939SOL    HW124716   0.388   1.373   3.596
 7939SOL    HW224717   0.293   1.248   3.549
 7940SOL     OW24718   5.499   1.225   3.960
 7940SOL    HW124719   5.435   1.302   3.955
 7940SOL    HW224720   5.556   1.233   4.042
 7941SOL     OW24721   3.761   0.287   0.857
 7941SOL    HW124722   3.794   0.361   0.917
 7941SOL    HW224723   3.668   0.307   0.827
 7942SOL     OW24724   1.196   4.945   0.264
 7942SOL    HW124725   1.284   4.904   0.241
 7942SOL    HW224726   1.177   4.932   0.361
 7943SOL     OW24727   1.410   6.177   6.228
 7943SOL    HW124728   1.440   6.176   6.323
 7943SOL    HW224729   1.479   6.221   6.171
 7944SOL     OW24730   1.377   2.533   1.710
 7944SOL    HW124731   1.460   2.493   1.751
 7944SOL    HW224732   1.316   2.563   1.783
 7945SOL     OW24733   6.283   4.192   3.796
 7945SOL    HW124734   6.299   4.271   3.856
 7945SOL    HW224735   6.266   4.111   3.852
 7946SOL     OW24736   4.059   0.830   6.599
 7946SOL    HW124737   4.070   0.895   6.524
 7946SOL    HW224738   3.973   0.780   6.588
 7947SOL     OW24739   0.090   3.600   6.544
 7947SOL    HW124740   0.102   3.560   6.634
 7947SOL    HW224741   0.157   3.562   6.480
 7948SOL     OW24742   1.976   5.363   3.036
 7948SOL    HW124743   1.972   5.280   2.981
 7948SOL    HW224744   2.022   5.435   2.984
 7949SOL     OW24745   3.148   5.936   6.208
 7949SOL    HW124746   3.091   5.856   6.193
 7949SOL    HW224747   3.232   5.909   6.256
 7950SOL     OW24748   5.951   4.357   5.455
 7950SOL    HW124749   5.884   4.331   5.524
 7950SOL    HW224750   6.039   4.374   5.499
 7951SOL     OW24751   4.138   5.880   2.326
 7951SOL    HW124752   4.199   5.926   2.391
 7951SOL    HW224753   4.044   5.891   2.356
 7952SOL     OW24754   6.333   4.424   6.667
 7952SOL    HW124755   6.360   4.396   6.575
 7952SOL    HW224756   6.362   4.518   6.683
 7953SOL     OW24757   1.721   6.642   0.562
 7953SOL    HW124758   1.797   6.578   0.549
 7953SOL    HW224759   1.712   6.664   0.659
 7954SOL     OW24760   4.200   4.211   6.887
 7954SOL    HW124761   4.107   4.177   6.902
 7954SOL    HW224762   4.265   4.147   6.928
 7955SOL     OW24763   1.939   1.848   6.682
 7955SOL    HW124764   1.903   1.894   6.601
 7955SOL    HW224765   1.957   1.752   6.662
 7956SOL     OW24766   6.658   6.195   0.559
 7956SOL    HW124767   6.749   6.185   0.599
 7956SOL    HW224768   6.662   6.177   0.461
 7957SOL     OW24769   4.745   1.145   5.612
 7957SOL    HW124770   4.719   1.173   5.705
 7957SOL    HW224771   4.771   1.049   5.613
 7958SOL     OW24772   5.597   2.664   0.211
 7958SOL    HW124773   5.673   2.603   0.191
 7958SOL    HW224774   5.512   2.611   0.213
 7959SOL     OW24775   6.060   1.967   0.203
 7959SOL    HW124776   6.051   1.946   0.300
 7959SOL    HW224777   6.155   1.953   0.174
 7960SOL     OW24778   0.562   1.184   5.361
 7960SOL    HW124779   0.644   1.189   5.305
 7960SOL    HW224780   0.587   1.176   5.457
 7961SOL     OW24781   6.263   6.508   0.202
 7961SOL    HW124782   6.252   6.475   0.108
 7961SOL    HW224783   6.178   6.553   0.231
 7962SOL     OW24784   6.048   6.849   5.523
 7962SOL    HW124785   6.008   6.912   5.457
 7962SOL    HW224786   6.062   6.896   5.610
 7963SOL     OW24787   6.681   6.904   4.354
 7963SOL    HW124788   6.740   6.868   4.426
 7963SOL    HW224789   6.649   6.829   4.296
 7964SOL     OW24790   6.666   4.108   1.942
 7964SOL    HW124791   6.722   4.095   1.860
 7964SOL    HW224792   6.580   4.153   1.918
 7965SOL     OW24793   4.198   2.708   6.264
 7965SOL    HW124794   4.190   2.792   6.211
 7965SOL    HW224795   4.114   2.693   6.316
 7966SOL     OW24796   4.951   3.491   4.857
 7966SOL    HW124797   5.007   3.460   4.934
 7966SOL    HW224798   4.894   3.568   4.885
 7967SOL     OW24799   1.467   4.338   1.338
 7967SOL    HW124800   1.548   4.379   1.295
 7967SOL    HW224801   1.472   4.349   1.437
 7968SOL     OW24802   0.402   2.552   4.897
 7968SOL    HW124803   0.397   2.521   4.992
 7968SOL    HW224804   0.418   2.651   4.895
 7969SOL     OW24805   4.011   5.710   6.699
 7969SOL    HW124806   4.027   5.785   6.636
 7969SOL    HW224807   3.920   5.671   6.684
 7970SOL     OW24808   6.349   2.670   3.732
 7970SOL    HW124809   6.355   2.594   3.668
 7970SOL    HW224810   6.368   2.756   3.684
 7971SOL     OW24811   2.756   1.429   6.973
 7971SOL    HW124812   2.815   1.510   6.970
 7971SOL    HW224813   2.757   1.390   0.045
 7972SOL     OW24814   3.927   3.973   4.132
 7972SOL    HW124815   3.957   3.907   4.201
 7972SOL    HW224816   3.862   4.037   4.174
 7973SOL     OW24817   5.772   4.230   2.644
 7973SOL    HW124818   5.679   4.217   2.609
 7973SOL    HW224819   5.808   4.142   2.673
 7974SOL     OW24820   0.127   2.782   5.783
 7974SOL    HW124821   0.137   2.872   5.824
 7974SOL    HW224822   0.035   2.773   5.745
 7975SOL     OW24823   5.629   0.092   0.917
 7975SOL    HW124824   5.572   0.020   0.959
 7975SOL    HW224825   5.593   0.114   0.827
 7976SOL     OW24826   0.580   0.717   1.183
 7976SOL    HW124827   0.566   0.799   1.128
 7976SOL    HW224828   0.678   0.700   1.192
 7977SOL     OW24829   5.444   6.132   3.947
 7977SOL    HW124830   5.396   6.143   4.034
 7977SOL    HW224831   5.478   6.039   3.939
 7978SOL     OW24832   0.321   4.523   1.513
 7978SOL    HW124833   0.363   4.581   1.582
 7978SOL    HW224834   0.362   4.541   1.424
 7979SOL     OW24835   1.593   2.094   4.674
 7979SOL    HW124836   1.537   2.132   4.748
 7979SOL    HW224837   1.689   2.120   4.689
 7980SOL     OW24838   3.799   5.694   0.429
 7980SOL    HW124839   3.869   5.692   0.357
 7980SOL    HW224840   3.842   5.676   0.517
 7981SOL     OW24841   1.670   4.684   3.799
 7981SOL    HW124842   1.573   4.696   3.818
 7981SOL    HW224843   1.687   4.589   3.772
 7982SOL     OW24844   6.459   1.079   5.755
 7982SOL    HW124845   6.440   0.997   5.701
 7982SOL    HW224846   6.389   1.148   5.738
 7983SOL     OW24847   4.579   0.606   1.741
 7983SOL    HW124848   4.572   0.659   1.826
 7983SOL    HW224849   4.514   0.642   1.674
 7984SOL     OW24850   0.476   2.267   2.900
 7984SOL    HW124851   0.393   2.308   2.860
 7984SOL    HW224852   0.488   2.301   2.993
 7985SOL     OW24853   2.818   3.157   5.397
 7985SOL    HW124854   2.814   3.057   5.400
 7985SOL    HW224855   2.729   3.193   5.370
 7986SOL     OW24856   3.690   0.833   4.123
 7986SOL    HW124857   3.723   0.897   4.054
 7986SOL    HW224858   3.593   0.815   4.107
 7987SOL     OW24859   0.998   3.734   0.119
 7987SOL    HW124860   0.957   3.682   0.195
 7987SOL    HW224861   0.999   3.677   0.037
 7988SOL     OW24862   6.623   1.140   2.317
 7988SOL    HW124863   6.624   1.222   2.373
 7988SOL    HW224864   6.584   1.160   2.227
 7989SOL     OW24865   0.180   4.578   1.097
 7989SOL    HW124866   0.185   4.531   1.009
 7989SOL    HW224867   0.255   4.548   1.155
 7990SOL     OW24868   4.733   5.869   5.345
 7990SOL    HW124869   4.643   5.830   5.322
 7990SOL    HW224870   4.790   5.799   5.388
 7991SOL     OW24871   5.922   0.834   5.069
 7991SOL    HW124872   5.938   0.929   5.096
 7991SOL    HW224873   5.902   0.830   4.971
 7992SOL     OW24874   2.393   6.730   0.190
 7992SOL    HW124875   2.473   6.676   0.166
 7992SOL    HW224876   2.423   6.821   0.222
 7993SOL     OW24877   6.262   5.691   0.644
 7993SOL    HW124878   6.211   5.774   0.666
 7993SOL    HW224879   6.257   5.674   0.546
 7994SOL     OW24880   6.184   0.050   4.042
 7994SOL    HW124881   6.119   0.014   3.974
 7994SOL    HW224882   6.172   0.001   4.128
 7995SOL     OW24883   0.565   4.780   1.372
 7995SOL    HW124884   0.603   4.725   1.297
 7995SOL    HW224885   0.544   4.872   1.338
 7996SOL     OW24886   3.036   6.771   3.609
 7996SOL    HW124887   3.105   6.782   3.681
 7996SOL    HW224888   3.078   6.728   3.530
 7997SOL     OW24889   1.488   1.459   6.020
 7997SOL    HW124890   1.586   1.476   6.036
 7997SOL    HW224891   1.441   1.450   6.108
 7998SOL     OW24892   2.315   1.003   0.417
 7998SOL    HW124893   2.351   1.077   0.474
 7998SOL    HW224894   2.258   0.943   0.472
 7999SOL     OW24895   1.223   0.299   4.445
 7999SOL    HW124896   1.131   0.260   4.453
 7999SOL    HW224897   1.291   0.227   4.455
 8000SOL     OW24898   3.937   5.274   0.319
 8000SOL    HW124899   3.871   5.341   0.354
 8000SOL    HW224900   3.888   5.192   0.289
 8001SOL     OW24901   4.205   5.553   1.233
 8001SOL    HW124902   4.203   5.453   1.230
 8001SOL    HW224903   4.207   5.584   1.328
 8002SOL     OW24904   1.152   0.074   5.500
 8002SOL    HW124905   1.162   0.171   5.481
 8002SOL    HW224906   1.232   0.042   5.552
 8003SOL     OW24907   2.279   5.800   2.242
 8003SOL    HW124908   2.321   5.868   2.183
 8003SOL    HW224909   2.285   5.710   2.199
 8004SOL     OW24910   0.961   2.999   3.872
 8004SOL    HW124911   0.864   2.987   3.894
 8004SOL    HW224912   0.970   3.066   3.798
 8005SOL     OW24913   2.154   0.596   3.041
 8005SOL    HW124914   2.193   0.549   3.121
 8005SOL    HW224915   2.170   0.540   2.960
 8006SOL     OW24916   3.784   4.721   5.288
 8006SOL    HW124917   3.758   4.636   5.243
 8006SOL    HW224918   3.761   4.715   5.385
 8007SOL     OW24919   6.863   0.784   0.428
 8007SOL    HW124920   6.865   0.693   0.470
 8007SOL    HW224921   6.874   0.775   0.329
 8008SOL     OW24922   5.197   6.390   0.120
 8008SOL    HW124923   5.154   6.406   0.208
 8008SOL    HW224924   5.296   6.389   0.131
 8009SOL     OW24925   5.571   0.866   6.734
 8009SOL    HW124926   5.608   0.895   6.823
 8009SOL    HW224927   5.637   0.808   6.687
 8010SOL     OW24928   3.211   0.195   5.680
 8010SOL    HW124929   3.182   0.269   5.742
 8010SOL    HW224930   3.290   0.225   5.627
 8011SOL     OW24931   3.944   2.117   3.280
 8011SOL    HW124932   3.981   2.105   3.188
 8011SOL    HW224933   4.010   2.165   3.337
 8012SOL     OW24934   5.777   1.659   4.483
 8012SOL    HW124935   5.685   1.651   4.444
 8012SOL    HW224936   5.845   1.662   4.409
 8013SOL     OW24937   3.386   1.172   2.183
 8013SOL    HW124938   3.404   1.264   2.148
 8013SOL    HW224939   3.320   1.126   2.124
 8014SOL     OW24940   1.939   2.407   2.735
 8014SOL    HW124941   1.984   2.464   2.803
 8014SOL    HW224942   1.999   2.330   2.712
 8015SOL     OW24943   3.348   0.010   4.977
 8015SOL    HW124944   3.253   0.032   4.998
 8015SOL    HW224945   3.369   0.041   4.884
 8016SOL     OW24946   3.588   2.064   5.017
 8016SOL    HW124947   3.558   2.092   5.108
 8016SOL    HW224948   3.687   2.060   5.014
 8017SOL     OW24949   6.710   5.880   0.860
 8017SOL    HW124950   6.660   5.819   0.921
 8017SOL    HW224951   6.742   5.960   0.910
 8018SOL     OW24952   4.394   2.231   6.935
 8018SOL    HW124953   4.478   2.281   6.915
 8018SOL    HW224954   4.393   2.145   6.884
 8019SOL     OW24955   2.715   3.611   0.927
 8019SOL    HW124956   2.773   3.688   0.899
 8019SOL    HW224957   2.724   3.536   0.861
 8020SOL     OW24958   0.852   0.755   5.628
 8020SOL    HW124959   0.884   0.796   5.543
 8020SOL    HW224960   0.767   0.799   5.656
 8021SOL     OW24961   1.235   2.583   0.978
 8021SOL    HW124962   1.222   2.494   1.021
 8021SOL    HW224963   1.308   2.577   0.910
 8022SOL     OW24964   4.719   1.113   1.656
 8022SOL    HW124965   4.708   1.162   1.569
 8022SOL    HW224966   4.812   1.078   1.663
 8023SOL     OW24967   4.848   6.136   1.434
 8023SOL    HW124968   4.871   6.039   1.440
 8023SOL    HW224969   4.857   6.179   1.524
 8024SOL     OW24970   2.542   1.408   6.596
 8024SOL    HW124971   2.468   1.401   6.529
 8024SOL    HW224972   2.621   1.452   6.554
 8025SOL     OW24973   1.125   5.795   1.785
 8025SOL    HW124974   1.151   5.836   1.872
 8025SOL    HW224975   1.084   5.705   1.802
 8026SOL     OW24976   0.383   6.322   6.386
 8026SOL    HW124977   0.357   6.280   6.472
 8026SOL    HW224978   0.330   6.282   6.311
 8027SOL     OW24979   3.544   0.629   6.693
 8027SOL    HW124980   3.470   0.678   6.741
 8027SOL    HW224981   3.508   0.589   6.609
 8028SOL     OW24982   3.215   5.812   5.050
 8028SOL    HW124983   3.232   5.768   5.138
 8028SOL    HW224984   3.133   5.771   5.008
 8029SOL     OW24985   0.692   0.125   0.784
 8029SOL    HW124986   0.782   0.144   0.824
 8029SOL    HW224987   0.650   0.210   0.754
 8030SOL     OW24988   0.874   4.191   0.745
 8030SOL    HW124989   0.794   4.216   0.690
 8030SOL    HW224990   0.858   4.102   0.787
 8031SOL     OW24991   0.141   0.368   3.213
 8031SOL    HW124992   0.156   0.428   3.292
 8031SOL    HW224993   0.043   0.359   3.196
 8032SOL     OW24994   7.003   3.113   1.120
 8032SOL    HW124995   7.016   3.135   1.216
 8032SOL    HW224996   6.917   3.062   1.109
 8033SOL     OW24997   4.458   4.166   1.131
 8033SOL    HW124998   4.410   4.096   1.183
 8033SOL    HW224999   4.474   4.246   1.189
 8034SOL     OW25000   6.439   6.913   6.096
 8034SOL    HW125001   6.407   6.851   6.168
 8034SOL    HW225002   6.513   6.970   6.131
 8035SOL     OW25003   6.157   1.152   3.162
 8035SOL    HW125004   6.193   1.061   3.181
 8035SOL    HW225005   6.071   1.165   3.211
 8036SOL     OW25006   5.203   2.630   4.412
 8036SOL    HW125007   5.190   2.690   4.492
 8036SOL    HW225008   5.184   2.682   4.329
 8037SOL     OW25009   2.041   1.492   5.612
 8037SOL    HW125010   2.129   1.539   5.599
 8037SOL    HW225011   2.048   1.399   5.577
 8038SOL     OW25012   6.865   5.485   1.924
 8038SOL    HW125013   6.956   5.458   1.954
 8038SOL    HW225014   6.826   5.550   1.989
 8039SOL     OW25015   1.565   2.482   5.372
 8039SOL    HW125016   1.523   2.504   5.460
 8039SOL    HW225017   1.503   2.423   5.319
 8040SOL     OW25018   1.495   5.096   6.768
 8040SOL    HW125019   1.424   5.097   6.838
 8040SOL    HW225020   1.453   5.076   6.679
 8041SOL     OW25021   3.249   1.547   2.819
 8041SOL    HW125022   3.340   1.553   2.861
 8041SOL    HW225023   3.208   1.638   2.814
 8042SOL     OW25024   4.261   3.953   5.954
 8042SOL    HW125025   4.192   4.011   5.997
 8042SOL    HW225026   4.313   3.904   6.024
 8043SOL     OW25027   5.146   5.533   6.502
 8043SOL    HW125028   5.092   5.459   6.543
 8043SOL    HW225029   5.099   5.568   6.421
 8044SOL     OW25030   2.602   3.615   1.717
 8044SOL    HW125031   2.525   3.572   1.765
 8044SOL    HW225032   2.687   3.567   1.740
 8045SOL     OW25033   6.593   2.645   3.867
 8045SOL    HW125034   6.511   2.630   3.811
 8045SOL    HW225035   6.585   2.731   3.916
 8046SOL     OW25036   6.805   4.771   2.328
 8046SOL    HW125037   6.769   4.712   2.400
 8046SOL    HW225038   6.873   4.721   2.274
 8047SOL     OW25039   3.211   5.975   6.482
 8047SOL    HW125040   3.222   6.071   6.456
 8047SOL    HW225041   3.141   5.932   6.426
 8048SOL     OW25042   3.693   2.550   6.292
 8048SOL    HW125043   3.756   2.473   6.301
 8048SOL    HW225044   3.724   2.610   6.219
 8049SOL     OW25045   2.050   2.012   0.759
 8049SOL    HW125046   2.076   1.984   0.852
 8049SOL    HW225047   1.970   2.071   0.763
 8050SOL     OW25048   0.777   5.296   5.609
 8050SOL    HW125049   0.807   5.258   5.697
 8050SOL    HW225050   0.814   5.241   5.534
 8051SOL     OW25051   4.289   0.093   3.310
 8051SOL    HW125052   4.215   0.026   3.301
 8051SOL    HW225053   4.323   0.093   3.404
 8052SOL     OW25054   3.088   1.753   2.314
 8052SOL    HW125055   3.168   1.762   2.373
 8052SOL    HW225056   3.021   1.823   2.337
 8053SOL     OW25057   2.597   2.307   6.509
 8053SOL    HW125058   2.648   2.221   6.513
 8053SOL    HW225059   2.502   2.288   6.486
 8054SOL     OW25060   4.904   3.327   5.382
 8054SOL    HW125061   4.963   3.369   5.451
 8054SOL    HW225062   4.820   3.380   5.374
 8055SOL     OW25063   5.877   0.670   0.166
 8055SOL    HW125064   5.974   0.653   0.146
 8055SOL    HW225065   5.841   0.594   0.220
 8056SOL     OW25066   2.341   0.797   3.773
 8056SOL    HW125067   2.422   0.759   3.730
 8056SOL    HW225068   2.281   0.723   3.803
 8057SOL     OW25069   2.983   2.127   1.820
 8057SOL    HW125070   2.953   2.180   1.899
 8057SOL    HW225071   2.948   2.169   1.736
 8058SOL     OW25072   3.421   6.639   1.860
 8058SOL    HW125073   3.520   6.628   1.867
 8058SOL    HW225074   3.376   6.552   1.879
 8059SOL     OW25075   3.124   2.542   5.904
 8059SOL    HW125076   3.214   2.570   5.938
 8059SOL    HW225077   3.128   2.530   5.805
 8060SOL     OW25078   6.444   0.772   6.319
 8060SOL    HW125079   6.426   0.794   6.414
 8060SOL    HW225080   6.485   0.852   6.274
 8061SOL     OW25081   0.332   0.132   2.659
 8061SOL    HW125082   0.250   0.188   2.646
 8061SOL    HW225083   0.372   0.151   2.748
 8062SOL     OW25084   3.964   5.670   5.254
 8062SOL    HW125085   3.907   5.748   5.228
 8062SOL    HW225086   4.045   5.666   5.195
 8063SOL     OW25087   3.469   4.915   2.765
 8063SOL    HW125088   3.407   4.866   2.704
 8063SOL    HW225089   3.475   5.010   2.737
 8064SOL     OW25090   6.457   2.182   0.478
 8064SOL    HW125091   6.471   2.280   0.488
 8064SOL    HW225092   6.495   2.134   0.557
 8065SOL     OW25093   4.520   5.784   6.370
 8065SOL    HW125094   4.515   5.822   6.463
 8065SOL    HW225095   4.582   5.839   6.315
 8066SOL     OW25096   0.640   6.603   5.784
 8066SOL    HW125097   0.635   6.576   5.880
 8066SOL    HW225098   0.577   6.680   5.769
 8067SOL     OW25099   5.018   2.134   3.466
 8067SOL    HW125100   5.064   2.051   3.497
 8067SOL    HW225101   5.075   2.213   3.488
 8068SOL     OW25102   5.892   3.981   1.511
 8068SOL    HW125103   5.910   4.016   1.420
 8068SOL    HW225104   5.978   3.953   1.554
 8069SOL     OW25105   2.025   4.649   2.966
 8069SOL    HW125106   2.077   4.622   3.047
 8069SOL    HW225107   1.985   4.568   2.924
 8070SOL     OW25108   4.614   4.553   0.397
 8070SOL    HW125109   4.542   4.500   0.353
 8070SOL    HW225110   4.684   4.492   0.432
 8071SOL     OW25111   2.188   0.198   6.123
 8071SOL    HW125112   2.112   0.200   6.058
 8071SOL    HW225113   2.161   0.145   6.204
 8072SOL     OW25114   2.259   1.251   5.383
 8072SOL    HW125115   2.309   1.333   5.355
 8072SOL    HW225116   2.322   1.174   5.390
 8073SOL     OW25117   4.956   0.622   6.399
 8073SOL    HW125118   4.974   0.720   6.401
 8073SOL    HW225119   5.041   0.573   6.378
 8074SOL     OW25120   1.715   1.133   6.625
 8074SOL    HW125121   1.806   1.092   6.628
 8074SOL    HW225122   1.658   1.092   6.696
 8075SOL     OW25123   6.945   6.900   1.164
 8075SOL    HW125124   6.878   6.842   1.118
 8075SOL    HW225125   6.937   6.888   1.263
 8076SOL     OW25126   0.119   6.658   0.397
 8076SOL    HW125127   0.181   6.737   0.393
 8076SOL    HW225128   0.168   6.575   0.374
 8077SOL     OW25129   4.838   4.283   0.406
 8077SOL    HW125130   4.850   4.314   0.311
 8077SOL    HW225131   4.778   4.203   0.406
 8078SOL     OW25132   0.223   1.531   1.584
 8078SOL    HW125133   0.128   1.561   1.584
 8078SOL    HW225134   0.243   1.481   1.499
 8079SOL     OW25135   2.127   1.010   5.778
 8079SOL    HW125136   2.123   0.911   5.773
 8079SOL    HW225137   2.048   1.045   5.828
 8080SOL     OW25138   0.882   3.066   3.081
 8080SOL    HW125139   0.846   2.978   3.111
 8080SOL    HW225140   0.965   3.088   3.133
 8081SOL     OW25141   5.544   6.542   5.058
 8081SOL    HW125142   5.537   6.553   5.158
 8081SOL    HW225143   5.475   6.477   5.027
 8082SOL     OW25144   3.810   1.505   3.672
 8082SOL    HW125145   3.830   1.426   3.614
 8082SOL    HW225146   3.890   1.526   3.728
 8083SOL     OW25147   6.205   1.952   4.371
 8083SOL    HW125148   6.263   1.894   4.313
 8083SOL    HW225149   6.258   1.986   4.448
 8084SOL     OW25150   3.670   1.370   5.954
 8084SOL    HW125151   3.712   1.461   5.948
 8084SOL    HW225152   3.734   1.302   5.920
 8085SOL     OW25153   1.902   6.066   4.726
 8085SOL    HW125154   1.948   6.040   4.641
 8085SOL    HW225155   1.967   6.113   4.786
 8086SOL     OW25156   6.859   0.635   2.307
 8086SOL    HW125157   6.801   0.662   2.230
 8086SOL    HW225158   6.831   0.545   2.340
 8087SOL     OW25159   0.951   0.585   0.344
 8087SOL    HW125160   0.928   0.573   0.247
 8087SOL    HW225161   0.998   0.503   0.377
 8088SOL     OW25162   6.420   0.254   5.271
 8088SOL    HW125163   6.492   0.297   5.325
 8088SOL    HW225164   6.460   0.186   5.210
 8089SOL     OW25165   6.408   2.120   6.099
 8089SOL    HW125166   6.368   2.065   6.172
 8089SOL    HW225167   6.412   2.216   6.128
 8090SOL     OW25168   4.323   2.159   5.214
 8090SOL    HW125169   4.400   2.123   5.267
 8090SOL    HW225170   4.346   2.155   5.116
 8091SOL     OW25171   1.591   5.046   4.128
 8091SOL    HW125172   1.648   5.093   4.195
 8091SOL    HW225173   1.649   4.990   4.068
 8092SOL     OW25174   4.825   1.772   6.262
 8092SOL    HW125175   4.826   1.728   6.352
 8092SOL    HW225176   4.908   1.826   6.251
 8093SOL     OW25177   3.608   5.858   2.672
 8093SOL    HW125178   3.534   5.871   2.606
 8093SOL    HW225179   3.593   5.774   2.723
 8094SOL     OW25180   1.904   4.203   4.038
 8094SOL    HW125181   1.940   4.129   4.095
 8094SOL    HW225182   1.913   4.179   3.942
 8095SOL     OW25183   1.649   4.951   5.440
 8095SOL    HW125184   1.602   4.954   5.528
 8095SOL    HW225185   1.686   4.859   5.425
 8096SOL     OW25186   1.277   6.031   0.712
 8096SOL    HW125187   1.255   6.124   0.681
 8096SOL    HW225188   1.224   6.010   0.794
 8097SOL     OW25189   4.647   6.278   5.780
 8097SOL    HW125190   4.622   6.365   5.738
 8097SOL    HW225191   4.669   6.293   5.877
 8098SOL     OW25192   1.780   6.065   5.039
 8098SOL    HW125193   1.708   6.064   4.971
 8098SOL    HW225194   1.795   6.158   5.071
 8099SOL     OW25195   2.210   4.408   2.839
 8099SOL    HW125196   2.130   4.375   2.789
 8099SOL    HW225197   2.287   4.418   2.776
 8100SOL     OW25198   6.972   1.082   6.757
 8100SOL    HW125199   0.025   1.050   6.695
 8100SOL    HW225200   6.933   1.166   6.721
 8101SOL     OW25201   3.236   5.496   0.529
 8101SOL    HW125202   3.233   5.485   0.430
 8101SOL    HW225203   3.308   5.560   0.554
 8102SOL     OW25204   1.277   3.473   4.951
 8102SOL    HW125205   1.266   3.374   4.938
 8102SOL    HW225206   1.296   3.515   4.862
 8103SOL     OW25207   3.073   0.857   1.609
 8103SOL    HW125208   3.006   0.898   1.546
 8103SOL    HW225209   3.055   0.759   1.617
 8104SOL     OW25210   2.391   5.867   0.426
 8104SOL    HW125211   2.437   5.946   0.385
 8104SOL    HW225212   2.320   5.899   0.489
 8105SOL     OW25213   6.593   6.986   3.608
 8105SOL    HW125214   6.684   7.012   3.637
 8105SOL    HW225215   6.525   0.019   3.658
 8106SOL     OW25216   1.850   0.039   6.162
 8106SOL    HW125217   1.834   6.979   6.103
 8106SOL    HW225218   1.794   0.115   6.130
 8107SOL     OW25219   1.465   6.541   6.487
 8107SOL    HW125220   1.461   6.639   6.504
 8107SOL    HW225221   1.412   6.518   6.406
 8108SOL     OW25222   1.065   1.222   6.692
 8108SOL    HW125223   1.103   1.270   6.771
 8108SOL    HW225224   1.012   1.143   6.723
 8109SOL     OW25225   6.467   3.377   0.870
 8109SOL    HW125226   6.405   3.317   0.820
 8109SOL    HW225227   6.529   3.322   0.927
 8110SOL     OW25228   3.591   4.943   1.256
 8110SOL    HW125229   3.521   4.877   1.230
 8110SOL    HW225230   3.548   5.030   1.280
 8111SOL     OW25231   6.212   1.136   2.650
 8111SOL    HW125232   6.306   1.128   2.618
 8111SOL    HW225233   6.153   1.167   2.576
 8112SOL     OW25234   1.746   3.757   6.110
 8112SOL    HW125235   1.786   3.691   6.047
 8112SOL    HW225236   1.775   3.849   6.084
 8113SOL     OW25237   5.234   3.600   5.801
 8113SOL    HW125238   5.322   3.570   5.838
 8113SOL    HW225239   5.161   3.565   5.860
 8114SOL     OW25240   1.656   4.407   2.126
 8114SOL    HW125241   1.620   4.379   2.038
 8114SOL    HW225242   1.599   4.370   2.199
 8115SOL     OW25243   2.572   1.674   6.223
 8115SOL    HW125244   2.644   1.741   6.204
 8115SOL    HW225245   2.562   1.614   6.144
 8116SOL     OW25246   4.013   3.117   1.116
 8116SOL    HW125247   4.092   3.063   1.144
 8116SOL    HW225248   3.932   3.088   1.168
 8117SOL     OW25249   2.048   6.800   3.436
 8117SOL    HW125250   2.092   6.776   3.522
 8117SOL    HW225251   2.092   6.750   3.361
 8118SOL     OW25252   6.267   3.379   0.350
 8118SOL    HW125253   6.364   3.389   0.370
 8118SOL    HW225254   6.213   3.403   0.431
 8119SOL     OW25255   6.086   6.137   0.471
 8119SOL    HW125256   6.184   6.155   0.474
 8119SOL    HW225257   6.040   6.213   0.424
 8120SOL     OW25258   2.643   0.026   1.258
 8120SOL    HW125259   2.718   0.025   1.192
 8120SOL    HW225260   2.562   0.066   1.215
 8121SOL     OW25261   0.586   3.358   2.758
 8121SOL    HW125262   0.514   3.409   2.806
 8121SOL    HW225263   0.636   3.302   2.824
 8122SOL     OW25264   0.655   4.626   1.157
 8122SOL    HW125265   0.601   4.556   1.110
 8122SOL    HW225266   0.742   4.588   1.187
 8123SOL     OW25267   0.188   1.354   7.011
 8123SOL    HW125268   0.206   1.309   6.924
 8123SOL    HW225269   0.105   1.409   7.004
 8124SOL     OW25270   5.309   4.752   4.832
 8124SOL    HW125271   5.269   4.660   4.836
 8124SOL    HW225272   5.275   4.806   4.908
 8125SOL     OW25273   1.714   6.150   3.140
 8125SOL    HW125274   1.803   6.193   3.123
 8125SOL    HW225275   1.679   6.179   3.229
 8126SOL     OW25276   3.674   5.037   4.298
 8126SOL    HW125277   3.580   5.013   4.273
 8126SOL    HW225278   3.736   5.007   4.226
 8127SOL     OW25279   3.626   2.811   0.484
 8127SOL    HW125280   3.692   2.738   0.470
 8127SOL    HW225281   3.546   2.774   0.533
 8128SOL     OW25282   3.727   3.189   1.632
 8128SOL    HW125283   3.806   3.134   1.659
 8128SOL    HW225284   3.754   3.285   1.628
 8129SOL     OW25285   1.742   2.636   2.237
 8129SOL    HW125286   1.703   2.560   2.288
 8129SOL    HW225287   1.780   2.603   2.151
 8130SOL     OW25288   0.981   5.563   6.467
 8130SOL    HW125289   1.001   5.573   6.564
 8130SOL    HW225290   0.887   5.592   6.448
 8131SOL     OW25291   1.757   3.800   6.753
 8131SOL    HW125292   1.749   3.720   6.694
 8131SOL    HW225293   1.725   3.881   6.703
 8132SOL     OW25294   0.509   0.327   5.408
 8132SOL    HW125295   0.565   0.283   5.479
 8132SOL    HW225296   0.455   0.258   5.360
 8133SOL     OW25297   3.937   5.042   0.684
 8133SOL    HW125298   3.868   5.114   0.681
 8133SOL    HW225299   4.023   5.080   0.716
 8134SOL     OW25300   5.788   1.421   5.861
 8134SOL    HW125301   5.740   1.463   5.784
 8134SOL    HW225302   5.733   1.431   5.944
 8135SOL     OW25303   2.615   0.052   1.771
 8135SOL    HW125304   2.650   6.984   1.802
 8135SOL    HW225305   2.552   0.088   1.840
 8136SOL     OW25306   4.724   4.497   1.938
 8136SOL    HW125307   4.788   4.499   2.014
 8136SOL    HW225308   4.646   4.439   1.962
 8137SOL     OW25309   4.055   1.368   5.036
 8137SOL    HW125310   4.062   1.271   5.014
 8137SOL    HW225311   4.052   1.420   4.950
 8138SOL     OW25312   5.274   1.260   2.130
 8138SOL    HW125313   5.284   1.332   2.199
 8138SOL    HW225314   5.218   1.294   2.054
 8139SOL     OW25315   1.128   2.057   3.425
 8139SOL    HW125316   1.210   2.092   3.379
 8139SOL    HW225317   1.049   2.070   3.365
 8140SOL     OW25318   4.160   0.877   3.231
 8140SOL    HW125319   4.140   0.781   3.211
 8140SOL    HW225320   4.113   0.935   3.164
 8141SOL     OW25321   4.943   4.786   5.097
 8141SOL    HW125322   4.942   4.859   5.165
 8141SOL    HW225323   4.890   4.813   5.017
 8142SOL     OW25324   6.904   6.124   0.653
 8142SOL    HW125325   6.980   6.189   0.652
 8142SOL    HW225326   6.939   6.031   0.659
 8143SOL     OW25327   6.375   3.585   4.867
 8143SOL    HW125328   6.327   3.581   4.955
 8143SOL    HW225329   6.355   3.502   4.814
 8144SOL     OW25330   5.832   6.876   6.060
 8144SOL    HW125331   5.768   6.864   6.136
 8144SOL    HW225332   5.896   6.799   6.058
 8145SOL     OW25333   5.568   5.868   2.786
 8145SOL    HW125334   5.510   5.787   2.794
 8145SOL    HW225335   5.588   5.903   2.878
 8146SOL     OW25336   2.747   1.248   3.731
 8146SOL    HW125337   2.830   1.228   3.783
 8146SOL    HW225338   2.760   1.330   3.677
 8147SOL     OW25339   5.188   0.735   3.366
 8147SOL    HW125340   5.153   0.653   3.410
 8147SOL    HW225341   5.154   0.816   3.414
 8148SOL     OW25342   5.511   3.969   3.550
 8148SOL    HW125343   5.567   3.886   3.548
 8148SOL    HW225344   5.441   3.964   3.478
 8149SOL     OW25345   4.589   4.410   3.350
 8149SOL    HW125346   4.531   4.481   3.389
 8149SOL    HW225347   4.609   4.431   3.254
 8150SOL     OW25348   0.852   5.579   1.337
 8150SOL    HW125349   0.945   5.552   1.361
 8150SOL    HW225350   0.850   5.677   1.318
 8151SOL     OW25351   1.137   1.879   4.947
 8151SOL    HW125352   1.196   1.798   4.951
 8151SOL    HW225353   1.140   1.917   4.855
 8152SOL     OW25354   1.322   1.262   3.419
 8152SOL    HW125355   1.362   1.305   3.338
 8152SOL    HW225356   1.297   1.168   3.399
 8153SOL     OW25357   2.085   6.727   0.659
 8153SOL    HW125358   2.045   6.668   0.589
 8153SOL    HW225359   2.049   6.702   0.749
 8154SOL     OW25360   1.883   7.012   3.664
 8154SOL    HW125361   1.876   6.952   3.743
 8154SOL    HW225362   1.932   6.965   3.591
 8155SOL     OW25363   2.924   3.336   3.503
 8155SOL    HW125364   2.869   3.294   3.575
 8155SOL    HW225365   3.000   3.276   3.480
 8156SOL     OW25366   6.673   0.007   6.211
 8156SOL    HW125367   6.754   6.981   6.173
 8156SOL    HW225368   6.677   0.105   6.189
 8157SOL     OW25369   6.167   3.279   7.004
 8157SOL    HW125370   6.129   3.212   0.048
 8157SOL    HW225371   6.267   3.271   7.003
 8158SOL     OW25372   1.578   5.342   2.214
 8158SOL    HW125373   1.570   5.245   2.194
 8158SOL    HW225374   1.668   5.362   2.253
 8159SOL     OW25375   1.331   6.183   2.208
 8159SOL    HW125376   1.416   6.177   2.156
 8159SOL    HW225377   1.257   6.143   2.155
 8160SOL     OW25378   4.512   2.382   1.863
 8160SOL    HW125379   4.487   2.318   1.935
 8160SOL    HW225380   4.562   2.459   1.903
 8161SOL     OW25381   4.593   1.698   0.390
 8161SOL    HW125382   4.533   1.621   0.368
 8161SOL    HW225383   4.559   1.744   0.472
 8162SOL     OW25384   5.886   0.537   1.478
 8162SOL    HW125385   5.803   0.593   1.474
 8162SOL    HW225386   5.940   0.553   1.395
 8163SOL     OW25387   2.271   4.001   5.346
 8163SOL    HW125388   2.336   3.989   5.271
 8163SOL    HW225389   2.182   3.964   5.319
 8164SOL     OW25390   4.881   2.020   1.473
 8164SOL    HW125391   4.879   2.027   1.573
 8164SOL    HW225392   4.969   2.050   1.439
 8165SOL     OW25393   2.256   4.719   1.707
 8165SOL    HW125394   2.272   4.624   1.734
 8165SOL    HW225395   2.251   4.724   1.607
 8166SOL     OW25396   2.824   6.844   1.778
 8166SOL    HW125397   2.743   6.786   1.765
 8166SOL    HW225398   2.863   6.827   1.869
 8167SOL     OW25399   5.195   2.824   4.208
 8167SOL    HW125400   5.289   2.840   4.239
 8167SOL    HW225401   5.138   2.901   4.238
 8168SOL     OW25402   3.487   1.224   2.931
 8168SOL    HW125403   3.481   1.275   3.017
 8168SOL    HW225404   3.411   1.252   2.871
 8169SOL     OW25405   4.923   4.048   6.215
 8169SOL    HW125406   4.862   3.969   6.228
 8169SOL    HW225407   4.927   4.072   6.118
 8170SOL     OW25408   0.722   5.696   3.859
 8170SOL    HW125409   0.695   5.766   3.793
 8170SOL    HW225410   0.648   5.628   3.866
 8171SOL     OW25411   1.215   1.361   5.650
 8171SOL    HW125412   1.161   1.288   5.609
 8171SOL    HW225413   1.157   1.418   5.708
 8172SOL     OW25414   0.178   6.250   0.857
 8172SOL    HW125415   0.272   6.220   0.843
 8172SOL    HW225416   0.122   6.173   0.887
 8173SOL     OW25417   5.116   2.750   6.610
 8173SOL    HW125418   5.021   2.721   6.618
 8173SOL    HW225419   5.121   2.834   6.556
 8174SOL     OW25420   5.218   0.466   2.216
 8174SOL    HW125421   5.313   0.491   2.198
 8174SOL    HW225422   5.183   0.522   2.291
 8175SOL     OW25423   0.938   3.513   5.704
 8175SOL    HW125424   0.922   3.533   5.607
 8175SOL    HW225425   0.851   3.492   5.748
 8176SOL     OW25426   3.134   5.921   3.147
 8176SOL    HW125427   3.075   5.841   3.132
 8176SOL    HW225428   3.102   5.997   3.091
 8177SOL     OW25429   1.365   0.150   6.319
 8177SOL    HW125430   1.425   0.209   6.373
 8177SOL    HW225431   1.397   0.147   6.224
 8178SOL     OW25432   2.079   6.424   6.362
 8178SOL    HW125433   2.131   6.373   6.430
 8178SOL    HW225434   2.045   6.361   6.292
 8179SOL     OW25435   3.145   0.582   0.602
 8179SOL    HW125436   3.115   0.607   0.694
 8179SOL    HW225437   3.203   0.655   0.564
 8180SOL     OW25438   4.721   5.549   4.862
 8180SOL    HW125439   4.666   5.477   4.904
 8180SOL    HW225440   4.815   5.542   4.895
 8181SOL     OW25441   2.776   2.331   2.463
 8181SOL    HW125442   2.749   2.315   2.368
 8181SOL    HW225443   2.709   2.289   2.525
 8182SOL     OW25444   3.698   2.159   5.967
 8182SOL    HW125445   3.771   2.102   6.005
 8182SOL    HW225446   3.632   2.181   6.039
 8183SOL     OW25447   2.000   3.399   4.330
 8183SOL    HW125448   1.903   3.381   4.317
 8183SOL    HW225449   2.046   3.405   4.241
 8184SOL     OW25450   6.201   5.760   5.699
 8184SOL    HW125451   6.256   5.695   5.751
 8184SOL    HW225452   6.154   5.822   5.762
 8185SOL     OW25453   1.196   1.578   3.013
 8185SOL    HW125454   1.225   1.575   2.918
 8185SOL    HW225455   1.248   1.511   3.066
 8186SOL     OW25456   3.624   4.730   6.122
 8186SOL    HW125457   3.576   4.817   6.125
 8186SOL    HW225458   3.565   4.658   6.157
 8187SOL     OW25459   1.680   1.288   5.779
 8187SOL    HW125460   1.605   1.342   5.741
 8187SOL    HW225461   1.643   1.217   5.839
 8188SOL     OW25462   6.294   3.559   2.933
 8188SOL    HW125463   6.299   3.598   2.841
 8188SOL    HW225464   6.272   3.631   2.999
 8189SOL     OW25465   6.236   5.037   2.638
 8189SOL    HW125466   6.230   5.136   2.625
 8189SOL    HW225467   6.144   5.001   2.657
 8190SOL     OW25468   5.469   3.258   2.639
 8190SOL    HW125469   5.417   3.221   2.562
 8190SOL    HW225470   5.418   3.332   2.682
 8191SOL     OW25471   0.294   5.223   1.967
 8191SOL    HW125472   0.249   5.312   1.973
 8191SOL    HW225473   0.304   5.197   1.872
 8192SOL     OW25474   1.726   3.657   1.157
 8192SOL    HW125475   1.737   3.563   1.124
 8192SOL    HW225476   1.641   3.695   1.121
 8193SOL     OW25477   3.521   0.086   5.752
 8193SOL    HW125478   3.597   0.074   5.817
 8193SOL    HW225479   3.438   0.047   5.791
 8194SOL     OW25480   1.716   0.507   1.191
 8194SOL    HW125481   1.665   0.589   1.217
 8194SOL    HW225482   1.756   0.519   1.100
 8195SOL     OW25483   6.203   0.370   0.818
 8195SOL    HW125484   6.108   0.396   0.836
 8195SOL    HW225485   6.249   0.350   0.904
 8196SOL     OW25486   2.079   0.583   6.648
 8196SOL    HW125487   1.998   0.551   6.599
 8196SOL    HW225488   2.061   0.581   6.746
 8197SOL     OW25489   1.080   7.000   0.490
 8197SOL    HW125490   1.053   0.010   0.581
 8197SOL    HW225491   1.179   7.008   0.480
 8198SOL     OW25492   4.158   6.385   3.151
 8198SOL    HW125493   4.172   6.319   3.226
 8198SOL    HW225494   4.115   6.338   3.073
 8199SOL     OW25495   6.084   4.012   0.718
 8199SOL    HW125496   6.010   3.945   0.711
 8199SOL    HW225497   6.046   4.104   0.719
 8200SOL     OW25498   4.649   3.301   1.461
 8200SOL    HW125499   4.576   3.366   1.440
 8200SOL    HW225500   4.637   3.266   1.554
 8201SOL     OW25501   6.397   1.057   4.400
 8201SOL    HW125502   6.304   1.085   4.376
 8201SOL    HW225503   6.462   1.124   4.366
 8202SOL     OW25504   1.410   3.939   3.799
 8202SOL    HW125505   1.497   3.978   3.831
 8202SOL    HW225506   1.415   3.924   3.700
 8203SOL     OW25507   6.103   3.930   1.046
 8203SOL    HW125508   6.182   3.877   1.077
 8203SOL    HW225509   6.133   4.019   1.014
 8204SOL     OW25510   3.493   0.484   0.142
 8204SOL    HW125511   3.467   0.575   0.174
 8204SOL    HW225512   3.566   0.491   0.074
 8205SOL     OW25513   5.892   5.614   3.338
 8205SOL    HW125514   5.874   5.521   3.308
 8205SOL    HW225515   5.820   5.675   3.304
 8206SOL     OW25516   4.135   2.007   4.357
 8206SOL    HW125517   4.164   2.040   4.268
 8206SOL    HW225518   4.037   2.025   4.369
 8207SOL     OW25519   2.628   6.009   0.017
 8207SOL    HW125520   2.695   6.069   0.063
 8207SOL    HW225521   2.536   6.046   0.031
 8208SOL     OW25522   1.533   5.081   6.167
 8208SOL    HW125523   1.470   5.009   6.194
 8208SOL    HW225524   1.496   5.170   6.193
 8209SOL     OW25525   0.962   6.462   5.537
 8209SOL    HW125526   0.999   6.372   5.512
 8209SOL    HW225527   0.863   6.455   5.549
 8210SOL     OW25528   3.278   1.638   0.181
 8210SOL    HW125529   3.319   1.558   0.225
 8210SOL    HW225530   3.287   1.718   0.242
 8211SOL     OW25531   2.923   3.676   4.689
 8211SOL    HW125532   2.850   3.688   4.756
 8211SOL    HW225533   2.960   3.765   4.663
 8212SOL     OW25534   3.558   6.273   1.305
 8212SOL    HW125535   3.556   6.175   1.289
 8212SOL    HW225536   3.511   6.321   1.231
 8213SOL     OW25537   4.316   4.426   1.665
 8213SOL    HW125538   4.344   4.353   1.726
 8213SOL    HW225539   4.383   4.500   1.668
 8214SOL     OW25540   4.304   5.138   3.934
 8214SOL    HW125541   4.337   5.232   3.939
 8214SOL    HW225542   4.317   5.103   3.841
 8215SOL     OW25543   3.031   6.181   6.109
 8215SOL    HW125544   3.046   6.184   6.010
 8215SOL    HW225545   3.104   6.129   6.152
 8216SOL     OW25546   5.582   4.895   1.625
 8216SOL    HW125547   5.570   4.831   1.701
 8216SOL    HW225548   5.652   4.860   1.562
 8217SOL     OW25549   2.230   6.631   3.613
 8217SOL    HW125550   2.317   6.606   3.572
 8217SOL    HW225551   2.195   6.554   3.667
 8218SOL     OW25552   2.026   5.688   4.716
 8218SOL    HW125553   2.055   5.671   4.622
 8218SOL    HW225554   2.032   5.786   4.735
 8219SOL     OW25555   4.143   3.126   1.871
 8219SOL    HW125556   4.065   3.104   1.813
 8219SOL    HW225557   4.228   3.115   1.819
 8220SOL     OW25558   3.330   3.818   4.643
 8220SOL    HW125559   3.259   3.836   4.575
 8220SOL    HW225560   3.416   3.795   4.598
 8221SOL     OW25561   6.066   3.994   3.074
 8221SOL    HW125562   6.055   4.081   3.026
 8221SOL    HW225563   5.990   3.981   3.138
 8222SOL     OW25564   6.988   3.011   0.364
 8222SOL    HW125565   0.008   3.013   0.456
 8222SOL    HW225566   6.989   2.917   0.329
 8223SOL     OW25567   2.325   6.494   6.214
 8223SOL    HW125568   2.339   6.593   6.227
 8223SOL    HW225569   2.282   6.455   6.295
 8224SOL     OW25570   4.930   0.861   6.634
 8224SOL    HW125571   4.831   0.857   6.649
 8224SOL    HW225572   4.973   0.786   6.683
 8225SOL     OW25573   5.644   2.145   6.632
 8225SOL    HW125574   5.713   2.072   6.634
 8225SOL    HW225575   5.597   2.149   6.720
 8226SOL     OW25576   3.619   0.870   0.171
 8226SOL    HW125577   3.703   0.821   0.194
 8226SOL    HW225578   3.541   0.811   0.190
 8227SOL     OW25579   4.345   2.449   2.756
 8227SOL    HW125580   4.389   2.388   2.822
 8227SOL    HW225581   4.414   2.509   2.716
 8228SOL     OW25582   2.614   6.960   4.438
 8228SOL    HW125583   2.672   0.004   4.388
 8228SOL    HW225584   2.663   6.923   4.517
 8229SOL     OW25585   4.646   4.129   0.871
 8229SOL    HW125586   4.570   4.148   0.933
 8229SOL    HW225587   4.659   4.207   0.809
 8230SOL     OW25588   6.106   6.994   5.760
 8230SOL    HW125589   6.012   7.000   5.792
 8230SOL    HW225590   6.135   0.061   5.721
 8231SOL     OW25591   3.073   0.937   2.255
 8231SOL    HW125592   3.129   0.975   2.182
 8231SOL    HW225593   2.981   0.976   2.250
 8232SOL     OW25594   3.513   5.864   3.574
 8232SOL    HW125595   3.446   5.792   3.592
 8232SOL    HW225596   3.506   5.935   3.645
 8233SOL     OW25597   1.984   0.905   6.428
 8233SOL    HW125598   1.949   0.908   6.521
 8233SOL    HW225599   2.014   0.812   6.406
 8234SOL     OW25600   1.683   2.392   0.713
 8234SOL    HW125601   1.640   2.482   0.719
 8234SOL    HW225602   1.632   2.335   0.648
 8235SOL     OW25603   0.824   0.919   1.304
 8235SOL    HW125604   0.909   0.948   1.349
 8235SOL    HW225605   0.765   0.998   1.290
 8236SOL     OW25606   1.563   0.141   1.700
 8236SOL    HW125607   1.520   0.116   1.613
 8236SOL    HW225608   1.497   0.189   1.757
 8237SOL     OW25609   3.901   4.630   6.126
 8237SOL    HW125610   3.960   4.687   6.183
 8237SOL    HW225611   3.808   4.667   6.127
 8238SOL     OW25612   0.727   5.069   1.272
 8238SOL    HW125613   0.735   5.168   1.279
 8238SOL    HW225614   0.747   5.027   1.361
 8239SOL     OW25615   2.172   1.303   6.029
 8239SOL    HW125616   2.101   1.358   5.985
 8239SOL    HW225617   2.239   1.273   5.961
 8240SOL     OW25618   3.568   2.842   4.611
 8240SOL    HW125619   3.487   2.871   4.662
 8240SOL    HW225620   3.627   2.787   4.670
 8241SOL     OW25621   1.642   3.636   5.613
 8241SOL    HW125622   1.610   3.685   5.694
 8241SOL    HW225623   1.733   3.598   5.630
 8242SOL     OW25624   0.536   3.056   2.835
 8242SOL    HW125625   0.600   2.982   2.817
 8242SOL    HW225626   0.524   3.112   2.753
 8243SOL     OW25627   1.270   5.610   4.211
 8243SOL    HW125628   1.304   5.697   4.177
 8243SOL    HW225629   1.202   5.626   4.282
 8244SOL     OW25630   6.760   1.476   3.474
 8244SOL    HW125631   6.701   1.503   3.398
 8244SOL    HW225632   6.707   1.466   3.557
 8245SOL     OW25633   5.163   2.740   2.506
 8245SOL    HW125634   5.128   2.749   2.599
 8245SOL    HW225635   5.140   2.650   2.469
 8246SOL     OW25636   1.758   5.059   6.652
 8246SOL    HW125637   1.667   5.092   6.676
 8246SOL    HW225638   1.749   4.988   6.582
 8247SOL     OW25639   2.698   5.402   2.767
 8247SOL    HW125640   2.703   5.501   2.780
 8247SOL    HW225641   2.753   5.356   2.837
 8248SOL     OW25642   6.618   5.735   4.213
 8248SOL    HW125643   6.654   5.809   4.155
 8248SOL    HW225644   6.524   5.756   4.239
 8249SOL     OW25645   3.226   1.428   6.716
 8249SOL    HW125646   3.246   1.346   6.662
 8249SOL    HW225647   3.305   1.451   6.772
 8250SOL     OW25648   0.870   1.864   6.463
 8250SOL    HW125649   0.941   1.816   6.412
 8250SOL    HW225650   0.859   1.956   6.426
 8251SOL     OW25651   0.726   2.428   5.021
 8251SOL    HW125652   0.700   2.472   4.935
 8251SOL    HW225653   0.662   2.455   5.092
 8252SOL     OW25654   0.655   1.803   6.609
 8252SOL    HW125655   0.716   1.830   6.535
 8252SOL    HW225656   0.705   1.749   6.676
 8253SOL     OW25657   4.924   5.436   6.622
 8253SOL    HW125658   4.885   5.528   6.631
 8253SOL    HW225659   4.946   5.401   6.713
 8254SOL     OW25660   6.474   5.448   0.111
 8254SOL    HW125661   6.514   5.533   0.147
 8254SOL    HW225662   6.416   5.469   0.033
 8255SOL     OW25663   2.275   0.252   5.385
 8255SOL    HW125664   2.338   0.244   5.463
 8255SOL    HW225665   2.328   0.253   5.300
 8256SOL     OW25666   1.115   5.767   4.722
 8256SOL    HW125667   1.185   5.706   4.761
 8256SOL    HW225668   1.082   5.828   4.794
 8257SOL     OW25669   5.230   4.237   3.044
 8257SOL    HW125670   5.147   4.217   3.096
 8257SOL    HW225671   5.223   4.328   3.004
 8258SOL     OW25672   0.465   2.780   3.704
 8258SOL    HW125673   0.549   2.759   3.654
 8258SOL    HW225674   0.476   2.754   3.800
 8259SOL     OW25675   5.731   2.272   4.222
 8259SOL    HW125676   5.658   2.269   4.154
 8259SOL    HW225677   5.709   2.211   4.298
 8260SOL     OW25678   5.182   2.947   0.950
 8260SOL    HW125679   5.194   2.970   1.046
 8260SOL    HW225680   5.234   3.010   0.893
 8261SOL     OW25681   5.659   1.371   2.811
 8261SOL    HW125682   5.734   1.394   2.749
 8261SOL    HW225683   5.663   1.274   2.834
 8262SOL     OW25684   5.200   3.846   1.955
 8262SOL    HW125685   5.152   3.759   1.941
 8262SOL    HW225686   5.145   3.921   1.919
 8263SOL     OW25687   6.780   1.745   5.962
 8263SOL    HW125688   6.719   1.817   5.997
 8263SOL    HW225689   6.858   1.788   5.916
 8264SOL     OW25690   3.120   0.328   2.488
 8264SOL    HW125691   3.185   0.279   2.430
 8264SOL    HW225692   3.155   0.419   2.508
 8265SOL     OW25693   5.052   6.075   0.289
 8265SOL    HW125694   4.973   6.115   0.244
 8265SOL    HW225695   5.022   6.026   0.371
 8266SOL     OW25696   3.522   0.989   3.760
 8266SOL    HW125697   3.541   0.927   3.683
 8266SOL    HW225698   3.435   1.036   3.744
 8267SOL     OW25699   2.124   3.096   2.643
 8267SOL    HW125700   2.106   3.072   2.547
 8267SOL    HW225701   2.183   3.027   2.685
 8268SOL     OW25702   3.351   4.399   6.716
 8268SOL    HW125703   3.326   4.323   6.656
 8268SOL    HW225704   3.316   4.381   6.808
 8269SOL     OW25705   6.601   3.070   4.925
 8269SOL    HW125706   6.534   3.116   4.983
 8269SOL    HW225707   6.556   2.999   4.871
 8270SOL     OW25708   4.656   5.590   6.751
 8270SOL    HW125709   4.684   5.540   6.834
 8270SOL    HW225710   4.572   5.549   6.715
 8271SOL     OW25711   3.432   6.740   6.400
 8271SOL    HW125712   3.422   6.726   6.301
 8271SOL    HW225713   3.353   6.701   6.448
 8272SOL     OW25714   1.134   0.760   2.101
 8272SOL    HW125715   1.233   0.749   2.113
 8272SOL    HW225716   1.105   0.717   2.015
 8273SOL     OW25717   4.032   0.499   0.067
 8273SOL    HW125718   4.018   0.490   6.988
 8273SOL    HW225719   4.015   0.410   0.111
 8274SOL     OW25720   5.149   6.236   5.599
 8274SOL    HW125721   5.050   6.246   5.605
 8274SOL    HW225722   5.191   6.324   5.574
 8275SOL     OW25723   5.200   1.069   4.640
 8275SOL    HW125724   5.232   1.158   4.674
 8275SOL    HW225725   5.180   1.009   4.717
 8276SOL     OW25726   6.345   2.029   6.866
 8276SOL    HW125727   6.391   2.093   6.928
 8276SOL    HW225728   6.302   2.081   6.792
 8277SOL     OW25729   1.475   0.024   0.898
 8277SOL    HW125730   1.498   6.977   0.970
 8277SOL    HW225731   1.393   7.013   0.850
 8278SOL     OW25732   2.486   1.160   0.771
 8278SOL    HW125733   2.479   1.174   0.672
 8278SOL    HW225734   2.579   1.133   0.794
 8279SOL     OW25735   4.232   5.913   5.179
 8279SOL    HW125736   4.148   5.895   5.128
 8279SOL    HW225737   4.215   5.985   5.247
 8280SOL     OW25738   5.473   3.947   6.938
 8280SOL    HW125739   5.389   3.974   6.984
 8280SOL    HW225740   5.547   3.938   7.005
 8281SOL     OW25741   3.019   5.618   6.492
 8281SOL    HW125742   2.970   5.574   6.567
 8281SOL    HW225743   2.981   5.709   6.475
 8282SOL     OW25744   2.776   3.267   1.865
 8282SOL    HW125745   2.733   3.230   1.783
 8282SOL    HW225746   2.773   3.367   1.862
 8283SOL     OW25747   0.656   0.172   3.725
 8283SOL    HW125748   0.611   0.095   3.770
 8283SOL    HW225749   0.679   0.242   3.793
 8284SOL     OW25750   4.239   1.495   1.553
 8284SOL    HW125751   4.334   1.467   1.566
 8284SOL    HW225752   4.215   1.564   1.622
 8285SOL     OW25753   1.670   3.908   0.205
 8285SOL    HW125754   1.591   3.871   0.156
 8285SOL    HW225755   1.746   3.922   0.142
 8286SOL     OW25756   6.414   2.591   5.933
 8286SOL    HW125757   6.455   2.514   5.884
 8286SOL    HW225758   6.464   2.608   6.018
 8287SOL     OW25759   2.114   1.264   3.466
 8287SOL    HW125760   2.203   1.295   3.498
 8287SOL    HW225761   2.119   1.239   3.369
 8288SOL     OW25762   1.258   6.999   3.153
 8288SOL    HW125763   1.195   6.935   3.110
 8288SOL    HW225764   1.243   7.001   3.251
 8289SOL     OW25765   5.492   0.316   0.053
 8289SOL    HW125766   5.499   0.407   0.014
 8289SOL    HW225767   5.430   0.261   7.017
 8290SOL     OW25768   4.615   2.779   1.771
 8290SOL    HW125769   4.598   2.874   1.798
 8290SOL    HW225770   4.713   2.762   1.768
 8291SOL     OW25771   5.189   5.945   6.280
 8291SOL    HW125772   5.154   5.854   6.302
 8291SOL    HW225773   5.112   6.006   6.261
 8292SOL     OW25774   0.724   2.908   5.478
 8292SOL    HW125775   0.697   2.844   5.550
 8292SOL    HW225776   0.796   2.866   5.422
 8293SOL     OW25777   2.269   5.346   3.983
 8293SOL    HW125778   2.205   5.270   3.989
 8293SOL    HW225779   2.360   5.315   4.013
 8294SOL     OW25780   5.001   4.130   5.739
 8294SOL    HW125781   5.008   4.031   5.746
 8294SOL    HW225782   4.971   4.168   5.827
 8295SOL     OW25783   4.957   4.527   2.478
 8295SOL    HW125784   4.895   4.458   2.441
 8295SOL    HW225785   4.904   4.603   2.514
 8296SOL     OW25786   3.797   6.789   2.532
 8296SOL    HW125787   3.732   6.716   2.552
 8296SOL    HW225788   3.859   6.801   2.609
 8297SOL     OW25789   5.503   4.542   2.494
 8297SOL    HW125790   5.497   4.454   2.448
 8297SOL    HW225791   5.435   4.548   2.566
 8298SOL     OW25792   6.999   6.995   0.746
 8298SOL    HW125793   6.966   0.018   0.830
 8298SOL    HW225794   6.923   6.979   0.683
 8299SOL     OW25795   1.083   3.059   0.080
 8299SOL    HW125796   1.090   3.058   7.000
 8299SOL    HW225797   1.173   3.038   0.119
 8300SOL     OW25798   6.489   5.446   3.881
 8300SOL    HW125799   6.586   5.427   3.868
 8300SOL    HW225800   6.464   5.430   3.976
 8301SOL     OW25801   5.782   6.122   0.371
 8301SOL    HW125802   5.866   6.175   0.361
 8301SOL    HW225803   5.761   6.075   0.285
 8302SOL     OW25804   3.733   6.968   4.990
 8302SOL    HW125805   3.829   6.950   5.008
 8302SOL    HW225806   3.724   0.020   4.921
 8303SOL     OW25807   0.250   5.323   2.656
 8303SOL    HW125808   0.293   5.276   2.579
 8303SOL    HW225809   0.236   5.419   2.632
 8304SOL     OW25810   6.216   3.794   3.510
 8304SOL    HW125811   6.245   3.737   3.433
 8304SOL    HW225812   6.296   3.838   3.551
 8305SOL     OW25813   5.128   0.044   5.735
 8305SOL    HW125814   5.218   0.081   5.759
 8305SOL    HW225815   5.084   0.008   5.817
 8306SOL     OW25816   6.322   1.207   3.552
 8306SOL    HW125817   6.398   1.158   3.593
 8306SOL    HW225818   6.307   1.293   3.601
 8307SOL     OW25819   1.315   3.613   3.204
 8307SOL    HW125820   1.371   3.533   3.226
 8307SOL    HW225821   1.238   3.618   3.268
 8308SOL     OW25822   1.424   5.956   1.294
 8308SOL    HW125823   1.491   5.885   1.315
 8308SOL    HW225824   1.378   5.984   1.379
 8309SOL     OW25825   6.173   5.146   4.395
 8309SOL    HW125826   6.171   5.050   4.424
 8309SOL    HW225827   6.083   5.187   4.410
 8310SOL     OW25828   1.970   0.263   2.192
 8310SOL    HW125829   1.987   0.190   2.259
 8310SOL    HW225830   1.895   0.237   2.132
 8311SOL     OW25831   4.552   5.607   3.307
 8311SOL    HW125832   4.601   5.520   3.302
 8311SOL    HW225833   4.507   5.614   3.396
 8312SOL     OW25834   5.706   1.800   0.444
 8312SOL    HW125835   5.735   1.705   0.431
 8312SOL    HW225836   5.643   1.805   0.522
 8313SOL     OW25837   5.772   2.351   5.964
 8313SOL    HW125838   5.692   2.361   5.904
 8313SOL    HW225839   5.744   2.305   6.049
 8314SOL     OW25840   4.343   6.243   4.235
 8314SOL    HW125841   4.246   6.242   4.258
 8314SOL    HW225842   4.391   6.170   4.283
 8315SOL     OW25843   3.479   3.262   5.041
 8315SOL    HW125844   3.468   3.309   4.953
 8315SOL    HW225845   3.392   3.224   5.070
 8316SOL     OW25846   2.735   1.364   5.642
 8316SOL    HW125847   2.746   1.406   5.551
 8316SOL    HW225848   2.789   1.280   5.646
 8317SOL     OW25849   0.992   1.947   3.869
 8317SOL    HW125850   1.072   1.965   3.811
 8317SOL    HW225851   0.984   2.019   3.938
 8318SOL     OW25852   4.112   6.512   5.829
 8318SOL    HW125853   4.171   6.432   5.815
 8318SOL    HW225854   4.026   6.482   5.871
 8319SOL     OW25855   1.584   5.643   5.992
 8319SOL    HW125856   1.635   5.725   5.968
 8319SOL    HW225857   1.528   5.660   6.074
 8320SOL     OW25858   3.904   3.843   5.300
 8320SOL    HW125859   3.828   3.899   5.333
 8320SOL    HW225860   3.983   3.900   5.281
 8321SOL     OW25861   0.888   0.427   0.973
 8321SOL    HW125862   0.805   0.371   0.969
 8321SOL    HW225863   0.899   0.476   0.887
 8322SOL     OW25864   1.247   0.244   0.689
 8322SOL    HW125865   1.325   0.269   0.746
 8322SOL    HW225866   1.187   0.323   0.677
 8323SOL     OW25867   6.053   4.363   0.109
 8323SOL    HW125868   5.973   4.355   0.050
 8323SOL    HW225869   6.113   4.434   0.074
 8324SOL     OW25870   5.398   6.669   0.284
 8324SOL    HW125871   5.432   6.595   0.342
 8324SOL    HW225872   5.401   6.755   0.335
 8325SOL     OW25873   1.451   6.802   4.936
 8325SOL    HW125874   1.374   6.835   4.990
 8325SOL    HW225875   1.474   6.709   4.964
 8326SOL     OW25876   2.204   2.843   6.369
 8326SOL    HW125877   2.272   2.916   6.378
 8326SOL    HW225878   2.231   2.765   6.425
 8327SOL     OW25879   0.701   6.288   4.910
 8327SOL    HW125880   0.779   6.227   4.923
 8327SOL    HW225881   0.734   6.379   4.884
 8328SOL     OW25882   1.097   6.610   0.587
 8328SOL    HW125883   1.103   6.570   0.678
 8328SOL    HW225884   1.004   6.640   0.569
 8329SOL     OW25885   1.765   2.897   5.120
 8329SOL    HW125886   1.765   2.836   5.199
 8329SOL    HW225887   1.731   2.987   5.148
 8330SOL     OW25888   3.117   0.123   6.684
 8330SOL    HW125889   3.174   0.196   6.720
 8330SOL    HW225890   3.127   0.119   6.585
 8331SOL     OW25891   2.291   2.084   6.902
 8331SOL    HW125892   2.384   2.104   6.872
 8331SOL    HW225893   2.254   2.009   6.847
 8332SOL     OW25894   6.553   3.922   1.355
 8332SOL    HW125895   6.649   3.922   1.385
 8332SOL    HW225896   6.522   4.015   1.340
 8333SOL     OW25897   1.831   4.314   0.136
 8333SOL    HW125898   1.894   4.263   0.195
 8333SOL    HW225899   1.828   4.272   0.046
 8334SOL     OW25900   3.232   1.830   5.113
 8334SOL    HW125901   3.186   1.911   5.151
 8334SOL    HW225902   3.328   1.831   5.139
 8335SOL     OW25903   5.497   4.875   5.629
 8335SOL    HW125904   5.508   4.845   5.534
 8335SOL    HW225905   5.582   4.916   5.661
 8336SOL     OW25906   1.112   3.562   3.388
 8336SOL    HW125907   1.018   3.576   3.358
 8336SOL    HW225908   1.139   3.636   3.450
 8337SOL     OW25909   6.576   1.008   3.899
 8337SOL    HW125910   6.663   0.960   3.912
 8337SOL    HW225911   6.507   0.943   3.867
 8338SOL     OW25912   2.797   5.135   0.895
 8338SOL    HW125913   2.865   5.206   0.910
 8338SOL    HW225914   2.716   5.175   0.852
 8339SOL     OW25915   5.885   0.206   1.835
 8339SOL    HW125916   5.859   0.113   1.808
 8339SOL    HW225917   5.912   0.206   1.932
 8340SOL     OW25918   6.319   2.497   6.342
 8340SOL    HW125919   6.327   2.399   6.358
 8340SOL    HW225920   6.232   2.530   6.377
 8341SOL     OW25921   3.903   1.402   0.601
 8341SOL    HW125922   3.858   1.380   0.514
 8341SOL    HW225923   3.943   1.494   0.595
 8342SOL     OW25924   4.128   0.324   0.347
 8342SOL    HW125925   4.201   0.358   0.288
 8342SOL    HW225926   4.069   0.262   0.295
 8343SOL     OW25927   5.904   4.970   3.534
 8343SOL    HW125928   5.806   4.988   3.547
 8343SOL    HW225929   5.957   5.037   3.585
 8344SOL     OW25930   1.130   4.834   6.089
 8344SOL    HW125931   1.137   4.782   6.004
 8344SOL    HW225932   1.040   4.822   6.129
 8345SOL     OW25933   5.763   0.413   3.828
 8345SOL    HW125934   5.766   0.480   3.901
 8345SOL    HW225935   5.854   0.401   3.789
 8346SOL     OW25936   5.659   2.983   4.415
 8346SOL    HW125937   5.638   2.993   4.513
 8346SOL    HW225938   5.667   3.073   4.373
 8347SOL     OW25939   2.465   1.818   6.430
 8347SOL    HW125940   2.495   1.768   6.348
 8347SOL    HW225941   2.398   1.763   6.480
 8348SOL     OW25942   3.102   6.037   1.945
 8348SOL    HW125943   3.077   6.063   2.039
 8348SOL    HW225944   3.106   6.118   1.888
 8349SOL     OW25945   5.590   6.164   2.170
 8349SOL    HW125946   5.503   6.164   2.121
 8349SOL    HW225947   5.652   6.097   2.128
 8350SOL     OW25948   1.908   1.188   0.224
 8350SOL    HW125949   1.895   1.273   0.174
 8350SOL    HW225950   1.953   1.206   0.311
 8351SOL     OW25951   0.200   2.414   3.147
 8351SOL    HW125952   0.110   2.450   3.173
 8351SOL    HW225953   0.271   2.463   3.196
 8352SOL     OW25954   2.797   5.863   0.300
 8352SOL    HW125955   2.845   5.788   0.253
 8352SOL    HW225956   2.795   5.943   0.240
 8353SOL     OW25957   0.610   5.619   1.652
 8353SOL    HW125958   0.675   5.694   1.647
 8353SOL    HW225959   0.630   5.562   1.732
 8354SOL     OW25960   3.797   0.916   3.157
 8354SOL    HW125961   3.820   0.992   3.096
 8354SOL    HW225962   3.705   0.884   3.138
 8355SOL     OW25963   3.305   5.695   6.134
 8355SOL    HW125964   3.210   5.667   6.143
 8355SOL    HW225965   3.320   5.735   6.043
 8356SOL     OW25966   2.646   4.434   0.866
 8356SOL    HW125967   2.659   4.453   0.963
 8356SOL    HW225968   2.570   4.489   0.831
 8357SOL     OW25969   5.033   6.663   5.276
 8357SOL    HW125970   5.113   6.689   5.222
 8357SOL    HW225971   5.062   6.628   5.365
 8358SOL     OW25972   0.922   0.853   5.376
 8358SOL    HW125973   0.980   0.915   5.324
 8358SOL    HW225974   0.962   0.761   5.375
 8359SOL     OW25975   4.239   1.845   5.772
 8359SOL    HW125976   4.300   1.841   5.851
 8359SOL    HW225977   4.267   1.919   5.711
 8360SOL     OW25978   4.260   0.203   0.574
 8360SOL    HW125979   4.211   0.248   0.500
 8360SOL    HW225980   4.251   0.256   0.658
 8361SOL     OW25981   4.369   1.534   6.939
 8361SOL    HW125982   4.333   1.627   6.935
 8361SOL    HW225983   4.399   1.505   6.848
 8362SOL     OW25984   0.071   3.955   1.505
 8362SOL    HW125985   0.046   4.011   1.584
 8362SOL    HW225986   7.019   3.961   1.436
 8363SOL     OW25987   1.754   2.657   1.358
 8363SOL    HW125988   1.709   2.735   1.314
 8363SOL    HW225989   1.846   2.684   1.388
 8364SOL     OW25990   0.009   2.255   4.394
 8364SOL    HW125991   7.001   2.350   4.379
 8364SOL    HW225992   6.957   2.193   4.363
 8365SOL     OW25993   1.579   2.404   2.296
 8365SOL    HW125994   1.514   2.385   2.369
 8365SOL    HW225995   1.543   2.367   2.210
 8366SOL     OW25996   5.465   4.600   1.737
 8366SOL    HW125997   5.442   4.503   1.733
 8366SOL    HW225998   5.381   4.653   1.744
 8367SOL     OW25999   2.050   4.533   3.977
 8367SOL    HW126000   2.063   4.487   3.889
 8367SOL    HW226001   2.101   4.484   4.047
 8368SOL     OW26002   5.994   6.379   5.640
 8368SOL    HW126003   6.039   6.435   5.571
 8368SOL    HW226004   6.009   6.282   5.620
 8369SOL     OW26005   2.232   6.572   0.369
 8369SOL    HW126006   2.255   6.496   0.308
 8369SOL    HW226007   2.283   6.654   0.341
 8370SOL     OW26008   2.801   3.713   0.425
 8370SOL    HW126009   2.708   3.712   0.463
 8370SOL    HW226010   2.866   3.684   0.495
 8371SOL     OW26011   2.413   4.054   5.907
 8371SOL    HW126012   2.507   4.064   5.938
 8371SOL    HW226013   2.371   4.144   5.897
 8372SOL     OW26014   2.071   6.425   0.806
 8372SOL    HW126015   2.009   6.357   0.846
 8372SOL    HW226016   2.130   6.461   0.878
 8373SOL     OW26017   6.412   1.829   3.825
 8373SOL    HW126018   6.363   1.841   3.912
 8373SOL    HW226019   6.383   1.900   3.761
 8374SOL     OW26020   6.732   0.787   3.889
 8374SOL    HW126021   6.753   0.705   3.941
 8374SOL    HW226022   6.802   0.802   3.819
 8375SOL     OW26023   2.417   1.408   4.918
 8375SOL    HW126024   2.470   1.470   4.977
 8375SOL    HW226025   2.459   1.318   4.918
 8376SOL     OW26026   0.731   1.863   4.224
 8376SOL    HW126027   0.709   1.960   4.212
 8376SOL    HW226028   0.746   1.844   4.321
 8377SOL     OW26029   4.441   5.490   6.953
 8377SOL    HW126030   4.536   5.483   6.982
 8377SOL    HW226031   4.393   5.405   6.974
 8378SOL     OW26032   4.885   5.936   4.804
 8378SOL    HW126033   4.801   5.931   4.749
 8378SOL    HW226034   4.868   5.896   4.894
 8379SOL     OW26035   5.796   1.884   1.836
 8379SOL    HW126036   5.710   1.918   1.798
 8379SOL    HW226037   5.824   1.942   1.912
 8380SOL     OW26038   0.055   6.126   1.176
 8380SOL    HW126039   0.026   6.092   1.086
 8380SOL    HW226040   0.051   6.226   1.177
 8381SOL     OW26041   0.476   1.613   3.071
 8381SOL    HW126042   0.523   1.698   3.091
 8381SOL    HW226043   0.481   1.594   2.973
 8382SOL     OW26044   1.333   0.669   1.243
 8382SOL    HW126045   1.425   0.694   1.274
 8382SOL    HW226046   1.333   0.574   1.212
 8383SOL     OW26047   2.976   0.051   6.010
 8383SOL    HW126048   2.923   0.135   6.005
 8383SOL    HW226049   2.950   7.010   5.934
 8384SOL     OW26050   0.694   3.600   3.023
 8384SOL    HW126051   0.601   3.583   3.056
 8384SOL    HW226052   0.738   3.514   2.999
 8385SOL     OW26053   4.273   2.432   1.416
 8385SOL    HW126054   4.364   2.429   1.374
 8385SOL    HW226055   4.281   2.455   1.513
 8386SOL     OW26056   2.706   5.998   1.636
 8386SOL    HW126057   2.744   6.029   1.549
 8386SOL    HW226058   2.771   5.937   1.681
 8387SOL     OW26059   0.744   1.673   3.721
 8387SOL    HW126060   0.822   1.727   3.689
 8387SOL    HW226061   0.672   1.734   3.754
 8388SOL     OW26062   3.972   5.642   1.100
 8388SOL    HW126063   4.048   5.601   1.151
 8388SOL    HW226064   3.916   5.570   1.061
 8389SOL     OW26065   0.553   2.750   4.203
 8389SOL    HW126066   0.583   2.682   4.270
 8389SOL    HW226067   0.483   2.808   4.244
 8390SOL     OW26068   2.860   6.972   5.761
 8390SOL    HW126069   2.799   0.025   5.732
 8390SOL    HW226070   2.888   6.918   5.681
 8391SOL     OW26071   5.771   5.982   0.634
 8391SOL    HW126072   5.774   6.047   0.558
 8391SOL    HW226073   5.852   5.993   0.691
 8392SOL     OW26074   5.202   6.330   6.136
 8392SOL    HW126075   5.194   6.429   6.127
 8392SOL    HW226076   5.229   6.290   6.049
 8393SOL     OW26077   6.937   5.055   2.614
 8393SOL    HW126078   6.984   5.037   2.700
 8393SOL    HW226079   6.903   5.149   2.614
 8394SOL     OW26080   0.682   1.851   3.159
 8394SOL    HW126081   0.728   1.890   3.079
 8394SOL    HW226082   0.683   1.918   3.233
 8395SOL     OW26083   1.093   6.204   5.472
 8395SOL    HW126084   1.040   6.156   5.403
 8395SOL    HW226085   1.067   6.172   5.563
 8396SOL     OW26086   4.067   2.715   1.117
 8396SOL    HW126087   4.136   2.649   1.147
 8396SOL    HW226088   4.086   2.744   1.024
 8397SOL     OW26089   2.416   4.682   3.537
 8397SOL    HW126090   2.362   4.651   3.616
 8397SOL    HW226091   2.446   4.776   3.552
 8398SOL     OW26092   5.654   1.018   6.993
 8398SOL    HW126093   5.645   1.112   0.007
 8398SOL    HW226094   5.718   0.968   0.032
 8399SOL     OW26095   5.703   6.016   0.116
 8399SOL    HW126096   5.777   5.972   0.066
 8399SOL    HW226097   5.620   5.961   0.109
 8400SOL     OW26098   6.288   0.221   4.569
 8400SOL    HW126099   6.332   0.207   4.658
 8400SOL    HW226100   6.324   0.155   4.503
 8401SOL     OW26101   2.853   4.419   6.060
 8401SOL    HW126102   2.865   4.413   5.961
 8401SOL    HW226103   2.943   4.425   6.104
 8402SOL     OW26104   4.775   1.363   6.231
 8402SOL    HW126105   4.740   1.275   6.261
 8402SOL    HW226106   4.725   1.394   6.150
 8403SOL     OW26107   1.216   1.872   4.651
 8403SOL    HW126108   1.291   1.828   4.600
 8403SOL    HW226109   1.232   1.970   4.654
 8404SOL     OW26110   4.598   5.154   5.148
 8404SOL    HW126111   4.593   5.107   5.236
 8404SOL    HW226112   4.611   5.088   5.074
 8405SOL     OW26113   1.286   2.492   5.054
 8405SOL    HW126114   1.291   2.422   4.983
 8405SOL    HW226115   1.372   2.542   5.058
 8406SOL     OW26116   5.045   3.861   1.055
 8406SOL    HW126117   5.036   3.829   0.961
 8406SOL    HW226118   5.131   3.911   1.066
 8407SOL     OW26119   4.980   3.469   2.477
 8407SOL    HW126120   4.910   3.403   2.505
 8407SOL    HW226121   4.949   3.517   2.395
 8408SOL     OW26122   4.848   3.124   4.091
 8408SOL    HW126123   4.831   3.133   3.993
 8408SOL    HW226124   4.850   3.216   4.132
 8409SOL     OW26125   0.445   1.837   4.136
 8409SOL    HW126126   0.447   1.898   4.057
 8409SOL    HW226127   0.539   1.816   4.165
 8410SOL     OW26128   2.497   6.537   2.448
 8410SOL    HW126129   2.477   6.512   2.543
 8410SOL    HW226130   2.588   6.504   2.423
 8411SOL     OW26131   2.030   2.973   3.270
 8411SOL    HW126132   1.976   2.973   3.354
 8411SOL    HW226133   2.055   2.879   3.246
 8412SOL     OW26134   6.088   3.229   2.151
 8412SOL    HW126135   6.096   3.133   2.122
 8412SOL    HW226136   6.089   3.234   2.250
 8413SOL     OW26137   2.670   4.578   1.519
 8413SOL    HW126138   2.659   4.589   1.618
 8413SOL    HW226139   2.701   4.485   1.499
 8414SOL     OW26140   5.589   6.509   2.493
 8414SOL    HW126141   5.649   6.589   2.496
 8414SOL    HW226142   5.621   6.445   2.423
 8415SOL     OW26143   6.761   3.797   1.622
 8415SOL    HW126144   6.662   3.792   1.632
 8415SOL    HW226145   6.801   3.708   1.644
 8416SOL     OW26146   5.143   4.236   2.273
 8416SOL    HW126147   5.166   4.153   2.324
 8416SOL    HW226148   5.051   4.227   2.235
 8417SOL     OW26149   2.352   5.803   6.208
 8417SOL    HW126150   2.418   5.757   6.149
 8417SOL    HW226151   2.400   5.862   6.272
 8418SOL     OW26152   5.911   5.549   2.603
 8418SOL    HW126153   5.863   5.588   2.526
 8418SOL    HW226154   5.953   5.462   2.576
 8419SOL     OW26155   4.298   0.102   3.612
 8419SOL    HW126156   4.345   0.171   3.667
 8419SOL    HW226157   4.202   0.096   3.640
 8420SOL     OW26158   3.715   1.961   5.759
 8420SOL    HW126159   3.712   2.057   5.787
 8420SOL    HW226160   3.790   1.948   5.695
 8421SOL     OW26161   1.356   6.555   1.532
 8421SOL    HW126162   1.412   6.636   1.518
 8421SOL    HW226163   1.321   6.523   1.444
 8422SOL     OW26164   3.980   6.392   1.400
 8422SOL    HW126165   3.887   6.403   1.365
 8422SOL    HW226166   3.990   6.301   1.441
 8423SOL     OW26167   1.905   3.874   1.197
 8423SOL    HW126168   1.885   3.946   1.263
 8423SOL    HW226169   1.820   3.827   1.172
 8424SOL     OW26170   3.276   2.113   2.342
 8424SOL    HW126171   3.288   2.196   2.395
 8424SOL    HW226172   3.195   2.121   2.284
 8425SOL     OW26173   6.365   4.796   7.016
 8425SOL    HW126174   6.454   4.835   0.022
 8425SOL    HW226175   6.298   4.869   7.010
 8426SOL     OW26176   4.026   3.747   2.444
 8426SOL    HW126177   4.036   3.776   2.539
 8426SOL    HW226178   3.945   3.689   2.436
 8427SOL     OW26179   2.270   2.718   6.152
 8427SOL    HW126180   2.314   2.630   6.170
 8427SOL    HW226181   2.241   2.758   6.239
 8428SOL     OW26182   6.169   4.607   1.885
 8428SOL    HW126183   6.264   4.584   1.904
 8428SOL    HW226184   6.126   4.643   1.968
 8429SOL     OW26185   2.352   0.272   2.735
 8429SOL    HW126186   2.392   0.344   2.679
 8429SOL    HW226187   2.425   0.217   2.776
 8430SOL     OW26188   5.236   4.119   3.333
 8430SOL    HW126189   5.316   4.143   3.278
 8430SOL    HW226190   5.177   4.058   3.279
 8431SOL     OW26191   2.881   4.067   1.604
 8431SOL    HW126192   2.802   4.007   1.615
 8431SOL    HW226193   2.853   4.162   1.621
 8432SOL     OW26194   4.517   6.492   0.496
 8432SOL    HW126195   4.427   6.456   0.472
 8432SOL    HW226196   4.506   6.568   0.560
 8433SOL     OW26197   1.375   1.544   4.727
 8433SOL    HW126198   1.380   1.619   4.662
 8433SOL    HW226199   1.316   1.472   4.691
 8434SOL     OW26200   5.527   6.075   6.431
 8434SOL    HW126201   5.466   6.009   6.386
 8434SOL    HW226202   5.472   6.150   6.469
 8435SOL     OW26203   5.008   2.843   1.448
 8435SOL    HW126204   4.987   2.937   1.423
 8435SOL    HW226205   5.099   2.839   1.491
 8436SOL     OW26206   3.417   4.214   1.474
 8436SOL    HW126207   3.492   4.149   1.476
 8436SOL    HW226208   3.382   4.228   1.567
 8437SOL     OW26209   0.021   2.291   1.390
 8437SOL    HW126210   0.067   2.287   1.301
 8437SOL    HW226211   6.962   2.229   1.390
 8438SOL     OW26212   2.182   6.515   1.174
 8438SOL    HW126213   2.154   6.425   1.140
 8438SOL    HW226214   2.121   6.542   1.249
 8439SOL     OW26215   6.113   6.860   2.151
 8439SOL    HW126216   6.094   6.935   2.214
 8439SOL    HW226217   6.050   6.864   2.074
 8440SOL     OW26218   0.290   2.151   3.525
 8440SOL    HW126219   0.318   2.247   3.536
 8440SOL    HW226220   0.205   2.147   3.474
 8441SOL     OW26221   4.390   5.247   1.467
 8441SOL    HW126222   4.308   5.258   1.411
 8441SOL    HW226223   4.385   5.160   1.517
 8442SOL     OW26224   1.897   3.651   0.367
 8442SOL    HW126225   1.953   3.728   0.337
 8442SOL    HW226226   1.836   3.622   0.293
 8443SOL     OW26227   0.688   1.769   2.420
 8443SOL    HW126228   0.603   1.717   2.406
 8443SOL    HW226229   0.748   1.719   2.482
 8444SOL     OW26230   4.276   0.415   2.526
 8444SOL    HW126231   4.218   0.477   2.579
 8444SOL    HW226232   4.219   0.351   2.476
 8445SOL     OW26233   4.032   5.556   2.042
 8445SOL    HW126234   4.073   5.535   2.131
 8445SOL    HW226235   4.100   5.598   1.983
 8446SOL     OW26236   6.777   4.859   3.858
 8446SOL    HW126237   6.826   4.944   3.880
 8446SOL    HW226238   6.795   4.834   3.762
 8447SOL     OW26239   4.622   3.229   1.159
 8447SOL    HW126240   4.632   3.244   1.258
 8447SOL    HW226241   4.555   3.293   1.123
 8448SOL     OW26242   1.326   2.377   6.201
 8448SOL    HW126243   1.416   2.404   6.165
 8448SOL    HW226244   1.338   2.340   6.293
 8449SOL     OW26245   1.190   1.518   5.223
 8449SOL    HW126246   1.249   1.487   5.297
 8449SOL    HW226247   1.246   1.557   5.150
 8450SOL     OW26248   2.357   5.547   2.136
 8450SOL    HW126249   2.373   5.455   2.172
 8450SOL    HW226250   2.375   5.548   2.038
 8451SOL     OW26251   4.315   3.254   0.432
 8451SOL    HW126252   4.360   3.164   0.439
 8451SOL    HW226253   4.235   3.255   0.492
 8452SOL     OW26254   6.979   5.852   0.670
 8452SOL    HW126255   6.888   5.821   0.644
 8452SOL    HW226256   0.014   5.774   0.699
 8453SOL     OW26257   0.533   4.828   5.213
 8453SOL    HW126258   0.541   4.867   5.304
 8453SOL    HW226259   0.452   4.768   5.208
 8454SOL     OW26260   1.797   6.523   5.081
 8454SOL    HW126261   1.755   6.435   5.102
 8454SOL    HW226262   1.741   6.572   5.014
 8455SOL     OW26263   6.271   2.693   0.890
 8455SOL    HW126264   6.202   2.752   0.846
 8455SOL    HW226265   6.336   2.749   0.941
 8456SOL     OW26266   5.829   5.933   3.336
 8456SOL    HW126267   5.848   5.997   3.261
 8456SOL    HW226268   5.750   5.965   3.388
 8457SOL     OW26269   6.306   6.064   6.450
 8457SOL    HW126270   6.308   6.141   6.515
 8457SOL    HW226271   6.257   5.987   6.491
 8458SOL     OW26272   1.330   1.917   1.248
 8458SOL    HW126273   1.413   1.898   1.301
 8458SOL    HW226274   1.356   1.944   1.155
 8459SOL     OW26275   3.054   5.724   2.155
 8459SOL    HW126276   3.065   5.638   2.204
 8459SOL    HW226277   2.960   5.757   2.164
 8460SOL     OW26278   4.059   1.004   0.487
 8460SOL    HW126279   4.125   1.011   0.562
 8460SOL    HW226280   4.005   0.921   0.497
 8461SOL     OW26281   5.321   4.233   2.688
 8461SOL    HW126282   5.250   4.303   2.679
 8461SOL    HW226283   5.308   4.164   2.617
 8462SOL     OW26284   2.586   4.202   0.534
 8462SOL    HW126285   2.535   4.136   0.479
 8462SOL    HW226286   2.523   4.274   0.566
 8463SOL     OW26287   6.395   0.705   6.933
 8463SOL    HW126288   6.371   0.608   6.928
 8463SOL    HW226289   6.312   0.760   6.941
 8464SOL     OW26290   6.956   3.848   6.068
 8464SOL    HW126291   6.954   3.948   6.072
 8464SOL    HW226292   6.875   3.811   6.114
 8465SOL     OW26293   5.023   3.213   0.821
 8465SOL    HW126294   4.947   3.237   0.883
 8465SOL    HW226295   5.054   3.120   0.840
 8466SOL     OW26296   6.506   1.371   5.841
 8466SOL    HW126297   6.554   1.284   5.828
 8466SOL    HW226298   6.421   1.355   5.892
 8467SOL     OW26299   3.767   1.090   0.474
 8467SOL    HW126300   3.854   1.084   0.425
 8467SOL    HW226301   3.740   1.186   0.481
 8468SOL     OW26302   5.728   3.226   0.118
 8468SOL    HW126303   5.668   3.261   0.046
 8468SOL    HW226304   5.788   3.299   0.150
 8469SOL     OW26305   4.307   3.441   5.838
 8469SOL    HW126306   4.381   3.477   5.781
 8469SOL    HW226307   4.263   3.516   5.887
 8470SOL     OW26308   1.322   5.254   1.582
 8470SOL    HW126309   1.303   5.158   1.602
 8470SOL    HW226310   1.281   5.311   1.653
 8471SOL     OW26311   3.537   1.613   4.149
 8471SOL    HW126312   3.558   1.659   4.062
 8471SOL    HW226313   3.602   1.642   4.219
 8472SOL     OW26314   6.462   1.703   6.101
 8472SOL    HW126315   6.541   1.644   6.082
 8472SOL    HW226316   6.470   1.787   6.048
 8473SOL     OW26317   5.005   4.258   0.134
 8473SOL    HW126318   4.944   4.188   0.096
 8473SOL    HW226319   5.084   4.269   0.073
 8474SOL     OW26320   3.983   3.929   3.868
 8474SOL    HW126321   3.917   3.961   3.800
 8474SOL    HW226322   3.961   3.969   3.957
 8475SOL     OW26323   6.652   2.803   2.881
 8475SOL    HW126324   6.570   2.746   2.873
 8475SOL    HW226325   6.625   2.900   2.884
 8476SOL     OW26326   6.088   1.046   1.437
 8476SOL    HW126327   6.141   1.060   1.520
 8476SOL    HW226328   6.015   0.979   1.454
 8477SOL     OW26329   5.723   6.596   1.831
 8477SOL    HW126330   5.748   6.626   1.739
 8477SOL    HW226331   5.707   6.675   1.889
 8478SOL     OW26332   0.085   0.374   5.649
 8478SOL    HW126333   0.039   0.290   5.620
 8478SOL    HW226334   0.092   0.375   5.749
 8479SOL     OW26335   0.996   2.780   0.542
 8479SOL    HW126336   1.088   2.788   0.581
 8479SOL    HW226337   1.002   2.781   0.442
 8480SOL     OW26338   4.242   3.683   0.144
 8480SOL    HW126339   4.224   3.606   0.205
 8480SOL    HW226340   4.286   3.650   0.060
 8481SOL     OW26341   4.618   2.241   3.297
 8481SOL    HW126342   4.595   2.171   3.229
 8481SOL    HW226343   4.614   2.331   3.254
 8482SOL     OW26344   4.765   0.810   0.712
 8482SOL    HW126345   4.751   0.711   0.717
 8482SOL    HW226346   4.780   0.847   0.804
 8483SOL     OW26347   3.847   5.042   2.823
 8483SOL    HW126348   3.813   5.005   2.736
 8483SOL    HW226349   3.893   5.129   2.806
 8484SOL     OW26350   4.816   5.895   5.075
 8484SOL    HW126351   4.742   5.902   5.141
 8484SOL    HW226352   4.881   5.825   5.105
 8485SOL     OW26353   3.618   1.925   0.043
 8485SOL    HW126354   3.614   1.829   0.014
 8485SOL    HW226355   3.562   1.937   0.126
 8486SOL     OW26356   6.349   2.455   3.535
 8486SOL    HW126357   6.424   2.429   3.596
 8486SOL    HW226358   6.363   2.413   3.445
 8487SOL     OW26359   6.844   1.952   6.537
 8487SOL    HW126360   6.914   1.888   6.570
 8487SOL    HW226361   6.879   2.045   6.540
 8488SOL     OW26362   4.557   5.327   1.904
 8488SOL    HW126363   4.627   5.388   1.868
 8488SOL    HW226364   4.568   5.317   2.003
 8489SOL     OW26365   6.135   2.019   1.719
 8489SOL    HW126366   6.063   2.002   1.652
 8489SOL    HW226367   6.095   2.056   1.803
 8490SOL     OW26368   3.307   0.361   6.670
 8490SOL    HW126369   3.399   0.323   6.675
 8490SOL    HW226370   3.311   0.453   6.630
 8491SOL     OW26371   2.968   5.823   1.783
 8491SOL    HW126372   3.010   5.880   1.853
 8491SOL    HW226373   2.892   5.771   1.823
 8492SOL     OW26374   6.262   6.343   4.542
 8492SOL    HW126375   6.219   6.413   4.599
 8492SOL    HW226376   6.202   6.322   4.465
 8493SOL     OW26377   4.980   1.397   6.633
 8493SOL    HW126378   4.942   1.391   6.726
 8493SOL    HW226379   4.982   1.305   6.593
 8494SOL     OW26380   6.596   4.524   2.625
 8494SOL    HW126381   6.671   4.584   2.651
 8494SOL    HW226382   6.582   4.455   2.696
 8495SOL     OW26383   6.341   5.415   6.270
 8495SOL    HW126384   6.254   5.423   6.222
 8495SOL    HW226385   6.410   5.471   6.223
 8496SOL     OW26386   5.212   2.996   2.051
 8496SOL    HW126387   5.177   2.961   2.138
 8496SOL    HW226388   5.265   3.079   2.067
 8497SOL     OW26389   6.671   0.634   3.482
 8497SOL    HW126390   6.619   0.569   3.425
 8497SOL    HW226391   6.630   0.725   3.474
 8498SOL     OW26392   5.051   0.295   3.849
 8498SOL    HW126393   5.116   0.252   3.787
 8498SOL    HW226394   4.961   0.252   3.839
 8499SOL     OW26395   5.701   6.789   5.278
 8499SOL    HW126396   5.734   6.781   5.184
 8499SOL    HW226397   5.611   6.746   5.285
 8500SOL     OW26398   1.166   0.800   6.220
 8500SOL    HW126399   1.161   0.741   6.140
 8500SOL    HW226400   1.257   0.843   6.225
 8501SOL     OW26401   1.702   1.674   6.616
 8501SOL    HW126402   1.614   1.698   6.656
 8501SOL    HW226403   1.771   1.670   6.688
 8502SOL     OW26404   0.580   3.975   6.445
 8502SOL    HW126405   0.561   4.065   6.482
 8502SOL    HW226406   0.494   3.928   6.425
 8503SOL     OW26407   4.983   1.321   4.789
 8503SOL    HW126408   5.081   1.320   4.810
 8503SOL    HW226409   4.934   1.273   4.862
 8504SOL     OW26410   1.398   0.198   1.929
 8504SOL    HW126411   1.358   0.235   2.013
 8504SOL    HW226412   1.351   0.113   1.905
 8505SOL     OW26413   5.347   3.177   2.416
 8505SOL    HW126414   5.431   3.193   2.363
 8505SOL    HW226415   5.270   3.222   2.371
 8506SOL     OW26416   1.820   1.065   6.088
 8506SOL    HW126417   1.721   1.051   6.079
 8506SOL    HW226418   1.867   0.977   6.084
 8507SOL     OW26419   3.230   6.306   5.254
 8507SOL    HW126420   3.273   6.265   5.335
 8507SOL    HW226421   3.153   6.363   5.283
 8508SOL     OW26422   3.067   1.200   0.123
 8508SOL    HW126423   3.053   1.246   0.035
 8508SOL    HW226424   3.048   1.264   0.197
 8509SOL     OW26425   5.827   2.369   3.117
 8509SOL    HW126426   5.790   2.461   3.103
 8509SOL    HW226427   5.848   2.328   3.028
 8510SOL     OW26428   0.137   2.265   4.647
 8510SOL    HW126429   0.082   2.257   4.564
 8510SOL    HW226430   0.137   2.178   4.696
 8511SOL     OW26431   5.664   1.976   2.893
 8511SOL    HW126432   5.641   1.906   2.826
 8511SOL    HW226433   5.753   1.955   2.933
 8512SOL     OW26434   2.435   6.718   5.939
 8512SOL    HW126435   2.473   6.721   5.847
 8512SOL    HW226436   2.429   6.623   5.970
 8513SOL     OW26437   4.885   6.384   6.932
 8513SOL    HW126438   4.835   6.379   6.846
 8513SOL    HW226439   4.982   6.401   6.914
 8514SOL     OW26440   3.094   5.960   4.206
 8514SOL    HW126441   3.153   5.937   4.129
 8514SOL    HW226442   3.053   6.050   4.190
 8515SOL     OW26443   5.661   2.035   0.839
 8515SOL    HW126444   5.663   2.046   0.740
 8515SOL    HW226445   5.738   1.978   0.868
 8516SOL     OW26446   6.883   1.795   2.385
 8516SOL    HW126447   6.916   1.717   2.331
 8516SOL    HW226448   6.844   1.863   2.323
 8517SOL     OW26449   1.200   3.428   0.459
 8517SOL    HW126450   1.203   3.344   0.405
 8517SOL    HW226451   1.289   3.473   0.455
 8518SOL     OW26452   3.080   6.060   0.512
 8518SOL    HW126453   3.095   5.996   0.437
 8518SOL    HW226454   2.999   6.116   0.492
 8519SOL     OW26455   2.171   5.540   3.005
 8519SOL    HW126456   2.263   5.526   2.967
 8519SOL    HW226457   2.178   5.589   3.092
 8520SOL     OW26458   3.546   0.205   6.651
 8520SOL    HW126459   3.594   0.129   6.694
 8520SOL    HW226460   3.588   0.225   6.562
 8521SOL     OW26461   1.464   0.562   0.843
 8521SOL    HW126462   1.488   0.593   0.751
 8521SOL    HW226463   1.546   0.524   0.888
 8522SOL     OW26464   2.259   6.096   4.532
 8522SOL    HW126465   2.271   6.089   4.631
 8522SOL    HW226466   2.276   6.190   4.502
 8523SOL     OW26467   1.479   6.500   0.264
 8523SOL    HW126468   1.477   6.600   0.273
 8523SOL    HW226469   1.573   6.467   0.272
 8524SOL     OW26470   1.873   1.887   6.424
 8524SOL    HW126471   1.887   1.985   6.407
 8524SOL    HW226472   1.776   1.865   6.415
 8525SOL     OW26473   4.984   3.163   3.006
 8525SOL    HW126474   5.081   3.166   3.030
 8525SOL    HW226475   4.934   3.111   3.075
 8526SOL     OW26476   1.619   3.122   2.907
 8526SOL    HW126477   1.703   3.078   2.939
 8526SOL    HW226478   1.639   3.216   2.879
 8527SOL     OW26479   3.997   0.355   3.933
 8527SOL    HW126480   4.021   0.260   3.955
 8527SOL    HW226481   3.940   0.393   4.006
 8528SOL     OW26482   4.941   2.507   6.971
 8528SOL    HW126483   5.018   2.557   6.931
 8528SOL    HW226484   4.882   2.571   0.000
 8529SOL     OW26485   0.305   5.414   6.530
 8529SOL    HW126486   0.355   5.402   6.616
 8529SOL    HW226487   0.362   5.468   6.467
 8530SOL     OW26488   1.384   4.062   6.000
 8530SOL    HW126489   1.455   3.991   6.006
 8530SOL    HW226490   1.331   4.049   5.917
 8531SOL     OW26491   4.012   4.800   2.243
 8531SOL    HW126492   3.935   4.858   2.213
 8531SOL    HW226493   3.976   4.718   2.287
 8532SOL     OW26494   1.371   4.065   6.701
 8532SOL    HW126495   1.461   4.044   6.661
 8532SOL    HW226496   1.345   4.159   6.677
 8533SOL     OW26497   3.962   0.121   5.838
 8533SOL    HW126498   3.948   0.202   5.782
 8533SOL    HW226499   3.972   0.148   5.934
 8534SOL     OW26500   1.198   2.675   2.516
 8534SOL    HW126501   1.229   2.770   2.520
 8534SOL    HW226502   1.110   2.669   2.469
 8535SOL     OW26503   6.802   3.240   5.222
 8535SOL    HW126504   6.797   3.140   5.218
 8535SOL    HW226505   6.882   3.268   5.274
 8536SOL     OW26506   6.876   1.226   4.096
 8536SOL    HW126507   6.902   1.264   4.007
 8536SOL    HW226508   6.883   1.126   4.092
 8537SOL     OW26509   5.327   6.628   3.001
 8537SOL    HW126510   5.294   6.623   2.906
 8537SOL    HW226511   5.426   6.616   3.003
 8538SOL     OW26512   5.797   0.733   5.312
 8538SOL    HW126513   5.863   0.797   5.272
 8538SOL    HW226514   5.712   0.736   5.261
 8539SOL     OW26515   6.986   3.025   3.355
 8539SOL    HW126516   0.011   3.020   3.445
 8539SOL    HW226517   0.035   3.032   3.284
 8540SOL     OW26518   4.191   6.870   6.586
 8540SOL    HW126519   4.231   6.961   6.569
 8540SOL    HW226520   4.124   6.849   6.514
 8541SOL     OW26521   3.381   6.233   5.032
 8541SOL    HW126522   3.304   6.228   4.969
 8541SOL    HW226523   3.347   6.243   5.126
 8542SOL     OW26524   1.025   5.775   5.962
 8542SOL    HW126525   0.972   5.827   5.895
 8542SOL    HW226526   1.109   5.742   5.919
 8543SOL     OW26527   2.640   2.762   5.989
 8543SOL    HW126528   2.722   2.714   5.959
 8543SOL    HW226529   2.624   2.841   5.929
 8544SOL     OW26530   5.509   5.117   5.158
 8544SOL    HW126531   5.582   5.136   5.225
 8544SOL    HW226532   5.422   5.107   5.207
 8545SOL     OW26533   2.224   6.719   6.738
 8545SOL    HW126534   2.217   6.620   6.751
 8545SOL    HW226535   2.275   6.738   6.654
 8546SOL     OW26536   4.496   1.089   3.013
 8546SOL    HW126537   4.518   1.153   2.940
 8546SOL    HW226538   4.571   1.084   3.078
 8547SOL     OW26539   5.569   6.178   5.668
 8547SOL    HW126540   5.595   6.110   5.598
 8547SOL    HW226541   5.651   6.221   5.704
 8548SOL     OW26542   0.968   3.604   4.740
 8548SOL    HW126543   0.927   3.662   4.670
 8548SOL    HW226544   1.051   3.647   4.775
 8549SOL     OW26545   1.099   0.516   4.353
 8549SOL    HW126546   1.146   0.428   4.359
 8549SOL    HW226547   1.038   0.515   4.273
 8550SOL     OW26548   6.856   5.293   5.855
 8550SOL    HW126549   6.930   5.319   5.793
 8550SOL    HW226550   6.889   5.297   5.949
 8551SOL     OW26551   2.757   0.172   5.619
 8551SOL    HW126552   2.776   0.265   5.650
 8551SOL    HW226553   2.822   0.147   5.548
 8552SOL     OW26554   2.718   1.438   1.784
 8552SOL    HW126555   2.662   1.381   1.723
 8552SOL    HW226556   2.813   1.407   1.780
 8553SOL     OW26557   4.949   3.823   0.437
 8553SOL    HW126558   5.022   3.754   0.442
 8553SOL    HW226559   4.875   3.798   0.500
 8554SOL     OW26560   1.938   0.658   0.232
 8554SOL    HW126561   1.979   0.727   0.172
 8554SOL    HW226562   1.904   0.582   0.177
 8555SOL     OW26563   4.193   1.839   3.908
 8555SOL    HW126564   4.126   1.855   3.836
 8555SOL    HW226565   4.183   1.746   3.943
 8556SOL     OW26566   0.806   5.803   5.773
 8556SOL    HW126567   0.825   5.705   5.764
 8556SOL    HW226568   0.836   5.851   5.690
 8557SOL     OW26569   6.823   0.741   6.381
 8557SOL    HW126570   6.770   0.685   6.444
 8557SOL    HW226571   6.845   0.687   6.299
 8558SOL     OW26572   2.781   5.903   4.275
 8558SOL    HW126573   2.878   5.885   4.286
 8558SOL    HW226574   2.757   5.987   4.324
 8559SOL     OW26575   1.984   4.343   2.725
 8559SOL    HW126576   1.902   4.359   2.780
 8559SOL    HW226577   1.966   4.269   2.660
 8560SOL     OW26578   2.816   4.349   0.668
 8560SOL    HW126579   2.761   4.280   0.621
 8560SOL    HW226580   2.767   4.382   0.748
 8561SOL     OW26581   3.498   0.396   2.871
 8561SOL    HW126582   3.407   0.430   2.847
 8561SOL    HW226583   3.488   0.313   2.925
 8562SOL     OW26584   5.408   2.252   0.305
 8562SOL    HW126585   5.504   2.278   0.295
 8562SOL    HW226586   5.399   2.186   0.379
 8563SOL     OW26587   2.911   5.248   2.275
 8563SOL    HW126588   2.995   5.195   2.269
 8563SOL    HW226589   2.933   5.346   2.268
 8564SOL     OW26590   4.114   6.701   0.254
 8564SOL    HW126591   4.037   6.676   0.314
 8564SOL    HW226592   4.166   6.775   0.296
 8565SOL     OW26593   1.602   4.540   1.520
 8565SOL    HW126594   1.662   4.598   1.574
 8565SOL    HW226595   1.545   4.485   1.580
 8566SOL     OW26596   3.422   1.013   2.406
 8566SOL    HW126597   3.434   0.915   2.392
 8566SOL    HW226598   3.408   1.058   2.318
 8567SOL     OW26599   1.343   2.476   2.425
 8567SOL    HW126600   1.403   2.442   2.496
 8567SOL    HW226601   1.291   2.554   2.459
 8568SOL     OW26602   6.295   0.521   6.199
 8568SOL    HW126603   6.301   0.620   6.211
 8568SOL    HW226604   6.290   0.499   6.101
 8569SOL     OW26605   4.695   2.284   0.211
 8569SOL    HW126606   4.695   2.377   0.248
 8569SOL    HW226607   4.601   2.256   0.191
 8570SOL     OW26608   2.541   2.052   1.876
 8570SOL    HW126609   2.582   1.981   1.819
 8570SOL    HW226610   2.598   2.134   1.874
 8571SOL     OW26611   1.652   1.011   2.722
 8571SOL    HW126612   1.670   0.920   2.757
 8571SOL    HW226613   1.570   1.009   2.665
 8572SOL     OW26614   2.635   3.900   5.727
 8572SOL    HW126615   2.637   3.958   5.808
 8572SOL    HW226616   2.718   3.913   5.674
 8573SOL     OW26617   2.958   6.089   6.633
 8573SOL    HW126618   2.934   6.046   6.720
 8573SOL    HW226619   3.010   6.023   6.577
 8574SOL     OW26620   4.895   0.570   5.389
 8574SOL    HW126621   4.963   0.608   5.326
 8574SOL    HW226622   4.804   0.591   5.354
 8575SOL     OW26623   3.694   5.986   3.845
 8575SOL    HW126624   3.674   5.899   3.890
 8575SOL    HW226625   3.609   6.023   3.806
 8576SOL     OW26626   1.656   4.624   4.376
 8576SOL    HW126627   1.727   4.554   4.381
 8576SOL    HW226628   1.683   4.703   4.431
 8577SOL     OW26629   2.132   1.577   0.841
 8577SOL    HW126630   2.072   1.652   0.869
 8577SOL    HW226631   2.153   1.586   0.744
 8578SOL     OW26632   0.816   0.211   0.180
 8578SOL    HW126633   0.814   0.117   0.146
 8578SOL    HW226634   0.777   0.272   0.112
 8579SOL     OW26635   2.628   6.852   2.639
 8579SOL    HW126636   2.684   6.802   2.573
 8579SOL    HW226637   2.556   6.902   2.590
 8580SOL     OW26638   1.792   0.097   2.060
 8580SOL    HW126639   1.856   0.022   2.046
 8580SOL    HW226640   1.742   0.114   1.975
 8581SOL     OW26641   3.410   4.897   0.987
 8581SOL    HW126642   3.356   4.908   1.070
 8581SOL    HW226643   3.377   4.960   0.916
 8582SOL     OW26644   3.818   5.263   5.417
 8582SOL    HW126645   3.893   5.199   5.403
 8582SOL    HW226646   3.853   5.356   5.420
 8583SOL     OW26647   3.714   6.647   2.814
 8583SOL    HW126648   3.665   6.621   2.730
 8583SOL    HW226649   3.660   6.620   2.894
 8584SOL     OW26650   6.533   1.390   4.561
 8584SOL    HW126651   6.535   1.325   4.485
 8584SOL    HW226652   6.577   1.350   4.641
 8585SOL     OW26653   5.703   2.834   2.807
 8585SOL    HW126654   5.706   2.896   2.886
 8585SOL    HW226655   5.652   2.877   2.733
 8586SOL     OW26656   6.643   6.339   6.762
 8586SOL    HW126657   6.705   6.339   6.840
 8586SOL    HW226658   6.558   6.291   6.786
 8587SOL     OW26659   0.334   1.970   0.012
 8587SOL    HW126660   0.369   1.908   0.082
 8587SOL    HW226661   0.381   2.058   0.017
 8588SOL     OW26662   2.667   0.513   5.669
 8588SOL    HW126663   2.758   0.486   5.702
 8588SOL    HW226664   2.663   0.503   5.570
 8589SOL     OW26665   5.636   2.804   6.986
 8589SOL    HW126666   5.721   2.852   7.008
 8589SOL    HW226667   5.614   2.740   0.041
 8590SOL     OW26668   0.490   0.420   4.055
 8590SOL    HW126669   0.420   0.491   4.045
 8590SOL    HW226670   0.451   0.331   4.031
 8591SOL     OW26671   6.716   4.470   6.400
 8591SOL    HW126672   6.704   4.547   6.463
 8591SOL    HW226673   6.713   4.384   6.451
 8592SOL     OW26674   0.414   1.723   4.441
 8592SOL    HW126675   0.478   1.663   4.489
 8592SOL    HW226676   0.441   1.729   4.344
 8593SOL     OW26677   5.694   1.417   6.901
 8593SOL    HW126678   5.673   1.362   6.982
 8593SOL    HW226679   5.609   1.439   6.853
 8594SOL     OW26680   6.239   3.428   6.501
 8594SOL    HW126681   6.271   3.523   6.497
 8594SOL    HW226682   6.190   3.413   6.586
 8595SOL     OW26683   6.063   6.384   3.347
 8595SOL    HW126684   6.135   6.453   3.338
 8595SOL    HW226685   6.003   6.408   3.423
 8596SOL     OW26686   0.267   1.143   4.027
 8596SOL    HW126687   0.180   1.099   4.007
 8596SOL    HW226688   0.299   1.115   4.118
 8597SOL     OW26689   6.154   2.921   5.749
 8597SOL    HW126690   6.172   2.851   5.818
 8597SOL    HW226691   6.093   2.884   5.679
 8598SOL     OW26692   6.130   0.149   4.990
 8598SOL    HW126693   6.117   0.170   4.894
 8598SOL    HW226694   6.094   0.224   5.046
 8599SOL     OW26695   6.643   3.675   4.285
 8599SOL    HW126696   6.664   3.708   4.377
 8599SOL    HW226697   6.712   3.607   4.257
 8600SOL     OW26698   4.840   2.598   0.865
 8600SOL    HW126699   4.843   2.697   0.868
 8600SOL    HW226700   4.781   2.564   0.939
 8601SOL     OW26701   6.504   5.995   3.347
 8601SOL    HW126702   6.569   6.013   3.421
 8601SOL    HW226703   6.417   5.966   3.386
 8602SOL     OW26704   2.057   6.666   6.122
 8602SOL    HW126705   1.958   6.678   6.131
 8602SOL    HW226706   2.079   6.568   6.128
 8603SOL     OW26707   1.129   0.443   0.078
 8603SOL    HW126708   1.035   0.475   0.062
 8603SOL    HW226709   1.136   0.347   0.053
 8604SOL     OW26710   1.121   4.664   5.870
 8604SOL    HW126711   1.160   4.706   5.788
 8604SOL    HW226712   1.140   4.566   5.870
 8605SOL     OW26713   0.275   4.495   4.275
 8605SOL    HW126714   0.334   4.497   4.356
 8605SOL    HW226715   0.285   4.407   4.229
 8606SOL     OW26716   1.564   2.221   0.549
 8606SOL    HW126717   1.470   2.251   0.533
 8606SOL    HW226718   1.607   2.196   0.462
 8607SOL     OW26719   1.916   3.913   1.603
 8607SOL    HW126720   1.941   3.818   1.617
 8607SOL    HW226721   1.853   3.942   1.675
 8608SOL     OW26722   1.569   5.997   2.765
 8608SOL    HW126723   1.586   5.959   2.675
 8608SOL    HW226724   1.622   6.081   2.777
 8609SOL     OW26725   4.028   1.502   4.791
 8609SOL    HW126726   4.095   1.567   4.754
 8609SOL    HW226727   3.935   1.536   4.773
 8610SOL     OW26728   6.836   6.041   3.037
 8610SOL    HW126729   6.931   6.022   3.012
 8610SOL    HW226730   6.805   6.123   2.989
 8611SOL     OW26731   2.609   1.201   4.925
 8611SOL    HW126732   2.686   1.260   4.950
 8611SOL    HW226733   2.635   1.143   4.848
 8612SOL     OW26734   3.128   3.013   3.917
 8612SOL    HW126735   3.206   3.046   3.864
 8612SOL    HW226736   3.158   2.941   3.979
 8613SOL     OW26737   3.927   3.213   2.679
 8613SOL    HW126738   3.973   3.178   2.597
 8613SOL    HW226739   3.987   3.276   2.727
 8614SOL     OW26740   1.023   2.552   3.195
 8614SOL    HW126741   1.082   2.544   3.114
 8614SOL    HW226742   1.077   2.585   3.273
 8615SOL     OW26743   3.567   1.834   4.665
 8615SOL    HW126744   3.492   1.823   4.599
 8615SOL    HW226745   3.545   1.908   4.728
 8616SOL     OW26746   5.536   4.623   3.877
 8616SOL    HW126747   5.532   4.708   3.825
 8616SOL    HW226748   5.616   4.570   3.849
 8617SOL     OW26749   2.115   0.512   3.566
 8617SOL    HW126750   2.054   0.582   3.603
 8617SOL    HW226751   2.200   0.556   3.535
 8618SOL     OW26752   5.610   4.029   1.436
 8618SOL    HW126753   5.582   4.008   1.342
 8618SOL    HW226754   5.649   3.948   1.479
 8619SOL     OW26755   5.174   5.624   0.309
 8619SOL    HW126756   5.079   5.629   0.340
 8619SOL    HW226757   5.233   5.668   0.376
 8620SOL     OW26758   2.202   0.229   4.138
 8620SOL    HW126759   2.111   0.229   4.179
 8620SOL    HW226760   2.241   0.137   4.144
 8621SOL     OW26761   5.458   3.598   1.577
 8621SOL    HW126762   5.437   3.637   1.487
 8621SOL    HW226763   5.490   3.670   1.638
 8622SOL     OW26764   6.792   5.085   2.362
 8622SOL    HW126765   6.832   5.054   2.449
 8622SOL    HW226766   6.763   5.007   2.308
 8623SOL     OW26767   1.274   3.087   3.815
 8623SOL    HW126768   1.325   3.170   3.836
 8623SOL    HW226769   1.179   3.110   3.793
 8624SOL     OW26770   3.226   3.738   4.889
 8624SOL    HW126771   3.187   3.650   4.862
 8624SOL    HW226772   3.273   3.779   4.810
 8625SOL     OW26773   3.528   2.842   5.122
 8625SOL    HW126774   3.568   2.852   5.031
 8625SOL    HW226775   3.576   2.770   5.173
 8626SOL     OW26776   3.789   2.726   1.159
 8626SOL    HW126777   3.878   2.737   1.116
 8626SOL    HW226778   3.794   2.655   1.230
 8627SOL     OW26779   1.912   1.245   2.429
 8627SOL    HW126780   2.012   1.235   2.434
 8627SOL    HW226781   1.884   1.254   2.334
 8628SOL     OW26782   0.830   6.591   0.536
 8628SOL    HW126783   0.747   6.547   0.570
 8628SOL    HW226784   0.833   6.583   0.436
 8629SOL     OW26785   0.176   6.528   5.146
 8629SOL    HW126786   0.126   6.594   5.090
 8629SOL    HW226787   0.242   6.479   5.089
 8630SOL     OW26788   4.833   2.797   2.034
 8630SOL    HW126789   4.788   2.759   2.115
 8630SOL    HW226790   4.815   2.895   2.029
 8631SOL     OW26791   2.630   5.990   6.591
 8631SOL    HW126792   2.730   5.996   6.585
 8631SOL    HW226793   2.595   6.073   6.635
 8632SOL     OW26794   5.522   5.279   4.441
 8632SOL    HW126795   5.440   5.228   4.418
 8632SOL    HW226796   5.599   5.244   4.389
 8633SOL     OW26797   6.049   4.079   5.464
 8633SOL    HW126798   5.982   4.010   5.436
 8633SOL    HW226799   6.040   4.159   5.406
 8634SOL     OW26800   5.161   3.601   0.121
 8634SOL    HW126801   5.179   3.502   0.117
 8634SOL    HW226802   5.174   3.633   0.215
 8635SOL     OW26803   6.029   2.691   6.741
 8635SOL    HW126804   6.071   2.615   6.691
 8635SOL    HW226805   5.952   2.728   6.688
 8636SOL     OW26806   4.850   6.720   1.608
 8636SOL    HW126807   4.798   6.635   1.607
 8636SOL    HW226808   4.820   6.779   1.533
 8637SOL     OW26809   2.250   1.833   5.919
 8637SOL    HW126810   2.260   1.788   6.008
 8637SOL    HW226811   2.200   1.918   5.931
 8638SOL     OW26812   4.708   2.889   3.195
 8638SOL    HW126813   4.621   2.927   3.162
 8638SOL    HW226814   4.733   2.810   3.140
 8639SOL     OW26815   3.772   3.556   6.853
 8639SOL    HW126816   3.692   3.506   6.888
 8639SOL    HW226817   3.788   3.637   6.908
 8640SOL     OW26818   3.355   2.856   0.795
 8640SOL    HW126819   3.337   2.890   0.888
 8640SOL    HW226820   3.283   2.888   0.734
 8641SOL     OW26821   4.076   4.974   2.498
 8641SOL    HW126822   4.043   4.919   2.421
 8641SOL    HW226823   4.040   5.067   2.489
 8642SOL     OW26824   1.139   5.545   3.049
 8642SOL    HW126825   1.060   5.546   2.988
 8642SOL    HW226826   1.212   5.601   3.009
 8643SOL     OW26827   4.007   6.736   1.087
 8643SOL    HW126828   3.971   6.792   1.162
 8643SOL    HW226829   4.034   6.796   1.011
 8644SOL     OW26830   6.213   2.217   6.295
 8644SOL    HW126831   6.256   2.149   6.354
 8644SOL    HW226832   6.113   2.211   6.305
 8645SOL     OW26833   5.584   5.384   2.986
 8645SOL    HW126834   5.636   5.300   3.001
 8645SOL    HW226835   5.623   5.433   2.908
 8646SOL     OW26836   6.298   2.283   4.750
 8646SOL    HW126837   6.364   2.316   4.682
 8646SOL    HW226838   6.231   2.355   4.769
 8647SOL     OW26839   2.089   5.688   1.874
 8647SOL    HW126840   2.014   5.640   1.828
 8647SOL    HW226841   2.165   5.700   1.809
 8648SOL     OW26842   4.941   4.531   0.542
 8648SOL    HW126843   4.962   4.473   0.463
 8648SOL    HW226844   5.016   4.526   0.608
 8649SOL     OW26845   5.733   1.075   1.403
 8649SOL    HW126846   5.778   1.164   1.394
 8649SOL    HW226847   5.731   1.049   1.499
 8650SOL     OW26848   2.230   6.530   5.412
 8650SOL    HW126849   2.155   6.581   5.454
 8650SOL    HW226850   2.271   6.468   5.480
 8651SOL     OW26851   4.070   2.650   1.600
 8651SOL    HW126852   3.991   2.626   1.657
 8651SOL    HW226853   4.153   2.610   1.639
 8652SOL     OW26854   1.153   2.795   3.545
 8652SOL    HW126855   1.111   2.817   3.457
 8652SOL    HW226856   1.213   2.870   3.574
 8653SOL     OW26857   6.535   1.821   6.904
 8653SOL    HW126858   6.587   1.827   6.819
 8653SOL    HW226859   6.458   1.885   6.899
 8654SOL     OW26860   0.457   4.538   2.538
 8654SOL    HW126861   0.466   4.636   2.550
 8654SOL    HW226862   0.422   4.518   2.447
 8655SOL     OW26863   0.277   0.221   4.714
 8655SOL    HW126864   0.364   0.271   4.711
 8655SOL    HW226865   0.225   0.251   4.794
 8656SOL     OW26866   4.881   6.751   1.113
 8656SOL    HW126867   4.811   6.681   1.107
 8656SOL    HW226868   4.847   6.828   1.166
 8657SOL     OW26869   3.721   1.658   3.459
 8657SOL    HW126870   3.804   1.712   3.442
 8657SOL    HW226871   3.722   1.627   3.555
 8658SOL     OW26872   5.559   4.449   1.020
 8658SOL    HW126873   5.538   4.384   1.093
 8658SOL    HW226874   5.654   4.481   1.031
 8659SOL     OW26875   3.160   0.994   2.561
 8659SOL    HW126876   3.123   0.978   2.470
 8659SOL    HW226877   3.247   1.042   2.554
 8660SOL     OW26878   0.616   4.814   1.896
 8660SOL    HW126879   0.688   4.751   1.926
 8660SOL    HW226880   0.578   4.782   1.809
 8661SOL     OW26881   0.001   3.708   2.739
 8661SOL    HW126882   0.037   3.777   2.677
 8661SOL    HW226883   6.922   3.703   2.731
 8662SOL     OW26884   2.006   3.275   3.633
 8662SOL    HW126885   1.917   3.289   3.676
 8662SOL    HW226886   2.038   3.360   3.593
 8663SOL     OW26887   3.900   5.580   2.534
 8663SOL    HW126888   3.978   5.564   2.474
 8663SOL    HW226889   3.932   5.602   2.626
 8664SOL     OW26890   4.371   5.929   3.297
 8664SOL    HW126891   4.448   5.944   3.358
 8664SOL    HW226892   4.388   5.848   3.240
 8665SOL     OW26893   5.588   3.831   6.444
 8665SOL    HW126894   5.649   3.799   6.372
 8665SOL    HW226895   5.614   3.788   6.531
 8666SOL     OW26896   4.528   6.751   2.675
 8666SOL    HW126897   4.556   6.714   2.764
 8666SOL    HW226898   4.522   6.676   2.609
 8667SOL     OW26899   4.941   2.298   2.875
 8667SOL    HW126900   5.007   2.226   2.855
 8667SOL    HW226901   4.921   2.298   2.973
 8668SOL     OW26902   4.944   2.407   5.205
 8668SOL    HW126903   4.848   2.380   5.214
 8668SOL    HW226904   4.960   2.492   5.256
 8669SOL     OW26905   6.580   6.425   6.105
 8669SOL    HW126906   6.489   6.386   6.117
 8669SOL    HW226907   6.572   6.519   6.074
 8670SOL     OW26908   6.676   4.564   5.826
 8670SOL    HW126909   6.583   4.548   5.858
 8670SOL    HW226910   6.740   4.508   5.878
 8671SOL     OW26911   0.660   3.248   2.990
 8671SOL    HW126912   0.727   3.217   3.058
 8671SOL    HW226913   0.600   3.172   2.966
 8672SOL     OW26914   0.108   1.049   2.158
 8672SOL    HW126915   0.118   1.120   2.088
 8672SOL    HW226916   0.010   1.034   2.176
 8673SOL     OW26917   1.173   2.182   1.439
 8673SOL    HW126918   1.226   2.120   1.498
 8673SOL    HW226919   1.171   2.273   1.480
 8674SOL     OW26920   7.019   4.017   3.494
 8674SOL    HW126921   6.964   4.091   3.456
 8674SOL    HW226922   0.052   4.051   3.572
 8675SOL     OW26923   4.127   2.238   4.859
 8675SOL    HW126924   4.175   2.269   4.777
 8675SOL    HW226925   4.149   2.299   4.936
 8676SOL     OW26926   5.180   1.660   0.746
 8676SOL    HW126927   5.159   1.576   0.696
 8676SOL    HW226928   5.098   1.716   0.754
 8677SOL     OW26929   2.354   6.730   5.650
 8677SOL    HW126930   2.385   6.810   5.599
 8677SOL    HW226931   2.256   6.717   5.635
 8678SOL     OW26932   1.720   1.996   0.389
 8678SOL    HW126933   1.696   2.041   0.303
 8678SOL    HW226934   1.808   2.031   0.421
 8679SOL     OW26935   1.535   1.990   6.161
 8679SOL    HW126936   1.619   1.940   6.143
 8679SOL    HW226937   1.508   1.977   6.257
 8680SOL     OW26938   6.872   0.740   0.102
 8680SOL    HW126939   6.875   0.642   0.123
 8680SOL    HW226940   6.781   0.765   0.069
 8681SOL     OW26941   5.315   6.133   1.420
 8681SOL    HW126942   5.360   6.222   1.420
 8681SOL    HW226943   5.277   6.114   1.329
 8682SOL     OW26944   2.283   0.830   2.295
 8682SOL    HW126945   2.310   0.898   2.363
 8682SOL    HW226946   2.278   0.740   2.338
 8683SOL     OW26947   2.476   4.881   4.785
 8683SOL    HW126948   2.525   4.957   4.741
 8683SOL    HW226949   2.540   4.806   4.802
 8684SOL     OW26950   2.486   4.498   4.448
 8684SOL    HW126951   2.417   4.428   4.469
 8684SOL    HW226952   2.484   4.518   4.350
 8685SOL     OW26953   4.957   2.515   4.957
 8685SOL    HW126954   4.946   2.481   5.051
 8685SOL    HW226955   4.885   2.476   4.899
 8686SOL     OW26956   1.012   4.977   3.302
 8686SOL    HW126957   0.942   4.988   3.232
 8686SOL    HW226958   0.995   4.893   3.354
 8687SOL     OW26959   5.423   4.381   5.496
 8687SOL    HW126960   5.373   4.413   5.415
 8687SOL    HW226961   5.408   4.283   5.508
 8688SOL     OW26962   1.337   3.776   5.052
 8688SOL    HW126963   1.383   3.687   5.052
 8688SOL    HW226964   1.302   3.795   4.960
 8689SOL     OW26965   4.150   3.156   0.138
 8689SOL    HW126966   4.067   3.157   0.082
 8689SOL    HW226967   4.184   3.250   0.148
 8690SOL     OW26968   1.306   2.037   2.321
 8690SOL    HW126969   1.241   2.111   2.335
 8690SOL    HW226970   1.331   2.033   2.224
 8691SOL     OW26971   3.578   2.554   5.394
 8691SOL    HW126972   3.499   2.575   5.337
 8691SOL    HW226973   3.648   2.624   5.380
 8692SOL     OW26974   4.400   1.878   4.919
 8692SOL    HW126975   4.334   1.841   4.984
 8692SOL    HW226976   4.434   1.966   4.952
 8693SOL     OW26977   6.954   6.976   6.118
 8693SOL    HW126978   6.926   6.987   6.022
 8693SOL    HW226979   6.988   6.883   6.132
 8694SOL     OW26980   5.170   2.787   5.480
 8694SOL    HW126981   5.124   2.875   5.490
 8694SOL    HW226982   5.167   2.759   5.384
 8695SOL     OW26983   3.639   4.524   0.487
 8695SOL    HW126984   3.656   4.497   0.392
 8695SOL    HW226985   3.559   4.585   0.490
 8696SOL     OW26986   3.027   5.379   5.676
 8696SOL    HW126987   3.032   5.280   5.663
 8696SOL    HW226988   2.941   5.413   5.638
 8697SOL     OW26989   1.685   3.952   5.502
 8697SOL    HW126990   1.628   3.954   5.420
 8697SOL    HW226991   1.761   3.888   5.487
 8698SOL     OW26992   4.508   5.119   6.073
 8698SOL    HW126993   4.415   5.131   6.038
 8698SOL    HW226994   4.530   5.195   6.135
 8699SOL     OW26995   1.717   2.363   6.958
 8699SOL    HW126996   1.626   2.400   6.939
 8699SOL    HW226997   1.777   2.437   6.989
 8700SOL     OW26998   1.112   0.951   4.151
 8700SOL    HW126999   1.112   0.950   4.051
 8700SOL    HW227000   1.201   0.919   4.184
 8701SOL     OW27001   1.463   2.672   6.721
 8701SOL    HW127002   1.475   2.590   6.777
 8701SOL    HW227003   1.469   2.647   6.624
 8702SOL     OW27004   5.554   4.797   1.211
 8702SOL    HW127005   5.540   4.875   1.271
 8702SOL    HW227006   5.465   4.753   1.194
 8703SOL     OW27007   2.746   5.911   0.854
 8703SOL    HW127008   2.668   5.961   0.894
 8703SOL    HW227009   2.718   5.870   0.768
 8704SOL     OW27010   0.336   0.861   4.834
 8704SOL    HW127011   0.388   0.836   4.916
 8704SOL    HW227012   0.384   0.828   4.753
 8705SOL     OW27013   4.108   2.271   7.017
 8705SOL    HW127014   4.066   2.190   6.978
 8705SOL    HW227015   4.188   2.297   6.962
 8706SOL     OW27016   4.821   2.912   6.322
 8706SOL    HW127017   4.800   3.003   6.356
 8706SOL    HW227018   4.748   2.849   6.347
 8707SOL     OW27019   2.679   1.451   4.153
 8707SOL    HW127020   2.751   1.408   4.208
 8707SOL    HW227021   2.640   1.528   4.203
 8708SOL     OW27022   5.886   2.711   0.864
 8708SOL    HW127023   5.867   2.614   0.846
 8708SOL    HW227024   5.804   2.765   0.846
 8709SOL     OW27025   5.780   6.663   4.980
 8709SOL    HW127026   5.850   6.606   5.024
 8709SOL    HW227027   5.689   6.630   5.005
 8710SOL     OW27028   1.898   1.698   3.488
 8710SOL    HW127029   1.876   1.642   3.568
 8710SOL    HW227030   1.952   1.778   3.517
 8711SOL     OW27031   1.329   1.526   1.528
 8711SOL    HW127032   1.251   1.486   1.578
 8711SOL    HW227033   1.295   1.587   1.457
 8712SOL     OW27034   1.315   4.204   5.353
 8712SOL    HW127035   1.240   4.216   5.288
 8712SOL    HW227036   1.279   4.212   5.446
 8713SOL     OW27037   0.329   3.693   1.088
 8713SOL    HW127038   0.253   3.672   1.027
 8713SOL    HW227039   0.391   3.614   1.093
 8714SOL     OW27040   0.088   5.248   6.803
 8714SOL    HW127041   0.046   5.335   6.778
 8714SOL    HW227042   0.147   5.261   6.883
 8715SOL     OW27043   1.905   3.693   1.782
 8715SOL    HW127044   1.922   3.596   1.765
 8715SOL    HW227045   1.968   3.726   1.852
 8716SOL     OW27046   6.432   0.484   2.290
 8716SOL    HW127047   6.370   0.436   2.228
 8716SOL    HW227048   6.527   0.466   2.263
 8717SOL     OW27049   3.049   2.770   6.731
 8717SOL    HW127050   2.971   2.801   6.676
 8717SOL    HW227051   3.134   2.789   6.682
 8718SOL     OW27052   2.682   4.898   6.295
 8718SOL    HW127053   2.661   4.985   6.250
 8718SOL    HW227054   2.764   4.858   6.255
 8719SOL     OW27055   3.144   0.688   4.545
 8719SOL    HW127056   3.104   0.777   4.522
 8719SOL    HW227057   3.184   0.647   4.463
 8720SOL     OW27058   0.112   5.259   4.993
 8720SOL    HW127059   0.034   5.320   5.005
 8720SOL    HW227060   0.102   5.179   5.052
 8721SOL     OW27061   0.842   6.973   0.044
 8721SOL    HW127062   0.777   6.916   7.013
 8721SOL    HW227063   0.883   6.918   0.118
 8722SOL     OW27064   3.089   1.025   0.856
 8722SOL    HW127065   3.047   1.010   0.766
 8722SOL    HW227066   3.090   1.123   0.876
 8723SOL     OW27067   3.602   7.007   2.424
 8723SOL    HW127068   3.665   6.958   2.484
 8723SOL    HW227069   3.561   6.943   2.359
 8724SOL     OW27070   3.702   1.313   4.527
 8724SOL    HW127071   3.603   1.327   4.519
 8724SOL    HW227072   3.725   1.224   4.487
 8725SOL     OW27073   6.910   6.700   3.585
 8725SOL    HW127074   6.911   6.687   3.684
 8725SOL    HW227075   6.823   6.668   3.548
 8726SOL     OW27076   6.726   1.428   1.005
 8726SOL    HW127077   6.654   1.392   0.945
 8726SOL    HW227078   6.778   1.498   0.956
 8727SOL     OW27079   5.100   6.334   6.389
 8727SOL    HW127080   5.097   6.247   6.439
 8727SOL    HW227081   5.155   6.323   6.306
 8728SOL     OW27082   6.457   0.196   4.779
 8728SOL    HW127083   6.442   0.275   4.839
 8728SOL    HW227084   6.554   0.171   4.780
 8729SOL     OW27085   5.405   5.685   6.398
 8729SOL    HW127086   5.343   5.624   6.448
 8729SOL    HW227087   5.471   5.725   6.461
 8730SOL     OW27088   4.998   5.260   1.162
 8730SOL    HW127089   5.016   5.280   1.065
 8730SOL    HW227090   5.083   5.230   1.206
 8731SOL     OW27091   6.430   1.463   3.643
 8731SOL    HW127092   6.380   1.505   3.719
 8731SOL    HW227093   6.509   1.413   3.679
 8732SOL     OW27094   5.585   6.947   6.599
 8732SOL    HW127095   5.576   6.849   6.614
 8732SOL    HW227096   5.580   6.995   6.687
 8733SOL     OW27097   6.524   4.385   2.409
 8733SOL    HW127098   6.597   4.377   2.341
 8733SOL    HW227099   6.550   4.450   2.480
 8734SOL     OW27100   0.957   4.039   1.004
 8734SOL    HW127101   1.023   4.005   1.071
 8734SOL    HW227102   0.935   4.134   1.025
 8735SOL     OW27103   0.553   2.766   4.866
 8735SOL    HW127104   0.485   2.839   4.866
 8735SOL    HW227105   0.627   2.789   4.929
 8736SOL     OW27106   1.138   6.050   3.315
 8736SOL    HW127107   1.193   6.129   3.343
 8736SOL    HW227108   1.183   5.966   3.345
 8737SOL     OW27109   1.296   5.892   0.479
 8737SOL    HW127110   1.207   5.897   0.434
 8737SOL    HW227111   1.293   5.944   0.564
 8738SOL     OW27112   1.123   3.022   2.742
 8738SOL    HW127113   1.069   3.106   2.745
 8738SOL    HW227114   1.092   2.960   2.815
 8739SOL     OW27115   5.762   5.206   4.853
 8739SOL    HW127116   5.783   5.124   4.907
 8739SOL    HW227117   5.822   5.209   4.773
 8740SOL     OW27118   3.163   1.220   4.459
 8740SOL    HW127119   3.161   1.281   4.379
 8740SOL    HW227120   3.078   1.230   4.510
 8741SOL     OW27121   0.652   1.408   3.132
 8741SOL    HW127122   0.574   1.468   3.149
 8741SOL    HW227123   0.736   1.462   3.130
 8742SOL     OW27124   2.943   1.826   1.866
 8742SOL    HW127125   2.984   1.906   1.822
 8742SOL    HW227126   2.856   1.852   1.908
 8743SOL     OW27127   0.996   2.717   1.498
 8743SOL    HW127128   1.069   2.688   1.436
 8743SOL    HW227129   0.998   2.660   1.580
 8744SOL     OW27130   3.498   4.022   5.670
 8744SOL    HW127131   3.452   3.989   5.753
 8744SOL    HW227132   3.562   3.951   5.637
 8745SOL     OW27133   5.798   1.847   5.941
 8745SOL    HW127134   5.851   1.766   5.966
 8745SOL    HW227135   5.861   1.921   5.915
 8746SOL     OW27136   4.098   4.532   5.465
 8746SOL    HW127137   4.024   4.583   5.508
 8746SOL    HW227138   4.125   4.456   5.525
 8747SOL     OW27139   0.974   0.567   2.813
 8747SOL    HW127140   0.897   0.629   2.803
 8747SOL    HW227141   0.980   0.508   2.732
 8748SOL     OW27142   5.506   1.619   4.342
 8748SOL    HW127143   5.518   1.551   4.414
 8748SOL    HW227144   5.408   1.631   4.325
 8749SOL     OW27145   2.480   1.215   3.763
 8749SOL    HW127146   2.453   1.220   3.860
 8749SOL    HW227147   2.578   1.233   3.755
 8750SOL     OW27148   3.531   4.072   0.965
 8750SOL    HW127149   3.593   4.117   0.901
 8750SOL    HW227150   3.441   4.116   0.960
 8751SOL     OW27151   2.980   6.576   0.405
 8751SOL    HW127152   2.967   6.672   0.428
 8751SOL    HW227153   3.071   6.564   0.364
 8752SOL     OW27154   6.646   2.531   5.465
 8752SOL    HW127155   6.739   2.567   5.468
 8752SOL    HW227156   6.582   2.603   5.439
 8753SOL     OW27157   2.813   2.534   0.808
 8753SOL    HW127158   2.842   2.543   0.713
 8753SOL    HW227159   2.714   2.550   0.814
 8754SOL     OW27160   1.257   5.622   6.881
 8754SOL    HW127161   1.264   5.707   6.935
 8754SOL    HW227162   1.332   5.618   6.816
 8755SOL     OW27163   0.497   2.762   2.290
 8755SOL    HW127164   0.508   2.861   2.284
 8755SOL    HW227165   0.423   2.741   2.355
 8756SOL     OW27166   1.566   1.576   1.990
 8756SOL    HW127167   1.563   1.528   2.078
 8756SOL    HW227168   1.506   1.656   1.994
 8757SOL     OW27169   5.419   5.890   5.505
 8757SOL    HW127170   5.491   5.959   5.500
 8757SOL    HW227171   5.333   5.934   5.530
 8758SOL     OW27172   3.504   5.872   5.244
 8758SOL    HW127173   3.530   5.798   5.306
 8758SOL    HW227174   3.415   5.909   5.272
 8759SOL     OW27175   6.099   1.040   0.906
 8759SOL    HW127176   6.053   1.041   0.995
 8759SOL    HW227177   6.130   1.133   0.884
 8760SOL     OW27178   2.678   2.379   4.268
 8760SOL    HW127179   2.719   2.341   4.351
 8760SOL    HW227180   2.742   2.370   4.192
 8761SOL     OW27181   4.992   1.992   2.785
 8761SOL    HW127182   4.969   2.020   2.692
 8761SOL    HW227183   4.918   1.936   2.822
 8762SOL     OW27184   3.250   5.337   3.229
 8762SOL    HW127185   3.177   5.289   3.278
 8762SOL    HW227186   3.272   5.287   3.145
 8763SOL     OW27187   0.382   1.010   6.679
 8763SOL    HW127188   0.399   0.982   6.773
 8763SOL    HW227189   0.404   0.934   6.617
 8764SOL     OW27190   3.355   4.903   5.568
 8764SOL    HW127191   3.301   4.977   5.608
 8764SOL    HW227192   3.447   4.935   5.548
 8765SOL     OW27193   4.033   0.097   3.703
 8765SOL    HW127194   4.018   0.091   3.802
 8765SOL    HW227195   4.002   0.013   3.659
 8766SOL     OW27196   5.256   6.583   5.735
 8766SOL    HW127197   5.348   6.552   5.761
 8766SOL    HW227198   5.212   6.627   5.813
 8767SOL     OW27199   1.730   1.069   3.531
 8767SOL    HW127200   1.728   1.114   3.442
 8767SOL    HW227201   1.675   1.122   3.596
 8768SOL     OW27202   6.805   2.103   6.803
 8768SOL    HW127203   6.864   2.183   6.802
 8768SOL    HW227204   6.851   2.027   6.849
 8769SOL     OW27205   6.004   0.245   6.938
 8769SOL    HW127206   6.013   0.344   6.926
 8769SOL    HW227207   5.963   0.225   0.007
 8770SOL     OW27208   4.969   2.286   0.553
 8770SOL    HW127209   4.986   2.192   0.523
 8770SOL    HW227210   5.056   2.332   0.569
 8771SOL     OW27211   0.277   2.443   6.744
 8771SOL    HW127212   0.184   2.445   6.780
 8771SOL    HW227213   0.319   2.355   6.767
 8772SOL     OW27214   6.934   6.930   4.748
 8772SOL    HW127215   7.018   6.967   4.786
 8772SOL    HW227216   6.895   6.996   4.684
 8773SOL     OW27217   0.169   0.304   4.448
 8773SOL    HW127218   0.108   0.335   4.521
 8773SOL    HW227219   0.262   0.335   4.467
 8774SOL     OW27220   1.118   1.568   0.148
 8774SOL    HW127221   1.159   1.598   0.234
 8774SOL    HW227222   1.182   1.586   0.073
 8775SOL     OW27223   5.687   2.714   3.720
 8775SOL    HW127224   5.602   2.738   3.672
 8775SOL    HW227225   5.743   2.657   3.661
 8776SOL     OW27226   4.451   2.733   0.253
 8776SOL    HW127227   4.478   2.747   0.349
 8776SOL    HW227228   4.368   2.785   0.234
 8777SOL     OW27229   6.827   2.234   3.116
 8777SOL    HW127230   6.749   2.176   3.138
 8777SOL    HW227231   6.862   2.277   3.200
 8778SOL     OW27232   3.333   4.108   0.222
 8778SOL    HW127233   3.421   4.156   0.227
 8778SOL    HW227234   3.273   4.154   0.157
 8779SOL     OW27235   4.448   4.733   2.826
 8779SOL    HW127236   4.367   4.741   2.768
 8779SOL    HW227237   4.430   4.776   2.914
 8780SOL     OW27238   0.217   4.527   3.675
 8780SOL    HW127239   0.236   4.527   3.774
 8780SOL    HW227240   0.298   4.498   3.626
 8781SOL     OW27241   2.365   1.283   1.119
 8781SOL    HW127242   2.460   1.269   1.092
 8781SOL    HW227243   2.308   1.214   1.074
 8782SOL     OW27244   5.923   2.178   0.708
 8782SOL    HW127245   5.854   2.123   0.661
 8782SOL    HW227246   5.881   2.261   0.744
 8783SOL     OW27247   5.295   3.825   4.798
 8783SOL    HW127248   5.362   3.880   4.748
 8783SOL    HW227249   5.299   3.731   4.766
 8784SOL     OW27250   4.940   0.508   0.848
 8784SOL    HW127251   4.859   0.534   0.794
 8784SOL    HW227252   4.924   0.530   0.944
 8785SOL     OW27253   6.766   5.658   4.867
 8785SOL    HW127254   6.729   5.583   4.921
 8785SOL    HW227255   6.756   5.744   4.918
 8786SOL     OW27256   4.932   1.625   2.232
 8786SOL    HW127257   4.982   1.705   2.198
 8786SOL    HW227258   4.959   1.607   2.327
 8787SOL     OW27259   3.589   5.554   1.021
 8787SOL    HW127260   3.592   5.456   1.038
 8787SOL    HW227261   3.634   5.574   0.934
 8788SOL     OW27262   0.471   6.563   4.038
 8788SOL    HW127263   0.548   6.555   3.975
 8788SOL    HW227264   0.425   6.474   4.046
 8789SOL     OW27265   0.831   2.095   5.977
 8789SOL    HW127266   0.810   2.153   5.898
 8789SOL    HW227267   0.916   2.127   6.020
 8790SOL     OW27268   3.977   2.903   5.447
 8790SOL    HW127269   4.023   2.957   5.517
 8790SOL    HW227270   3.923   2.963   5.388
 8791SOL     OW27271   3.492   6.141   4.295
 8791SOL    HW127272   3.585   6.160   4.264
 8791SOL    HW227273   3.496   6.100   4.387
 8792SOL     OW27274   5.264   4.701   1.919
 8792SOL    HW127275   5.337   4.634   1.937
 8792SOL    HW227276   5.176   4.654   1.912
 8793SOL     OW27277   6.801   6.624   5.084
 8793SOL    HW127278   6.721   6.673   5.050
 8793SOL    HW227279   6.832   6.558   5.015
 8794SOL     OW27280   6.480   1.053   2.631
 8794SOL    HW127281   6.560   1.055   2.691
 8794SOL    HW227282   6.499   0.995   2.552
 8795SOL     OW27283   1.476   6.874   0.077
 8795SOL    HW127284   1.460   6.960   0.126
 8795SOL    HW227285   1.391   6.821   0.074
 8796SOL     OW27286   6.072   3.901   5.004
 8796SOL    HW127287   6.028   3.990   5.014
 8796SOL    HW227288   6.027   3.851   4.930
 8797SOL     OW27289   4.642   6.613   4.082
 8797SOL    HW127290   4.641   6.559   3.998
 8797SOL    HW227291   4.584   6.570   4.151
 8798SOL     OW27292   3.031   6.544   5.669
 8798SOL    HW127293   3.016   6.468   5.607
 8798SOL    HW227294   2.964   6.541   5.744
 8799SOL     OW27295   1.478   5.650   1.845
 8799SOL    HW127296   1.409   5.584   1.817
 8799SOL    HW227297   1.496   5.714   1.771
 8800SOL     OW27298   6.024   6.258   5.073
 8800SOL    HW127299   6.070   6.262   4.984
 8800SOL    HW227300   5.951   6.326   5.076
 8801SOL     OW27301   5.714   3.637   5.449
 8801SOL    HW127302   5.626   3.682   5.458
 8801SOL    HW227303   5.729   3.577   5.528
 8802SOL     OW27304   1.512   5.570   6.284
 8802SOL    HW127305   1.441   5.632   6.319
 8802SOL    HW227306   1.595   5.579   6.338
 8803SOL     OW27307   6.411   6.228   6.254
 8803SOL    HW127308   6.344   6.300   6.232
 8803SOL    HW227309   6.367   6.155   6.305
 8804SOL     OW27310   1.653   6.323   2.145
 8804SOL    HW127311   1.644   6.315   2.244
 8804SOL    HW227312   1.724   6.389   2.123
 8805SOL     OW27313   5.489   4.832   3.412
 8805SOL    HW127314   5.515   4.780   3.331
 8805SOL    HW227315   5.571   4.871   3.454
 8806SOL     OW27316   1.746   7.019   1.201
 8806SOL    HW127317   1.681   6.943   1.204
 8806SOL    HW227318   1.837   6.984   1.177
 8807SOL     OW27319   5.822   3.180   0.856
 8807SOL    HW127320   5.895   3.126   0.896
 8807SOL    HW227321   5.767   3.222   0.929
 8808SOL     OW27322   1.928   2.127   6.356
 8808SOL    HW127323   2.001   2.165   6.413
 8808SOL    HW227324   1.842   2.173   6.378
 8809SOL     OW27325   0.019   3.675   3.312
 8809SOL    HW127326   7.004   3.635   3.397
 8809SOL    HW227327   0.106   3.721   3.330
 8810SOL     OW27328   0.961   1.050   4.811
 8810SOL    HW127329   0.864   1.071   4.827
 8810SOL    HW227330   0.968   0.964   4.760
 8811SOL     OW27331   4.405   4.598   2.528
 8811SOL    HW127332   4.373   4.625   2.437
 8811SOL    HW227333   4.476   4.528   2.519
 8812SOL     OW27334   4.987   1.077   6.220
 8812SOL    HW127335   5.033   1.042   6.138
 8812SOL    HW227336   5.055   1.117   6.281
 8813SOL     OW27337   1.928   3.776   3.355
 8813SOL    HW127338   1.840   3.729   3.353
 8813SOL    HW227339   2.002   3.709   3.343
 8814SOL     OW27340   4.983   0.037   5.284
 8814SOL    HW127341   4.930   6.994   5.226
 8814SOL    HW227342   4.947   0.130   5.273
 8815SOL     OW27343   5.551   1.096   1.199
 8815SOL    HW127344   5.524   1.189   1.174
 8815SOL    HW227345   5.625   1.100   1.266
 8816SOL     OW27346   0.879   6.019   4.930
 8816SOL    HW127347   0.940   5.972   4.995
 8816SOL    HW227348   0.787   5.982   4.938
 8817SOL     OW27349   1.335   2.992   3.556
 8817SOL    HW127350   1.319   3.034   3.645
 8817SOL    HW227351   1.336   3.064   3.486
 8818SOL     OW27352   1.119   0.027   5.973
 8818SOL    HW127353   1.097   0.119   5.939
 8818SOL    HW227354   1.050   7.020   6.041
 8819SOL     OW27355   4.671   4.801   6.210
 8819SOL    HW127356   4.644   4.783   6.115
 8819SOL    HW227357   4.590   4.826   6.263
 8820SOL     OW27358   4.092   6.701   5.634
 8820SOL    HW127359   4.090   6.639   5.713
 8820SOL    HW227360   4.168   6.675   5.574
 8821SOL     OW27361   0.378   4.664   6.435
 8821SOL    HW127362   0.306   4.683   6.368
 8821SOL    HW227363   0.354   4.705   6.523
 8822SOL     OW27364   6.353   0.478   4.442
 8822SOL    HW127365   6.321   0.552   4.503
 8822SOL    HW227366   6.329   0.390   4.482
 8823SOL     OW27367   3.584   1.471   3.119
 8823SOL    HW127368   3.557   1.516   3.203
 8823SOL    HW227369   3.675   1.430   3.130
 8824SOL     OW27370   1.086   6.989   2.782
 8824SOL    HW127371   1.043   0.027   2.851
 8824SOL    HW227372   1.016   6.941   2.730
 8825SOL     OW27373   0.367   0.218   0.398
 8825SOL    HW127374   0.314   0.145   0.440
 8825SOL    HW227375   0.463   0.192   0.393
 8826SOL     OW27376   0.895   4.398   0.918
 8826SOL    HW127377   0.949   4.470   0.875
 8826SOL    HW227378   0.901   4.315   0.862
 8827SOL     OW27379   4.764   7.010   2.861
 8827SOL    HW127380   4.831   0.027   2.925
 8827SOL    HW227381   4.752   0.054   2.785
 8828SOL     OW27382   5.294   2.442   6.832
 8828SOL    HW127383   5.314   2.467   6.737
 8828SOL    HW227384   5.241   2.514   6.875
 8829SOL     OW27385   6.792   0.735   2.557
 8829SOL    HW127386   6.846   0.718   2.474
 8829SOL    HW227387   6.851   0.730   2.637
 8830SOL     OW27388   3.349   0.257   3.395
 8830SOL    HW127389   3.304   0.182   3.348
 8830SOL    HW227390   3.365   0.332   3.332
 8831SOL     OW27391   0.311   3.020   1.879
 8831SOL    HW127392   0.226   2.985   1.919
 8831SOL    HW227393   0.376   3.041   1.952
 8832SOL     OW27394   5.639   6.972   5.560
 8832SOL    HW127395   5.565   7.007   5.503
 8832SOL    HW227396   5.727   7.006   5.526
 8833SOL     OW27397   5.103   2.194   1.429
 8833SOL    HW127398   5.176   2.194   1.360
 8833SOL    HW227399   5.090   2.286   1.464
 8834SOL     OW27400   5.834   3.763   5.743
 8834SOL    HW127401   5.749   3.813   5.730
 8834SOL    HW227402   5.912   3.825   5.733
 8835SOL     OW27403   7.013   0.621   5.547
 8835SOL    HW127404   6.918   0.634   5.577
 8835SOL    HW227405   0.027   0.534   5.582
 8836SOL     OW27406   4.733   1.193   1.399
 8836SOL    HW127407   4.788   1.256   1.344
 8836SOL    HW227408   4.778   1.104   1.403
 8837SOL     OW27409   3.942   6.694   0.783
 8837SOL    HW127410   3.928   6.771   0.846
 8837SOL    HW227411   3.854   6.650   0.764
 8838SOL     OW27412   1.804   3.718   3.853
 8838SOL    HW127413   1.706   3.710   3.873
 8838SOL    HW227414   1.857   3.678   3.928
 8839SOL     OW27415   4.904   6.013   2.297
 8839SOL    HW127416   4.974   6.068   2.252
 8839SOL    HW227417   4.914   6.020   2.396
 8840SOL     OW27418   6.495   0.783   0.958
 8840SOL    HW127419   6.442   0.720   0.900
 8840SOL    HW227420   6.592   0.764   0.949
 8841SOL     OW27421   3.591   0.880   0.487
 8841SOL    HW127422   3.663   0.949   0.479
 8841SOL    HW227423   3.622   0.795   0.444
 8842SOL     OW27424   3.523   3.696   4.519
 8842SOL    HW127425   3.516   3.622   4.452
 8842SOL    HW227426   3.574   3.663   4.599
 8843SOL     OW27427   2.810   6.097   6.349
 8843SOL    HW127428   2.727   6.152   6.361
 8843SOL    HW227429   2.881   6.152   6.306
 8844SOL     OW27430   3.423   2.458   6.245
 8844SOL    HW127431   3.518   2.487   6.248
 8844SOL    HW227432   3.371   2.506   6.316
 8845SOL     OW27433   0.239   3.767   2.306
 8845SOL    HW127434   0.265   3.695   2.370
 8845SOL    HW227435   0.174   3.730   2.239
 8846SOL     OW27436   5.646   4.140   4.772
 8846SOL    HW127437   5.683   4.142   4.679
 8846SOL    HW227438   5.721   4.126   4.837
 8847SOL     OW27439   1.366   2.116   3.288
 8847SOL    HW127440   1.389   2.196   3.233
 8847SOL    HW227441   1.449   2.077   3.327
 8848SOL     OW27442   5.744   0.909   0.235
 8848SOL    HW127443   5.810   0.983   0.220
 8848SOL    HW227444   5.786   0.822   0.211
 8849SOL     OW27445   3.139   5.006   4.235
 8849SOL    HW127446   3.050   5.042   4.208
 8849SOL    HW227447   3.132   4.965   4.326
 8850SOL     OW27448   3.254   1.295   1.522
 8850SOL    HW127449   3.318   1.218   1.529
 8850SOL    HW227450   3.267   1.356   1.600
 8851SOL     OW27451   6.413   4.983   2.331
 8851SOL    HW127452   6.429   5.076   2.296
 8851SOL    HW227453   6.398   4.921   2.254
 8852SOL     OW27454   4.414   2.437   4.753
 8852SOL    HW127455   4.486   2.505   4.742
 8852SOL    HW227456   4.380   2.410   4.663
 8853SOL     OW27457   4.354   1.687   5.543
 8853SOL    HW127458   4.334   1.740   5.626
 8853SOL    HW227459   4.359   1.749   5.465
 8854SOL     OW27460   1.381   1.454   0.048
 8854SOL    HW127461   1.469   1.452   0.095
 8854SOL    HW227462   1.391   1.496   6.978
 8855SOL     OW27463   6.586   4.918   0.094
 8855SOL    HW127464   6.598   5.014   0.119
 8855SOL    HW227465   6.620   4.860   0.168
 8856SOL     OW27466   5.523   1.192   5.067
 8856SOL    HW127467   5.622   1.197   5.078
 8856SOL    HW227468   5.490   1.277   5.027
 8857SOL     OW27469   0.087   2.534   4.665
 8857SOL    HW127470   7.014   2.545   4.702
 8857SOL    HW227471   0.110   2.437   4.663
 8858SOL     OW27472   6.762   4.102   5.794
 8858SOL    HW127473   6.825   4.095   5.871
 8858SOL    HW227474   6.752   4.013   5.750
 8859SOL     OW27475   2.915   5.303   5.374
 8859SOL    HW127476   2.901   5.264   5.465
 8859SOL    HW227477   2.964   5.238   5.316
 8860SOL     OW27478   1.496   2.271   2.065
 8860SOL    HW127479   1.408   2.234   2.034
 8860SOL    HW227480   1.566   2.199   2.060
 8861SOL     OW27481   2.429   2.816   1.011
 8861SOL    HW127482   2.351   2.763   1.043
 8861SOL    HW227483   2.469   2.772   0.931
 8862SOL     OW27484   6.246   2.022   4.643
 8862SOL    HW127485   6.280   1.951   4.705
 8862SOL    HW227486   6.237   2.108   4.692
 8863SOL     OW27487   1.062   5.889   5.071
 8863SOL    HW127488   1.071   5.791   5.057
 8863SOL    HW227489   1.152   5.929   5.087
 8864SOL     OW27490   1.534   3.376   5.611
 8864SOL    HW127491   1.539   3.467   5.570
 8864SOL    HW227492   1.484   3.315   5.551
 8865SOL     OW27493   2.420   2.122   5.617
 8865SOL    HW127494   2.398   2.160   5.527
 8865SOL    HW227495   2.336   2.089   5.660
 8866SOL     OW27496   4.238   6.597   5.419
 8866SOL    HW127497   4.326   6.555   5.441
 8866SOL    HW227498   4.249   6.661   5.343
 8867SOL     OW27499   6.392   2.155   3.689
 8867SOL    HW127500   6.360   2.063   3.664
 8867SOL    HW227501   6.319   2.204   3.735
 8868SOL     OW27502   4.892   3.744   1.255
 8868SOL    HW127503   4.809   3.744   1.199
 8868SOL    HW227504   4.969   3.773   1.199
 8869SOL     OW27505   4.882   3.056   3.273
 8869SOL    HW127506   4.930   3.025   3.355
 8869SOL    HW227507   4.821   2.984   3.241
 8870SOL     OW27508   4.195   1.137   1.260
 8870SOL    HW127509   4.180   1.048   1.302
 8870SOL    HW227510   4.284   1.138   1.214
 8871SOL     OW27511   1.335   2.353   4.658
 8871SOL    HW127512   1.249   2.378   4.613
 8871SOL    HW227513   1.408   2.413   4.627
 8872SOL     OW27514   2.154   3.239   3.256
 8872SOL    HW127515   2.155   3.256   3.158
 8872SOL    HW227516   2.108   3.152   3.274
 8873SOL     OW27517   0.005   6.291   4.903
 8873SOL    HW127518   7.018   6.222   4.831
 8873SOL    HW227519   6.966   6.369   4.880
 8874SOL     OW27520   1.366   1.651   0.344
 8874SOL    HW127521   1.431   1.713   0.388
 8874SOL    HW227522   1.392   1.556   0.364
 8875SOL     OW27523   1.713   1.457   3.968
 8875SOL    HW127524   1.744   1.362   3.967
 8875SOL    HW227525   1.712   1.491   4.062
 8876SOL     OW27526   2.220   0.700   4.203
 8876SOL    HW127527   2.129   0.669   4.229
 8876SOL    HW227528   2.269   0.626   4.158
 8877SOL     OW27529   3.101   6.063   4.504
 8877SOL    HW127530   3.122   5.966   4.498
 8877SOL    HW227531   3.062   6.094   4.417
 8878SOL     OW27532   6.003   4.699   6.053
 8878SOL    HW127533   6.096   4.679   6.085
 8878SOL    HW227534   5.962   4.617   6.014
 8879SOL     OW27535   4.236   5.644   4.888
 8879SOL    HW127536   4.212   5.693   4.804
 8879SOL    HW227537   4.307   5.695   4.936
 8880SOL     OW27538   0.158   5.668   5.698
 8880SOL    HW127539   0.071   5.625   5.674
 8880SOL    HW227540   0.154   5.765   5.674
 8881SOL     OW27541   7.011   0.657   2.023
 8881SOL    HW127542   0.059   0.717   2.066
 8881SOL    HW227543   6.920   0.697   2.034
 8882SOL     OW27544   6.050   1.727   6.262
 8882SOL    HW127545   5.975   1.662   6.252
 8882SOL    HW227546   6.063   1.748   6.359
 8883SOL     OW27547   6.861   1.185   5.532
 8883SOL    HW127548   6.829   1.178   5.626
 8883SOL    HW227549   6.841   1.276   5.495
 8884SOL     OW27550   6.757   0.629   5.587
 8884SOL    HW127551   6.735   0.683   5.669
 8884SOL    HW227552   6.745   0.532   5.608
 8885SOL     OW27553   5.173   3.497   1.643
 8885SOL    HW127554   5.254   3.515   1.587
 8885SOL    HW227555   5.115   3.430   1.597
 8886SOL     OW27556   2.908   6.456   6.502
 8886SOL    HW127557   2.921   6.439   6.405
 8886SOL    HW227558   2.994   6.440   6.551
 8887SOL     OW27559   1.941   0.532   1.331
 8887SOL    HW127560   1.915   0.580   1.414
 8887SOL    HW227561   1.859   0.511   1.277
 8888SOL     OW27562   3.600   1.239   3.640
 8888SOL    HW127563   3.601   1.151   3.688
 8888SOL    HW227564   3.506   1.262   3.614
 8889SOL     OW27565   3.511   6.580   4.803
 8889SOL    HW127566   3.495   6.532   4.716
 8889SOL    HW227567   3.445   6.654   4.812
 8890SOL     OW27568   1.163   4.621   4.105
 8890SOL    HW127569   1.196   4.563   4.179
 8890SOL    HW227570   1.231   4.623   4.032
 8891SOL     OW27571   2.692   1.880   6.934
 8891SOL    HW127572   2.607   1.831   6.955
 8891SOL    HW227573   2.674   1.978   6.935
 8892SOL     OW27574   1.105   6.709   2.325
 8892SOL    HW127575   1.102   6.767   2.244
 8892SOL    HW227576   1.194   6.665   2.332
 8893SOL     OW27577   0.802   1.330   1.777
 8893SOL    HW127578   0.890   1.376   1.777
 8893SOL    HW227579   0.807   1.247   1.721
 8894SOL     OW27580   3.804   3.430   6.603
 8894SOL    HW127581   3.863   3.475   6.670
 8894SOL    HW227582   3.738   3.372   6.651
 8895SOL     OW27583   0.642   0.477   2.341
 8895SOL    HW127584   0.602   0.481   2.432
 8895SOL    HW227585   0.570   0.477   2.272
 8896SOL     OW27586   1.977   4.154   5.069
 8896SOL    HW127587   2.074   4.178   5.063
 8896SOL    HW227588   1.960   4.070   5.018
 8897SOL     OW27589   1.310   2.095   1.772
 8897SOL    HW127590   1.314   2.000   1.741
 8897SOL    HW227591   1.398   2.139   1.756
 8898SOL     OW27592   6.462   2.844   4.806
 8898SOL    HW127593   6.494   2.821   4.714
 8898SOL    HW227594   6.465   2.763   4.864
 8899SOL     OW27595   2.652   4.511   0.403
 8899SOL    HW127596   2.652   4.411   0.392
 8899SOL    HW227597   2.646   4.555   0.314
 8900SOL     OW27598   6.062   1.830   3.357
 8900SOL    HW127599   6.068   1.773   3.438
 8900SOL    HW227600   6.154   1.852   3.325
 8901SOL     OW27601   2.233   6.831   2.431
 8901SOL    HW127602   2.179   6.826   2.515
 8901SOL    HW227603   2.207   6.757   2.370
 8902SOL     OW27604   2.223   5.154   5.964
 8902SOL    HW127605   2.210   5.104   5.878
 8902SOL    HW227606   2.270   5.240   5.946
 8903SOL     OW27607   0.513   1.836   3.769
 8903SOL    HW127608   0.488   1.746   3.805
 8903SOL    HW227609   0.504   1.904   3.842
 8904SOL     OW27610   0.966   5.294   3.366
 8904SOL    HW127611   0.876   5.278   3.327
 8904SOL    HW227612   1.007   5.207   3.393
 8905SOL     OW27613   2.569   4.183   5.349
 8905SOL    HW127614   2.524   4.114   5.291
 8905SOL    HW227615   2.545   4.166   5.444
 8906SOL     OW27616   1.237   4.581   4.570
 8906SOL    HW127617   1.178   4.529   4.632
 8906SOL    HW227618   1.328   4.589   4.610
 8907SOL     OW27619   3.851   2.925   5.915
 8907SOL    HW127620   3.885   2.884   5.831
 8907SOL    HW227621   3.767   2.976   5.896
 8908SOL     OW27622   0.226   3.258   1.476
 8908SOL    HW127623   0.264   3.348   1.456
 8908SOL    HW227624   0.163   3.265   1.553
 8909SOL     OW27625   2.814   6.547   5.849
 8909SOL    HW127626   2.724   6.578   5.819
 8909SOL    HW227627   2.818   6.447   5.842
 8910SOL     OW27628   3.690   3.806   6.636
 8910SOL    HW127629   3.687   3.730   6.700
 8910SOL    HW227630   3.775   3.802   6.583
 8911SOL     OW27631   3.842   2.154   4.023
 8911SOL    HW127632   3.834   2.194   4.114
 8911SOL    HW227633   3.930   2.179   3.982
 8912SOL     OW27634   5.287   2.189   7.009
 8912SOL    HW127635   5.302   2.215   0.085
 8912SOL    HW227636   5.288   2.271   6.952
 8913SOL     OW27637   4.822   3.525   0.954
 8913SOL    HW127638   4.904   3.577   0.930
 8913SOL    HW227639   4.773   3.571   1.028
 8914SOL     OW27640   4.785   2.267   3.946
 8914SOL    HW127641   4.806   2.363   3.966
 8914SOL    HW227642   4.697   2.261   3.900
 8915SOL     OW27643   1.253   4.968   1.658
 8915SOL    HW127644   1.284   4.907   1.585
 8915SOL    HW227645   1.328   4.984   1.722
 8916SOL     OW27646   6.940   4.010   1.790
 8916SOL    HW127647   6.877   3.959   1.731
 8916SOL    HW227648   6.997   3.947   1.841
 8917SOL     OW27649   6.162   5.506   5.843
 8917SOL    HW127650   6.158   5.580   5.910
 8917SOL    HW227651   6.089   5.440   5.862
 8918SOL     OW27652   4.828   4.744   6.429
 8918SOL    HW127653   4.852   4.839   6.407
 8918SOL    HW227654   4.780   4.703   6.351
 8919SOL     OW27655   2.280   3.830   1.316
 8919SOL    HW127656   2.228   3.847   1.232
 8919SOL    HW227657   2.298   3.917   1.362
 8920SOL     OW27658   6.410   5.380   5.789
 8920SOL    HW127659   6.316   5.416   5.789
 8920SOL    HW227660   6.453   5.400   5.877
 8921SOL     OW27661   1.593   6.127   3.696
 8921SOL    HW127662   1.565   6.085   3.610
 8921SOL    HW227663   1.563   6.071   3.773
 8922SOL     OW27664   6.308   4.166   0.463
 8922SOL    HW127665   6.337   4.262   0.461
 8922SOL    HW227666   6.374   4.110   0.412
 8923SOL     OW27667   1.847   4.492   5.178
 8923SOL    HW127668   1.865   4.418   5.242
 8923SOL    HW227669   1.810   4.455   5.093
 8924SOL     OW27670   2.686   6.196   5.046
 8924SOL    HW127671   2.779   6.162   5.029
 8924SOL    HW227672   2.664   6.268   4.980
 8925SOL     OW27673   5.727   6.512   1.545
 8925SOL    HW127674   5.816   6.535   1.504
 8925SOL    HW227675   5.727   6.415   1.570
 8926SOL     OW27676   5.823   1.528   0.406
 8926SOL    HW127677   5.864   1.494   0.322
 8926SOL    HW227678   5.796   1.450   0.463
 8927SOL     OW27679   2.844   1.773   4.593
 8927SOL    HW127680   2.828   1.693   4.534
 8927SOL    HW227681   2.942   1.786   4.606
 8928SOL     OW27682   0.793   6.756   5.379
 8928SOL    HW127683   0.869   6.793   5.433
 8928SOL    HW227684   0.818   6.666   5.343
 8929SOL     OW27685   5.464   4.003   4.602
 8929SOL    HW127686   5.530   4.049   4.661
 8929SOL    HW227687   5.381   4.059   4.595
 8930SOL     OW27688   0.948   4.832   4.830
 8930SOL    HW127689   1.014   4.757   4.827
 8930SOL    HW227690   0.864   4.804   4.784
 8931SOL     OW27691   5.571   1.114   1.844
 8931SOL    HW127692   5.535   1.207   1.847
 8931SOL    HW227693   5.573   1.076   1.936
 8932SOL     OW27694   6.767   0.713   6.738
 8932SOL    HW127695   6.687   0.654   6.720
 8932SOL    HW227696   6.736   0.806   6.756
 8933SOL     OW27697   1.911   0.340   5.538
 8933SOL    HW127698   1.893   0.285   5.456
 8933SOL    HW227699   1.902   0.282   5.619
 8934SOL     OW27700   4.779   6.673   3.403
 8934SOL    HW127701   4.844   6.635   3.469
 8934SOL    HW227702   4.778   6.617   3.321
 8935SOL     OW27703   5.721   2.773   3.343
 8935SOL    HW127704   5.652   2.844   3.356
 8935SOL    HW227705   5.692   2.690   3.391
 8936SOL     OW27706   1.777   4.455   2.941
 8936SOL    HW127707   1.680   4.432   2.931
 8936SOL    HW227708   1.798   4.467   3.038
 8937SOL     OW27709   4.453   6.775   5.551
 8937SOL    HW127710   4.502   6.773   5.463
 8937SOL    HW227711   4.477   6.695   5.605
 8938SOL     OW27712   5.674   6.871   2.110
 8938SOL    HW127713   5.770   6.866   2.085
 8938SOL    HW227714   5.637   6.779   2.122
 8939SOL     OW27715   0.091   2.652   3.963
 8939SOL    HW127716   0.001   2.608   3.954
 8939SOL    HW227717   0.163   2.584   3.952
 8940SOL     OW27718   6.650   3.226   1.006
 8940SOL    HW127719   6.684   3.137   0.977
 8940SOL    HW227720   6.582   3.214   1.079
 8941SOL     OW27721   4.582   2.614   2.002
 8941SOL    HW127722   4.574   2.685   2.072
 8941SOL    HW227723   4.559   2.652   1.913
 8942SOL     OW27724   5.256   4.218   4.536
 8942SOL    HW127725   5.300   4.238   4.624
 8942SOL    HW227726   5.162   4.252   4.538
 8943SOL     OW27727   4.517   3.429   1.029
 8943SOL    HW127728   4.533   3.405   0.933
 8943SOL    HW227729   4.419   3.444   1.043
 8944SOL     OW27730   4.769   5.350   5.216
 8944SOL    HW127731   4.738   5.265   5.174
 8944SOL    HW227732   4.866   5.363   5.196
 8945SOL     OW27733   5.752   4.379   3.369
 8945SOL    HW127734   5.812   4.459   3.371
 8945SOL    HW227735   5.728   4.353   3.463
 8946SOL     OW27736   5.023   1.449   5.268
 8946SOL    HW127737   5.064   1.377   5.212
 8946SOL    HW227738   4.952   1.410   5.326
 8947SOL     OW27739   1.873   4.857   6.470
 8947SOL    HW127740   1.797   4.807   6.510
 8947SOL    HW227741   1.861   4.864   6.371
 8948SOL     OW27742   4.917   1.432   2.771
 8948SOL    HW127743   5.002   1.402   2.812
 8948SOL    HW227744   4.884   1.515   2.817
 8949SOL     OW27745   3.871   6.028   1.084
 8949SOL    HW127746   3.849   6.034   1.182
 8949SOL    HW227747   3.930   6.104   1.059
 8950SOL     OW27748   3.754   3.451   1.601
 8950SOL    HW127749   3.819   3.503   1.656
 8950SOL    HW227750   3.689   3.514   1.558
 8951SOL     OW27751   1.369   7.009   4.535
 8951SOL    HW127752   1.424   6.946   4.590
 8951SOL    HW227753   1.299   0.030   4.593
 8952SOL     OW27754   1.219   4.651   3.805
 8952SOL    HW127755   1.243   4.739   3.848
 8952SOL    HW227756   1.122   4.633   3.818
 8953SOL     OW27757   1.346   5.303   1.099
 8953SOL    HW127758   1.380   5.209   1.089
 8953SOL    HW227759   1.276   5.320   1.029
 8954SOL     OW27760   2.573   4.440   5.824
 8954SOL    HW127761   2.657   4.396   5.793
 8954SOL    HW227762   2.590   4.488   5.910
 8955SOL     OW27763   5.236   2.468   5.116
 8955SOL    HW127764   5.228   2.505   5.023
 8955SOL    HW227765   5.148   2.430   5.145
 8956SOL     OW27766   0.482   6.539   0.535
 8956SOL    HW127767   0.502   6.632   0.504
 8956SOL    HW227768   0.441   6.542   0.626
 8957SOL     OW27769   0.420   6.209   2.534
 8957SOL    HW127770   0.388   6.253   2.450
 8957SOL    HW227771   0.342   6.191   2.594
 8958SOL     OW27772   1.347   3.460   5.202
 8958SOL    HW127773   1.320   3.468   5.106
 8958SOL    HW227774   1.266   3.466   5.260
 8959SOL     OW27775   5.814   2.553   3.538
 8959SOL    HW127776   5.909   2.585   3.531
 8959SOL    HW227777   5.811   2.456   3.513
 8960SOL     OW27778   5.145   4.890   2.749
 8960SOL    HW127779   5.128   4.942   2.832
 8960SOL    HW227780   5.201   4.945   2.686
 8961SOL     OW27781   2.629   1.833   5.034
 8961SOL    HW127782   2.660   1.925   5.056
 8961SOL    HW227783   2.600   1.829   4.939
 8962SOL     OW27784   6.840   6.055   1.961
 8962SOL    HW127785   6.743   6.036   1.979
 8962SOL    HW227786   6.861   6.034   1.866
 8963SOL     OW27787   4.408   6.356   5.994
 8963SOL    HW127788   4.356   6.436   6.021
 8963SOL    HW227789   4.360   6.307   5.921
 8964SOL     OW27790   2.125   2.934   4.383
 8964SOL    HW127791   2.196   2.913   4.316
 8964SOL    HW227792   2.166   2.940   4.474
 8965SOL     OW27793   3.748   5.807   0.029
 8965SOL    HW127794   3.717   5.851   6.964
 8965SOL    HW227795   3.841   5.836   0.050
 8966SOL     OW27796   4.913   6.261   4.804
 8966SOL    HW127797   4.870   6.171   4.814
 8966SOL    HW227798   5.000   6.251   4.755
 8967SOL     OW27799   3.328   0.008   3.660
 8967SOL    HW127800   3.311   6.942   3.709
 8967SOL    HW227801   3.404   7.016   3.596
 8968SOL     OW27802   3.120   5.086   2.306
 8968SOL    HW127803   3.119   4.989   2.282
 8968SOL    HW227804   3.212   5.123   2.291
 8969SOL     OW27805   0.520   0.427   2.582
 8969SOL    HW127806   0.439   0.430   2.640
 8969SOL    HW227807   0.599   0.396   2.635
 8970SOL     OW27808   1.624   0.818   3.749
 8970SOL    HW127809   1.612   0.839   3.652
 8970SOL    HW227810   1.721   0.821   3.773
 8971SOL     OW27811   2.916   4.610   0.494
 8971SOL    HW127812   2.870   4.551   0.560
 8971SOL    HW227813   2.929   4.559   0.408
 8972SOL     OW27814   5.600   4.152   6.808
 8972SOL    HW127815   5.686   4.119   6.769
 8972SOL    HW227816   5.551   4.076   6.851
 8973SOL     OW27817   2.011   2.613   3.181
 8973SOL    HW127818   2.092   2.644   3.231
 8973SOL    HW227819   1.972   2.534   3.227
 8974SOL     OW27820   2.273   4.690   4.500
 8974SOL    HW127821   2.367   4.658   4.488
 8974SOL    HW227822   2.235   4.714   4.410
 8975SOL     OW27823   0.279   4.725   5.565
 8975SOL    HW127824   0.331   4.766   5.640
 8975SOL    HW227825   0.198   4.679   5.603
 8976SOL     OW27826   5.518   0.433   2.229
 8976SOL    HW127827   5.504   0.365   2.301
 8976SOL    HW227828   5.608   0.475   2.239
 8977SOL     OW27829   6.308   4.118   6.508
 8977SOL    HW127830   6.289   4.167   6.594
 8977SOL    HW227831   6.265   4.028   6.511
 8978SOL     OW27832   6.076   5.675   0.030
 8978SOL    HW127833   5.986   5.718   0.036
 8978SOL    HW227834   6.083   5.623   6.965
 8979SOL     OW27835   1.543   4.896   4.646
 8979SOL    HW127836   1.502   4.807   4.665
 8979SOL    HW227837   1.510   4.929   4.558
 8980SOL     OW27838   3.049   0.567   0.342
 8980SOL    HW127839   3.035   0.579   0.440
 8980SOL    HW227840   3.008   0.643   0.292
 8981SOL     OW27841   4.373   3.675   6.214
 8981SOL    HW127842   4.399   3.581   6.233
 8981SOL    HW227843   4.274   3.686   6.228
 8982SOL     OW27844   0.521   2.158   1.844
 8982SOL    HW127845   0.466   2.075   1.841
 8982SOL    HW227846   0.572   2.162   1.930
 8983SOL     OW27847   1.705   6.573   1.962
 8983SOL    HW127848   1.714   6.501   1.893
 8983SOL    HW227849   1.795   6.593   2.001
 8984SOL     OW27850   6.888   0.931   4.103
 8984SOL    HW127851   6.931   0.912   4.192
 8984SOL    HW227852   6.939   0.885   4.031
 8985SOL     OW27853   4.492   1.729   2.327
 8985SOL    HW127854   4.472   1.823   2.355
 8985SOL    HW227855   4.527   1.730   2.233
 8986SOL     OW27856   6.605   4.861   0.384
 8986SOL    HW127857   6.562   4.950   0.396
 8986SOL    HW227858   6.655   4.837   0.467
 8987SOL     OW27859   2.181   6.436   1.632
 8987SOL    HW127860   2.270   6.398   1.609
 8987SOL    HW227861   2.193   6.521   1.684
 8988SOL     OW27862   2.906   0.292   1.357
 8988SOL    HW127863   2.857   0.254   1.435
 8988SOL    HW227864   2.844   0.348   1.302
 8989SOL     OW27865   4.936   1.536   2.525
 8989SOL    HW127866   4.933   1.635   2.538
 8989SOL    HW227867   4.928   1.490   2.613
 8990SOL     OW27868   3.284   0.810   2.740
 8990SOL    HW127869   3.378   0.836   2.762
 8990SOL    HW227870   3.247   0.874   2.673
 8991SOL     OW27871   1.253   2.222   0.715
 8991SOL    HW127872   1.183   2.196   0.781
 8991SOL    HW227873   1.302   2.303   0.749
 8992SOL     OW27874   6.781   4.246   6.532
 8992SOL    HW127875   6.839   4.313   6.576
 8992SOL    HW227876   6.728   4.197   6.601
 8993SOL     OW27877   5.023   3.909   4.869
 8993SOL    HW127878   5.015   3.938   4.774
 8993SOL    HW227879   5.116   3.876   4.886
 8994SOL     OW27880   1.266   5.739   2.611
 8994SOL    HW127881   1.295   5.786   2.527
 8994SOL    HW227882   1.265   5.803   2.687
 8995SOL     OW27883   2.090   3.668   4.969
 8995SOL    HW127884   2.137   3.652   4.882
 8995SOL    HW227885   2.045   3.584   4.999
 8996SOL     OW27886   1.361   3.709   1.593
 8996SOL    HW127887   1.291   3.728   1.524
 8996SOL    HW227888   1.350   3.774   1.669
 8997SOL     OW27889   4.590   1.541   5.554
 8997SOL    HW127890   4.669   1.560   5.496
 8997SOL    HW227891   4.525   1.617   5.546
 8998SOL     OW27892   1.403   1.436   6.292
 8998SOL    HW127893   1.304   1.428   6.280
 8998SOL    HW227894   1.436   1.357   6.343
 8999SOL     OW27895   5.161   1.661   4.573
 8999SOL    HW127896   5.070   1.658   4.614
 8999SOL    HW227897   5.201   1.752   4.587
 9000SOL     OW27898   2.600   4.714   0.227
 9000SOL    HW127899   2.679   4.747   0.174
 9000SOL    HW227900   2.616   4.733   0.324
 9001SOL     OW27901   2.109   4.641   3.503
 9001SOL    HW127902   2.100   4.573   3.576
 9001SOL    HW227903   2.205   4.665   3.491
 9002SOL     OW27904   5.584   4.227   5.168
 9002SOL    HW127905   5.622   4.305   5.119
 9002SOL    HW227906   5.634   4.144   5.141
 9003SOL     OW27907   6.600   3.001   6.683
 9003SOL    HW127908   6.571   2.966   6.772
 9003SOL    HW227909   6.616   3.099   6.689
 9004SOL     OW27910   4.347   5.642   1.030
 9004SOL    HW127911   4.436   5.665   1.070
 9004SOL    HW227912   4.279   5.633   1.102
 9005SOL     OW27913   4.696   2.230   2.690
 9005SOL    HW127914   4.628   2.234   2.763
 9005SOL    HW227915   4.787   2.243   2.728
 9006SOL     OW27916   2.747   6.882   0.543
 9006SOL    HW127917   2.821   6.854   0.482
 9006SOL    HW227918   2.674   6.814   0.539
 9007SOL     OW27919   2.379   6.657   4.195
 9007SOL    HW127920   2.326   6.573   4.183
 9007SOL    HW227921   2.391   6.701   4.107
 9008SOL     OW27922   0.013   4.523   2.569
 9008SOL    HW127923   0.049   4.477   2.488
 9008SOL    HW227924   6.988   4.456   2.628
 9009SOL     OW27925   3.931   6.313   1.100
 9009SOL    HW127926   4.010   6.329   1.158
 9009SOL    HW227927   3.887   6.400   1.079
 9010SOL     OW27928   0.387   5.541   4.688
 9010SOL    HW127929   0.423   5.543   4.781
 9010SOL    HW227930   0.288   5.528   4.691
 9011SOL     OW27931   4.382   2.131   2.052
 9011SOL    HW127932   4.445   2.180   2.112
 9011SOL    HW227933   4.295   2.180   2.048
 9012SOL     OW27934   5.449   5.326   1.881
 9012SOL    HW127935   5.497   5.360   1.962
 9012SOL    HW227936   5.351   5.320   1.899
 9013SOL     OW27937   4.579   5.917   2.524
 9013SOL    HW127938   4.480   5.915   2.538
 9013SOL    HW227939   4.624   5.868   2.598
 9014SOL     OW27940   2.217   1.140   0.923
 9014SOL    HW127941   2.163   1.056   0.916
 9014SOL    HW227942   2.292   1.137   0.857
 9015SOL     OW27943   6.588   1.268   4.823
 9015SOL    HW127944   6.546   1.342   4.877
 9015SOL    HW227945   6.592   1.185   4.879
 9016SOL     OW27946   6.925   5.732   6.590
 9016SOL    HW127947   6.851   5.733   6.523
 9016SOL    HW227948   7.003   5.783   6.555
 9017SOL     OW27949   6.959   4.256   3.382
 9017SOL    HW127950   0.022   4.282   3.331
 9017SOL    HW227951   6.878   4.283   3.330
 9018SOL     OW27952   3.622   1.435   6.218
 9018SOL    HW127953   3.627   1.381   6.134
 9018SOL    HW227954   3.600   1.529   6.195
 9019SOL     OW27955   1.516   5.372   0.435
 9019SOL    HW127956   1.571   5.396   0.355
 9019SOL    HW227957   1.481   5.455   0.479
 9020SOL     OW27958   0.883   4.895   3.032
 9020SOL    HW127959   0.874   4.891   2.932
 9020SOL    HW227960   0.809   4.844   3.074
 9021SOL     OW27961   6.331   6.065   5.301
 9021SOL    HW127962   6.367   6.143   5.352
 9021SOL    HW227963   6.296   5.997   5.366
 9022SOL     OW27964   3.581   1.024   6.544
 9022SOL    HW127965   3.499   1.027   6.601
 9022SOL    HW227966   3.583   1.104   6.484
 9023SOL     OW27967   2.966   3.240   3.091
 9023SOL    HW127968   2.922   3.307   3.150
 9023SOL    HW227969   2.924   3.242   3.000
 9024SOL     OW27970   1.333   0.278   6.958
 9024SOL    HW127971   1.330   0.178   6.949
 9024SOL    HW227972   1.309   0.319   6.870
 9025SOL     OW27973   0.500   3.791   0.307
 9025SOL    HW127974   0.545   3.718   0.255
 9025SOL    HW227975   0.427   3.752   0.362
 9026SOL     OW27976   3.275   3.042   5.495
 9026SOL    HW127977   3.208   3.114   5.515
 9026SOL    HW227978   3.273   2.974   5.568
 9027SOL     OW27979   2.350   2.616   2.871
 9027SOL    HW127980   2.407   2.573   2.941
 9027SOL    HW227981   2.255   2.619   2.903
 9028SOL     OW27982   2.762   5.017   4.977
 9028SOL    HW127983   2.767   4.942   5.042
 9028SOL    HW227984   2.829   5.003   4.904
 9029SOL     OW27985   4.788   5.423   2.670
 9029SOL    HW127986   4.861   5.358   2.689
 9029SOL    HW227987   4.717   5.415   2.741
 9030SOL     OW27988   3.350   1.898   1.853
 9030SOL    HW127989   3.303   1.833   1.912
 9030SOL    HW227990   3.308   1.988   1.862
 9031SOL     OW27991   1.675   1.489   1.168
 9031SOL    HW127992   1.608   1.532   1.108
 9031SOL    HW227993   1.765   1.529   1.152
 9032SOL     OW27994   0.861   2.416   2.876
 9032SOL    HW127995   0.813   2.346   2.823
 9032SOL    HW227996   0.956   2.422   2.845
 9033SOL     OW27997   1.498   3.983   2.486
 9033SOL    HW127998   1.552   4.031   2.417
 9033SOL    HW227999   1.446   3.909   2.443
 9034SOL     OW28000   1.280   0.419   6.009
 9034SOL    HW128001   1.182   0.414   5.989
 9034SOL    HW228002   1.326   0.471   5.937
 9035SOL     OW28003   6.862   0.132   4.582
 9035SOL    HW128004   6.915   0.213   4.608
 9035SOL    HW228005   6.765   0.155   4.578
 9036SOL     OW28006   1.505   1.227   5.190
 9036SOL    HW128007   1.600   1.222   5.221
 9036SOL    HW228008   1.444   1.228   5.269
 9037SOL     OW28009   3.121   3.825   5.734
 9037SOL    HW128010   3.105   3.735   5.776
 9037SOL    HW228011   3.167   3.884   5.800
 9038SOL     OW28012   5.076   6.573   5.530
 9038SOL    HW128013   5.012   6.503   5.562
 9038SOL    HW228014   5.154   6.577   5.591
 9039SOL     OW28015   2.101   4.758   6.640
 9039SOL    HW128016   2.024   4.812   6.606
 9039SOL    HW228017   2.170   4.819   6.678
 9040SOL     OW28018   2.391   1.637   1.974
 9040SOL    HW128019   2.404   1.685   2.061
 9040SOL    HW228020   2.293   1.637   1.951
 9041SOL     OW28021   2.138   2.749   6.808
 9041SOL    HW128022   2.147   2.653   6.835
 9041SOL    HW228023   2.228   2.787   6.789
 9042SOL     OW28024   2.062   5.899   2.929
 9042SOL    HW128025   2.117   5.887   3.012
 9042SOL    HW228026   1.975   5.943   2.954
 9043SOL     OW28027   6.670   2.350   0.870
 9043SOL    HW128028   6.661   2.442   0.834
 9043SOL    HW228029   6.621   2.343   0.957
 9044SOL     OW28030   6.573   4.721   0.746
 9044SOL    HW128031   6.608   4.708   0.839
 9044SOL    HW228032   6.475   4.702   0.744
 9045SOL     OW28033   2.871   5.469   3.935
 9045SOL    HW128034   2.966   5.469   3.965
 9045SOL    HW228035   2.846   5.378   3.901
 9046SOL     OW28036   3.820   4.329   5.680
 9046SOL    HW128037   3.825   4.429   5.675
 9046SOL    HW228038   3.725   4.300   5.666
 9047SOL     OW28039   1.469   4.697   5.241
 9047SOL    HW128040   1.374   4.726   5.258
 9047SOL    HW228041   1.471   4.640   5.159
 9048SOL     OW28042   1.944   1.965   5.232
 9048SOL    HW128043   1.931   1.866   5.241
 9048SOL    HW228044   1.884   2.012   5.296
 9049SOL     OW28045   5.198   6.097   6.498
 9049SOL    HW128046   5.253   6.040   6.559
 9049SOL    HW228047   5.195   6.056   6.407
 9050SOL     OW28048   0.014   5.907   5.098
 9050SOL    HW128049   0.037   5.919   5.002
 9050SOL    HW228050   0.068   5.832   5.137
 9051SOL     OW28051   5.485   6.615   6.299
 9051SOL    HW128052   5.502   6.524   6.261
 9051SOL    HW228053   5.461   6.678   6.225
 9052SOL     OW28054   2.228   4.896   4.902
 9052SOL    HW128055   2.304   4.879   4.839
 9052SOL    HW228056   2.236   4.988   4.939
 9053SOL     OW28057   3.020   1.905   3.954
 9053SOL    HW128058   2.926   1.924   3.926
 9053SOL    HW228059   3.022   1.880   4.051
 9054SOL     OW28060   3.301   0.105   0.994
 9054SOL    HW128061   3.294   0.080   0.897
 9054SOL    HW228062   3.250   0.190   1.011
 9055SOL     OW28063   0.744   1.236   4.780
 9055SOL    HW128064   0.730   1.221   4.682
 9055SOL    HW228065   0.696   1.165   4.831
 9056SOL     OW28066   5.228   2.119   2.642
 9056SOL    HW128067   5.173   2.046   2.682
 9056SOL    HW228068   5.297   2.079   2.582
 9057SOL     OW28069   4.586   6.420   7.009
 9057SOL    HW128070   4.632   6.369   6.937
 9057SOL    HW228071   4.591   6.369   0.075
 9058SOL     OW28072   2.516   2.179   4.427
 9058SOL    HW128073   2.614   2.194   4.441
 9058SOL    HW228074   2.490   2.215   4.337
 9059SOL     OW28075   6.439   0.636   2.511
 9059SOL    HW128076   6.501   0.708   2.481
 9059SOL    HW228077   6.417   0.577   2.434
 9060SOL     OW28078   0.836   5.731   1.596
 9060SOL    HW128079   0.909   5.671   1.629
 9060SOL    HW228080   0.875   5.802   1.538
 9061SOL     OW28081   5.540   4.343   2.802
 9061SOL    HW128082   5.604   4.274   2.835
 9061SOL    HW228083   5.455   4.299   2.772
 9062SOL     OW28084   0.526   5.950   2.985
 9062SOL    HW128085   0.550   5.865   2.938
 9062SOL    HW228086   0.442   5.987   2.945
 9063SOL     OW28087   4.643   1.982   1.684
 9063SOL    HW128088   4.576   2.050   1.657
 9063SOL    HW228089   4.602   1.918   1.749
 9064SOL     OW28090   0.341   5.741   3.150
 9064SOL    HW128091   0.289   5.660   3.122
 9064SOL    HW228092   0.302   5.822   3.107
 9065SOL     OW28093   3.029   4.160   5.991
 9065SOL    HW128094   3.087   4.188   5.914
 9065SOL    HW228095   2.950   4.221   5.997
 9066SOL     OW28096   4.848   5.047   4.415
 9066SOL    HW128097   4.828   4.950   4.403
 9066SOL    HW228098   4.767   5.093   4.451
 9067SOL     OW28099   1.193   6.071   4.649
 9067SOL    HW128100   1.144   5.985   4.637
 9067SOL    HW228101   1.291   6.056   4.638
 9068SOL     OW28102   4.687   6.863   5.754
 9068SOL    HW128103   4.762   6.824   5.701
 9068SOL    HW228104   4.649   6.793   5.815
 9069SOL     OW28105   4.917   2.848   0.912
 9069SOL    HW128106   4.864   2.931   0.893
 9069SOL    HW228107   5.014   2.872   0.924
 9070SOL     OW28108   2.508   1.211   5.670
 9070SOL    HW128109   2.589   1.269   5.682
 9070SOL    HW228110   2.499   1.185   5.573
 9071SOL     OW28111   5.613   2.340   6.454
 9071SOL    HW128112   5.526   2.382   6.477
 9071SOL    HW228113   5.632   2.266   6.519
 9072SOL     OW28114   5.243   0.206   2.745
 9072SOL    HW128115   5.189   0.198   2.829
 9072SOL    HW228116   5.276   0.115   2.718
 9073SOL     OW28117   4.670   2.327   5.081
 9073SOL    HW128118   4.699   2.341   4.986
 9073SOL    HW228119   4.610   2.401   5.109
 9074SOL     OW28120   1.843   1.164   2.160
 9074SOL    HW128121   1.747   1.139   2.170
 9074SOL    HW228122   1.869   1.162   2.064
 9075SOL     OW28123   6.066   5.909   0.650
 9075SOL    HW128124   6.099   5.986   0.595
 9075SOL    HW228125   5.997   5.858   0.598
 9076SOL     OW28126   6.494   6.726   2.021
 9076SOL    HW128127   6.426   6.652   2.018
 9076SOL    HW228128   6.447   6.814   2.028
 9077SOL     OW28129   6.369   1.477   6.691
 9077SOL    HW128130   6.367   1.411   6.616
 9077SOL    HW228131   6.292   1.459   6.753
 9078SOL     OW28132   5.013   6.806   0.014
 9078SOL    HW128133   5.046   6.860   6.957
 9078SOL    HW228134   5.070   6.822   0.094
 9079SOL     OW28135   1.424   1.373   6.702
 9079SOL    HW128136   1.478   1.426   6.767
 9079SOL    HW228137   1.329   1.371   6.730
 9080SOL     OW28138   6.279   3.643   2.173
 9080SOL    HW128139   6.371   3.656   2.211
 9080SOL    HW228140   6.234   3.732   2.166
 9081SOL     OW28141   4.998   1.132   0.713
 9081SOL    HW128142   5.045   1.148   0.800
 9081SOL    HW228143   5.050   1.172   0.638
 9082SOL     OW28144   3.542   6.077   5.831
 9082SOL    HW128145   3.604   6.075   5.753
 9082SOL    HW228146   3.507   5.985   5.849
 9083SOL     OW28147   4.009   5.869   0.048
 9083SOL    HW128148   4.043   5.902   6.980
 9083SOL    HW228149   4.060   5.912   0.122
 9084SOL     OW28150   6.944   2.941   5.395
 9084SOL    HW128151   6.862   2.913   5.445
 9084SOL    HW228152   7.001   2.998   5.455
 9085SOL     OW28153   2.539   4.953   6.955
 9085SOL    HW128154   2.462   4.974   7.014
 9085SOL    HW228155   2.623   4.988   6.996
 9086SOL     OW28156   0.024   4.377   1.255
 9086SOL    HW128157   0.061   4.454   1.203
 9086SOL    HW228158   0.034   4.293   1.201
 9087SOL     OW28159   5.717   0.718   1.207
 9087SOL    HW128160   5.670   0.791   1.157
 9087SOL    HW228161   5.754   0.652   1.142
 9088SOL     OW28162   6.291   6.130   0.916
 9088SOL    HW128163   6.275   6.172   1.005
 9088SOL    HW228164   6.386   6.101   0.909
 9089SOL     OW28165   5.504   5.412   3.570
 9089SOL    HW128166   5.569   5.470   3.617
 9089SOL    HW228167   5.500   5.323   3.615
 9090SOL     OW28168   5.146   5.942   5.599
 9090SOL    HW128169   5.107   5.934   5.691
 9090SOL    HW228170   5.096   6.012   5.548
 9091SOL     OW28171   2.163   1.912   1.850
 9091SOL    HW128172   2.253   1.947   1.874
 9091SOL    HW228173   2.173   1.839   1.782
 9092SOL     OW28174   2.411   0.835   5.573
 9092SOL    HW128175   2.508   0.815   5.556
 9092SOL    HW228176   2.403   0.894   5.653
 9093SOL     OW28177   2.049   3.779   0.594
 9093SOL    HW128178   1.956   3.761   0.628
 9093SOL    HW228179   2.045   3.798   0.496
 9094SOL     OW28180   6.710   4.304   1.711
 9094SOL    HW128181   6.694   4.272   1.617
 9094SOL    HW228182   6.807   4.298   1.732
 9095SOL     OW28183   3.374   2.740   0.055
 9095SOL    HW128184   3.327   2.826   0.035
 9095SOL    HW228185   3.365   2.678   6.996
 9096SOL     OW28186   5.530   2.994   3.034
 9096SOL    HW128187   5.612   3.050   3.044
 9096SOL    HW228188   5.507   2.951   3.121
 9097SOL     OW28189   0.910   4.759   6.220
 9097SOL    HW128190   0.851   4.837   6.200
 9097SOL    HW228191   0.879   4.714   6.304
 9098SOL     OW28192   4.143   3.492   3.497
 9098SOL    HW128193   4.102   3.407   3.464
 9098SOL    HW228194   4.087   3.570   3.467
 9099SOL     OW28195   1.875   2.924   0.780
 9099SOL    HW128196   1.795   2.890   0.827
 9099SOL    HW228197   1.947   2.855   0.781
 9100SOL     OW28198   0.716   3.327   1.172
 9100SOL    HW128199   0.804   3.374   1.171
 9100SOL    HW228200   0.732   3.228   1.173
 9101SOL     OW28201   2.166   2.477   0.385
 9101SOL    HW128202   2.171   2.380   0.360
 9101SOL    HW228203   2.128   2.485   0.477
 9102SOL     OW28204   4.008   5.576   2.796
 9102SOL    HW128205   4.102   5.553   2.773
 9102SOL    HW228206   4.005   5.615   2.888
 9103SOL     OW28207   0.325   3.899   6.482
 9103SOL    HW128208   0.237   3.852   6.481
 9103SOL    HW228209   0.310   3.998   6.485
 9104SOL     OW28210   4.145   6.540   1.674
 9104SOL    HW128211   4.059   6.490   1.671
 9104SOL    HW228212   4.163   6.583   1.586
 9105SOL     OW28213   2.372   1.525   5.557
 9105SOL    HW128214   2.394   1.433   5.592
 9105SOL    HW228215   2.413   1.593   5.618
 9106SOL     OW28216   6.799   5.257   1.009
 9106SOL    HW128217   6.729   5.309   1.058
 9106SOL    HW228218   6.853   5.205   1.075
 9107SOL     OW28219   4.615   0.727   1.352
 9107SOL    HW128220   4.593   0.798   1.419
 9107SOL    HW228221   4.711   0.702   1.361
 9108SOL     OW28222   4.521   5.596   6.013
 9108SOL    HW128223   4.476   5.590   6.102
 9108SOL    HW228224   4.615   5.563   6.020
 9109SOL     OW28225   3.042   2.216   3.904
 9109SOL    HW128226   3.062   2.120   3.925
 9109SOL    HW228227   2.944   2.227   3.891
 9110SOL     OW28228   1.719   3.676   3.601
 9110SOL    HW128229   1.769   3.604   3.552
 9110SOL    HW228230   1.745   3.674   3.697
 9111SOL     OW28231   4.046   4.372   1.686
 9111SOL    HW128232   4.051   4.280   1.723
 9111SOL    HW228233   4.139   4.405   1.666
 9112SOL     OW28234   6.611   5.240   2.265
 9112SOL    HW128235   6.588   5.208   2.173
 9112SOL    HW228236   6.680   5.179   2.305
 9113SOL     OW28237   3.818   6.745   0.233
 9113SOL    HW128238   3.879   6.780   0.162
 9113SOL    HW228239   3.727   6.784   0.221
 9114SOL     OW28240   2.637   4.639   1.795
 9114SOL    HW128241   2.723   4.617   1.840
 9114SOL    HW228242   2.561   4.613   1.854
 9115SOL     OW28243   1.691   4.599   4.947
 9115SOL    HW128244   1.760   4.661   4.984
 9115SOL    HW228245   1.731   4.508   4.937
 9116SOL     OW28246   0.989   1.404   6.015
 9116SOL    HW128247   0.987   1.440   5.922
 9116SOL    HW228248   0.924   1.455   6.072
 9117SOL     OW28249   6.840   2.614   0.188
 9117SOL    HW128250   6.808   2.662   0.107
 9117SOL    HW228251   6.882   2.527   0.161
 9118SOL     OW28252   6.212   6.187   1.824
 9118SOL    HW128253   6.207   6.211   1.727
 9118SOL    HW228254   6.258   6.260   1.874
 9119SOL     OW28255   6.711   0.568   1.531
 9119SOL    HW128256   6.777   0.569   1.607
 9119SOL    HW228257   6.666   0.480   1.528
 9120SOL     OW28258   5.617   1.520   6.064
 9120SOL    HW128259   5.544   1.551   6.003
 9120SOL    HW228260   5.581   1.450   6.126
 9121SOL     OW28261   1.143   1.392   6.247
 9121SOL    HW128262   1.084   1.410   6.169
 9121SOL    HW228263   1.096   1.417   6.331
 9122SOL     OW28264   1.332   2.801   2.115
 9122SOL    HW128265   1.309   2.860   2.037
 9122SOL    HW228266   1.325   2.853   2.200
 9123SOL     OW28267   2.253   5.166   6.881
 9123SOL    HW128268   2.238   5.177   6.979
 9123SOL    HW228269   2.303   5.244   6.845
 9124SOL     OW28270   6.513   5.438   5.261
 9124SOL    HW128271   6.497   5.361   5.322
 9124SOL    HW228272   6.432   5.497   5.260
 9125SOL     OW28273   5.093   4.641   3.600
 9125SOL    HW128274   5.122   4.698   3.523
 9125SOL    HW228275   5.068   4.550   3.566
 9126SOL     OW28276   5.910   0.844   1.332
 9126SOL    HW128277   5.847   0.909   1.372
 9126SOL    HW228278   5.861   0.784   1.268
 9127SOL     OW28279   4.844   0.713   0.040
 9127SOL    HW128280   4.789   0.795   0.026
 9127SOL    HW228281   4.868   0.704   0.136
 9128SOL     OW28282   4.446   2.171   4.969
 9128SOL    HW128283   4.441   2.223   4.884
 9128SOL    HW228284   4.514   2.212   5.029
 9129SOL     OW28285   2.146   1.851   6.406
 9129SOL    HW128286   2.189   1.770   6.445
 9129SOL    HW228287   2.046   1.838   6.403
 9130SOL     OW28288   5.810   4.546   1.014
 9130SOL    HW128289   5.808   4.646   1.026
 9130SOL    HW228290   5.877   4.523   0.943
 9131SOL     OW28291   1.201   4.205   4.669
 9131SOL    HW128292   1.288   4.164   4.640
 9131SOL    HW228293   1.148   4.231   4.589
 9132SOL     OW28294   0.104   2.935   4.633
 9132SOL    HW128295   0.107   2.870   4.708
 9132SOL    HW228296   0.014   2.932   4.590
 9133SOL     OW28297   2.330   4.074   1.421
 9133SOL    HW128298   2.281   4.065   1.508
 9133SOL    HW228299   2.280   4.134   1.360
 9134SOL     OW28300   2.890   5.851   6.452
 9134SOL    HW128301   2.883   5.928   6.390
 9134SOL    HW228302   2.804   5.800   6.453
 9135SOL     OW28303   6.600   6.297   4.642
 9135SOL    HW128304   6.598   6.365   4.568
 9135SOL    HW228305   6.567   6.339   4.727
 9136SOL     OW28306   4.180   4.858   5.519
 9136SOL    HW128307   4.185   4.895   5.426
 9136SOL    HW228308   4.235   4.775   5.525
 9137SOL     OW28309   4.375   1.203   1.740
 9137SOL    HW128310   4.304   1.270   1.763
 9137SOL    HW228311   4.369   1.125   1.803
 9138SOL     OW28312   4.402   5.253   6.520
 9138SOL    HW128313   4.430   5.334   6.571
 9138SOL    HW228314   4.465   5.238   6.444
 9139SOL     OW28315   3.213   1.587   5.228
 9139SOL    HW128316   3.296   1.533   5.218
 9139SOL    HW228317   3.222   1.672   5.177
 9140SOL     OW28318   0.034   2.582   2.922
 9140SOL    HW128319   0.084   2.498   2.900
 9140SOL    HW228320   0.001   2.577   3.016
 9141SOL     OW28321   5.626   0.021   5.860
 9141SOL    HW128322   5.614   7.005   5.767
 9141SOL    HW228323   5.680   6.976   5.914
 9142SOL     OW28324   0.087   3.085   5.926
 9142SOL    HW128325   0.005   3.069   5.981
 9142SOL    HW228326   0.167   3.083   5.985
 9143SOL     OW28327   4.673   3.854   0.824
 9143SOL    HW128328   4.596   3.825   0.879
 9143SOL    HW228329   4.678   3.954   0.823
 9144SOL     OW28330   2.216   5.413   5.406
 9144SOL    HW128331   2.260   5.497   5.373
 9144SOL    HW228332   2.252   5.389   5.496
 9145SOL     OW28333   0.113   4.716   6.546
 9145SOL    HW128334   0.028   4.689   6.502
 9145SOL    HW228335   0.151   4.796   6.499
 9146SOL     OW28336   5.967   2.193   1.934
 9146SOL    HW128337   5.928   2.129   2.001
 9146SOL    HW228338   5.894   2.226   1.874
 9147SOL     OW28339   4.183   5.496   5.102
 9147SOL    HW128340   4.262   5.521   5.159
 9147SOL    HW228341   4.206   5.510   5.006
 9148SOL     OW28342   4.682   5.050   3.585
 9148SOL    HW128343   4.636   5.136   3.565
 9148SOL    HW228344   4.708   5.047   3.682
 9149SOL     OW28345   5.286   3.152   4.512
 9149SOL    HW128346   5.357   3.220   4.526
 9149SOL    HW228347   5.313   3.091   4.437
 9150SOL     OW28348   5.008   0.209   3.262
 9150SOL    HW128349   4.949   0.129   3.258
 9150SOL    HW228350   4.953   0.291   3.244
 9151SOL     OW28351   1.859   4.116   1.876
 9151SOL    HW128352   1.822   4.204   1.846
 9151SOL    HW228353   1.816   4.089   1.962
 9152SOL     OW28354   2.067   6.088   3.802
 9152SOL    HW128355   2.163   6.099   3.778
 9152SOL    HW228356   2.010   6.098   3.720
 9153SOL     OW28357   1.867   2.786   6.291
 9153SOL    HW128358   1.864   2.705   6.233
 9153SOL    HW228359   1.948   2.784   6.349
 9154SOL     OW28360   2.406   5.752   6.965
 9154SOL    HW128361   2.366   5.842   6.945
 9154SOL    HW228362   2.339   5.680   6.948
 9155SOL     OW28363   1.441   3.855   0.053
 9155SOL    HW128364   1.375   3.911   0.002
 9155SOL    HW228365   1.465   3.774   7.019
 9156SOL     OW28366   4.586   2.270   1.203
 9156SOL    HW128367   4.629   2.341   1.259
 9156SOL    HW228368   4.595   2.181   1.248
 9157SOL     OW28369   5.348   4.114   5.598
 9157SOL    HW128370   5.326   4.039   5.660
 9157SOL    HW228371   5.321   4.201   5.639
 9158SOL     OW28372   0.848   3.375   4.346
 9158SOL    HW128373   0.775   3.409   4.287
 9158SOL    HW228374   0.911   3.317   4.292
 9159SOL     OW28375   6.334   5.548   2.387
 9159SOL    HW128376   6.371   5.470   2.437
 9159SOL    HW228377   6.302   5.617   2.451
 9160SOL     OW28378   1.025   0.134   6.974
 9160SOL    HW128379   0.946   0.075   6.991
 9160SOL    HW228380   0.999   0.208   6.913
 9161SOL     OW28381   4.949   4.036   4.650
 9161SOL    HW128382   4.996   4.123   4.633
 9161SOL    HW228383   4.874   4.050   4.714
 9162SOL     OW28384   4.723   2.735   2.284
 9162SOL    HW128385   4.758   2.641   2.279
 9162SOL    HW228386   4.711   2.761   2.380
 9163SOL     OW28387   2.918   2.184   3.583
 9163SOL    HW128388   2.822   2.207   3.598
 9163SOL    HW228389   2.973   2.222   3.657
 9164SOL     OW28390   3.104   0.469   6.826
 9164SOL    HW128391   3.184   0.447   6.771
 9164SOL    HW228392   3.080   0.391   6.884
 9165SOL     OW28393   5.524   0.540   6.927
 9165SOL    HW128394   5.525   0.640   6.939
 9165SOL    HW228395   5.615   0.509   6.901
 9166SOL     OW28396   2.876   5.400   1.244
 9166SOL    HW128397   2.925   5.473   1.195
 9166SOL    HW228398   2.922   5.313   1.228
 9167SOL     OW28399   2.012   4.518   5.622
 9167SOL    HW128400   2.047   4.515   5.528
 9167SOL    HW228401   1.919   4.554   5.622
 9168SOL     OW28402   2.583   0.238   6.038
 9168SOL    HW128403   2.622   0.193   6.118
 9168SOL    HW228404   2.505   0.185   6.005
 9169SOL     OW28405   0.514   1.105   3.851
 9169SOL    HW128406   0.443   1.098   3.921
 9169SOL    HW228407   0.479   1.157   3.773
 9170SOL     OW28408   6.949   5.632   0.056
 9170SOL    HW128409   0.028   5.645   0.056
 9170SOL    HW228410   6.905   5.717   0.028
 9171SOL     OW28411   2.603   5.586   0.039
 9171SOL    HW128412   2.534   5.649   0.003
 9171SOL    HW228413   2.578   5.559   0.132
 9172SOL     OW28414   3.046   1.596   3.726
 9172SOL    HW128415   2.968   1.617   3.784
 9172SOL    HW228416   3.077   1.679   3.680
 9173SOL     OW28417   0.031   5.186   4.273
 9173SOL    HW128418   0.122   5.154   4.247
 9173SOL    HW228419   0.018   5.173   4.371
 9174SOL     OW28420   6.995   4.923   0.480
 9174SOL    HW128421   6.927   4.873   0.532
 9174SOL    HW228422   0.064   4.915   0.525
 9175SOL     OW28423   1.993   5.970   5.969
 9175SOL    HW128424   2.017   5.928   5.882
 9175SOL    HW228425   2.031   6.063   5.973
 9176SOL     OW28426   2.112   0.514   5.901
 9176SOL    HW128427   2.163   0.472   5.826
 9176SOL    HW228428   2.047   0.449   5.939
 9177SOL     OW28429   1.110   4.365   3.527
 9177SOL    HW128430   1.148   4.447   3.570
 9177SOL    HW228431   1.175   4.330   3.460
 9178SOL     OW28432   1.919   5.230   0.955
 9178SOL    HW128433   1.885   5.254   0.863
 9178SOL    HW228434   1.862   5.158   0.994
 9179SOL     OW28435   3.177   4.974   3.972
 9179SOL    HW128436   3.161   4.983   4.070
 9179SOL    HW228437   3.225   5.055   3.939
 9180SOL     OW28438   5.695   2.377   3.819
 9180SOL    HW128439   5.724   2.431   3.740
 9180SOL    HW228440   5.772   2.323   3.853
 9181SOL     OW28441   4.443   2.267   2.385
 9181SOL    HW128442   4.351   2.285   2.421
 9181SOL    HW228443   4.508   2.327   2.431
 9182SOL     OW28444   0.945   6.387   1.727
 9182SOL    HW128445   1.034   6.377   1.681
 9182SOL    HW228446   0.918   6.483   1.725
 9183SOL     OW28447   5.024   6.366   1.082
 9183SOL    HW128448   5.083   6.425   1.136
 9183SOL    HW228449   4.994   6.415   1.000
 9184SOL     OW28450   5.087   6.731   0.854
 9184SOL    HW128451   5.030   6.798   0.806
 9184SOL    HW228452   5.073   6.739   0.952
 9185SOL     OW28453   3.467   0.785   4.940
 9185SOL    HW128454   3.529   0.857   4.969
 9185SOL    HW228455   3.443   0.727   5.018
 9186SOL     OW28456   6.078   1.073   5.562
 9186SOL    HW128457   6.097   0.978   5.536
 9186SOL    HW228458   6.021   1.116   5.492
 9187SOL     OW28459   2.402   6.514   2.179
 9187SOL    HW128460   2.311   6.550   2.160
 9187SOL    HW228461   2.426   6.535   2.274
 9188SOL     OW28462   2.618   6.619   1.222
 9188SOL    HW128463   2.631   6.640   1.319
 9188SOL    HW228464   2.594   6.703   1.173
 9189SOL     OW28465   5.066   5.665   3.191
 9189SOL    HW128466   5.017   5.593   3.241
 9189SOL    HW228467   5.136   5.705   3.251
 9190SOL     OW28468   1.606   5.167   0.953
 9190SOL    HW128469   1.589   5.258   0.993
 9190SOL    HW228470   1.565   5.162   0.863
 9191SOL     OW28471   6.862   0.423   5.839
 9191SOL    HW128472   6.951   0.462   5.866
 9191SOL    HW228473   6.792   0.494   5.847
 9192SOL     OW28474   6.889   4.209   4.306
 9192SOL    HW128475   6.821   4.198   4.234
 9192SOL    HW228476   6.935   4.298   4.295
 9193SOL     OW28477   3.092   3.280   6.905
 9193SOL    HW128478   3.177   3.331   6.897
 9193SOL    HW228479   3.080   3.248   6.999
 9194SOL     OW28480   3.176   0.903   3.657
 9194SOL    HW128481   3.194   0.823   3.601
 9194SOL    HW228482   3.111   0.963   3.610
 9195SOL     OW28483   1.813   2.101   4.087
 9195SOL    HW128484   1.871   2.123   4.165
 9195SOL    HW228485   1.801   2.002   4.080
 9196SOL     OW28486   4.674   1.824   5.187
 9196SOL    HW128487   4.697   1.921   5.182
 9196SOL    HW228488   4.736   1.772   5.128
 9197SOL     OW28489   2.250   3.719   1.652
 9197SOL    HW128490   2.296   3.676   1.729
 9197SOL    HW228491   2.209   3.806   1.681
 9198SOL     OW28492   6.525   5.235   5.464
 9198SOL    HW128493   6.441   5.228   5.519
 9198SOL    HW228494   6.605   5.229   5.524
 9199SOL     OW28495   0.126   4.466   5.037
 9199SOL    HW128496   0.103   4.369   5.043
 9199SOL    HW228497   0.042   4.521   5.043
 9200SOL     OW28498   3.285   0.343   0.604
 9200SOL    HW128499   3.279   0.316   0.508
 9200SOL    HW228500   3.276   0.442   0.612
 9201SOL     OW28501   1.418   4.033   0.324
 9201SOL    HW128502   1.490   4.010   0.259
 9201SOL    HW228503   1.459   4.072   0.407
 9202SOL     OW28504   1.308   0.243   2.936
 9202SOL    HW128505   1.211   0.264   2.947
 9202SOL    HW228506   1.326   0.151   2.969
 9203SOL     OW28507   6.890   5.679   0.880
 9203SOL    HW128508   6.821   5.607   0.876
 9203SOL    HW228509   6.846   5.767   0.897
 9204SOL     OW28510   5.130   1.035   6.008
 9204SOL    HW128511   5.106   1.086   5.925
 9204SOL    HW228512   5.229   1.023   6.011
 9205SOL     OW28513   6.824   3.803   3.105
 9205SOL    HW128514   6.820   3.824   3.203
 9205SOL    HW228515   6.889   3.728   3.090
 9206SOL     OW28516   3.777   5.910   0.695
 9206SOL    HW128517   3.834   5.984   0.729
 9206SOL    HW228518   3.730   5.866   0.771
 9207SOL     OW28519   4.991   5.552   0.546
 9207SOL    HW128520   4.917   5.567   0.612
 9207SOL    HW228521   5.069   5.509   0.593
 9208SOL     OW28522   0.671   3.940   4.004
 9208SOL    HW128523   0.718   3.853   3.997
 9208SOL    HW228524   0.655   3.962   4.101
 9209SOL     OW28525   2.333   1.443   6.411
 9209SOL    HW128526   2.237   1.416   6.405
 9209SOL    HW228527   2.377   1.432   6.321
 9210SOL     OW28528   6.652   1.383   3.225
 9210SOL    HW128529   6.560   1.354   3.249
 9210SOL    HW228530   6.684   1.332   3.145
 9211SOL     OW28531   0.195   1.588   3.677
 9211SOL    HW128532   0.123   1.572   3.610
 9211SOL    HW228533   0.280   1.613   3.629
 9212SOL     OW28534   3.284   5.071   4.938
 9212SOL    HW128535   3.311   5.043   4.846
 9212SOL    HW228536   3.248   4.992   4.987
 9213SOL     OW28537   5.885   3.896   5.991
 9213SOL    HW128538   5.832   3.832   5.936
 9213SOL    HW228539   5.875   3.989   5.955
 9214SOL     OW28540   0.803   5.585   0.807
 9214SOL    HW128541   0.870   5.650   0.771
 9214SOL    HW228542   0.809   5.583   0.907
 9215SOL     OW28543   1.284   0.876   0.424
 9215SOL    HW128544   1.371   0.870   0.472
 9215SOL    HW228545   1.209   0.858   0.487
 9216SOL     OW28546   2.353   6.966   2.909
 9216SOL    HW128547   2.410   0.026   2.889
 9216SOL    HW228548   2.410   6.896   2.953
 9217SOL     OW28549   1.118   1.810   6.341
 9217SOL    HW128550   1.123   1.770   6.249
 9217SOL    HW228551   1.153   1.904   6.338
 9218SOL     OW28552   2.975   0.302   0.634
 9218SOL    HW128553   2.951   0.265   0.544
 9218SOL    HW228554   3.056   0.360   0.625
 9219SOL     OW28555   0.513   2.372   0.837
 9219SOL    HW128556   0.458   2.399   0.916
 9219SOL    HW228557   0.509   2.444   0.768
 9220SOL     OW28558   3.276   6.568   1.354
 9220SOL    HW128559   3.342   6.624   1.304
 9220SOL    HW228560   3.291   6.579   1.452
 9221SOL     OW28561   2.807   5.836   3.988
 9221SOL    HW128562   2.798   5.914   4.050
 9221SOL    HW228563   2.719   5.789   3.980
 9222SOL     OW28564   2.877   1.391   6.170
 9222SOL    HW128565   2.858   1.377   6.268
 9222SOL    HW228566   2.929   1.476   6.159
 9223SOL     OW28567   2.590   2.900   5.401
 9223SOL    HW128568   2.534   2.888   5.482
 9223SOL    HW228569   2.549   2.970   5.342
 9224SOL     OW28570   1.737   5.208   4.295
 9224SOL    HW128571   1.694   5.290   4.333
 9224SOL    HW228572   1.740   5.136   4.365
 9225SOL     OW28573   3.049   5.959   6.884
 9225SOL    HW128574   3.119   5.888   6.879
 9225SOL    HW228575   2.959   5.917   6.893
 9226SOL     OW28576   5.123   6.787   1.215
 9226SOL    HW128577   5.035   6.806   1.172
 9226SOL    HW228578   5.109   6.747   1.306
 9227SOL     OW28579   1.909   5.677   2.837
 9227SOL    HW128580   1.973   5.747   2.867
 9227SOL    HW228581   1.940   5.637   2.750
 9228SOL     OW28582   1.286   0.654   6.811
 9228SOL    HW128583   1.281   0.555   6.794
 9228SOL    HW228584   1.379   0.678   6.838
 9229SOL     OW28585   0.736   5.405   4.389
 9229SOL    HW128586   0.832   5.420   4.368
 9229SOL    HW228587   0.680   5.469   4.336
 9230SOL     OW28588   5.653   0.737   3.821
 9230SOL    HW128589   5.571   0.689   3.789
 9230SOL    HW228590   5.712   0.757   3.742
 9231SOL     OW28591   1.358   2.551   4.359
 9231SOL    HW128592   1.294   2.480   4.329
 9231SOL    HW228593   1.403   2.521   4.444
 9232SOL     OW28594   3.417   4.941   0.657
 9232SOL    HW128595   3.350   4.871   0.633
 9232SOL    HW228596   3.387   5.030   0.622
 9233SOL     OW28597   5.713   4.815   0.977
 9233SOL    HW128598   5.765   4.900   0.974
 9233SOL    HW228599   5.667   4.807   1.065
 9234SOL     OW28600   2.547   5.908   3.252
 9234SOL    HW128601   2.645   5.888   3.252
 9234SOL    HW228602   2.518   5.932   3.345
 9235SOL     OW28603   0.420   2.094   3.110
 9235SOL    HW128604   0.339   2.043   3.079
 9235SOL    HW228605   0.457   2.147   3.034
 9236SOL     OW28606   3.046   3.514   5.079
 9236SOL    HW128607   2.980   3.511   5.154
 9236SOL    HW228608   3.137   3.491   5.113
 9237SOL     OW28609   1.922   4.093   3.774
 9237SOL    HW128610   2.015   4.078   3.742
 9237SOL    HW228611   1.874   4.155   3.711
 9238SOL     OW28612   4.228   2.971   6.436
 9238SOL    HW128613   4.248   3.021   6.520
 9238SOL    HW228614   4.313   2.953   6.386
 9239SOL     OW28615   0.865   3.845   0.841
 9239SOL    HW128616   0.951   3.800   0.816
 9239SOL    HW228617   0.882   3.917   0.908
 9240SOL     OW28618   4.488   1.475   1.914
 9240SOL    HW128619   4.544   1.445   1.836
 9240SOL    HW228620   4.480   1.401   1.980
 9241SOL     OW28621   0.615   5.622   6.854
 9241SOL    HW128622   0.578   5.639   6.946
 9241SOL    HW228623   0.652   5.530   6.850
 9242SOL     OW28624   6.004   5.896   1.860
 9242SOL    HW128625   5.973   5.827   1.795
 9242SOL    HW228626   6.102   5.912   1.847
 9243SOL     OW28627   6.285   5.919   5.060
 9243SOL    HW128628   6.224   5.841   5.073
 9243SOL    HW228629   6.280   5.979   5.140
 9244SOL     OW28630   3.603   5.102   6.579
 9244SOL    HW128631   3.594   5.009   6.546
 9244SOL    HW228632   3.660   5.155   6.516
 9245SOL     OW28633   0.492   6.101   1.679
 9245SOL    HW128634   0.511   6.197   1.655
 9245SOL    HW228635   0.424   6.064   1.616
 9246SOL     OW28636   6.441   5.378   3.577
 9246SOL    HW128637   6.426   5.433   3.660
 9246SOL    HW228638   6.423   5.435   3.496
 9247SOL     OW28639   1.013   6.554   2.539
 9247SOL    HW128640   1.067   6.552   2.622
 9247SOL    HW228641   1.046   6.626   2.478
 9248SOL     OW28642   2.795   2.354   6.209
 9248SOL    HW128643   2.880   2.404   6.190
 9248SOL    HW228644   2.722   2.419   6.232
 9249SOL     OW28645   5.040   0.563   3.810
 9249SOL    HW128646   5.036   0.468   3.841
 9249SOL    HW228647   5.052   0.566   3.711
 9250SOL     OW28648   5.107   3.579   3.891
 9250SOL    HW128649   5.044   3.532   3.829
 9250SOL    HW228650   5.139   3.664   3.848
 9251SOL     OW28651   3.677   1.880   2.592
 9251SOL    HW128652   3.681   1.802   2.654
 9251SOL    HW228653   3.652   1.849   2.500
 9252SOL     OW28654   0.329   0.280   5.035
 9252SOL    HW128655   0.321   0.230   5.121
 9252SOL    HW228656   0.239   0.315   5.009
 9253SOL     OW28657   1.847   0.120   5.836
 9253SOL    HW128658   1.757   0.120   5.794
 9253SOL    HW228659   1.899   0.040   5.805
 9254SOL     OW28660   5.806   3.737   1.747
 9254SOL    HW128661   5.855   3.737   1.660
 9254SOL    HW228662   5.862   3.693   1.818
 9255SOL     OW28663   5.620   4.062   1.166
 9255SOL    HW128664   5.570   4.145   1.192
 9255SOL    HW228665   5.675   4.081   1.084
 9256SOL     OW28666   4.309   4.752   1.842
 9256SOL    HW128667   4.297   4.686   1.916
 9256SOL    HW228668   4.382   4.722   1.781
 9257SOL     OW28669   0.976   4.078   1.436
 9257SOL    HW128670   0.938   4.121   1.517
 9257SOL    HW228671   0.902   4.045   1.378
 9258SOL     OW28672   3.954   3.049   3.390
 9258SOL    HW128673   3.904   2.963   3.375
 9258SOL    HW228674   3.958   3.067   3.489
 9259SOL     OW28675   1.322   2.355   1.156
 9259SOL    HW128676   1.263   2.367   1.236
 9259SOL    HW228677   1.412   2.395   1.175
 9260SOL     OW28678   4.952   3.526   6.196
 9260SOL    HW128679   5.048   3.539   6.171
 9260SOL    HW228680   4.914   3.448   6.146
 9261SOL     OW28681   4.650   0.192   6.364
 9261SOL    HW128682   4.650   0.187   6.464
 9261SOL    HW228683   4.727   0.248   6.334
 9262SOL     OW28684   5.100   1.302   5.580
 9262SOL    HW128685   5.185   1.307   5.527
 9262SOL    HW228686   5.023   1.326   5.522
 9263SOL     OW28687   5.098   3.799   1.631
 9263SOL    HW128688   5.142   3.797   1.720
 9263SOL    HW228689   5.068   3.892   1.610
 9264SOL     OW28690   6.153   3.961   0.094
 9264SOL    HW128691   6.102   4.014   0.162
 9264SOL    HW228692   6.211   4.022   0.040
 9265SOL     OW28693   2.878   1.179   0.409
 9265SOL    HW128694   2.856   1.113   0.338
 9265SOL    HW228695   2.949   1.242   0.375
 9266SOL     OW28696   2.480   6.683   2.814
 9266SOL    HW128697   2.474   6.604   2.753
 9266SOL    HW228698   2.538   6.753   2.772
 9267SOL     OW28699   0.824   4.568   4.569
 9267SOL    HW128700   0.840   4.606   4.478
 9267SOL    HW228701   0.771   4.632   4.624
 9268SOL     OW28702   0.372   6.763   2.768
 9268SOL    HW128703   0.383   6.823   2.689
 9268SOL    HW228704   0.398   6.670   2.743
 9269SOL     OW28705   3.411   1.670   6.469
 9269SOL    HW128706   3.393   1.676   6.371
 9269SOL    HW228707   3.354   1.599   6.509
 9270SOL     OW28708   6.699   6.785   6.522
 9270SOL    HW128709   6.753   6.866   6.543
 9270SOL    HW228710   6.758   6.705   6.520
 9271SOL     OW28711   1.896   5.749   0.587
 9271SOL    HW128712   1.892   5.801   0.673
 9271SOL    HW228713   1.940   5.660   0.604
 9272SOL     OW28714   2.394   4.587   6.166
 9272SOL    HW128715   2.336   4.663   6.138
 9272SOL    HW228716   2.481   4.590   6.116
 9273SOL     OW28717   4.290   5.391   4.279
 9273SOL    HW128718   4.368   5.329   4.272
 9273SOL    HW228719   4.207   5.338   4.295
 9274SOL     OW28720   5.990   2.060   6.388
 9274SOL    HW128721   5.941   2.083   6.472
 9274SOL    HW228722   6.053   1.985   6.406
 9275SOL     OW28723   1.796   0.689   5.918
 9275SOL    HW128724   1.711   0.729   5.882
 9275SOL    HW228725   1.860   0.673   5.843
 9276SOL     OW28726   3.690   6.005   4.777
 9276SOL    HW128727   3.633   6.001   4.859
 9276SOL    HW228728   3.682   6.096   4.735
 9277SOL     OW28729   4.007   3.134   6.888
 9277SOL    HW128730   3.955   3.132   6.803
 9277SOL    HW228731   4.071   3.057   6.890
 9278SOL     OW28732   1.235   1.834   3.211
 9278SOL    HW128733   1.289   1.913   3.242
 9278SOL    HW228734   1.138   1.852   3.227
 9279SOL     OW28735   3.147   0.533   2.199
 9279SOL    HW128736   3.146   0.507   2.103
 9279SOL    HW228737   3.175   0.454   2.254
 9280SOL     OW28738   2.054   6.741   3.963
 9280SOL    HW128739   2.039   6.753   4.062
 9280SOL    HW228740   2.128   6.802   3.933
 9281SOL     OW28741   1.910   2.250   0.228
 9281SOL    HW128742   1.947   2.218   0.141
 9281SOL    HW228743   1.957   2.203   0.303
 9282SOL     OW28744   4.416   1.853   5.291
 9282SOL    HW128745   4.510   1.835   5.260
 9282SOL    HW228746   4.354   1.852   5.212
 9283SOL     OW28747   5.741   2.598   2.219
 9283SOL    HW128748   5.671   2.625   2.284
 9283SOL    HW228749   5.704   2.602   2.126
 9284SOL     OW28750   3.045   3.627   1.356
 9284SOL    HW128751   2.999   3.716   1.357
 9284SOL    HW228752   3.143   3.640   1.346
 9285SOL     OW28753   7.011   2.469   6.644
 9285SOL    HW128754   0.044   2.534   6.588
 9285SOL    HW228755   6.914   2.490   6.635
 9286SOL     OW28756   5.454   6.879   5.102
 9286SOL    HW128757   5.516   6.880   5.180
 9286SOL    HW228758   5.463   6.964   5.051
 9287SOL     OW28759   2.686   6.374   1.115
 9287SOL    HW128760   2.664   6.464   1.153
 9287SOL    HW228761   2.785   6.358   1.120
 9288SOL     OW28762   4.805   2.356   5.877
 9288SOL    HW128763   4.885   2.304   5.904
 9288SOL    HW228764   4.800   2.440   5.931
 9289SOL     OW28765   5.119   2.711   2.027
 9289SOL    HW128766   5.109   2.656   2.109
 9289SOL    HW228767   5.074   2.800   2.041
 9290SOL     OW28768   4.540   1.776   4.535
 9290SOL    HW128769   4.635   1.804   4.540
 9290SOL    HW228770   4.531   1.679   4.559
 9291SOL     OW28771   1.240   0.782   4.683
 9291SOL    HW128772   1.239   0.784   4.783
 9291SOL    HW228773   1.298   0.856   4.648
 9292SOL     OW28774   0.382   3.377   6.157
 9292SOL    HW128775   0.480   3.366   6.176
 9292SOL    HW228776   0.366   3.466   6.115
 9293SOL     OW28777   5.375   4.409   0.499
 9293SOL    HW128778   5.334   4.339   0.557
 9293SOL    HW228779   5.303   4.461   0.454
 9294SOL     OW28780   5.446   6.556   0.016
 9294SOL    HW128781   5.416   6.557   0.111
 9294SOL    HW228782   5.393   6.623   6.984
 9295SOL     OW28783   4.795   1.636   2.881
 9295SOL    HW128784   4.851   1.714   2.908
 9295SOL    HW228785   4.701   1.650   2.913
 9296SOL     OW28786   6.049   6.345   5.956
 9296SOL    HW128787   6.004   6.331   6.044
 9296SOL    HW228788   5.981   6.364   5.886
 9297SOL     OW28789   0.318   0.827   1.166
 9297SOL    HW128790   0.390   0.759   1.181
 9297SOL    HW228791   0.249   0.789   1.104
 9298SOL     OW28792   1.474   6.176   5.216
 9298SOL    HW128793   1.468   6.076   5.225
 9298SOL    HW228794   1.399   6.218   5.267
 9299SOL     OW28795   1.647   3.648   4.281
 9299SOL    HW128796   1.690   3.706   4.350
 9299SOL    HW228797   1.682   3.555   4.290
 9300SOL     OW28798   5.558   4.493   4.780
 9300SOL    HW128799   5.458   4.490   4.786
 9300SOL    HW228800   5.591   4.416   4.725
 9301SOL     OW28801   5.184   4.508   2.307
 9301SOL    HW128802   5.127   4.526   2.387
 9301SOL    HW228803   5.189   4.410   2.291
 9302SOL     OW28804   2.421   1.885   2.921
 9302SOL    HW128805   2.362   1.919   2.847
 9302SOL    HW228806   2.457   1.795   2.896
 9303SOL     OW28807   3.736   5.953   6.800
 9303SOL    HW128808   3.750   5.908   6.712
 9303SOL    HW228809   3.801   6.028   6.810
 9304SOL     OW28810   3.068   3.438   0.962
 9304SOL    HW128811   3.069   3.528   1.005
 9304SOL    HW228812   3.120   3.441   0.877
 9305SOL     OW28813   6.137   2.896   1.826
 9305SOL    HW128814   6.234   2.907   1.805
 9305SOL    HW228815   6.091   2.853   1.749
 9306SOL     OW28816   6.987   4.472   4.259
 9306SOL    HW128817   6.974   4.464   4.160
 9306SOL    HW228818   0.064   4.483   4.279
 9307SOL     OW28819   1.484   1.891   0.422
 9307SOL    HW128820   1.447   1.932   0.505
 9307SOL    HW228821   1.577   1.923   0.407
 9308SOL     OW28822   0.472   3.390   0.845
 9308SOL    HW128823   0.501   3.410   0.939
 9308SOL    HW228824   0.524   3.446   0.781
 9309SOL     OW28825   4.588   3.933   5.778
 9309SOL    HW128826   4.591   4.029   5.750
 9309SOL    HW228827   4.497   3.911   5.812
 9310SOL     OW28828   4.379   5.800   6.651
 9310SOL    HW128829   4.454   5.832   6.708
 9310SOL    HW228830   4.338   5.718   6.691
 9311SOL     OW28831   5.552   3.890   0.880
 9311SOL    HW128832   5.551   3.980   0.836
 9311SOL    HW228833   5.544   3.902   0.979
 9312SOL     OW28834   0.815   4.079   6.213
 9312SOL    HW128835   0.737   4.040   6.262
 9312SOL    HW228836   0.895   4.021   6.225
 9313SOL     OW28837   6.956   6.905   2.854
 9313SOL    HW128838   6.858   6.925   2.843
 9313SOL    HW228839   6.997   6.972   2.915
 9314SOL     OW28840   4.814   5.158   6.852
 9314SOL    HW128841   4.913   5.172   6.844
 9314SOL    HW228842   4.793   5.061   6.837
 9315SOL     OW28843   6.950   0.120   5.612
 9315SOL    HW128844   6.930   0.088   5.705
 9315SOL    HW228845   6.864   0.133   5.562
 9316SOL     OW28846   4.167   5.815   3.583
 9316SOL    HW128847   4.072   5.845   3.577
 9316SOL    HW228848   4.197   5.819   3.678
 9317SOL     OW28849   6.778   5.154   3.717
 9317SOL    HW128850   6.755   5.150   3.619
 9317SOL    HW228851   6.707   5.108   3.770
 9318SOL     OW28852   0.391   0.779   6.506
 9318SOL    HW128853   0.469   0.717   6.503
 9318SOL    HW228854   0.312   0.731   6.544
 9319SOL     OW28855   0.609   3.205   6.329
 9319SOL    HW128856   0.621   3.220   6.230
 9319SOL    HW228857   0.654   3.279   6.379
 9320SOL     OW28858   4.139   2.353   5.951
 9320SOL    HW128859   4.183   2.279   5.901
 9320SOL    HW228860   4.204   2.394   6.015
 9321SOL     OW28861   6.343   6.072   2.980
 9321SOL    HW128862   6.413   6.001   2.982
 9321SOL    HW228863   6.255   6.031   2.954
 9322SOL     OW28864   0.711   6.167   5.810
 9322SOL    HW128865   0.614   6.144   5.798
 9322SOL    HW228866   0.740   6.138   5.901
 9323SOL     OW28867   1.165   1.422   6.858
 9323SOL    HW128868   1.181   1.379   6.948
 9323SOL    HW228869   1.155   1.521   6.870
 9324SOL     OW28870   1.378   5.641   0.514
 9324SOL    HW128871   1.357   5.616   0.609
 9324SOL    HW228872   1.371   5.740   0.503
 9325SOL     OW28873   5.818   2.143   1.220
 9325SOL    HW128874   5.753   2.180   1.154
 9325SOL    HW228875   5.872   2.218   1.260
 9326SOL     OW28876   2.030   0.018   1.100
 9326SOL    HW128877   2.095   0.022   1.024
 9326SOL    HW228878   2.077   0.034   1.186
 9327SOL     OW28879   4.187   0.667   2.651
 9327SOL    HW128880   4.163   0.644   2.745
 9327SOL    HW228881   4.210   0.765   2.646
 9328SOL     OW28882   3.559   1.268   1.022
 9328SOL    HW128883   3.472   1.261   1.070
 9328SOL    HW228884   3.605   1.352   1.049
 9329SOL     OW28885   0.691   3.385   2.316
 9329SOL    HW128886   0.724   3.303   2.362
 9329SOL    HW228887   0.734   3.466   2.357
 9330SOL     OW28888   6.036   0.878   0.704
 9330SOL    HW128889   6.059   0.938   0.780
 9330SOL    HW228890   6.097   0.896   0.627
 9331SOL     OW28891   0.701   0.786   0.182
 9331SOL    HW128892   0.769   0.727   0.139
 9331SOL    HW228893   0.746   0.851   0.243
 9332SOL     OW28894   3.042   3.118   4.180
 9332SOL    HW128895   2.980   3.177   4.230
 9332SOL    HW228896   3.004   3.099   4.089
 9333SOL     OW28897   6.299   4.533   1.345
 9333SOL    HW128898   6.359   4.477   1.403
 9333SOL    HW228899   6.278   4.619   1.393
 9334SOL     OW28900   2.637   0.177   4.669
 9334SOL    HW128901   2.580   0.096   4.652
 9334SOL    HW228902   2.609   0.251   4.607
 9335SOL     OW28903   1.595   0.549   7.019
 9335SOL    HW128904   1.657   0.472   7.001
 9335SOL    HW228905   1.501   0.517   7.012
 9336SOL     OW28906   3.028   6.770   5.895
 9336SOL    HW128907   2.974   6.703   5.945
 9336SOL    HW228908   2.968   6.824   5.836
 9337SOL     OW28909   4.917   0.350   2.262
 9337SOL    HW128910   4.837   0.408   2.278
 9337SOL    HW228911   4.977   0.352   2.342
 9338SOL     OW28912   3.721   0.155   2.698
 9338SOL    HW128913   3.785   0.161   2.622
 9338SOL    HW228914   3.635   0.199   2.674
 9339SOL     OW28915   4.443   6.507   1.606
 9339SOL    HW128916   4.430   6.601   1.638
 9339SOL    HW228917   4.373   6.484   1.538
 9340SOL     OW28918   6.008   3.628   0.246
 9340SOL    HW128919   6.017   3.564   0.171
 9340SOL    HW228920   6.076   3.700   0.238
 9341SOL     OW28921   0.732   5.667   6.404
 9341SOL    HW128922   0.683   5.754   6.404
 9341SOL    HW228923   0.666   5.593   6.387
 9342SOL     OW28924   1.718   6.468   6.288
 9342SOL    HW128925   1.649   6.540   6.286
 9342SOL    HW228926   1.782   6.485   6.363
 9343SOL     OW28927   6.160   5.274   5.047
 9343SOL    HW128928   6.093   5.348   5.058
 9343SOL    HW228929   6.163   5.245   4.952
 9344SOL     OW28930   5.096   6.606   1.481
 9344SOL    HW128931   5.021   6.649   1.532
 9344SOL    HW228932   5.109   6.513   1.514
 9345SOL     OW28933   0.207   3.435   0.723
 9345SOL    HW128934   0.296   3.411   0.764
 9345SOL    HW228935   0.176   3.522   0.761
 9346SOL     OW28936   6.002   0.072   0.870
 9346SOL    HW128937   5.978   0.141   0.802
 9346SOL    HW228938   6.101   0.059   0.870
 9347SOL     OW28939   1.797   6.669   1.655
 9347SOL    HW128940   1.776   6.714   1.568
 9347SOL    HW228941   1.795   6.737   1.729
 9348SOL     OW28942   3.369   4.763   7.012
 9348SOL    HW128943   3.277   4.763   6.971
 9348SOL    HW228944   3.409   4.855   7.003
 9349SOL     OW28945   1.499   6.798   2.901
 9349SOL    HW128946   1.518   6.896   2.909
 9349SOL    HW228947   1.548   6.762   2.821
 9350SOL     OW28948   0.844   2.114   6.375
 9350SOL    HW128949   0.768   2.173   6.348
 9350SOL    HW228950   0.900   2.092   6.295
 9351SOL     OW28951   3.732   2.048   6.621
 9351SOL    HW128952   3.724   2.146   6.604
 9351SOL    HW228953   3.644   2.004   6.601
 9352SOL     OW28954   2.169   4.791   6.228
 9352SOL    HW128955   2.152   4.718   6.163
 9352SOL    HW228956   2.149   4.879   6.186
 9353SOL     OW28957   6.293   0.255   1.047
 9353SOL    HW128958   6.219   0.211   1.098
 9353SOL    HW228959   6.342   0.318   1.107
 9354SOL     OW28960   6.691   2.507   6.622
 9354SOL    HW128961   6.647   2.447   6.689
 9354SOL    HW228962   6.646   2.596   6.622
 9355SOL     OW28963   0.278   1.428   4.943
 9355SOL    HW128964   0.300   1.371   4.863
 9355SOL    HW228965   0.359   1.439   5.000
 9356SOL     OW28966   4.681   6.662   2.281
 9356SOL    HW128967   4.662   6.581   2.225
 9356SOL    HW228968   4.760   6.710   2.243
 9357SOL     OW28969   0.876   1.422   0.121
 9357SOL    HW128970   0.947   1.492   0.120
 9357SOL    HW228971   0.800   1.453   0.178
 9358SOL     OW28972   1.121   3.450   2.290
 9358SOL    HW128973   1.064   3.396   2.353
 9358SOL    HW228974   1.061   3.500   2.227
 9359SOL     OW28975   1.501   0.057   5.807
 9359SOL    HW128976   1.514   6.992   5.756
 9359SOL    HW228977   1.484   0.132   5.742
 9360SOL     OW28978   0.827   0.586   6.760
 9360SOL    HW128979   0.883   0.657   6.802
 9360SOL    HW228980   0.887   0.516   6.721
 9361SOL     OW28981   2.227   5.894   4.124
 9361SOL    HW128982   2.244   5.852   4.035
 9361SOL    HW228983   2.261   5.834   4.196
 9362SOL     OW28984   1.710   0.041   2.310
 9362SOL    HW128985   1.772   0.015   2.384
 9362SOL    HW228986   1.764   0.060   2.227
 9363SOL     OW28987   2.742   5.451   2.366
 9363SOL    HW128988   2.669   5.446   2.435
 9363SOL    HW228989   2.802   5.372   2.375
 9364SOL     OW28990   1.252   1.673   0.940
 9364SOL    HW128991   1.189   1.750   0.953
 9364SOL    HW228992   1.251   1.647   0.843
 9365SOL     OW28993   3.214   2.134   4.217
 9365SOL    HW128994   3.180   2.052   4.264
 9365SOL    HW228995   3.139   2.198   4.203
 9366SOL     OW28996   3.727   5.417   0.397
 9366SOL    HW128997   3.734   5.516   0.394
 9366SOL    HW228998   3.656   5.386   0.333
 9367SOL     OW28999   6.759   0.834   1.490
 9367SOL    HW129000   6.751   0.735   1.501
 9367SOL    HW229001   6.756   0.857   1.393
 9368SOL     OW29002   3.278   0.553   2.859
 9368SOL    HW129003   3.182   0.524   2.856
 9368SOL    HW229004   3.290   0.634   2.802
 9369SOL     OW29005   2.075   5.413   6.739
 9369SOL    HW129006   2.105   5.385   6.648
 9369SOL    HW229007   2.030   5.337   6.785
 9370SOL     OW29008   4.539   1.393   4.260
 9370SOL    HW129009   4.563   1.393   4.162
 9370SOL    HW229010   4.518   1.486   4.289
 9371SOL     OW29011   4.499   5.598   1.540
 9371SOL    HW129012   4.528   5.546   1.459
 9371SOL    HW229013   4.455   5.536   1.605
 9372SOL     OW29014   4.717   6.499   1.576
 9372SOL    HW129015   4.700   6.445   1.493
 9372SOL    HW229016   4.630   6.521   1.620
 9373SOL     OW29017   6.675   1.770   0.431
 9373SOL    HW129018   6.575   1.779   0.432
 9373SOL    HW229019   6.699   1.674   0.421
 9374SOL     OW29020   0.397   5.402   6.105
 9374SOL    HW129021   0.395   5.478   6.040
 9374SOL    HW229022   0.349   5.323   6.065
 9375SOL     OW29023   0.250   0.813   0.112
 9375SOL    HW129024   0.168   0.805   0.056
 9375SOL    HW229025   0.282   0.908   0.113
 9376SOL     OW29026   2.113   3.729   1.957
 9376SOL    HW129027   2.173   3.649   1.954
 9376SOL    HW229028   2.164   3.808   1.991
 9377SOL     OW29029   1.801   0.428   3.631
 9377SOL    HW129030   1.848   0.359   3.685
 9377SOL    HW229031   1.715   0.454   3.675
 9378SOL     OW29032   3.015   0.761   4.207
 9378SOL    HW129033   3.098   0.799   4.249
 9378SOL    HW229034   2.956   0.836   4.176
 9379SOL     OW29035   3.885   6.181   4.540
 9379SOL    HW129036   3.836   6.205   4.624
 9379SOL    HW229037   3.887   6.082   4.529
 9380SOL     OW29038   5.068   5.811   0.126
 9380SOL    HW129039   5.123   5.761   0.193
 9380SOL    HW229040   4.972   5.811   0.153
 9381SOL     OW29041   5.643   1.600   4.897
 9381SOL    HW129042   5.659   1.545   4.815
 9381SOL    HW229043   5.720   1.589   4.960
 9382SOL     OW29044   2.921   6.096   4.926
 9382SOL    HW129045   2.892   6.034   4.853
 9382SOL    HW229046   2.995   6.154   4.892
 9383SOL     OW29047   5.884   4.497   2.978
 9383SOL    HW129048   5.820   4.422   2.996
 9383SOL    HW229049   5.953   4.500   3.050
 9384SOL     OW29050   2.787   0.889   2.054
 9384SOL    HW129051   2.834   0.971   2.021
 9384SOL    HW229052   2.738   0.910   2.139
 9385SOL     OW29053   4.617   1.916   3.580
 9385SOL    HW129054   4.571   1.834   3.547
 9385SOL    HW229055   4.556   1.994   3.573
 9386SOL     OW29056   4.756   6.496   6.618
 9386SOL    HW129057   4.856   6.494   6.612
 9386SOL    HW229058   4.724   6.418   6.671
 9387SOL     OW29059   2.858   2.094   0.469
 9387SOL    HW129060   2.783   2.160   0.469
 9387SOL    HW229061   2.925   2.119   0.399
 9388SOL     OW29062   2.336   6.094   4.796
 9388SOL    HW129063   2.366   5.998   4.798
 9388SOL    HW229064   2.414   6.152   4.773
 9389SOL     OW29065   2.579   4.927   1.739
 9389SOL    HW129066   2.651   4.908   1.806
 9389SOL    HW229067   2.518   4.848   1.733
 9390SOL     OW29068   4.966   5.340   4.426
 9390SOL    HW129069   4.925   5.412   4.481
 9390SOL    HW229070   4.944   5.251   4.466
 9391SOL     OW29071   1.342   5.105   4.207
 9391SOL    HW129072   1.335   5.199   4.173
 9391SOL    HW229073   1.431   5.067   4.183
 9392SOL     OW29074   5.479   4.118   3.038
 9392SOL    HW129075   5.385   4.154   3.034
 9392SOL    HW229076   5.497   4.084   3.130
 9393SOL     OW29077   2.738   6.670   6.574
 9393SOL    HW129078   2.753   6.670   6.673
 9393SOL    HW229079   2.794   6.598   6.532
 9394SOL     OW29080   3.413   0.724   0.242
 9394SOL    HW129081   3.351   0.773   0.180
 9394SOL    HW229082   3.380   0.732   0.336
 9395SOL     OW29083   2.114   1.687   0.514
 9395SOL    HW129084   2.019   1.692   0.544
 9395SOL    HW229085   2.165   1.765   0.550
 9396SOL     OW29086   0.709   6.455   6.829
 9396SOL    HW129087   0.791   6.442   6.884
 9396SOL    HW229088   0.734   6.492   6.740
 9397SOL     OW29089   3.380   0.738   5.204
 9397SOL    HW129090   3.339   0.827   5.224
 9397SOL    HW229091   3.326   0.666   5.248
 9398SOL     OW29092   0.656   2.054   0.186
 9398SOL    HW129093   0.706   1.990   0.128
 9398SOL    HW229094   0.602   2.002   0.252
 9399SOL     OW29095   1.544   2.483   4.591
 9399SOL    HW129096   1.621   2.491   4.655
 9399SOL    HW229097   1.565   2.414   4.522
 9400SOL     OW29098   5.524   1.023   0.321
 9400SOL    HW129099   5.443   0.994   0.270
 9400SOL    HW229100   5.603   0.971   0.290
 9401SOL     OW29101   0.334   2.449   3.969
 9401SOL    HW129102   0.425   2.422   3.939
 9401SOL    HW229103   0.331   2.449   4.069
 9402SOL     OW29104   2.066   6.468   3.961
 9402SOL    HW129105   2.162   6.441   3.957
 9402SOL    HW229106   2.058   6.566   3.941
 9403SOL     OW29107   5.977   2.434   2.275
 9403SOL    HW129108   5.890   2.472   2.245
 9403SOL    HW229109   6.031   2.408   2.194
 9404SOL     OW29110   2.120   2.771   0.786
 9404SOL    HW129111   2.091   2.689   0.737
 9404SOL    HW229112   2.189   2.820   0.733
 9405SOL     OW29113   6.937   5.716   5.470
 9405SOL    HW129114   0.009   5.738   5.437
 9405SOL    HW229115   6.901   5.639   5.418
 9406SOL     OW29116   0.691   2.594   6.819
 9406SOL    HW129117   0.627   2.669   6.830
 9406SOL    HW229118   0.675   2.549   6.731
 9407SOL     OW29119   1.410   5.517   5.669
 9407SOL    HW129120   1.311   5.507   5.683
 9407SOL    HW229121   1.459   5.460   5.735
 9408SOL     OW29122   0.638   3.662   4.413
 9408SOL    HW129123   0.732   3.697   4.407
 9408SOL    HW229124   0.586   3.694   4.334
 9409SOL     OW29125   6.251   4.692   3.033
 9409SOL    HW129126   6.178   4.625   3.045
 9409SOL    HW229127   6.332   4.662   3.083
 9410SOL     OW29128   3.739   0.927   0.753
 9410SOL    HW129129   3.761   0.912   0.657
 9410SOL    HW229130   3.679   1.007   0.762
 9411SOL     OW29131   2.958   3.736   3.165
 9411SOL    HW129132   3.020   3.813   3.152
 9411SOL    HW229133   2.925   3.735   3.259
 9412SOL     OW29134   5.733   6.019   0.980
 9412SOL    HW129135   5.634   6.002   0.980
 9412SOL    HW229136   5.782   5.938   0.949
 9413SOL     OW29137   5.054   4.080   2.732
 9413SOL    HW129138   4.999   3.997   2.734
 9413SOL    HW229139   5.151   4.057   2.728
 9414SOL     OW29140   1.697   1.763   3.070
 9414SOL    HW129141   1.617   1.809   3.033
 9414SOL    HW229142   1.746   1.718   2.995
 9415SOL     OW29143   4.564   1.666   1.713
 9415SOL    HW129144   4.494   1.626   1.772
 9415SOL    HW229145   4.631   1.715   1.770
 9416SOL     OW29146   5.823   5.278   5.701
 9416SOL    HW129147   5.759   5.354   5.713
 9416SOL    HW229148   5.887   5.277   5.778
 9417SOL     OW29149   3.623   5.270   2.471
 9417SOL    HW129150   3.582   5.240   2.557
 9417SOL    HW229151   3.594   5.364   2.451
 9418SOL     OW29152   3.673   1.603   5.044
 9418SOL    HW129153   3.742   1.673   5.031
 9418SOL    HW229154   3.712   1.513   5.026
 9419SOL     OW29155   1.932   3.113   6.208
 9419SOL    HW129156   1.963   3.178   6.139
 9419SOL    HW229157   2.003   3.102   6.277
 9420SOL     OW29158   6.247   4.203   6.268
 9420SOL    HW129159   6.155   4.178   6.238
 9420SOL    HW229160   6.271   4.148   6.349
 9421SOL     OW29161   4.417   6.027   5.993
 9421SOL    HW129162   4.353   6.008   6.067
 9421SOL    HW229163   4.446   6.123   5.997
 9422SOL     OW29164   2.043   5.984   5.691
 9422SOL    HW129165   2.046   5.965   5.593
 9422SOL    HW229166   2.090   6.070   5.710
 9423SOL     OW29167   4.921   4.734   2.719
 9423SOL    HW129168   4.985   4.807   2.697
 9423SOL    HW229169   4.848   4.769   2.778
 9424SOL     OW29170   5.914   6.861   4.078
 9424SOL    HW129171   5.823   6.862   4.121
 9424SOL    HW229172   5.906   6.833   3.983
 9425SOL     OW29173   6.756   4.673   1.438
 9425SOL    HW129174   6.674   4.655   1.493
 9425SOL    HW229175   6.825   4.603   1.457
 9426SOL     OW29176   0.240   2.195   6.269
 9426SOL    HW129177   0.154   2.174   6.314
 9426SOL    HW229178   0.308   2.224   6.337
 9427SOL     OW29179   4.628   4.420   2.544
 9427SOL    HW129180   4.621   4.366   2.461
 9427SOL    HW229181   4.698   4.380   2.604
 9428SOL     OW29182   0.423   6.110   5.771
 9428SOL    HW129183   0.427   6.010   5.768
 9428SOL    HW229184   0.359   6.142   5.701
 9429SOL     OW29185   2.765   2.273   4.514
 9429SOL    HW129186   2.744   2.300   4.608
 9429SOL    HW229187   2.852   2.224   4.512
 9430SOL     OW29188   1.792   1.562   4.993
 9430SOL    HW129189   1.734   1.481   4.986
 9430SOL    HW229190   1.854   1.567   4.915
 9431SOL     OW29191   0.976   4.664   5.180
 9431SOL    HW129192   0.879   4.660   5.157
 9431SOL    HW229193   1.030   4.619   5.109
 9432SOL     OW29194   6.841   0.926   3.322
 9432SOL    HW129195   6.767   0.937   3.255
 9432SOL    HW229196   6.827   0.992   3.396
 9433SOL     OW29197   4.331   5.653   1.906
 9433SOL    HW129198   4.308   5.561   1.872
 9433SOL    HW229199   4.430   5.667   1.898
 9434SOL     OW29200   4.672   5.338   3.905
 9434SOL    HW129201   4.700   5.242   3.905
 9434SOL    HW229202   4.700   5.380   3.819
 9435SOL     OW29203   0.507   3.928   1.739
 9435SOL    HW129204   0.525   3.845   1.792
 9435SOL    HW229205   0.583   3.946   1.677
 9436SOL     OW29206   2.058   0.929   2.861
 9436SOL    HW129207   2.001   0.849   2.879
 9436SOL    HW229208   2.001   1.012   2.864
 9437SOL     OW29209   5.450   6.709   4.566
 9437SOL    HW129210   5.361   6.754   4.570
 9437SOL    HW229211   5.507   6.742   4.642
 9438SOL     OW29212   4.187   6.491   2.412
 9438SOL    HW129213   4.246   6.505   2.333
 9438SOL    HW229214   4.093   6.514   2.388
 9439SOL     OW29215   1.817   3.446   1.016
 9439SOL    HW129216   1.850   3.366   0.966
 9439SOL    HW229217   1.827   3.528   0.959
 9440SOL     OW29218   2.310   5.302   3.368
 9440SOL    HW129219   2.339   5.234   3.435
 9440SOL    HW229220   2.251   5.260   3.300
 9441SOL     OW29221   0.283   6.810   4.338
 9441SOL    HW129222   0.273   6.727   4.393
 9441SOL    HW229223   0.286   6.889   4.398
 9442SOL     OW29224   5.745   3.335   0.624
 9442SOL    HW129225   5.703   3.302   0.709
 9442SOL    HW229226   5.831   3.381   0.645
 9443SOL     OW29227   2.200   4.336   2.470
 9443SOL    HW129228   2.135   4.410   2.453
 9443SOL    HW229229   2.159   4.267   2.529
 9444SOL     OW29230   1.131   4.242   6.335
 9444SOL    HW129231   1.101   4.247   6.430
 9444SOL    HW229232   1.114   4.330   6.290
 9445SOL     OW29233   0.372   1.416   4.092
 9445SOL    HW129234   0.341   1.321   4.096
 9445SOL    HW229235   0.455   1.427   4.146
 9446SOL     OW29236   6.553   3.692   3.980
 9446SOL    HW129237   6.613   3.623   4.020
 9446SOL    HW229238   6.458   3.662   3.989
 9447SOL     OW29239   4.750   4.100   1.991
 9447SOL    HW129240   4.713   4.172   2.049
 9447SOL    HW229241   4.776   4.138   1.902
 9448SOL     OW29242   6.037   1.088   5.934
 9448SOL    HW129243   6.110   1.077   5.866
 9448SOL    HW229244   5.949   1.066   5.892
 9449SOL     OW29245   5.523   0.092   1.971
 9449SOL    HW129246   5.551   0.017   2.032
 9449SOL    HW229247   5.520   0.059   1.877
 9450SOL     OW29248   1.162   6.168   2.623
 9450SOL    HW129249   1.080   6.215   2.589
 9450SOL    HW229250   1.174   6.189   2.721
 9451SOL     OW29251   3.642   4.762   6.598
 9451SOL    HW129252   3.623   4.745   6.695
 9451SOL    HW229253   3.621   4.680   6.545
 9452SOL     OW29254   6.143   4.252   6.748
 9452SOL    HW129255   6.067   4.288   6.802
 9452SOL    HW229256   6.209   4.325   6.731
 9453SOL     OW29257   5.160   5.243   1.693
 9453SOL    HW129258   5.174   5.330   1.740
 9453SOL    HW229259   5.068   5.209   1.714
 9454SOL     OW29260   5.936   4.495   0.730
 9454SOL    HW129261   5.930   4.594   0.729
 9454SOL    HW229262   6.006   4.465   0.665
 9455SOL     OW29263   3.341   1.317   1.816
 9455SOL    HW129264   3.425   1.287   1.770
 9455SOL    HW229265   3.274   1.243   1.813
 9456SOL     OW29266   6.979   2.918   3.021
 9456SOL    HW129267   6.887   2.882   3.030
 9456SOL    HW229268   0.002   2.925   3.111
 9457SOL     OW29269   6.159   6.246   4.834
 9457SOL    HW129270   6.161   6.321   4.768
 9457SOL    HW229271   6.172   6.159   4.786
 9458SOL     OW29272   6.405   3.762   6.762
 9458SOL    HW129273   6.462   3.756   6.844
 9458SOL    HW229274   6.328   3.823   6.778
 9459SOL     OW29275   4.820   4.500   5.928
 9459SOL    HW129276   4.905   4.526   5.883
 9459SOL    HW229277   4.745   4.501   5.862
 9460SOL     OW29278   0.871   3.173   2.762
 9460SOL    HW129279   0.814   3.203   2.839
 9460SOL    HW229280   0.846   3.079   2.738
 9461SOL     OW29281   1.358   1.809   2.106
 9461SOL    HW129282   1.259   1.818   2.098
 9461SOL    HW229283   1.401   1.846   2.023
 9462SOL     OW29284   0.248   1.030   4.263
 9462SOL    HW129285   0.182   1.029   4.338
 9462SOL    HW229286   0.337   1.001   4.297
 9463SOL     OW29287   5.880   4.390   1.611
 9463SOL    HW129288   5.907   4.423   1.701
 9463SOL    HW229289   5.853   4.294   1.618
 9464SOL     OW29290   1.247   1.317   1.746
 9464SOL    HW129291   1.189   1.257   1.801
 9464SOL    HW229292   1.342   1.308   1.777
 9465SOL     OW29293   6.542   4.850   1.181
 9465SOL    HW129294   6.640   4.860   1.196
 9465SOL    HW229295   6.516   4.754   1.193
 9466SOL     OW29296   4.055   4.253   5.541
 9466SOL    HW129297   4.140   4.212   5.573
 9466SOL    HW229298   4.004   4.290   5.619
 9467SOL     OW29299   2.114   3.214   0.349
 9467SOL    HW129300   2.083   3.204   0.443
 9467SOL    HW229301   2.071   3.294   0.308
 9468SOL     OW29302   6.120   1.728   0.929
 9468SOL    HW129303   6.076   1.812   0.959
 9468SOL    HW229304   6.219   1.737   0.936
 9469SOL     OW29305   0.009   6.398   1.072
 9469SOL    HW129306   0.017   6.489   1.032
 9469SOL    HW229307   0.061   6.332   1.018
 9470SOL     OW29308   3.436   3.442   0.345
 9470SOL    HW129309   3.530   3.464   0.320
 9470SOL    HW229310   3.374   3.475   0.274
 9471SOL     OW29311   6.222   2.700   5.058
 9471SOL    HW129312   6.300   2.707   4.996
 9471SOL    HW229313   6.225   2.611   5.104
 9472SOL     OW29314   1.721   3.497   5.989
 9472SOL    HW129315   1.706   3.414   5.935
 9472SOL    HW229316   1.649   3.563   5.969
 9473SOL     OW29317   2.598   4.033   1.436
 9473SOL    HW129318   2.631   3.986   1.517
 9473SOL    HW229319   2.500   4.015   1.424
 9474SOL     OW29320   5.949   4.057   1.262
 9474SOL    HW129321   6.017   4.013   1.204
 9474SOL    HW229322   5.927   4.147   1.225
 9475SOL     OW29323   5.150   4.309   6.401
 9475SOL    HW129324   5.166   4.341   6.494
 9475SOL    HW229325   5.119   4.214   6.403
 9476SOL     OW29326   4.169   3.930   0.292
 9476SOL    HW129327   4.180   3.910   0.390
 9476SOL    HW229328   4.211   3.856   0.238
 9477SOL     OW29329   2.009   4.282   0.361
 9477SOL    HW129330   1.965   4.368   0.388
 9477SOL    HW229331   2.084   4.262   0.423
 9478SOL     OW29332   5.493   3.541   5.845
 9478SOL    HW129333   5.537   3.467   5.794
 9478SOL    HW229334   5.526   3.629   5.811
 9479SOL     OW29335   3.929   0.244   2.023
 9479SOL    HW129336   3.955   0.339   2.037
 9479SOL    HW229337   3.952   0.217   1.930
 9480SOL     OW29338   6.459   1.009   0.662
 9480SOL    HW129339   6.539   1.034   0.716
 9480SOL    HW229340   6.386   0.978   0.724
 9481SOL     OW29341   3.989   0.015   3.146
 9481SOL    HW129342   3.992   0.114   3.162
 9481SOL    HW229343   4.047   6.989   3.213
 9482SOL     OW29344   6.436   6.140   6.760
 9482SOL    HW129345   6.417   6.194   6.679
 9482SOL    HW229346   6.376   6.169   6.835
 9483SOL     OW29347   6.515   7.004   0.287
 9483SOL    HW129348   6.548   6.910   0.291
 9483SOL    HW229349   6.467   7.019   0.200
 9484SOL     OW29350   3.767   6.141   4.208
 9484SOL    HW129351   3.806   6.050   4.219
 9484SOL    HW229352   3.779   6.171   4.113
 9485SOL     OW29353   0.265   1.238   6.772
 9485SOL    HW129354   0.291   1.329   6.739
 9485SOL    HW229355   0.314   1.169   6.719
 9486SOL     OW29356   5.450   5.911   0.114
 9486SOL    HW129357   5.396   5.942   0.192
 9486SOL    HW229358   5.403   5.835   0.069
 9487SOL     OW29359   3.459   3.495   3.154
 9487SOL    HW129360   3.514   3.512   3.236
 9487SOL    HW229361   3.390   3.425   3.175
 9488SOL     OW29362   1.580   0.736   1.295
 9488SOL    HW129363   1.584   0.757   1.392
 9488SOL    HW229364   1.555   0.819   1.244
 9489SOL     OW29365   5.380   2.882   0.246
 9489SOL    HW129366   5.415   2.964   0.290
 9489SOL    HW229367   5.454   2.815   0.238
 9490SOL     OW29368   5.326   3.553   4.673
 9490SOL    HW129369   5.245   3.497   4.689
 9490SOL    HW229370   5.397   3.499   4.629
 9491SOL     OW29371   5.231   6.615   2.729
 9491SOL    HW129372   5.266   6.522   2.738
 9491SOL    HW229373   5.268   6.657   2.646
 9492SOL     OW29374   5.125   2.686   3.501
 9492SOL    HW129375   5.123   2.619   3.575
 9492SOL    HW229376   5.204   2.669   3.442
 9493SOL     OW29377   3.872   5.997   1.379
 9493SOL    HW129378   3.876   5.903   1.413
 9493SOL    HW229379   3.916   6.058   1.445
 9494SOL     OW29380   5.696   2.087   2.059
 9494SOL    HW129381   5.656   2.154   2.122
 9494SOL    HW229382   5.637   2.006   2.055
 9495SOL     OW29383   0.197   2.313   1.586
 9495SOL    HW129384   0.114   2.313   1.531
 9495SOL    HW229385   0.277   2.316   1.527
 9496SOL     OW29386   5.923   2.027   1.531
 9496SOL    HW129387   5.947   1.931   1.522
 9496SOL    HW229388   5.862   2.054   1.457
 9497SOL     OW29389   4.564   4.464   4.600
 9497SOL    HW129390   4.493   4.452   4.530
 9497SOL    HW229391   4.520   4.467   4.691
 9498SOL     OW29392   0.163   5.855   4.157
 9498SOL    HW129393   0.105   5.886   4.081
 9498SOL    HW229394   0.258   5.848   4.126
 9499SOL     OW29395   5.944   6.036   5.235
 9499SOL    HW129396   5.969   6.106   5.169
 9499SOL    HW229397   5.907   5.956   5.187
 9500SOL     OW29398   3.446   1.851   1.154
 9500SOL    HW129399   3.404   1.937   1.125
 9500SOL    HW229400   3.508   1.868   1.230
 9501SOL     OW29401   1.697   3.519   4.912
 9501SOL    HW129402   1.686   3.423   4.887
 9501SOL    HW229403   1.768   3.527   4.982
 9502SOL     OW29404   5.236   4.914   4.440
 9502SOL    HW129405   5.303   4.905   4.513
 9502SOL    HW229406   5.257   4.848   4.367
 9503SOL     OW29407   6.219   1.299   0.290
 9503SOL    HW129408   6.200   1.294   0.388
 9503SOL    HW229409   6.294   1.363   0.274
 9504SOL     OW29410   6.239   5.473   2.097
 9504SOL    HW129411   6.261   5.403   2.166
 9504SOL    HW229412   6.141   5.491   2.099
 9505SOL     OW29413   3.992   4.757   5.905
 9505SOL    HW129414   3.953   4.690   5.968
 9505SOL    HW229415   4.092   4.756   5.913
 9506SOL     OW29416   2.752   0.641   1.660
 9506SOL    HW129417   2.844   0.664   1.629
 9506SOL    HW229418   2.752   0.548   1.698
 9507SOL     OW29419   5.059   0.076   2.363
 9507SOL    HW129420   5.119   0.008   2.404
 9507SOL    HW229421   5.080   0.167   2.399
 9508SOL     OW29422   4.275   2.022   2.777
 9508SOL    HW129423   4.230   1.990   2.861
 9508SOL    HW229424   4.276   1.949   2.709
 9509SOL     OW29425   5.289   0.521   3.066
 9509SOL    HW129426   5.316   0.606   3.113
 9509SOL    HW229427   5.362   0.493   3.004
 9510SOL     OW29428   1.124   2.744   3.825
 9510SOL    HW129429   1.054   2.805   3.861
 9510SOL    HW229430   1.111   2.732   3.727
 9511SOL     OW29431   0.638   1.614   1.092
 9511SOL    HW129432   0.569   1.621   1.019
 9511SOL    HW229433   0.729   1.627   1.053
 9512SOL     OW29434   6.724   2.237   1.165
 9512SOL    HW129435   6.726   2.164   1.097
 9512SOL    HW229436   6.630   2.270   1.176
 9513SOL     OW29437   4.521   4.190   5.736
 9513SOL    HW129438   4.556   4.268   5.788
 9513SOL    HW229439   4.560   4.191   5.644
 9514SOL     OW29440   3.666   2.919   6.831
 9514SOL    HW129441   3.702   2.889   6.919
 9514SOL    HW229442   3.704   2.861   6.758
 9515SOL     OW29443   0.812   5.778   3.027
 9515SOL    HW129444   0.726   5.757   3.073
 9515SOL    HW229445   0.814   5.875   3.003
 9516SOL     OW29446   0.069   4.558   7.004
 9516SOL    HW129447   7.015   4.495   6.983
 9516SOL    HW229448   0.050   4.647   6.963
 9517SOL     OW29449   0.511   5.983   1.215
 9517SOL    HW129450   0.482   6.050   1.283
 9517SOL    HW229451   0.484   5.892   1.245
 9518SOL     OW29452   1.111   0.733   1.089
 9518SOL    HW129453   1.123   0.681   1.005
 9518SOL    HW229454   1.199   0.749   1.132
 9519SOL     OW29455   1.155   3.388   5.440
 9519SOL    HW129456   1.193   3.442   5.515
 9519SOL    HW229457   1.055   3.394   5.442
 9520SOL     OW29458   4.397   0.011   1.641
 9520SOL    HW129459   4.344   0.039   1.721
 9520SOL    HW229460   4.488   7.002   1.670
 9521SOL     OW29461   5.179   5.110   3.656
 9521SOL    HW129462   5.134   5.107   3.745
 9521SOL    HW229463   5.156   5.027   3.604
 9522SOL     OW29464   3.728   6.304   0.885
 9522SOL    HW129465   3.678   6.263   0.808
 9522SOL    HW229466   3.747   6.234   0.953
 9523SOL     OW29467   2.861   5.733   5.564
 9523SOL    HW129468   2.839   5.770   5.474
 9523SOL    HW229469   2.858   5.807   5.632
 9524SOL     OW29470   4.486   2.510   0.624
 9524SOL    HW129471   4.512   2.443   0.694
 9524SOL    HW229472   4.420   2.468   0.561
 9525SOL     OW29473   3.434   6.864   5.624
 9525SOL    HW129474   3.334   6.869   5.622
 9525SOL    HW229475   3.472   6.956   5.616
 9526SOL     OW29476   4.846   5.827   2.109
 9526SOL    HW129477   4.858   5.842   2.011
 9526SOL    HW229478   4.847   5.915   2.156
 9527SOL     OW29479   6.492   2.011   1.263
 9527SOL    HW129480   6.424   1.957   1.214
 9527SOL    HW229481   6.457   2.033   1.355
 9528SOL     OW29482   6.526   0.614   1.997
 9528SOL    HW129483   6.491   0.688   2.055
 9528SOL    HW229484   6.465   0.600   1.920
 9529SOL     OW29485   1.035   3.403   4.566
 9529SOL    HW129486   1.006   3.470   4.635
 9529SOL    HW229487   0.979   3.414   4.484
 9530SOL     OW29488   1.618   2.297   4.330
 9530SOL    HW129489   1.624   2.378   4.271
 9530SOL    HW229490   1.564   2.227   4.284
 9531SOL     OW29491   2.769   6.181   3.460
 9531SOL    HW129492   2.810   6.090   3.457
 9531SOL    HW229493   2.672   6.175   3.438
 9532SOL     OW29494   2.785   0.934   1.090
 9532SOL    HW129495   2.876   0.968   1.112
 9532SOL    HW229496   2.717   0.978   1.149
 9533SOL     OW29497   1.417   0.062   4.876
 9533SOL    HW129498   1.335   0.089   4.827
 9533SOL    HW229499   1.422   6.982   4.880
 9534SOL     OW29500   4.446   1.649   4.278
 9534SOL    HW129501   4.352   1.683   4.275
 9534SOL    HW229502   4.489   1.679   4.363
 9535SOL     OW29503   2.564   2.147   4.901
 9535SOL    HW129504   2.611   2.077   4.847
 9535SOL    HW229505   2.489   2.186   4.847
 9536SOL     OW29506   3.022   6.766   6.700
 9536SOL    HW129507   2.964   6.846   6.688
 9536SOL    HW229508   2.965   6.687   6.721
 9537SOL     OW29509   2.760   0.142   0.480
 9537SOL    HW129510   2.755   0.043   0.465
 9537SOL    HW229511   2.811   0.184   0.406
 9538SOL     OW29512   5.468   3.345   4.505
 9538SOL    HW129513   5.480   3.378   4.411
 9538SOL    HW229514   5.557   3.333   4.548
 9539SOL     OW29515   0.370   4.560   0.858
 9539SOL    HW129516   0.400   4.644   0.903
 9539SOL    HW229517   0.418   4.550   0.771
 9540SOL     OW29518   5.315   3.368   5.524
 9540SOL    HW129519   5.346   3.341   5.615
 9540SOL    HW229520   5.221   3.401   5.530
 9541SOL     OW29521   0.026   1.536   3.478
 9541SOL    HW129522   6.952   1.502   3.476
 9541SOL    HW229523   0.048   1.576   3.389
 9542SOL     OW29524   4.978   3.835   4.463
 9542SOL    HW129525   4.973   3.901   4.537
 9542SOL    HW229526   5.062   3.781   4.472
 9543SOL     OW29527   5.500   2.223   1.614
 9543SOL    HW129528   5.481   2.198   1.519
 9543SOL    HW229529   5.498   2.141   1.671
 9544SOL     OW29530   3.442   1.702   2.112
 9544SOL    HW129531   3.483   1.779   2.161
 9544SOL    HW229532   3.360   1.732   2.064
 9545SOL     OW29533   0.685   0.056   4.643
 9545SOL    HW129534   0.594   0.089   4.620
 9545SOL    HW229535   0.749   0.082   4.570
 9546SOL     OW29536   2.162   4.039   1.612
 9546SOL    HW129537   2.166   4.069   1.707
 9546SOL    HW229538   2.067   4.021   1.586
 9547SOL     OW29539   6.359   5.433   3.244
 9547SOL    HW129540   6.378   5.513   3.302
 9547SOL    HW229541   6.302   5.368   3.294
 9548SOL     OW29542   4.688   6.390   2.671
 9548SOL    HW129543   4.783   6.420   2.667
 9548SOL    HW229544   4.674   6.335   2.754
 9549SOL     OW29545   2.585   5.534   0.334
 9549SOL    HW129546   2.542   5.462   0.387
 9549SOL    HW229547   2.560   5.623   0.372
 9550SOL     OW29548   1.499   1.593   6.845
 9550SOL    HW129549   1.483   1.673   6.787
 9550SOL    HW229550   1.583   1.606   6.898
 9551SOL     OW29551   1.631   6.135   5.899
 9551SOL    HW129552   1.679   6.220   5.877
 9551SOL    HW229553   1.559   6.119   5.831
 9552SOL     OW29554   0.329   5.474   3.439
 9552SOL    HW129555   0.410   5.454   3.384
 9552SOL    HW229556   0.337   5.566   3.477
 9553SOL     OW29557   5.179   4.721   5.587
 9553SOL    HW129558   5.154   4.634   5.544
 9553SOL    HW229559   5.257   4.706   5.649
 9554SOL     OW29560   2.196   1.652   1.377
 9554SOL    HW129561   2.208   1.702   1.462
 9554SOL    HW229562   2.221   1.556   1.391
 9555SOL     OW29563   6.664   2.434   6.345
 9555SOL    HW129564   6.662   2.495   6.424
 9555SOL    HW229565   6.758   2.401   6.331
 9556SOL     OW29566   6.852   1.630   0.871
 9556SOL    HW129567   6.878   1.692   0.945
 9556SOL    HW229568   6.934   1.599   0.824
 9557SOL     OW29569   5.577   2.606   1.514
 9557SOL    HW129570   5.631   2.625   1.596
 9557SOL    HW229571   5.486   2.576   1.540
 9558SOL     OW29572   5.739   4.636   1.828
 9558SOL    HW129573   5.650   4.628   1.782
 9558SOL    HW229574   5.767   4.545   1.860
 9559SOL     OW29575   6.159   2.631   2.650
 9559SOL    HW129576   6.234   2.567   2.667
 9559SOL    HW229577   6.190   2.700   2.584
 9560SOL     OW29578   3.910   1.749   4.945
 9560SOL    HW129579   3.962   1.829   4.917
 9560SOL    HW229580   3.969   1.686   4.995
 9561SOL     OW29581   3.553   6.701   6.708
 9561SOL    HW129582   3.585   6.607   6.724
 9561SOL    HW229583   3.625   6.765   6.732
 9562SOL     OW29584   6.018   5.177   3.731
 9562SOL    HW129585   5.982   5.261   3.691
 9562SOL    HW229586   6.104   5.197   3.778
 9563SOL     OW29587   0.266   6.330   0.147
 9563SOL    HW129588   0.264   6.426   0.119
 9563SOL    HW229589   0.173   6.296   0.156
 9564SOL     OW29590   1.825   0.313   6.339
 9564SOL    HW129591   1.904   0.258   6.310
 9564SOL    HW229592   1.813   0.389   6.275
 9565SOL     OW29593   3.898   5.606   4.201
 9565SOL    HW129594   3.949   5.552   4.133
 9565SOL    HW229595   3.917   5.570   4.292
 9566SOL     OW29596   3.103   4.550   5.852
 9566SOL    HW129597   3.196   4.571   5.822
 9566SOL    HW229598   3.098   4.555   5.952
 9567SOL     OW29599   6.255   5.598   5.332
 9567SOL    HW129600   6.186   5.630   5.267
 9567SOL    HW229601   6.211   5.545   5.404
 9568SOL     OW29602   5.573   4.115   6.397
 9568SOL    HW129603   5.530   4.164   6.472
 9568SOL    HW229604   5.578   4.018   6.418
 9569SOL     OW29605   5.328   6.417   2.026
 9569SOL    HW129606   5.291   6.491   2.082
 9569SOL    HW229607   5.361   6.454   1.940
 9570SOL     OW29608   0.867   0.581   0.072
 9570SOL    HW129609   0.893   0.642   7.017
 9570SOL    HW229610   0.798   0.516   0.040
 9571SOL     OW29611   2.590   2.887   0.011
 9571SOL    HW129612   2.680   2.855   7.001
 9571SOL    HW229613   2.598   2.975   0.056
 9572SOL     OW29614   0.395   4.185   0.640
 9572SOL    HW129615   0.409   4.238   0.557
 9572SOL    HW229616   0.332   4.110   0.622
 9573SOL     OW29617   5.998   1.542   2.225
 9573SOL    HW129618   6.009   1.626   2.172
 9573SOL    HW229619   6.009   1.463   2.165
 9574SOL     OW29620   2.273   2.094   3.757
 9574SOL    HW129621   2.249   2.022   3.821
 9574SOL    HW229622   2.267   2.183   3.803
 9575SOL     OW29623   4.560   1.057   2.530
 9575SOL    HW129624   4.591   0.982   2.471
 9575SOL    HW229625   4.637   1.090   2.585
 9576SOL     OW29626   3.967   2.419   5.521
 9576SOL    HW129627   4.000   2.511   5.499
 9576SOL    HW229628   3.940   2.372   5.437
 9577SOL     OW29629   0.530   6.049   3.252
 9577SOL    HW129630   0.472   5.997   3.190
 9577SOL    HW229631   0.575   6.123   3.202
 9578SOL     OW29632   6.281   4.146   2.224
 9578SOL    HW129633   6.303   4.129   2.320
 9578SOL    HW229634   6.265   4.244   2.211
 9579SOL     OW29635   1.690   6.246   2.794
 9579SOL    HW129636   1.633   6.328   2.796
 9579SOL    HW229637   1.773   6.262   2.847
 9580SOL     OW29638   4.526   3.432   5.667
 9580SOL    HW129639   4.578   3.511   5.699
 9580SOL    HW229640   4.484   3.452   5.578
 9581SOL     OW29641   1.494   5.387   5.913
 9581SOL    HW129642   1.418   5.366   5.974
 9581SOL    HW229643   1.525   5.481   5.930
 9582SOL     OW29644   4.319   4.693   3.825
 9582SOL    HW129645   4.356   4.601   3.817
 9582SOL    HW229646   4.335   4.743   3.740
 9583SOL     OW29647   2.183   4.786   2.000
 9583SOL    HW129648   2.087   4.785   1.973
 9583SOL    HW229649   2.238   4.743   1.928
 9584SOL     OW29650   5.753   5.126   6.767
 9584SOL    HW129651   5.688   5.054   6.791
 9584SOL    HW229652   5.738   5.205   6.826
 9585SOL     OW29653   0.636   0.221   3.143
 9585SOL    HW129654   0.553   0.271   3.169
 9585SOL    HW229655   0.651   0.146   3.208
 9586SOL     OW29656   5.314   2.931   2.597
 9586SOL    HW129657   5.253   2.856   2.571
 9586SOL    HW229658   5.302   3.007   2.534
 9587SOL     OW29659   5.006   6.332   2.672
 9587SOL    HW129660   5.061   6.303   2.750
 9587SOL    HW229661   5.052   6.406   2.624
 9588SOL     OW29662   7.006   0.207   3.449
 9588SOL    HW129663   0.086   0.195   3.452
 9588SOL    HW229664   6.962   0.129   3.493
 9589SOL     OW29665   2.799   1.639   4.847
 9589SOL    HW129666   2.757   1.695   4.918
 9589SOL    HW229667   2.809   1.692   4.763
 9590SOL     OW29668   0.596   4.904   4.302
 9590SOL    HW129669   0.529   4.834   4.277
 9590SOL    HW229670   0.552   4.993   4.304
 9591SOL     OW29671   1.403   4.528   2.715
 9591SOL    HW129672   1.360   4.614   2.745
 9591SOL    HW229673   1.380   4.511   2.619
 9592SOL     OW29674   4.677   6.061   1.718
 9592SOL    HW129675   4.695   6.146   1.668
 9592SOL    HW229676   4.628   5.997   1.659
 9593SOL     OW29677   1.994   2.630   3.677
 9593SOL    HW129678   1.897   2.639   3.655
 9593SOL    HW229679   2.011   2.660   3.771
 9594SOL     OW29680   6.058   0.176   1.522
 9594SOL    HW129681   5.981   0.116   1.545
 9594SOL    HW229682   6.063   0.185   1.422
 9595SOL     OW29683   1.321   4.527   4.318
 9595SOL    HW129684   1.292   4.569   4.404
 9595SOL    HW229685   1.399   4.576   4.280
 9596SOL     OW29686   5.169   5.429   2.767
 9596SOL    HW129687   5.115   5.362   2.715
 9596SOL    HW229688   5.262   5.432   2.730
 9597SOL     OW29689   1.532   4.484   0.866
 9597SOL    HW129690   1.506   4.524   0.954
 9597SOL    HW229691   1.599   4.411   0.881
 9598SOL     OW29692   1.171   6.008   5.791
 9598SOL    HW129693   1.249   6.020   5.729
 9598SOL    HW229694   1.198   5.948   5.867
 9599SOL     OW29695   4.230   1.608   4.656
 9599SOL    HW129696   4.203   1.698   4.621
 9599SOL    HW229697   4.258   1.549   4.580
 9600SOL     OW29698   1.679   5.467   0.206
 9600SOL    HW129699   1.704   5.504   0.116
 9600SOL    HW229700   1.678   5.367   0.202
 9601SOL     OW29701   0.768   6.639   6.603
 9601SOL    HW129702   0.723   6.597   6.524
 9601SOL    HW229703   0.721   6.723   6.628
 9602SOL     OW29704   0.624   5.422   0.116
 9602SOL    HW129705   0.680   5.505   0.120
 9602SOL    HW229706   0.527   5.447   0.117
 9603SOL     OW29707   1.216   4.620   3.406
 9603SOL    HW129708   1.220   4.617   3.307
 9603SOL    HW229709   1.141   4.680   3.435
 9604SOL     OW29710   6.759   0.101   0.264
 9604SOL    HW129711   6.668   0.090   0.304
 9604SOL    HW229712   6.802   0.012   0.253
 9605SOL     OW29713   2.400   5.390   6.743
 9605SOL    HW129714   2.497   5.396   6.767
 9605SOL    HW229715   2.349   5.461   6.792
 9606SOL     OW29716   6.401   0.618   5.459
 9606SOL    HW129717   6.447   0.532   5.435
 9606SOL    HW229718   6.318   0.597   5.511
 9607SOL     OW29719   6.664   1.715   2.553
 9607SOL    HW129720   6.738   1.731   2.487
 9607SOL    HW229721   6.703   1.687   2.641
 9608SOL     OW29722   6.377   0.029   2.546
 9608SOL    HW129723   6.442   6.972   2.544
 9608SOL    HW229724   6.284   7.013   2.539
 9609SOL     OW29725   1.656   2.266   3.902
 9609SOL    HW129726   1.661   2.192   3.969
 9609SOL    HW229727   1.707   2.240   3.820
 9610SOL     OW29728   3.750   1.118   5.851
 9610SOL    HW129729   3.716   1.065   5.928
 9610SOL    HW229730   3.845   1.092   5.832
 9611SOL     OW29731   5.969   5.600   0.846
 9611SOL    HW129732   6.013   5.639   0.766
 9611SOL    HW229733   5.871   5.590   0.829
 9612SOL     OW29734   5.308   3.460   2.795
 9612SOL    HW129735   5.234   3.435   2.857
 9612SOL    HW229736   5.283   3.544   2.746
 9613SOL     OW29737   6.090   6.660   5.178
 9613SOL    HW129738   6.181   6.636   5.145
 9613SOL    HW229739   6.081   6.760   5.180
 9614SOL     OW29740   3.021   2.931   1.776
 9614SOL    HW129741   3.081   2.931   1.856
 9614SOL    HW229742   3.075   2.920   1.693
 9615SOL     OW29743   0.436   5.877   4.083
 9615SOL    HW129744   0.533   5.887   4.104
 9615SOL    HW229745   0.425   5.820   4.001
 9616SOL     OW29746   1.835   3.076   1.467
 9616SOL    HW129747   1.848   2.999   1.405
 9616SOL    HW229748   1.865   3.160   1.421
 9617SOL     OW29749   0.071   3.147   2.427
 9617SOL    HW129750   0.040   3.215   2.494
 9617SOL    HW229751   0.067   3.188   2.336
 9618SOL     OW29752   4.409   4.045   0.659
 9618SOL    HW129753   4.381   4.138   0.681
 9618SOL    HW229754   4.429   3.995   0.743
 9619SOL     OW29755   1.144   6.719   1.381
 9619SOL    HW129756   1.172   6.625   1.361
 9619SOL    HW229757   1.083   6.752   1.309
 9620SOL     OW29758   3.697   2.128   6.901
 9620SOL    HW129759   3.681   2.049   6.960
 9620SOL    HW229760   3.712   2.097   6.807
 9621SOL     OW29761   0.348   1.257   1.797
 9621SOL    HW129762   0.358   1.178   1.858
 9621SOL    HW229763   0.420   1.324   1.818
 9622SOL     OW29764   0.460   5.788   6.071
 9622SOL    HW129765   0.412   5.769   6.156
 9622SOL    HW229766   0.551   5.825   6.091
 9623SOL     OW29767   3.761   6.390   5.737
 9623SOL    HW129768   3.679   6.447   5.728
 9623SOL    HW229769   3.827   6.415   5.667
 9624SOL     OW29770   4.388   5.428   4.793
 9624SOL    HW129771   4.332   5.510   4.807
 9624SOL    HW229772   4.433   5.404   4.879
 9625SOL     OW29773   5.323   3.847   6.444
 9625SOL    HW129774   5.297   3.839   6.540
 9625SOL    HW229775   5.422   3.854   6.436
 9626SOL     OW29776   2.510   2.517   7.018
 9626SOL    HW129777   2.580   2.548   6.954
 9626SOL    HW229778   2.484   2.593   0.058
 9627SOL     OW29779   0.456   5.183   0.261
 9627SOL    HW129780   0.497   5.113   0.321
 9627SOL    HW229781   0.357   5.176   0.266
 9628SOL     OW29782   6.705   1.983   6.303
 9628SOL    HW129783   6.764   1.957   6.379
 9628SOL    HW229784   6.631   2.042   6.336
 9629SOL     OW29785   0.277   6.126   3.912
 9629SOL    HW129786   0.230   6.150   3.827
 9629SOL    HW229787   0.351   6.062   3.891
 9630SOL     OW29788   6.051   1.344   5.964
 9630SOL    HW129789   6.055   1.246   5.948
 9630SOL    HW229790   5.960   1.378   5.942
 9631SOL     OW29791   4.261   6.332   0.681
 9631SOL    HW129792   4.215   6.357   0.596
 9631SOL    HW229793   4.333   6.266   0.662
 9632SOL     OW29794   2.586   4.897   2.547
 9632SOL    HW129795   2.685   4.894   2.561
 9632SOL    HW229796   2.540   4.852   2.624
 9633SOL     OW29797   3.192   3.259   3.513
 9633SOL    HW129798   3.211   3.172   3.467
 9633SOL    HW229799   3.268   3.321   3.498
 9634SOL     OW29800   5.191   4.690   3.353
 9634SOL    HW129801   5.282   4.728   3.371
 9634SOL    HW229802   5.201   4.600   3.310
 9635SOL     OW29803   0.749   5.168   3.617
 9635SOL    HW129804   0.817   5.230   3.656
 9635SOL    HW229805   0.662   5.181   3.663
 9636SOL     OW29806   5.290   4.157   4.068
 9636SOL    HW129807   5.382   4.195   4.065
 9636SOL    HW229808   5.273   4.120   4.160
 9637SOL     OW29809   1.362   3.446   0.174
 9637SOL    HW129810   1.367   3.439   0.074
 9637SOL    HW229811   1.334   3.539   0.199
 9638SOL     OW29812   6.079   5.518   6.274
 9638SOL    HW129813   6.042   5.605   6.305
 9638SOL    HW229814   6.004   5.456   6.252
 9639SOL     OW29815   4.769   1.950   1.155
 9639SOL    HW129816   4.711   1.870   1.142
 9639SOL    HW229817   4.736   2.002   1.234
 9640SOL     OW29818   4.226   0.438   3.814
 9640SOL    HW129819   4.145   0.409   3.865
 9640SOL    HW229820   4.216   0.535   3.790
 9641SOL     OW29821   6.816   3.037   3.817
 9641SOL    HW129822   6.798   3.036   3.718
 9641SOL    HW229823   6.731   3.051   3.867
 9642SOL     OW29824   0.657   1.113   4.526
 9642SOL    HW129825   0.746   1.130   4.484
 9642SOL    HW229826   0.651   1.017   4.556
 9643SOL     OW29827   5.105   5.139   3.930
 9643SOL    HW129828   5.121   5.215   3.992
 9643SOL    HW229829   5.160   5.060   3.958
 9644SOL     OW29830   0.596   5.452   3.895
 9644SOL    HW129831   0.582   5.380   3.826
 9644SOL    HW229832   0.681   5.434   3.944
 9645SOL     OW29833   1.143   5.101   6.152
 9645SOL    HW129834   1.072   5.120   6.221
 9645SOL    HW229835   1.140   5.004   6.127
 9646SOL     OW29836   4.015   5.622   0.251
 9646SOL    HW129837   4.050   5.696   0.194
 9646SOL    HW229838   4.065   5.538   0.231
 9647SOL     OW29839   6.101   6.529   2.857
 9647SOL    HW129840   6.111   6.543   2.758
 9647SOL    HW229841   6.168   6.461   2.888
 9648SOL     OW29842   3.779   1.773   0.988
 9648SOL    HW129843   3.774   1.838   0.912
 9648SOL    HW229844   3.828   1.814   1.065
 9649SOL     OW29845   0.500   5.342   0.695
 9649SOL    HW129846   0.479   5.408   0.622
 9649SOL    HW229847   0.453   5.370   0.779
 9650SOL     OW29848   0.519   4.973   3.802
 9650SOL    HW129849   0.540   4.954   3.706
 9650SOL    HW229850   0.533   4.890   3.856
 9651SOL     OW29851   4.027   2.069   6.834
 9651SOL    HW129852   3.943   2.033   6.875
 9651SOL    HW229853   4.023   2.057   6.735
 9652SOL     OW29854   0.595   4.047   0.078
 9652SOL    HW129855   0.643   4.131   0.105
 9652SOL    HW229856   0.572   3.994   0.160
 9653SOL     OW29857   4.950   4.241   5.979
 9653SOL    HW129858   5.035   4.262   6.029
 9653SOL    HW229859   4.901   4.326   5.961
 9654SOL     OW29860   3.642   3.523   3.344
 9654SOL    HW129861   3.717   3.489   3.401
 9654SOL    HW229862   3.617   3.615   3.373
 9655SOL     OW29863   4.257   1.750   0.817
 9655SOL    HW129864   4.324   1.818   0.846
 9655SOL    HW229865   4.259   1.672   0.879
 9656SOL     OW29866   5.743   4.354   6.390
 9656SOL    HW129867   5.676   4.280   6.385
 9656SOL    HW229868   5.823   4.322   6.441
 9657SOL     OW29869   5.544   4.353   4.255
 9657SOL    HW129870   5.486   4.424   4.214
 9657SOL    HW229871   5.542   4.271   4.198
 9658SOL     OW29872   4.774   1.691   1.879
 9658SOL    HW129873   4.721   1.699   1.964
 9658SOL    HW229874   4.848   1.759   1.879
 9659SOL     OW29875   2.608   3.076   6.605
 9659SOL    HW129876   2.683   3.114   6.551
 9659SOL    HW229877   2.545   3.027   6.544
 9660SOL     OW29878   1.891   6.108   1.742
 9660SOL    HW129879   1.913   6.077   1.835
 9660SOL    HW229880   1.893   6.207   1.739
 9661SOL     OW29881   4.035   4.048   1.441
 9661SOL    HW129882   4.046   4.139   1.401
 9661SOL    HW229883   4.064   4.051   1.537
 9662SOL     OW29884   5.841   6.542   6.249
 9662SOL    HW129885   5.749   6.571   6.278
 9662SOL    HW229886   5.908   6.574   6.316
 9663SOL     OW29887   1.086   5.419   2.432
 9663SOL    HW129888   1.078   5.331   2.386
 9663SOL    HW229889   1.172   5.462   2.407
 9664SOL     OW29890   3.822   4.948   2.118
 9664SOL    HW129891   3.743   4.895   2.087
 9664SOL    HW229892   3.845   5.018   2.051
 9665SOL     OW29893   6.989   5.290   6.117
 9665SOL    HW129894   7.011   5.373   6.169
 9665SOL    HW229895   6.927   5.232   6.171
 9666SOL     OW29896   5.533   4.296   0.263
 9666SOL    HW129897   5.498   4.353   0.338
 9666SOL    HW229898   5.508   4.337   0.176
 9667SOL     OW29899   5.819   6.230   7.018
 9667SOL    HW129900   5.778   6.164   0.062
 9667SOL    HW229901   5.754   6.250   6.945
 9668SOL     OW29902   1.239   1.065   5.945
 9668SOL    HW129903   1.232   1.089   6.042
 9668SOL    HW229904   1.148   1.049   5.908
 9669SOL     OW29905   2.925   0.301   0.302
 9669SOL    HW129906   2.869   0.298   0.220
 9669SOL    HW229907   2.961   0.394   0.314
 9670SOL     OW29908   0.485   0.446   0.268
 9670SOL    HW129909   0.516   0.443   0.173
 9670SOL    HW229910   0.439   0.361   0.291
 9671SOL     OW29911   0.820   5.203   6.619
 9671SOL    HW129912   0.874   5.265   6.676
 9671SOL    HW229913   0.855   5.110   6.630
 9672SOL     OW29914   1.031   3.954   4.236
 9672SOL    HW129915   1.121   3.996   4.222
 9672SOL    HW229916   0.975   4.013   4.295
 9673SOL     OW29917   1.895   3.364   6.963
 9673SOL    HW129918   1.829   3.380   6.889
 9673SOL    HW229919   1.941   3.277   6.949
 9674SOL     OW29920   2.045   6.230   4.148
 9674SOL    HW129921   2.039   6.304   4.081
 9674SOL    HW229922   2.028   6.143   4.103
 9675SOL     OW29923   6.056   3.580   5.801
 9675SOL    HW129924   6.140   3.605   5.753
 9675SOL    HW229925   5.982   3.639   5.769
 9676SOL     OW29926   0.710   2.932   6.665
 9676SOL    HW129927   0.641   2.860   6.671
 9676SOL    HW229928   0.709   2.985   6.750
 9677SOL     OW29929   6.540   5.525   2.220
 9677SOL    HW129930   6.447   5.525   2.256
 9677SOL    HW229931   6.588   5.443   2.251
 9678SOL     OW29932   3.410   3.999   5.205
 9678SOL    HW129933   3.411   3.929   5.134
 9678SOL    HW229934   3.358   3.966   5.284
 9679SOL     OW29935   1.669   1.037   4.352
 9679SOL    HW129936   1.632   1.057   4.442
 9679SOL    HW229937   1.623   0.957   4.313
 9680SOL     OW29938   4.479   6.765   1.754
 9680SOL    HW129939   4.560   6.823   1.756
 9680SOL    HW229940   4.437   6.763   1.846
 9681SOL     OW29941   1.029   2.392   2.191
 9681SOL    HW129942   1.106   2.442   2.151
 9681SOL    HW229943   0.966   2.364   2.118
 9682SOL     OW29944   5.509   6.407   6.114
 9682SOL    HW129945   5.536   6.310   6.108
 9682SOL    HW229946   5.486   6.441   6.023
 9683SOL     OW29947   3.146   6.319   2.919
 9683SOL    HW129948   3.228   6.271   2.951
 9683SOL    HW229949   3.173   6.398   2.864
 9684SOL     OW29950   6.929   3.537   5.166
 9684SOL    HW129951   6.901   3.492   5.081
 9684SOL    HW229952   6.848   3.575   5.212
 9685SOL     OW29953   3.508   4.449   1.348
 9685SOL    HW129954   3.469   4.367   1.389
 9685SOL    HW229955   3.551   4.506   1.419
 9686SOL     OW29956   6.228   1.218   5.750
 9686SOL    HW129957   6.202   1.313   5.760
 9686SOL    HW229958   6.177   1.176   5.676
 9687SOL     OW29959   4.694   1.126   3.212
 9687SOL    HW129960   4.786   1.126   3.171
 9687SOL    HW229961   4.661   1.220   3.220
 9688SOL     OW29962   1.038   5.451   1.665
 9688SOL    HW129963   1.069   5.489   1.579
 9688SOL    HW229964   0.972   5.378   1.647
 9689SOL     OW29965   2.169   6.191   1.057
 9689SOL    HW129966   2.173   6.100   1.097
 9689SOL    HW229967   2.259   6.234   1.064
 9690SOL     OW29968   6.853   4.508   4.800
 9690SOL    HW129969   6.918   4.434   4.819
 9690SOL    HW229970   6.846   4.521   4.701
 9691SOL     OW29971   2.858   3.541   1.847
 9691SOL    HW129972   2.907   3.593   1.917
 9691SOL    HW229973   2.917   3.527   1.768
 9692SOL     OW29974   5.169   4.477   0.717
 9692SOL    HW129975   5.224   4.516   0.790
 9692SOL    HW229976   5.118   4.398   0.752
 9693SOL     OW29977   4.500   3.009   5.403
 9693SOL    HW129978   4.579   3.001   5.341
 9693SOL    HW229979   4.446   2.926   5.398
 9694SOL     OW29980   2.935   0.298   2.105
 9694SOL    HW129981   2.946   0.308   2.006
 9694SOL    HW229982   2.992   0.223   2.138
 9695SOL     OW29983   0.947   2.524   3.991
 9695SOL    HW129984   1.020   2.581   3.954
 9695SOL    HW229985   0.987   2.445   4.037
 9696SOL     OW29986   5.369   2.522   4.146
 9696SOL    HW129987   5.280   2.531   4.102
 9696SOL    HW229988   5.414   2.611   4.150
 9697SOL     OW29989   0.203   6.807   0.865
 9697SOL    HW129990   0.142   6.864   0.810
 9697SOL    HW229991   0.297   6.836   0.852
 9698SOL     OW29992   6.852   3.362   2.117
 9698SOL    HW129993   6.925   3.294   2.124
 9698SOL    HW229994   6.793   3.356   2.198
 9699SOL     OW29995   2.068   5.803   1.330
 9699SOL    HW129996   2.033   5.851   1.411
 9699SOL    HW229997   2.048   5.706   1.339
 9700SOL     OW29998   5.389   0.158   5.748
 9700SOL    HW129999   5.416   0.248   5.715
 9700SOL    HW230000   5.471   0.108   5.778
 9701SOL     OW30001   4.893   4.018   0.013
 9701SOL    HW130002   4.961   3.953   6.998
 9701SOL    HW230003   4.868   4.082   6.961
 9702SOL     OW30004   3.975   3.879   2.222
 9702SOL    HW130005   4.067   3.908   2.196
 9702SOL    HW230006   3.977   3.837   2.312
 9703SOL     OW30007   5.928   4.560   4.207
 9703SOL    HW130008   5.997   4.502   4.164
 9703SOL    HW230009   5.837   4.532   4.176
 9704SOL     OW30010   1.470   4.502   3.158
 9704SOL    HW130011   1.514   4.454   3.083
 9704SOL    HW230012   1.463   4.599   3.135
 9705SOL     OW30013   0.519   2.591   5.498
 9705SOL    HW130014   0.554   2.497   5.499
 9705SOL    HW230015   0.433   2.595   5.548
 9706SOL     OW30016   0.480   1.489   2.829
 9706SOL    HW130017   0.391   1.489   2.783
 9706SOL    HW230018   0.533   1.409   2.801
 9707SOL     OW30019   0.719   4.902   2.424
 9707SOL    HW130020   0.806   4.950   2.434
 9707SOL    HW230021   0.647   4.967   2.402
 9708SOL     OW30022   2.620   0.475   2.247
 9708SOL    HW130023   2.645   0.536   2.172
 9708SOL    HW230024   2.695   0.472   2.313
 9709SOL     OW30025   5.698   2.515   1.303
 9709SOL    HW130026   5.669   2.535   1.397
 9709SOL    HW230027   5.621   2.531   1.241
 9710SOL     OW30028   6.126   5.409   4.301
 9710SOL    HW130029   6.060   5.338   4.326
 9710SOL    HW230030   6.175   5.440   4.382
 9711SOL     OW30031   3.340   1.220   0.087
 9711SOL    HW130032   3.377   1.196   0.176
 9711SOL    HW230033   3.242   1.239   0.095
 9712SOL     OW30034   5.685   1.127   6.671
 9712SOL    HW130035   5.602   1.077   6.696
 9712SOL    HW230036   5.757   1.108   6.738
 9713SOL     OW30037   2.400   6.998   2.610
 9713SOL    HW130038   2.411   6.957   2.701
 9713SOL    HW230039   2.319   6.960   2.566
 9714SOL     OW30040   2.296   4.292   4.515
 9714SOL    HW130041   2.216   4.331   4.469
 9714SOL    HW230042   2.285   4.301   4.614
 9715SOL     OW30043   6.577   3.605   6.326
 9715SOL    HW130044   6.562   3.514   6.364
 9715SOL    HW230045   6.604   3.598   6.231
 9716SOL     OW30046   2.227   5.253   0.640
 9716SOL    HW130047   2.217   5.251   0.740
 9716SOL    HW230048   2.179   5.333   0.604
 9717SOL     OW30049   3.639   1.944   5.373
 9717SOL    HW130050   3.592   1.876   5.318
 9717SOL    HW230051   3.586   1.964   5.455
 9718SOL     OW30052   4.377   2.232   5.739
 9718SOL    HW130053   4.452   2.216   5.803
 9718SOL    HW230054   4.346   2.145   5.702
 9719SOL     OW30055   5.203   6.597   6.018
 9719SOL    HW130056   5.302   6.596   6.031
 9719SOL    HW230057   5.163   6.671   6.073
 9720SOL     OW30058   2.158   3.351   2.944
 9720SOL    HW130059   2.109   3.348   2.857
 9720SOL    HW230060   2.241   3.407   2.933
 9721SOL     OW30061   1.031   1.302   0.855
 9721SOL    HW130062   1.118   1.265   0.889
 9721SOL    HW230063   1.001   1.376   0.915
 9722SOL     OW30064   3.973   2.292   5.252
 9722SOL    HW130065   3.908   2.249   5.315
 9722SOL    HW230066   3.979   2.237   5.168
 9723SOL     OW30067   6.589   0.430   5.381
 9723SOL    HW130068   6.669   0.459   5.328
 9723SOL    HW230069   6.617   0.411   5.475
 9724SOL     OW30070   1.479   4.745   0.381
 9724SOL    HW130071   1.539   4.708   0.452
 9724SOL    HW230072   1.427   4.671   0.339
 9725SOL     OW30073   4.195   4.784   4.712
 9725SOL    HW130074   4.130   4.854   4.682
 9725SOL    HW230075   4.238   4.742   4.632
 9726SOL     OW30076   0.355   0.561   3.639
 9726SOL    HW130077   0.398   0.484   3.592
 9726SOL    HW230078   0.425   0.616   3.683
 9727SOL     OW30079   6.631   2.124   1.799
 9727SOL    HW130080   6.668   2.196   1.859
 9727SOL    HW230081   6.543   2.094   1.835
 9728SOL     OW30082   4.787   2.151   4.412
 9728SOL    HW130083   4.776   2.089   4.490
 9728SOL    HW230084   4.884   2.174   4.402
 9729SOL     OW30085   7.000   4.809   3.065
 9729SOL    HW130086   7.007   4.890   3.007
 9729SOL    HW230087   7.006   4.836   3.161
 9730SOL     OW30088   1.113   4.490   2.888
 9730SOL    HW130089   1.183   4.511   2.956
 9730SOL    HW230090   1.123   4.550   2.809
 9731SOL     OW30091   5.558   3.082   1.929
 9731SOL    HW130092   5.613   3.159   1.898
 9731SOL    HW230093   5.538   3.021   1.853
 9732SOL     OW30094   1.444   3.649   2.665
 9732SOL    HW130095   1.453   3.563   2.716
 9732SOL    HW230096   1.388   3.634   2.584
 9733SOL     OW30097   6.005   4.647   2.101
 9733SOL    HW130098   6.075   4.685   2.162
 9733SOL    HW230099   5.921   4.701   2.110
 9734SOL     OW30100   5.570   5.087   6.362
 9734SOL    HW130101   5.516   5.102   6.279
 9734SOL    HW230102   5.580   4.989   6.378
 9735SOL     OW30103   0.359   2.421   1.054
 9735SOL    HW130104   0.433   2.449   1.114
 9735SOL    HW230105   0.273   2.461   1.086
 9736SOL     OW30106   4.963   2.214   5.011
 9736SOL    HW130107   4.909   2.135   5.041
 9736SOL    HW230108   4.991   2.267   5.091
 9737SOL     OW30109   6.194   3.319   3.683
 9737SOL    HW130110   6.132   3.250   3.645
 9737SOL    HW230111   6.271   3.331   3.620
 9738SOL     OW30112   2.191   6.530   2.006
 9738SOL    HW130113   2.119   6.461   2.000
 9738SOL    HW230114   2.199   6.578   1.918
 9739SOL     OW30115   5.777   6.914   0.204
 9739SOL    HW130116   5.700   6.919   0.141
 9739SOL    HW230117   5.853   6.970   0.170
 9740SOL     OW30118   6.510   1.375   2.643
 9740SOL    HW130119   6.545   1.411   2.729
 9740SOL    HW230120   6.517   1.275   2.644
 9741SOL     OW30121   2.377   1.951   4.519
 9741SOL    HW130122   2.418   1.861   4.535
 9741SOL    HW230123   2.450   2.019   4.506
 9742SOL     OW30124   3.744   2.085   6.352
 9742SOL    HW130125   3.737   2.023   6.430
 9742SOL    HW230126   3.662   2.078   6.296
 9743SOL     OW30127   5.527   3.915   3.839
 9743SOL    HW130128   5.483   3.946   3.755
 9743SOL    HW230129   5.459   3.903   3.911
 9744SOL     OW30130   1.728   1.783   2.547
 9744SOL    HW130131   1.803   1.831   2.502
 9744SOL    HW230132   1.655   1.848   2.568
 9745SOL     OW30133   0.415   0.794   6.242
 9745SOL    HW130134   0.400   0.807   6.340
 9745SOL    HW230135   0.380   0.873   6.192
 9746SOL     OW30136   4.003   5.696   6.001
 9746SOL    HW130137   3.962   5.605   6.010
 9746SOL    HW230138   3.954   5.747   5.930
 9747SOL     OW30139   2.549   1.241   3.101
 9747SOL    HW130140   2.605   1.323   3.107
 9747SOL    HW230141   2.605   1.161   3.121
 9748SOL     OW30142   1.081   1.075   3.111
 9748SOL    HW130143   1.039   1.159   3.144
 9748SOL    HW230144   1.159   1.051   3.169
 9749SOL     OW30145   6.854   0.366   1.898
 9749SOL    HW130146   6.885   0.460   1.879
 9749SOL    HW230147   6.926   0.316   1.944
 9750SOL     OW30148   5.849   3.154   4.778
 9750SOL    HW130149   5.887   3.203   4.856
 9750SOL    HW230150   5.785   3.083   4.811
 9751SOL     OW30151   3.721   6.811   1.487
 9751SOL    HW130152   3.803   6.754   1.488
 9751SOL    HW230153   3.663   6.783   1.410
 9752SOL     OW30154   3.084   2.750   0.419
 9752SOL    HW130155   3.015   2.764   0.348
 9752SOL    HW230156   3.176   2.760   0.379
 9753SOL     OW30157   6.250   6.368   5.215
 9753SOL    HW130158   6.306   6.340   5.292
 9753SOL    HW230159   6.184   6.296   5.193
 9754SOL     OW30160   2.955   1.133   1.995
 9754SOL    HW130161   2.987   1.153   1.902
 9754SOL    HW230162   2.914   1.215   2.035
 9755SOL     OW30163   2.955   3.662   0.642
 9755SOL    HW130164   3.023   3.599   0.680
 9755SOL    HW230165   2.966   3.751   0.685
 9756SOL     OW30166   6.107   0.203   5.592
 9756SOL    HW130167   6.119   0.230   5.497
 9756SOL    HW230168   6.013   0.222   5.621
 9757SOL     OW30169   5.217   4.037   4.300
 9757SOL    HW130170   5.241   4.099   4.375
 9757SOL    HW230171   5.157   3.965   4.334
 9758SOL     OW30172   2.165   0.966   2.536
 9758SOL    HW130173   2.171   0.952   2.635
 9758SOL    HW230174   2.101   0.901   2.496
 9759SOL     OW30175   6.976   1.622   1.622
 9759SOL    HW130176   6.934   1.548   1.569
 9759SOL    HW230177   6.982   1.704   1.565
 9760SOL     OW30178   4.806   0.375   0.255
 9760SOL    HW130179   4.739   0.438   0.217
 9760SOL    HW230180   4.822   0.397   0.351
 9761SOL     OW30181   1.436   2.680   1.157
 9761SOL    HW130182   1.347   2.673   1.112
 9761SOL    HW230183   1.449   2.602   1.217
 9762SOL     OW30184   2.792   1.461   5.344
 9762SOL    HW130185   2.743   1.401   5.280
 9762SOL    HW230186   2.743   1.547   5.355
 9763SOL     OW30187   6.608   2.192   1.542
 9763SOL    HW130188   6.522   2.146   1.518
 9763SOL    HW230189   6.625   2.180   1.640
 9764SOL     OW30190   0.008   2.110   2.970
 9764SOL    HW130191   6.976   2.147   3.047
 9764SOL    HW230192   6.967   2.097   2.892
 9765SOL     OW30193   6.656   0.369   2.082
 9765SOL    HW130194   6.617   0.451   2.039
 9765SOL    HW230195   6.735   0.338   2.029
 9766SOL     OW30196   1.763   2.109   3.260
 9766SOL    HW130197   1.693   2.107   3.331
 9766SOL    HW230198   1.736   2.172   3.188
 9767SOL     OW30199   2.624   1.290   5.237
 9767SOL    HW130200   2.550   1.353   5.259
 9767SOL    HW230201   2.590   1.216   5.179
 9768SOL     OW30202   6.041   3.099   0.623
 9768SOL    HW130203   6.057   3.134   0.531
 9768SOL    HW230204   5.946   3.070   0.631
 9769SOL     OW30205   3.581   1.686   5.693
 9769SOL    HW130206   3.531   1.758   5.645
 9769SOL    HW230207   3.528   1.655   5.772
 9770SOL     OW30208   2.128   2.938   5.531
 9770SOL    HW130209   2.172   2.851   5.508
 9770SOL    HW230210   2.030   2.932   5.512
 9771SOL     OW30211   3.321   6.949   1.761
 9771SOL    HW130212   3.223   6.948   1.741
 9771SOL    HW230213   3.340   6.888   1.838
 9772SOL     OW30214   0.871   0.486   1.444
 9772SOL    HW130215   0.815   0.448   1.518
 9772SOL    HW230216   0.884   0.584   1.459
 9773SOL     OW30217   5.370   5.246   2.371
 9773SOL    HW130218   5.443   5.311   2.392
 9773SOL    HW230219   5.398   5.187   2.296
 9774SOL     OW30220   1.400   4.465   5.070
 9774SOL    HW130221   1.444   4.417   5.146
 9774SOL    HW230222   1.471   4.497   5.006
 9775SOL     OW30223   2.268   1.565   3.296
 9775SOL    HW130224   2.262   1.478   3.344
 9775SOL    HW230225   2.300   1.636   3.359
 9776SOL     OW30226   2.457   4.870   0.502
 9776SOL    HW130227   2.428   4.916   0.419
 9776SOL    HW230228   2.470   4.937   0.575
 9777SOL     OW30229   4.111   0.810   5.422
 9777SOL    HW130230   4.066   0.829   5.509
 9777SOL    HW230231   4.175   0.884   5.401
 9778SOL     OW30232   0.879   4.476   3.441
 9778SOL    HW130233   0.956   4.431   3.485
 9778SOL    HW230234   0.811   4.408   3.414
 9779SOL     OW30235   2.360   1.188   3.310
 9779SOL    HW130236   2.428   1.234   3.253
 9779SOL    HW230237   2.370   1.220   3.405
 9780SOL     OW30238   0.685   2.771   2.045
 9780SOL    HW130239   0.762   2.832   2.062
 9780SOL    HW230240   0.641   2.748   2.132
 9781SOL     OW30241   1.486   1.901   2.546
 9781SOL    HW130242   1.453   1.843   2.620
 9781SOL    HW230243   1.411   1.924   2.485
 9782SOL     OW30244   0.287   1.956   0.832
 9782SOL    HW130245   0.325   1.948   0.740
 9782SOL    HW230246   0.324   2.037   0.877
 9783SOL     OW30247   4.099   1.243   3.082
 9783SOL    HW130248   4.094   1.144   3.066
 9783SOL    HW230249   4.179   1.281   3.036
 9784SOL     OW30250   1.917   1.144   6.328
 9784SOL    HW130251   1.873   1.128   6.239
 9784SOL    HW230252   1.945   1.057   6.368
 9785SOL     OW30253   0.270   3.928   4.236
 9785SOL    HW130254   0.218   3.959   4.156
 9785SOL    HW230255   0.295   3.832   4.224
 9786SOL     OW30256   2.169   4.242   0.012
 9786SOL    HW130257   2.183   4.201   0.102
 9786SOL    HW230258   2.106   4.186   6.979
 9787SOL     OW30259   2.996   3.861   2.852
 9787SOL    HW130260   2.918   3.812   2.890
 9787SOL    HW230261   3.053   3.797   2.800
 9788SOL     OW30262   4.140   6.854   1.812
 9788SOL    HW130263   4.238   6.834   1.818
 9788SOL    HW230264   4.118   6.883   1.719
 9789SOL     OW30265   3.829   1.726   6.855
 9789SOL    HW130266   3.785   1.733   6.766
 9789SOL    HW230267   3.769   1.677   6.918
 9790SOL     OW30268   5.688   5.466   4.342
 9790SOL    HW130269   5.624   5.414   4.399
 9790SOL    HW230270   5.700   5.558   4.380
 9791SOL     OW30271   0.751   0.188   1.820
 9791SOL    HW130272   0.659   0.196   1.784
 9791SOL    HW230273   0.817   0.188   1.745
 9792SOL     OW30274   4.083   4.974   0.454
 9792SOL    HW130275   4.169   4.986   0.404
 9792SOL    HW230276   4.046   5.063   0.480
 9793SOL     OW30277   6.039   0.949   3.582
 9793SOL    HW130278   6.123   0.926   3.532
 9793SOL    HW230279   5.966   0.886   3.555
 9794SOL     OW30280   4.527   4.794   4.339
 9794SOL    HW130281   4.606   4.735   4.331
 9794SOL    HW230282   4.539   4.874   4.279
 9795SOL     OW30283   1.476   3.368   3.245
 9795SOL    HW130284   1.563   3.348   3.290
 9795SOL    HW230285   1.451   3.293   3.184
 9796SOL     OW30286   3.223   4.072   4.395
 9796SOL    HW130287   3.261   4.144   4.454
 9796SOL    HW230288   3.284   4.058   4.317
 9797SOL     OW30289   2.632   5.227   0.309
 9797SOL    HW130290   2.552   5.182   0.268
 9797SOL    HW230291   2.608   5.258   0.401
 9798SOL     OW30292   0.005   4.068   6.769
 9798SOL    HW130293   0.083   4.103   6.821
 9798SOL    HW230294   0.026   3.976   6.735
 9799SOL     OW30295   2.726   0.264   6.541
 9799SOL    HW130296   2.768   0.350   6.573
 9799SOL    HW230297   2.688   0.277   6.450
 9800SOL     OW30298   6.912   3.033   4.465
 9800SOL    HW130299   6.819   3.071   4.456
 9800SOL    HW230300   6.975   3.089   4.411
 9801SOL     OW30301   5.981   6.348   0.347
 9801SOL    HW130302   6.038   6.346   0.265
 9801SOL    HW230303   5.956   6.443   0.367
 9802SOL     OW30304   4.224   4.216   0.350
 9802SOL    HW130305   4.195   4.125   0.320
 9802SOL    HW230306   4.307   4.243   0.300
 9803SOL     OW30307   1.062   3.098   6.717
 9803SOL    HW130308   1.112   3.066   6.636
 9803SOL    HW230309   0.974   3.051   6.723
 9804SOL     OW30310   0.791   5.452   2.410
 9804SOL    HW130311   0.881   5.424   2.441
 9804SOL    HW230312   0.721   5.409   2.467
 9805SOL     OW30313   0.704   5.829   4.098
 9805SOL    HW130314   0.687   5.780   4.183
 9805SOL    HW230315   0.740   5.766   4.030
 9806SOL     OW30316   3.852   1.892   0.229
 9806SOL    HW130317   3.765   1.896   0.181
 9806SOL    HW230318   3.916   1.957   0.188
 9807SOL     OW30319   3.702   3.352   2.505
 9807SOL    HW130320   3.665   3.283   2.442
 9807SOL    HW230321   3.787   3.319   2.545
 9808SOL     OW30322   4.281   5.543   2.654
 9808SOL    HW130323   4.336   5.580   2.579
 9808SOL    HW230324   4.228   5.465   2.622
 9809SOL     OW30325   6.832   3.687   0.612
 9809SOL    HW130326   6.822   3.656   0.518
 9809SOL    HW230327   6.764   3.643   0.670
 9810SOL     OW30328   3.100   1.846   6.856
 9810SOL    HW130329   3.187   1.800   6.870
 9810SOL    HW230330   3.045   1.840   6.939
 9811SOL     OW30331   5.827   3.615   4.495
 9811SOL    HW130332   5.831   3.525   4.452
 9811SOL    HW230333   5.850   3.685   4.427
 9812SOL     OW30334   3.734   6.139   5.635
 9812SOL    HW130335   3.759   6.151   5.539
 9812SOL    HW230336   3.712   6.229   5.675
 9813SOL     OW30337   5.167   0.776   2.048
 9813SOL    HW130338   5.092   0.711   2.060
 9813SOL    HW230339   5.232   0.741   1.982
 9814SOL     OW30340   5.678   1.254   0.112
 9814SOL    HW130341   5.766   1.211   0.132
 9814SOL    HW230342   5.639   1.292   0.196
 9815SOL     OW30343   4.585   2.628   4.677
 9815SOL    HW130344   4.591   2.652   4.580
 9815SOL    HW230345   4.606   2.708   4.732
 9816SOL     OW30346   2.436   0.654   1.175
 9816SOL    HW130347   2.523   0.679   1.132
 9816SOL    HW230348   2.405   0.728   1.235
 9817SOL     OW30349   6.348   6.797   2.815
 9817SOL    HW130350   6.358   6.802   2.716
 9817SOL    HW230351   6.387   6.711   2.848
 9818SOL     OW30352   5.776   2.897   4.991
 9818SOL    HW130353   5.826   2.818   5.026
 9818SOL    HW230354   5.714   2.933   5.061
 9819SOL     OW30355   3.978   0.620   2.479
 9819SOL    HW130356   3.900   0.604   2.540
 9819SOL    HW230357   4.058   0.645   2.534
 9820SOL     OW30358   4.594   2.996   5.664
 9820SOL    HW130359   4.568   3.021   5.571
 9820SOL    HW230360   4.629   2.902   5.664
 9821SOL     OW30361   6.502   5.107   0.479
 9821SOL    HW130362   6.472   5.201   0.460
 9821SOL    HW230363   6.466   5.077   0.567
 9822SOL     OW30364   0.452   0.076   2.030
 9822SOL    HW130365   0.541   0.120   2.038
 9822SOL    HW230366   0.461   6.998   2.049
 9823SOL     OW30367   3.921   0.793   1.562
 9823SOL    HW130368   3.885   0.861   1.498
 9823SOL    HW230369   3.879   0.705   1.544
 9824SOL     OW30370   1.025   3.728   5.841
 9824SOL    HW130371   0.994   3.806   5.786
 9824SOL    HW230372   1.004   3.643   5.793
 9825SOL     OW30373   3.974   5.027   4.908
 9825SOL    HW130374   4.066   5.042   4.944
 9825SOL    HW230375   3.908   5.037   4.983
 9826SOL     OW30376   5.069   0.439   5.791
 9826SOL    HW130377   4.997   0.421   5.858
 9826SOL    HW230378   5.135   0.503   5.830
 9827SOL     OW30379   1.539   4.061   4.300
 9827SOL    HW130380   1.597   4.004   4.242
 9827SOL    HW230381   1.558   4.157   4.283
 9828SOL     OW30382   3.419   3.037   6.769
 9828SOL    HW130383   3.349   2.998   6.829
 9828SOL    HW230384   3.504   2.984   6.779
 9829SOL     OW30385   2.913   4.494   0.055
 9829SOL    HW130386   2.886   4.590   0.064
 9829SOL    HW230387   2.996   4.488   7.019
 9830SOL     OW30388   5.806   0.551   0.563
 9830SOL    HW130389   5.806   0.466   0.617
 9830SOL    HW230390   5.732   0.610   0.594
 9831SOL     OW30391   6.268   6.769   1.027
 9831SOL    HW130392   6.217   6.725   0.953
 9831SOL    HW230393   6.277   6.867   1.008
 9832SOL     OW30394   4.469   4.941   1.063
 9832SOL    HW130395   4.454   4.890   1.148
 9832SOL    HW230396   4.393   5.003   1.047
 9833SOL     OW30397   3.430   3.607   5.042
 9833SOL    HW130398   3.360   3.666   5.001
 9833SOL    HW230399   3.385   3.542   5.104
 9834SOL     OW30400   0.737   3.144   4.434
 9834SOL    HW130401   0.797   3.223   4.424
 9834SOL    HW230402   0.704   3.115   4.343
 9835SOL     OW30403   5.280   2.180   4.097
 9835SOL    HW130404   5.230   2.181   4.010
 9835SOL    HW230405   5.371   2.219   4.083
 9836SOL     OW30406   5.009   5.184   2.975
 9836SOL    HW130407   5.060   5.264   3.004
 9836SOL    HW230408   4.934   5.167   3.038
 9837SOL     OW30409   2.314   6.157   4.192
 9837SOL    HW130410   2.308   6.060   4.170
 9837SOL    HW230411   2.222   6.198   4.187
 9838SOL     OW30412   0.694   5.918   6.135
 9838SOL    HW130413   0.705   6.017   6.135
 9838SOL    HW230414   0.781   5.875   6.109
 9839SOL     OW30415   6.930   1.574   2.259
 9839SOL    HW130416   6.923   1.475   2.269
 9839SOL    HW230417   6.909   1.599   2.164
 9840SOL     OW30418   6.643   0.626   1.267
 9840SOL    HW130419   6.665   0.628   1.364
 9840SOL    HW230420   6.550   0.662   1.253
 9841SOL     OW30421   1.919   3.594   4.071
 9841SOL    HW130422   1.840   3.578   4.130
 9841SOL    HW230423   2.002   3.596   4.126
 9842SOL     OW30424   3.330   2.903   2.279
 9842SOL    HW130425   3.241   2.939   2.252
 9842SOL    HW230426   3.365   2.844   2.207
 9843SOL     OW30427   6.486   2.468   2.142
 9843SOL    HW130428   6.406   2.524   2.117
 9843SOL    HW230429   6.522   2.499   2.230
 9844SOL     OW30430   5.045   6.833   2.515
 9844SOL    HW130431   5.013   6.743   2.487
 9844SOL    HW230432   5.009   6.855   2.606
 9845SOL     OW30433   1.213   2.015   3.747
 9845SOL    HW130434   1.239   2.112   3.745
 9845SOL    HW230435   1.214   1.979   3.654
 9846SOL     OW30436   2.887   3.597   2.944
 9846SOL    HW130437   2.932   3.643   3.021
 9846SOL    HW230438   2.835   3.519   2.977
 9847SOL     OW30439   1.898   3.983   6.101
 9847SOL    HW130440   1.857   4.064   6.143
 9847SOL    HW230441   1.982   4.009   6.053
 9848SOL     OW30442   4.919   3.159   6.878
 9848SOL    HW130443   4.891   3.252   6.852
 9848SOL    HW230444   4.948   3.159   6.973
 9849SOL     OW30445   0.244   0.029   6.310
 9849SOL    HW130446   0.314   0.039   6.239
 9849SOL    HW230447   0.284   0.049   6.399
 9850SOL     OW30448   3.967   6.199   2.492
 9850SOL    HW130449   3.970   6.103   2.519
 9850SOL    HW230450   4.054   6.243   2.513
 9851SOL     OW30451   5.586   1.883   5.253
 9851SOL    HW130452   5.540   1.841   5.331
 9851SOL    HW230453   5.605   1.979   5.274
 9852SOL     OW30454   5.316   1.793   3.734
 9852SOL    HW130455   5.369   1.828   3.811
 9852SOL    HW230456   5.372   1.796   3.651
 9853SOL     OW30457   6.607   3.654   2.259
 9853SOL    HW130458   6.696   3.632   2.299
 9853SOL    HW230459   6.606   3.750   2.230
 9854SOL     OW30460   5.104   5.607   3.912
 9854SOL    HW130461   5.131   5.590   4.006
 9854SOL    HW230462   5.155   5.547   3.851
 9855SOL     OW30463   1.164   3.816   1.423
 9855SOL    HW130464   1.162   3.816   1.323
 9855SOL    HW230465   1.166   3.910   1.457
 9856SOL     OW30466   3.616   2.899   1.037
 9856SOL    HW130467   3.681   2.833   1.075
 9856SOL    HW230468   3.569   2.945   1.112
 9857SOL     OW30469   5.478   3.354   3.393
 9857SOL    HW130470   5.517   3.336   3.303
 9857SOL    HW230471   5.417   3.432   3.388
 9858SOL     OW30472   5.010   0.902   1.853
 9858SOL    HW130473   5.104   0.878   1.878
 9858SOL    HW230474   4.969   0.828   1.801
 9859SOL     OW30475   6.169   0.433   2.476
 9859SOL    HW130476   6.129   0.362   2.534
 9859SOL    HW230477   6.160   0.406   2.380
 9860SOL     OW30478   0.440   1.083   1.963
 9860SOL    HW130479   0.458   1.163   2.020
 9860SOL    HW230480   0.526   1.044   1.932
 9861SOL     OW30481   4.098   6.615   4.221
 9861SOL    HW130482   4.085   6.532   4.167
 9861SOL    HW230483   4.038   6.612   4.301
 9862SOL     OW30484   1.075   2.813   0.978
 9862SOL    HW130485   1.135   2.737   0.952
 9862SOL    HW230486   0.989   2.777   1.014
 9863SOL     OW30487   3.364   6.960   2.064
 9863SOL    HW130488   3.451   6.926   2.100
 9863SOL    HW230489   3.351   0.035   2.094
 9864SOL     OW30490   5.062   6.184   2.126
 9864SOL    HW130491   5.092   6.273   2.161
 9864SOL    HW230492   5.137   6.141   2.076
 9865SOL     OW30493   0.570   0.747   4.467
 9865SOL    HW130494   0.658   0.740   4.419
 9865SOL    HW230495   0.569   0.684   4.544
 9866SOL     OW30496   4.907   3.958   3.913
 9866SOL    HW130497   4.850   4.038   3.928
 9866SOL    HW230498   4.928   3.915   4.001
 9867SOL     OW30499   4.513   1.093   6.905
 9867SOL    HW130500   4.435   1.152   6.923
 9867SOL    HW230501   4.569   1.133   6.832
 9868SOL     OW30502   0.303   4.860   0.357
 9868SOL    HW130503   0.264   4.853   0.449
 9868SOL    HW230504   0.274   4.945   0.314
 9869SOL     OW30505   1.852   4.466   3.200
 9869SOL    HW130506   1.887   4.399   3.266
 9869SOL    HW230507   1.836   4.553   3.246
 9870SOL     OW30508   5.118   4.873   2.330
 9870SOL    HW130509   5.175   4.918   2.399
 9870SOL    HW230510   5.177   4.822   2.267
 9871SOL     OW30511   2.441   0.780   5.129
 9871SOL    HW130512   2.476   0.872   5.143
 9871SOL    HW230513   2.517   0.716   5.122
 9872SOL     OW30514   2.543   4.875   3.403
 9872SOL    HW130515   2.478   4.838   3.336
 9872SOL    HW230516   2.636   4.866   3.369
 9873SOL     OW30517   0.912   2.584   0.142
 9873SOL    HW130518   0.867   2.512   0.090
 9873SOL    HW230519   0.993   2.547   0.188
 9874SOL     OW30520   0.698   2.932   3.836
 9874SOL    HW130521   0.695   2.896   3.743
 9874SOL    HW230522   0.640   2.876   3.895
 9875SOL     OW30523   0.630   0.537   3.006
 9875SOL    HW130524   0.543   0.525   3.054
 9875SOL    HW230525   0.692   0.593   3.061
 9876SOL     OW30526   6.518   6.819   2.573
 9876SOL    HW130527   6.599   6.762   2.564
 9876SOL    HW230528   6.441   6.776   2.526
 9877SOL     OW30529   3.251   6.883   2.563
 9877SOL    HW130530   3.295   6.973   2.559
 9877SOL    HW230531   3.154   6.893   2.545
 9878SOL     OW30532   0.717   6.156   5.297
 9878SOL    HW130533   0.695   6.085   5.230
 9878SOL    HW230534   0.673   6.242   5.271
 9879SOL     OW30535   4.234   5.527   5.530
 9879SOL    HW130536   4.257   5.536   5.627
 9879SOL    HW230537   4.256   5.612   5.483
 9880SOL     OW30538   1.463   2.188   5.504
 9880SOL    HW130539   1.497   2.236   5.423
 9880SOL    HW230540   1.530   2.119   5.533
 9881SOL     OW30541   0.638   2.002   6.135
 9881SOL    HW130542   0.695   1.999   6.053
 9881SOL    HW230543   0.636   2.095   6.171
 9882SOL     OW30544   1.346   2.315   3.787
 9882SOL    HW130545   1.351   2.413   3.804
 9882SOL    HW230546   1.435   2.273   3.806
 9883SOL     OW30547   1.610   0.870   1.939
 9883SOL    HW130548   1.605   0.969   1.952
 9883SOL    HW230549   1.658   0.850   1.854
 9884SOL     OW30550   4.210   0.755   4.436
 9884SOL    HW130551   4.218   0.836   4.378
 9884SOL    HW230552   4.134   0.699   4.405
 9885SOL     OW30553   6.363   4.901   4.470
 9885SOL    HW130554   6.307   4.829   4.430
 9885SOL    HW230555   6.453   4.901   4.428
 9886SOL     OW30556   1.026   4.420   2.490
 9886SOL    HW130557   1.019   4.504   2.436
 9886SOL    HW230558   0.939   4.372   2.488
 9887SOL     OW30559   3.584   1.345   0.040
 9887SOL    HW130560   3.622   1.254   0.053
 9887SOL    HW230561   3.486   1.338   0.021
 9888SOL     OW30562   6.966   4.581   0.513
 9888SOL    HW130563   0.013   4.576   0.439
 9888SOL    HW230564   6.891   4.517   0.494
 9889SOL     OW30565   6.321   4.768   0.528
 9889SOL    HW130566   6.359   4.719   0.450
 9889SOL    HW230567   6.391   4.828   0.567
 9890SOL     OW30568   1.517   2.537   1.355
 9890SOL    HW130569   1.605   2.583   1.368
 9890SOL    HW230570   1.473   2.524   1.444
 9891SOL     OW30571   5.569   2.593   0.728
 9891SOL    HW130572   5.523   2.653   0.794
 9891SOL    HW230573   5.553   2.626   0.635
 9892SOL     OW30574   6.797   5.418   0.188
 9892SOL    HW130575   6.820   5.502   0.140
 9892SOL    HW230576   6.792   5.343   0.123
 9893SOL     OW30577   2.595   1.551   0.805
 9893SOL    HW130578   2.524   1.518   0.868
 9893SOL    HW230579   2.592   1.497   0.721
 9894SOL     OW30580   1.153   1.826   0.693
 9894SOL    HW130581   1.138   1.736   0.651
 9894SOL    HW230582   1.073   1.851   0.747
 9895SOL     OW30583   5.350   3.284   5.787
 9895SOL    HW130584   5.393   3.238   5.866
 9895SOL    HW230585   5.312   3.372   5.817
 9896SOL     OW30586   6.678   0.353   0.305
 9896SOL    HW130587   6.719   0.263   0.292
 9896SOL    HW230588   6.744   0.424   0.281
 9897SOL     OW30589   5.667   5.642   3.136
 9897SOL    HW130590   5.570   5.668   3.128
 9897SOL    HW230591   5.677   5.545   3.116
 9898SOL     OW30592   3.315   5.879   5.533
 9898SOL    HW130593   3.310   5.963   5.479
 9898SOL    HW230594   3.239   5.875   5.597
 9899SOL     OW30595   6.991   5.568   0.489
 9899SOL    HW130596   6.928   5.640   0.457
 9899SOL    HW230597   6.940   5.501   0.543
 9900SOL     OW30598   2.196   4.053   3.611
 9900SOL    HW130599   2.236   4.074   3.522
 9900SOL    HW230600   2.195   3.953   3.625
 9901SOL     OW30601   2.602   2.069   5.343
 9901SOL    HW130602   2.558   2.153   5.377
 9901SOL    HW230603   2.568   1.991   5.395
 9902SOL     OW30604   2.096   4.933   6.956
 9902SOL    HW130605   2.151   4.998   6.903
 9902SOL    HW230606   2.148   4.849   6.969
 9903SOL     OW30607   4.876   0.943   2.790
 9903SOL    HW130608   4.930   0.941   2.873
 9903SOL    HW230609   4.876   1.036   2.752
 9904SOL     OW30610   6.979   3.247   6.790
 9904SOL    HW130611   6.920   3.210   6.862
 9904SOL    HW230612   6.962   3.198   6.705
 9905SOL     OW30613   4.220   1.562   0.435
 9905SOL    HW130614   4.168   1.613   0.367
 9905SOL    HW230615   4.288   1.504   0.390
 9906SOL     OW30616   3.964   3.189   3.075
 9906SOL    HW130617   3.964   3.115   3.143
 9906SOL    HW230618   3.913   3.160   2.994
 9907SOL     OW30619   0.228   0.534   1.894
 9907SOL    HW130620   0.160   0.566   1.961
 9907SOL    HW230621   0.254   0.440   1.915
 9908SOL     OW30622   5.066   2.752   2.765
 9908SOL    HW130623   5.082   2.665   2.811
 9908SOL    HW230624   5.121   2.823   2.809
 9909SOL     OW30625   1.944   6.411   4.861
 9909SOL    HW130626   2.013   6.341   4.880
 9909SOL    HW230627   1.921   6.459   4.945
 9910SOL     OW30628   0.817   4.570   2.617
 9910SOL    HW130629   0.775   4.541   2.702
 9910SOL    HW230630   0.788   4.510   2.542
 9911SOL     OW30631   3.882   6.893   2.261
 9911SOL    HW130632   3.854   6.839   2.183
 9911SOL    HW230633   3.858   6.846   2.346
 9912SOL     OW30634   4.884   1.754   0.556
 9912SOL    HW130635   4.853   1.836   0.604
 9912SOL    HW230636   4.828   1.738   0.475
 9913SOL     OW30637   6.079   3.178   0.368
 9913SOL    HW130638   6.147   3.249   0.356
 9913SOL    HW230639   6.101   3.099   0.310
 9914SOL     OW30640   0.705   2.530   4.778
 9914SOL    HW130641   0.665   2.446   4.741
 9914SOL    HW230642   0.633   2.598   4.792
 9915SOL     OW30643   5.065   1.403   3.079
 9915SOL    HW130644   4.968   1.423   3.079
 9915SOL    HW230645   5.117   1.484   3.107
 9916SOL     OW30646   2.209   3.005   2.168
 9916SOL    HW130647   2.235   2.915   2.134
 9916SOL    HW230648   2.292   3.055   2.195
 9917SOL     OW30649   6.845   4.363   5.713
 9917SOL    HW130650   6.804   4.272   5.716
 9917SOL    HW230651   6.811   4.413   5.634
 9918SOL     OW30652   3.883   1.919   2.845
 9918SOL    HW130653   3.820   1.877   2.911
 9918SOL    HW230654   3.931   1.848   2.795
 9919SOL     OW30655   6.186   6.156   1.550
 9919SOL    HW130656   6.187   6.112   1.460
 9919SOL    HW230657   6.093   6.183   1.574
 9920SOL     OW30658   4.257   1.737   2.838
 9920SOL    HW130659   4.240   1.714   2.742
 9920SOL    HW230660   4.179   1.708   2.893
 9921SOL     OW30661   3.902   5.460   5.976
 9921SOL    HW130662   3.906   5.479   5.878
 9921SOL    HW230663   3.826   5.397   5.995
 9922SOL     OW30664   0.461   5.516   0.475
 9922SOL    HW130665   0.432   5.500   0.381
 9922SOL    HW230666   0.556   5.547   0.476
 9923SOL     OW30667   4.899   5.537   0.102
 9923SOL    HW130668   4.931   5.464   0.162
 9923SOL    HW230669   4.966   5.550   0.028
 9924SOL     OW30670   0.445   3.234   4.900
 9924SOL    HW130671   0.390   3.153   4.881
 9924SOL    HW230672   0.460   3.242   4.999
 9925SOL     OW30673   5.202   2.555   4.866
 9925SOL    HW130674   5.216   2.644   4.822
 9925SOL    HW230675   5.107   2.547   4.895
 9926SOL     OW30676   1.897   4.461   6.820
 9926SOL    HW130677   1.977   4.505   6.779
 9926SOL    HW230678   1.926   4.377   6.866
 9927SOL     OW30679   5.725   7.015   2.849
 9927SOL    HW130680   5.671   0.063   2.899
 9927SOL    HW230681   5.737   6.934   2.906
 9928SOL     OW30682   4.974   4.835   1.372
 9928SOL    HW130683   5.030   4.912   1.404
 9928SOL    HW230684   4.984   4.827   1.272
 9929SOL     OW30685   2.591   5.115   4.741
 9929SOL    HW130686   2.655   5.117   4.664
 9929SOL    HW230687   2.642   5.099   4.826
 9930SOL     OW30688   6.962   0.376   4.609
 9930SOL    HW130689   6.976   0.437   4.686
 9930SOL    HW230690   6.902   0.419   4.541
 9931SOL     OW30691   1.232   4.053   4.978
 9931SOL    HW130692   1.185   4.099   4.903
 9931SOL    HW230693   1.331   4.057   4.964
 9932SOL     OW30694   1.093   6.363   6.447
 9932SOL    HW130695   1.128   6.338   6.537
 9932SOL    HW230696   1.119   6.294   6.380
 9933SOL     OW30697   1.201   5.455   2.113
 9933SOL    HW130698   1.218   5.513   2.192
 9933SOL    HW230699   1.124   5.493   2.060
 9934SOL     OW30700   6.257   2.141   5.525
 9934SOL    HW130701   6.172   2.119   5.572
 9934SOL    HW230702   6.237   2.174   5.432
 9935SOL     OW30703   2.816   1.192   6.388
 9935SOL    HW130704   2.764   1.195   6.303
 9935SOL    HW230705   2.796   1.273   6.443
 9936SOL     OW30706   0.447   4.816   4.610
 9936SOL    HW130707   0.494   4.899   4.583
 9936SOL    HW230708   0.360   4.840   4.654
 9937SOL     OW30709   6.978   2.159   5.890
 9937SOL    HW130710   6.911   2.174   5.963
 9937SOL    HW230711   0.028   2.231   5.894
 9938SOL     OW30712   6.472   6.081   2.632
 9938SOL    HW130713   6.544   6.047   2.572
 9938SOL    HW230714   6.395   6.017   2.632
 9939SOL     OW30715   2.993   3.208   1.726
 9939SOL    HW130716   3.019   3.114   1.749
 9939SOL    HW230717   2.926   3.241   1.792
 9940SOL     OW30718   6.729   1.100   0.756
 9940SOL    HW130719   6.748   1.112   0.658
 9940SOL    HW230720   6.803   1.047   0.798
 9941SOL     OW30721   2.919   4.225   5.590
 9941SOL    HW130722   2.871   4.247   5.505
 9941SOL    HW230723   2.927   4.126   5.598
 9942SOL     OW30724   2.686   5.694   2.809
 9942SOL    HW130725   2.617   5.766   2.815
 9942SOL    HW230726   2.775   5.734   2.791
 9943SOL     OW30727   0.404   6.102   6.132
 9943SOL    HW130728   0.446   6.019   6.096
 9943SOL    HW230729   0.443   6.182   6.086
 9944SOL     OW30730   1.127   3.906   6.533
 9944SOL    HW130731   1.223   3.878   6.530
 9944SOL    HW230732   1.074   3.839   6.584
 9945SOL     OW30733   6.561   5.552   0.593
 9945SOL    HW130734   6.562   5.537   0.692
 9945SOL    HW230735   6.631   5.495   0.550
 9946SOL     OW30736   4.931   0.704   5.017
 9946SOL    HW130737   4.865   0.778   5.008
 9946SOL    HW230738   4.932   0.650   4.932
 9947SOL     OW30739   6.595   4.852   4.804
 9947SOL    HW130740   6.578   4.820   4.898
 9947SOL    HW230741   6.687   4.892   4.798
 9948SOL     OW30742   4.699   4.644   4.896
 9948SOL    HW130743   4.606   4.627   4.866
 9948SOL    HW230744   4.703   4.640   4.996
 9949SOL     OW30745   5.357   5.343   3.146
 9949SOL    HW130746   5.268   5.373   3.113
 9949SOL    HW230747   5.427   5.359   3.076
 9950SOL     OW30748   4.190   6.086   5.365
 9950SOL    HW130749   4.135   6.166   5.386
 9950SOL    HW230750   4.215   6.040   5.451
 9951SOL     OW30751   5.736   2.620   3.123
 9951SOL    HW130752   5.645   2.579   3.128
 9951SOL    HW230753   5.748   2.683   3.200
 9952SOL     OW30754   6.796   4.114   0.612
 9952SOL    HW130755   6.734   4.052   0.565
 9952SOL    HW230756   6.744   4.190   0.651
 9953SOL     OW30757   6.299   1.529   3.416
 9953SOL    HW130758   6.340   1.497   3.501
 9953SOL    HW230759   6.334   1.475   3.339
 9954SOL     OW30760   5.865   7.009   5.359
 9954SOL    HW130761   5.832   0.064   5.301
 9954SOL    HW230762   5.801   6.932   5.353
 9955SOL     OW30763   6.939   3.967   4.455
 9955SOL    HW130764   6.852   3.918   4.456
 9955SOL    HW230765   6.932   4.044   4.391
 9956SOL     OW30766   1.903   6.356   1.986
 9956SOL    HW130767   1.915   6.257   1.997
 9956SOL    HW230768   1.882   6.376   1.891
 9957SOL     OW30769   6.535   4.513   3.425
 9957SOL    HW130770   6.493   4.459   3.498
 9957SOL    HW230771   6.574   4.597   3.463
 9958SOL     OW30772   2.794   3.992   1.175
 9958SOL    HW130773   2.743   4.076   1.193
 9958SOL    HW230774   2.860   3.977   1.249
 9959SOL     OW30775   3.929   3.377   7.002
 9959SOL    HW130776   3.887   3.446   6.943
 9959SOL    HW230777   3.978   3.311   6.945
 9960SOL     OW30778   6.619   1.381   2.394
 9960SOL    HW130779   6.576   1.405   2.481
 9960SOL    HW230780   6.612   1.459   2.331
 9961SOL     OW30781   1.760   5.500   4.340
 9961SOL    HW130782   1.852   5.471   4.365
 9961SOL    HW230783   1.717   5.546   4.418
 9962SOL     OW30784   4.723   6.285   5.048
 9962SOL    HW130785   4.782   6.294   4.968
 9962SOL    HW230786   4.734   6.365   5.106
 9963SOL     OW30787   3.292   1.260   1.081
 9963SOL    HW130788   3.239   1.260   0.997
 9963SOL    HW230789   3.251   1.324   1.146
 9964SOL     OW30790   4.225   6.160   5.015
 9964SOL    HW130791   4.317   6.184   4.984
 9964SOL    HW230792   4.175   6.115   4.941
 9965SOL     OW30793   3.987   0.128   0.224
 9965SOL    HW130794   3.963   0.125   0.127
 9965SOL    HW230795   3.904   0.119   0.279
 9966SOL     OW30796   0.582   6.232   2.147
 9966SOL    HW130797   0.610   6.265   2.057
 9966SOL    HW230798   0.621   6.141   2.163
 9967SOL     OW30799   1.513   5.524   1.505
 9967SOL    HW130800   1.613   5.528   1.513
 9967SOL    HW230801   1.479   5.445   1.555
 9968SOL     OW30802   3.992   3.825   2.698
 9968SOL    HW130803   4.030   3.748   2.750
 9968SOL    HW230804   3.976   3.902   2.759
 9969SOL     OW30805   1.448   3.423   1.960
 9969SOL    HW130806   1.365   3.473   1.934
 9969SOL    HW230807   1.525   3.486   1.963
 9970SOL     OW30808   5.992   4.072   1.822
 9970SOL    HW130809   5.895   4.088   1.802
 9970SOL    HW230810   6.032   4.015   1.750
 9971SOL     OW30811   2.195   4.878   0.736
 9971SOL    HW130812   2.113   4.900   0.682
 9971SOL    HW230813   2.181   4.790   0.782
 9972SOL     OW30814   0.121   4.388   2.321
 9972SOL    HW130815   0.068   4.472   2.313
 9972SOL    HW230816   0.217   4.407   2.304
 9973SOL     OW30817   6.318   0.929   4.078
 9973SOL    HW130818   6.372   1.013   4.080
 9973SOL    HW230819   6.303   0.902   3.983
 9974SOL     OW30820   1.891   1.174   3.886
 9974SOL    HW130821   1.938   1.091   3.856
 9974SOL    HW230822   1.873   1.170   3.984
 9975SOL     OW30823   0.474   2.631   0.136
 9975SOL    HW130824   0.559   2.659   0.179
 9975SOL    HW230825   0.397   2.680   0.177
 9976SOL     OW30826   1.741   6.956   5.019
 9976SOL    HW130827   1.661   6.978   4.964
 9976SOL    HW230828   1.723   6.872   5.072
 9977SOL     OW30829   6.323   4.316   4.727
 9977SOL    HW130830   6.277   4.365   4.652
 9977SOL    HW230831   6.418   4.299   4.702
 9978SOL     OW30832   6.762   1.749   4.087
 9978SOL    HW130833   6.774   1.736   3.988
 9978SOL    HW230834   6.846   1.725   4.134
 9979SOL     OW30835   6.644   3.588   4.812
 9979SOL    HW130836   6.688   3.509   4.855
 9979SOL    HW230837   6.546   3.584   4.828
 9980SOL     OW30838   3.931   0.461   6.201
 9980SOL    HW130839   3.893   0.411   6.279
 9980SOL    HW230840   3.958   0.553   6.231
 9981SOL     OW30841   3.381   2.071   3.998
 9981SOL    HW130842   3.475   2.071   4.033
 9981SOL    HW230843   3.320   2.108   4.069
 9982SOL     OW30844   7.016   6.286   4.170
 9982SOL    HW130845   0.035   6.375   4.145
 9982SOL    HW230846   0.067   6.229   4.212
 9983SOL     OW30847   6.823   1.737   2.063
 9983SOL    HW130848   6.750   1.751   1.996
 9983SOL    HW230849   6.905   1.703   2.016
 9984SOL     OW30850   2.979   2.001   6.667
 9984SOL    HW130851   2.881   2.017   6.678
 9984SOL    HW230852   3.017   1.963   6.751
 9985SOL     OW30853   1.402   0.725   2.125
 9985SOL    HW130854   1.476   0.793   2.122
 9985SOL    HW230855   1.417   0.657   2.053
 9986SOL     OW30856   5.400   3.988   4.991
 9986SOL    HW130857   5.484   4.041   5.006
 9986SOL    HW230858   5.410   3.931   4.909
 9987SOL     OW30859   6.754   3.832   5.773
 9987SOL    HW130860   6.825   3.786   5.827
 9987SOL    HW230861   6.763   3.807   5.677
 9988SOL     OW30862   6.902   0.057   5.281
 9988SOL    HW130863   6.979   0.114   5.250
 9988SOL    HW230864   6.848   0.029   5.202
 9989SOL     OW30865   0.573   3.021   5.265
 9989SOL    HW130866   0.617   3.013   5.175
 9989SOL    HW230867   0.639   2.995   5.336
 9990SOL     OW30868   1.102   5.114   2.984
 9990SOL    HW130869   1.099   5.048   3.059
 9990SOL    HW230870   1.009   5.139   2.958
 9991SOL     OW30871   3.665   2.038   3.529
 9991SOL    HW130872   3.664   2.050   3.430
 9991SOL    HW230873   3.571   2.024   3.561
 9992SOL     OW30874   6.736   5.720   6.178
 9992SOL    HW130875   6.827   5.757   6.197
 9992SOL    HW230876   6.741   5.656   6.100
 9993SOL     OW30877   0.826   1.871   1.709
 9993SOL    HW130878   0.816   1.970   1.718
 9993SOL    HW230879   0.785   1.842   1.623
 9994SOL     OW30880   5.903   4.670   3.420
 9994SOL    HW130881   5.930   4.653   3.515
 9994SOL    HW230882   5.910   4.768   3.401
 9995SOL     OW30883   5.138   0.887   4.836
 9995SOL    HW130884   5.103   0.837   4.756
 9995SOL    HW230885   5.172   0.822   4.904
 9996SOL     OW30886   2.784   4.001   0.155
 9996SOL    HW130887   2.824   4.063   0.088
 9996SOL    HW230888   2.848   3.927   0.176
 9997SOL     OW30889   2.740   0.009   5.322
 9997SOL    HW130890   2.686   6.945   5.316
 9997SOL    HW230891   2.836   7.005   5.337
 9998SOL     OW30892   5.843   5.687   5.343
 9998SOL    HW130893   5.748   5.677   5.372
 9998SOL    HW230894   5.884   5.597   5.330
 9999SOL     OW30895   6.519   1.939   4.793
 9999SOL    HW130896   6.461   2.001   4.845
 9999SOL    HW230897   6.522   1.969   4.697
10000SOL     OW30898   0.229   2.821   6.300
10000SOL    HW130899   0.292   2.779   6.236
10000SOL    HW230900   0.256   2.916   6.316
10001SOL     OW30901   4.459   7.009   2.621
10001SOL    HW130902   4.495   6.918   2.642
10001SOL    HW230903   4.535   0.050   2.596
10002SOL     OW30904   0.565   0.889   2.227
10002SOL    HW130905   0.574   0.807   2.170
10002SOL    HW230906   0.635   0.955   2.200
10003SOL     OW30907   4.253   2.291   3.595
10003SOL    HW130908   4.272   2.325   3.687
10003SOL    HW230909   4.179   2.224   3.599
10004SOL     OW30910   0.100   1.407   3.106
10004SOL    HW130911   0.199   1.402   3.111
10004SOL    HW230912   0.061   1.315   3.106
10005SOL     OW30913   5.066   6.563   4.181
10005SOL    HW130914   5.075   6.615   4.097
10005SOL    HW230915   4.969   6.545   4.200
10006SOL     OW30916   3.372   0.114   4.300
10006SOL    HW130917   3.383   0.070   4.211
10006SOL    HW230918   3.457   0.159   4.327
10007SOL     OW30919   6.523   3.044   3.856
10007SOL    HW130920   6.507   2.969   3.920
10007SOL    HW230921   6.501   3.131   3.901
10008SOL     OW30922   2.859   0.022   3.924
10008SOL    HW130923   2.874   0.065   3.835
10008SOL    HW230924   2.946   7.007   3.959
10009SOL     OW30925   1.048   4.507   1.953
10009SOL    HW130926   1.120   4.576   1.959
10009SOL    HW230927   1.079   4.422   1.995
10010SOL     OW30928   0.834   1.167   6.117
10010SOL    HW130929   0.924   1.203   6.092
10010SOL    HW230930   0.828   1.071   6.088
10011SOL     OW30931   0.034   6.747   5.030
10011SOL    HW130932   6.962   6.725   5.061
10011SOL    HW230933   0.041   6.845   5.011
10012SOL     OW30934   5.711   1.489   3.787
10012SOL    HW130935   5.645   1.414   3.781
10012SOL    HW230936   5.676   1.560   3.847
10013SOL     OW30937   0.597   0.801   2.757
10013SOL    HW130938   0.507   0.767   2.788
10013SOL    HW230939   0.668   0.757   2.812
10014SOL     OW30940   1.029   4.469   6.183
10014SOL    HW130941   1.025   4.566   6.208
10014SOL    HW230942   0.952   4.447   6.123
10015SOL     OW30943   1.820   4.468   0.432
10015SOL    HW130944   1.819   4.515   0.520
10015SOL    HW230945   1.731   4.477   0.388
10016SOL     OW30946   2.598   0.498   5.946
10016SOL    HW130947   2.594   0.400   5.969
10016SOL    HW230948   2.631   0.509   5.853
10017SOL     OW30949   1.288   2.270   4.918
10017SOL    HW130950   1.299   2.276   4.819
10017SOL    HW230951   1.353   2.204   4.955
10018SOL     OW30952   4.828   6.902   6.176
10018SOL    HW130953   4.859   6.974   6.237
10018SOL    HW230954   4.906   6.844   6.150
10019SOL     OW30955   0.937   1.393   2.625
10019SOL    HW130956   0.979   1.403   2.535
10019SOL    HW230957   0.883   1.475   2.645
10020SOL     OW30958   0.448   3.042   1.171
10020SOL    HW130959   0.544   3.040   1.143
10020SOL    HW230960   0.394   2.987   1.108
10021SOL     OW30961   0.139   3.804   0.343
10021SOL    HW130962   0.047   3.844   0.348
10021SOL    HW230963   0.141   3.734   0.271
10022SOL     OW30964   1.747   1.635   6.322
10022SOL    HW130965   1.692   1.575   6.264
10022SOL    HW230966   1.723   1.619   6.418
10023SOL     OW30967   0.297   3.627   0.479
10023SOL    HW130968   0.233   3.676   0.420
10023SOL    HW230969   0.251   3.547   0.518
10024SOL     OW30970   1.707   4.856   4.009
10024SOL    HW130971   1.766   4.785   4.048
10024SOL    HW230972   1.670   4.824   3.922
10025SOL     OW30973   1.500   1.354   0.889
10025SOL    HW130974   1.491   1.454   0.885
10025SOL    HW230975   1.589   1.327   0.854
10026SOL     OW30976   6.771   0.326   3.581
10026SOL    HW130977   6.781   0.290   3.674
10026SOL    HW230978   6.849   0.297   3.526
10027SOL     OW30979   4.593   2.366   5.379
10027SOL    HW130980   4.659   2.362   5.454
10027SOL    HW230981   4.558   2.459   5.369
10028SOL     OW30982   2.098   0.676   1.069
10028SOL    HW130983   2.073   0.763   1.113
10028SOL    HW230984   2.110   0.606   1.140
10029SOL     OW30985   5.458   1.749   3.474
10029SOL    HW130986   5.519   1.670   3.470
10029SOL    HW230987   5.513   1.833   3.470
10030SOL     OW30988   1.776   0.546   3.142
10030SOL    HW130989   1.817   0.463   3.104
10030SOL    HW230990   1.791   0.549   3.240
10031SOL     OW30991   6.335   4.355   5.221
10031SOL    HW130992   6.326   4.257   5.207
10031SOL    HW230993   6.343   4.401   5.133
10032SOL     OW30994   3.038   1.508   4.789
10032SOL    HW130995   3.081   1.594   4.761
10032SOL    HW230996   2.947   1.527   4.826
10033SOL     OW30997   5.531   2.741   4.938
10033SOL    HW130998   5.612   2.800   4.930
10033SOL    HW230999   5.549   2.668   5.004
10034SOL     OW31000   5.507   0.445   5.866
10034SOL    HW131001   5.581   0.512   5.859
10034SOL    HW231002   5.445   0.456   5.789
10035SOL     OW31003   0.203   6.340   2.034
10035SOL    HW131004   0.170   6.344   1.940
10035SOL    HW231005   0.216   6.245   2.061
10036SOL     OW31006   7.013   1.163   0.531
10036SOL    HW131007   6.923   1.124   0.515
10036SOL    HW231008   0.062   1.110   0.480
10037SOL     OW31009   0.481   0.027   0.980
10037SOL    HW131010   0.482   0.074   0.892
10037SOL    HW231011   0.501   6.950   0.966
10038SOL     OW31012   6.370   0.476   1.401
10038SOL    HW131013   6.368   0.459   1.303
10038SOL    HW231014   6.388   0.573   1.417
10039SOL     OW31015   3.203   0.667   3.555
10039SOL    HW131016   3.139   0.594   3.530
10039SOL    HW231017   3.292   0.647   3.514
10040SOL     OW31018   0.918   2.981   1.312
10040SOL    HW131019   0.998   2.925   1.292
10040SOL    HW231020   0.895   2.973   1.409
10041SOL     OW31021   2.223   5.878   0.154
10041SOL    HW131022   2.284   5.809   0.115
10041SOL    HW231023   2.130   5.861   0.123
10042SOL     OW31024   5.917   3.334   2.690
10042SOL    HW131025   5.856   3.262   2.726
10042SOL    HW231026   5.880   3.424   2.714
10043SOL     OW31027   0.488   1.854   4.734
10043SOL    HW131028   0.466   1.803   4.651
10043SOL    HW231029   0.405   1.868   4.788
10044SOL     OW31030   3.324   1.077   5.709
10044SOL    HW131031   3.262   1.001   5.691
10044SOL    HW231032   3.417   1.043   5.722
10045SOL     OW31033   3.148   1.299   0.814
10045SOL    HW131034   3.088   1.378   0.814
10045SOL    HW231035   3.165   1.270   0.719
10046SOL     OW31036   0.986   5.377   0.705
10046SOL    HW131037   1.014   5.375   0.609
10046SOL    HW231038   0.918   5.449   0.718
10047SOL     OW31039   0.976   3.403   1.019
10047SOL    HW131040   1.011   3.324   1.070
10047SOL    HW231041   1.052   3.464   0.996
10048SOL     OW31042   6.170   5.285   3.420
10048SOL    HW131043   6.125   5.360   3.467
10048SOL    HW231044   6.181   5.208   3.483
10049SOL     OW31045   6.625   0.886   5.438
10049SOL    HW131046   6.657   0.803   5.485
10049SOL    HW231047   6.677   0.899   5.354
10050SOL     OW31048   0.313   2.741   6.789
10050SOL    HW131049   0.261   2.742   6.875
10050SOL    HW231050   0.285   2.661   6.735
10051SOL     OW31051   2.357   2.563   4.028
10051SOL    HW131052   2.349   2.644   3.970
10051SOL    HW231053   2.388   2.590   4.119
10052SOL     OW31054   1.184   6.769   3.479
10052SOL    HW131055   1.248   6.692   3.487
10052SOL    HW231056   1.119   6.751   3.405
10053SOL     OW31057   5.559   5.277   3.944
10053SOL    HW131058   5.557   5.365   3.898
10053SOL    HW231059   5.476   5.266   3.999
10054SOL     OW31060   6.925   3.838   5.044
10054SOL    HW131061   6.963   3.748   5.022
10054SOL    HW231062   6.871   3.831   5.128
10055SOL     OW31063   1.828   2.501   6.446
10055SOL    HW131064   1.881   2.574   6.488
10055SOL    HW231065   1.835   2.507   6.346
10056SOL     OW31066   5.947   2.086   3.408
10056SOL    HW131067   5.971   1.995   3.373
10056SOL    HW231068   5.963   2.089   3.506
10057SOL     OW31069   5.636   5.376   5.233
10057SOL    HW131070   5.578   5.381   5.315
10057SOL    HW231071   5.730   5.355   5.260
10058SOL     OW31072   0.152   3.428   4.883
10058SOL    HW131073   0.131   3.332   4.900
10058SOL    HW231074   0.241   3.451   4.923
10059SOL     OW31075   5.772   0.242   0.184
10059SOL    HW131076   5.686   0.237   0.132
10059SOL    HW231077   5.778   0.330   0.230
10060SOL     OW31078   2.658   1.864   1.730
10060SOL    HW131079   2.730   1.867   1.661
10060SOL    HW231080   2.599   1.785   1.715
10061SOL     OW31081   3.856   0.082   2.460
10061SOL    HW131082   3.780   0.064   2.397
10061SOL    HW231083   3.941   0.047   2.420
10062SOL     OW31084   0.829   6.814   4.962
10062SOL    HW131085   0.832   6.743   5.032
10062SOL    HW231086   0.817   6.772   4.872
10063SOL     OW31087   2.476   2.606   4.956
10063SOL    HW131088   2.377   2.609   4.966
10063SOL    HW231089   2.517   2.689   4.996
10064SOL     OW31090   2.545   0.270   0.338
10064SOL    HW131091   2.594   0.215   0.405
10064SOL    HW231092   2.454   0.292   0.373
10065SOL     OW31093   0.552   2.420   1.679
10065SOL    HW131094   0.500   2.480   1.740
10065SOL    HW231095   0.577   2.336   1.729
10066SOL     OW31096   6.235   4.477   4.512
10066SOL    HW131097   6.317   4.481   4.455
10066SOL    HW231098   6.154   4.481   4.455
10067SOL     OW31099   6.749   2.542   5.038
10067SOL    HW131100   6.769   2.445   5.055
10067SOL    HW231101   6.779   2.596   5.117
10068SOL     OW31102   1.827   3.533   3.031
10068SOL    HW131103   1.846   3.603   2.963
10068SOL    HW231104   1.796   3.449   2.986
10069SOL     OW31105   2.849   4.769   0.097
10069SOL    HW131106   2.905   4.848   0.122
10069SOL    HW231107   2.811   4.783   0.005
10070SOL     OW31108   4.650   6.739   6.522
10070SOL    HW131109   4.688   6.648   6.539
10070SOL    HW231110   4.687   6.776   6.437
10071SOL     OW31111   6.244   0.625   4.874
10071SOL    HW131112   6.162   0.590   4.920
10071SOL    HW231113   6.263   0.717   4.906
10072SOL     OW31114   6.195   3.214   1.296
10072SOL    HW131115   6.152   3.166   1.373
10072SOL    HW231116   6.164   3.174   1.210
10073SOL     OW31117   5.857   4.546   5.298
10073SOL    HW131118   5.881   4.470   5.359
10073SOL    HW231119   5.762   4.573   5.315
10074SOL     OW31120   2.092   5.055   0.508
10074SOL    HW131121   2.143   4.994   0.448
10074SOL    HW231122   2.156   5.104   0.567
10075SOL     OW31123   1.295   3.273   2.131
10075SOL    HW131124   1.357   3.319   2.066
10075SOL    HW231125   1.251   3.342   2.189
10076SOL     OW31126   5.284   5.175   4.363
10076SOL    HW131127   5.202   5.232   4.359
10076SOL    HW231128   5.259   5.082   4.389
10077SOL     OW31129   5.235   3.907   6.692
10077SOL    HW131130   5.226   3.865   6.782
10077SOL    HW231131   5.192   3.997   6.692
10078SOL     OW31132   6.197   5.205   4.747
10078SOL    HW131133   6.261   5.130   4.729
10078SOL    HW231134   6.218   5.281   4.686
10079SOL     OW31135   5.140   3.741   4.126
10079SOL    HW131136   5.109   3.675   4.058
10079SOL    HW231137   5.178   3.692   4.204
10080SOL     OW31138   5.368   1.506   5.878
10080SOL    HW131139   5.444   1.474   5.821
10080SOL    HW231140   5.288   1.447   5.863
10081SOL     OW31141   1.112   4.564   0.789
10081SOL    HW131142   1.173   4.630   0.832
10081SOL    HW231143   1.163   4.479   0.771
10082SOL     OW31144   1.393   4.711   1.778
10082SOL    HW131145   1.378   4.806   1.803
10082SOL    HW231146   1.452   4.667   1.845
10083SOL     OW31147   3.161   5.909   2.372
10083SOL    HW131148   3.109   5.841   2.320
10083SOL    HW231149   3.136   6.001   2.342
10084SOL     OW31150   0.770   1.801   4.496
10084SOL    HW131151   0.868   1.817   4.482
10084SOL    HW231152   0.736   1.867   4.563
10085SOL     OW31153   5.220   0.151   0.872
10085SOL    HW131154   5.271   0.105   0.945
10085SOL    HW231155   5.123   0.148   0.893
10086SOL     OW31156   4.407   6.792   3.327
10086SOL    HW131157   4.329   6.855   3.333
10086SOL    HW231158   4.488   6.836   3.367
10087SOL     OW31159   1.216   5.677   5.164
10087SOL    HW131160   1.219   5.736   5.245
10087SOL    HW231161   1.162   5.595   5.185
10088SOL     OW31162   6.748   3.046   2.200
10088SOL    HW131163   6.681   3.121   2.201
10088SOL    HW231164   6.821   3.068   2.136
10089SOL     OW31165   3.862   0.528   1.506
10089SOL    HW131166   3.835   0.440   1.466
10089SOL    HW231167   3.863   0.521   1.605
10090SOL     OW31168   1.984   6.373   3.418
10090SOL    HW131169   1.947   6.281   3.430
10090SOL    HW231170   1.952   6.411   3.331
10091SOL     OW31171   5.716   4.721   4.829
10091SOL    HW131172   5.670   4.633   4.840
10091SOL    HW231173   5.702   4.777   4.910
10092SOL     OW31174   1.124   2.382   4.210
10092SOL    HW131175   1.208   2.392   4.158
10092SOL    HW231176   1.138   2.416   4.303
10093SOL     OW31177   4.394   4.259   6.240
10093SOL    HW131178   4.436   4.208   6.315
10093SOL    HW231179   4.295   4.245   6.242
10094SOL     OW31180   3.843   1.879   1.247
10094SOL    HW131181   3.746   1.870   1.269
10094SOL    HW231182   3.878   1.966   1.281
10095SOL     OW31183   4.386   3.252   5.369
10095SOL    HW131184   4.437   3.167   5.381
10095SOL    HW231185   4.288   3.232   5.366
10096SOL     OW31186   6.984   3.446   1.890
10096SOL    HW131187   6.915   3.501   1.843
10096SOL    HW231188   6.947   3.415   1.977
10097SOL     OW31189   0.419   1.674   0.852
10097SOL    HW131190   0.470   1.663   0.766
10097SOL    HW231191   0.389   1.769   0.861
10098SOL     OW31192   3.091   5.211   4.598
10098SOL    HW131193   3.143   5.286   4.556
10098SOL    HW231194   2.996   5.238   4.610
10099SOL     OW31195   0.297   5.166   2.951
10099SOL    HW131196   0.260   5.198   2.863
10099SOL    HW231197   0.358   5.236   2.988
10100SOL     OW31198   5.410   4.574   4.117
10100SOL    HW131199   5.459   4.580   4.031
10100SOL    HW231200   5.383   4.666   4.147
10101SOL     OW31201   6.526   3.380   0.405
10101SOL    HW131202   6.563   3.393   0.497
10101SOL    HW231203   6.601   3.365   0.341
10102SOL     OW31204   6.850   4.892   3.595
10102SOL    HW131205   6.802   4.970   3.556
10102SOL    HW231206   6.949   4.905   3.586
10103SOL     OW31207   0.497   6.346   6.914
10103SOL    HW131208   0.586   6.387   6.892
10103SOL    HW231209   0.493   6.328   7.013
10104SOL     OW31210   2.724   0.817   4.430
10104SOL    HW131211   2.816   0.849   4.452
10104SOL    HW231212   2.721   0.788   4.335
10105SOL     OW31213   2.491   1.261   4.056
10105SOL    HW131214   2.553   1.340   4.061
10105SOL    HW231215   2.504   1.204   4.137
10106SOL     OW31216   5.602   4.351   1.518
10106SOL    HW131217   5.648   4.440   1.517
10106SOL    HW231218   5.669   4.279   1.534
10107SOL     OW31219   5.283   5.490   0.095
10107SOL    HW131220   5.246   5.515   0.184
10107SOL    HW231221   5.359   5.550   0.072
10108SOL     OW31222   2.224   2.559   5.096
10108SOL    HW131223   2.131   2.528   5.078
10108SOL    HW231224   2.226   2.609   5.183
10109SOL     OW31225   1.151   2.138   1.166
10109SOL    HW131226   1.210   2.208   1.125
10109SOL    HW231227   1.152   2.148   1.266
10110SOL     OW31228   5.849   5.798   2.993
10110SOL    HW131229   5.806   5.727   3.049
10110SOL    HW231230   5.853   5.884   3.045
10111SOL     OW31231   0.049   2.732   2.006
10111SOL    HW131232   0.049   2.684   2.094
10111SOL    HW231233   0.063   2.667   1.932
10112SOL     OW31234   6.325   2.522   3.942
10112SOL    HW131235   6.228   2.513   3.964
10112SOL    HW231236   6.337   2.596   3.875
10113SOL     OW31237   5.762   0.341   6.720
10113SOL    HW131238   5.758   0.321   6.622
10113SOL    HW231239   5.847   0.389   6.741
10114SOL     OW31240   6.093   2.992   2.063
10114SOL    HW131241   6.096   2.946   1.974
10114SOL    HW231242   6.092   2.924   2.136
10115SOL     OW31243   3.442   2.527   5.830
10115SOL    HW131244   3.421   2.571   5.918
10115SOL    HW231245   3.539   2.500   5.830
10116SOL     OW31246   0.543   0.301   6.196
10116SOL    HW131247   0.530   0.389   6.150
10116SOL    HW231248   0.529   0.313   6.294
10117SOL     OW31249   6.637   3.990   2.982
10117SOL    HW131250   6.710   3.947   3.035
10117SOL    HW231251   6.554   3.935   2.987
10118SOL     OW31252   3.663   4.965   3.497
10118SOL    HW131253   3.584   4.997   3.550
10118SOL    HW231254   3.726   5.040   3.482
10119SOL     OW31255   5.873   6.232   6.672
10119SOL    HW131256   5.836   6.232   6.579
10119SOL    HW231257   5.898   6.325   6.699
10120SOL     OW31258   2.673   2.008   2.973
10120SOL    HW131259   2.584   1.984   2.935
10120SOL    HW231260   2.699   1.941   3.043
10121SOL     OW31261   6.992   5.122   1.165
10121SOL    HW131262   6.949   5.034   1.182
10121SOL    HW231263   0.048   5.135   1.228
10122SOL     OW31264   1.937   0.359   3.387
10122SOL    HW131265   1.882   0.377   3.469
10122SOL    HW231266   2.007   0.430   3.378
10123SOL     OW31267   0.334   5.939   6.346
10123SOL    HW131268   0.353   6.008   6.276
10123SOL    HW231269   0.415   5.927   6.403
10124SOL     OW31270   2.325   5.483   2.689
10124SOL    HW131271   2.391   5.488   2.615
10124SOL    HW231272   2.267   5.564   2.688
10125SOL     OW31273   0.879   0.421   4.863
10125SOL    HW131274   0.978   0.411   4.871
10125SOL    HW231275   0.856   0.448   4.769
10126SOL     OW31276   6.613   6.189   5.611
10126SOL    HW131277   6.644   6.246   5.687
10126SOL    HW231278   6.691   6.145   5.567
10127SOL     OW31279   2.417   6.788   6.222
10127SOL    HW131280   2.515   6.780   6.240
10127SOL    HW231281   2.399   6.769   6.125
10128SOL     OW31282   2.264   2.943   7.005
10128SOL    HW131283   2.205   2.942   0.066
10128SOL    HW231284   2.353   2.904   0.008
10129SOL     OW31285   6.099   1.985   5.082
10129SOL    HW131286   6.118   1.887   5.080
10129SOL    HW231287   6.000   2.000   5.074
10130SOL     OW31288   0.155   1.883   3.958
10130SOL    HW131289   0.196   1.807   4.009
10130SOL    HW231290   0.194   1.887   3.867
10131SOL     OW31291   1.965   6.281   5.170
10131SOL    HW131292   2.061   6.297   5.148
10131SOL    HW231293   1.949   6.298   5.267
10132SOL     OW31294   5.243   6.599   2.222
10132SOL    HW131295   5.209   6.664   2.154
10132SOL    HW231296   5.265   6.647   2.306
10133SOL     OW31297   5.668   6.266   0.861
10133SOL    HW131298   5.696   6.179   0.903
10133SOL    HW231299   5.747   6.311   0.820
10134SOL     OW31300   0.145   6.739   3.479
10134SOL    HW131301   0.054   6.765   3.510
10134SOL    HW231302   0.188   6.680   3.547
10135SOL     OW31303   6.097   6.760   3.001
10135SOL    HW131304   6.150   6.835   2.962
10135SOL    HW231305   6.111   6.677   2.946
10136SOL     OW31306   4.638   1.347   3.350
10136SOL    HW131307   4.560   1.409   3.360
10136SOL    HW231308   4.722   1.399   3.365
10137SOL     OW31309   6.457   5.575   4.539
10137SOL    HW131310   6.516   5.503   4.501
10137SOL    HW231311   6.513   5.654   4.563
10138SOL     OW31312   6.875   2.730   2.266
10138SOL    HW131313   6.890   2.809   2.327
10138SOL    HW231314   6.930   2.653   2.298
10139SOL     OW31315   3.087   2.946   6.513
10139SOL    HW131316   3.044   2.923   6.426
10139SOL    HW231317   3.089   3.046   6.523
10140SOL     OW31318   0.715   5.909   5.199
10140SOL    HW131319   0.684   5.856   5.120
10140SOL    HW231320   0.678   5.868   5.283
10141SOL     OW31321   2.046   2.709   3.994
10141SOL    HW131322   2.140   2.741   4.004
10141SOL    HW231323   2.039   2.614   4.027
10142SOL     OW31324   4.751   5.741   3.191
10142SOL    HW131325   4.826   5.685   3.153
10142SOL    HW231326   4.681   5.680   3.228
10143SOL     OW31327   5.787   2.846   5.970
10143SOL    HW131328   5.797   2.862   5.871
10143SOL    HW231329   5.824   2.756   5.993
10144SOL     OW31330   3.276   0.092   0.719
10144SOL    HW131331   3.224   0.029   0.662
10144SOL    HW231332   3.278   0.182   0.676
10145SOL     OW31333   6.488   6.717   6.308
10145SOL    HW131334   6.555   6.714   6.235
10145SOL    HW231335   6.533   6.700   6.396
10146SOL     OW31336   1.467   3.196   5.399
10146SOL    HW131337   1.472   3.097   5.395
10146SOL    HW231338   1.376   3.225   5.429
10147SOL     OW31339   3.781   5.984   6.071
10147SOL    HW131340   3.768   5.988   5.971
10147SOL    HW231341   3.693   5.967   6.115
10148SOL     OW31342   0.798   4.429   6.777
10148SOL    HW131343   0.721   4.388   6.728
10148SOL    HW231344   0.797   4.528   6.763
10149SOL     OW31345   3.896   3.598   1.786
10149SOL    HW131346   3.868   3.681   1.737
10149SOL    HW231347   3.992   3.605   1.811
10150SOL     OW31348   4.798   4.123   1.405
10150SOL    HW131349   4.710   4.080   1.424
10150SOL    HW231350   4.819   4.116   1.308
10151SOL     OW31351   6.999   0.938   6.167
10151SOL    HW131352   0.049   0.959   6.236
10151SOL    HW231353   6.909   0.964   6.201
10152SOL     OW31354   3.752   6.932   3.083
10152SOL    HW131355   3.746   6.832   3.090
10152SOL    HW231356   3.846   6.961   3.104
10153SOL     OW31357   4.943   4.213   1.754
10153SOL    HW131358   4.962   4.152   1.677
10153SOL    HW231359   4.872   4.278   1.729
10154SOL     OW31360   4.032   5.113   5.305
10154SOL    HW131361   3.961   5.047   5.281
10154SOL    HW231362   4.106   5.107   5.238
10155SOL     OW31363   4.294   1.451   3.670
10155SOL    HW131364   4.289   1.499   3.583
10155SOL    HW231365   4.336   1.511   3.739
10156SOL     OW31366   3.915   1.469   5.754
10156SOL    HW131367   3.883   1.555   5.795
10156SOL    HW231368   4.004   1.484   5.711
10157SOL     OW31369   0.358   4.399   1.226
10157SOL    HW131370   0.354   4.305   1.259
10157SOL    HW231371   0.431   4.406   1.157
10158SOL     OW31372   5.739   5.358   0.002
10158SOL    HW131373   5.712   5.450   6.994
10158SOL    HW231374   5.836   5.345   7.002
10159SOL     OW31375   3.216   3.003   1.943
10159SOL    HW131376   3.211   3.099   1.971
10159SOL    HW231377   3.274   2.953   2.008
10160SOL     OW31378   0.015   4.124   2.455
10160SOL    HW131379   0.074   4.201   2.429
10160SOL    HW231380   6.975   4.152   2.530
10161SOL     OW31381   5.511   3.182   6.042
10161SOL    HW131382   5.522   3.228   6.131
10161SOL    HW231383   5.522   3.084   6.054
10162SOL     OW31384   1.799   3.093   2.301
10162SOL    HW131385   1.820   3.133   2.212
10162SOL    HW231386   1.790   2.994   2.291
10163SOL     OW31387   2.824   5.282   4.655
10163SOL    HW131388   2.812   5.352   4.584
10163SOL    HW231389   2.783   5.314   4.740
10164SOL     OW31390   6.824   1.060   3.578
10164SOL    HW131391   6.738   1.109   3.565
10164SOL    HW231392   6.888   1.117   3.630
10165SOL     OW31393   1.215   3.575   4.016
10165SOL    HW131394   1.154   3.653   4.010
10165SOL    HW231395   1.289   3.595   4.081
10166SOL     OW31396   2.486   6.442   2.695
10166SOL    HW131397   2.567   6.427   2.753
10166SOL    HW231398   2.438   6.355   2.684
10167SOL     OW31399   2.758   2.099   6.486
10167SOL    HW131400   2.834   2.100   6.421
10167SOL    HW231401   2.735   2.005   6.509
10168SOL     OW31402   0.134   0.068   6.914
10168SOL    HW131403   0.211   0.051   6.976
10168SOL    HW231404   0.109   0.165   6.919
10169SOL     OW31405   4.869   4.962   3.385
10169SOL    HW131406   4.866   4.862   3.378
10169SOL    HW231407   4.813   4.992   3.462
10170SOL     OW31408   5.056   6.194   0.590
10170SOL    HW131409   5.126   6.150   0.534
10170SOL    HW231410   5.073   6.293   0.592
10171SOL     OW31411   2.465   4.506   4.959
10171SOL    HW131412   2.490   4.448   5.035
10171SOL    HW231413   2.370   4.536   4.969
10172SOL     OW31414   6.758   0.793   2.881
10172SOL    HW131415   6.682   0.733   2.858
10172SOL    HW231416   6.844   0.743   2.871
10173SOL     OW31417   3.720   3.454   5.124
10173SOL    HW131418   3.731   3.363   5.163
10173SOL    HW231419   3.664   3.450   5.042
10174SOL     OW31420   4.600   5.428   1.376
10174SOL    HW131421   4.534   5.357   1.401
10174SOL    HW231422   4.685   5.386   1.344
10175SOL     OW31423   6.431   6.667   4.457
10175SOL    HW131424   6.364   6.726   4.502
10175SOL    HW231425   6.400   6.646   4.365
10176SOL     OW31426   0.561   0.554   4.672
10176SOL    HW131427   0.645   0.530   4.624
10176SOL    HW231428   0.582   0.618   4.746
10177SOL     OW31429   2.421   0.837   4.052
10177SOL    HW131430   2.344   0.807   4.109
10177SOL    HW231431   2.387   0.856   3.959
10178SOL     OW31432   0.332   1.895   1.264
10178SOL    HW131433   0.374   1.894   1.355
10178SOL    HW231434   0.254   1.957   1.264
10179SOL     OW31435   0.150   5.708   0.359
10179SOL    HW131436   0.083   5.650   0.404
10179SOL    HW231437   0.127   5.717   0.262
10180SOL     OW31438   3.584   6.939   6.491
10180SOL    HW131439   3.525   6.869   6.452
10180SOL    HW231440   3.632   6.903   6.571
10181SOL     OW31441   6.414   3.424   3.513
10181SOL    HW131442   6.423   3.508   3.461
10181SOL    HW231443   6.476   3.426   3.592
10182SOL     OW31444   4.044   0.670   0.926
10182SOL    HW131445   3.944   0.679   0.928
10182SOL    HW231446   4.070   0.582   0.967
10183SOL     OW31447   4.634   6.530   5.653
10183SOL    HW131448   4.691   6.598   5.607
10183SOL    HW231449   4.615   6.559   5.746
10184SOL     OW31450   5.237   2.049   5.660
10184SOL    HW131451   5.143   2.025   5.686
10184SOL    HW231452   5.301   1.991   5.710
10185SOL     OW31453   3.404   5.288   1.715
10185SOL    HW131454   3.349   5.213   1.753
10185SOL    HW231455   3.447   5.338   1.790
10186SOL     OW31456   3.671   3.217   6.715
10186SOL    HW131457   3.697   3.200   6.810
10186SOL    HW231458   3.580   3.178   6.699
10187SOL     OW31459   1.974   4.297   5.321
10187SOL    HW131460   2.063   4.328   5.354
10187SOL    HW231461   1.984   4.211   5.272
10188SOL     OW31462   2.835   6.926   6.379
10188SOL    HW131463   2.798   6.912   6.470
10188SOL    HW231464   2.918   6.871   6.368
10189SOL     OW31465   2.002   1.551   4.789
10189SOL    HW131466   2.013   1.646   4.761
10189SOL    HW231467   2.065   1.531   4.864
10190SOL     OW31468   4.383   4.000   0.922
10190SOL    HW131469   4.414   4.051   1.002
10190SOL    HW231470   4.386   3.902   0.941
10191SOL     OW31471   5.094   0.507   0.178
10191SOL    HW131472   5.138   0.542   0.260
10191SOL    HW231473   4.994   0.512   0.188
10192SOL     OW31474   1.882   0.852   4.625
10192SOL    HW131475   1.909   0.941   4.590
10192SOL    HW231476   1.893   0.851   4.725
10193SOL     OW31477   3.771   3.633   3.820
10193SOL    HW131478   3.800   3.635   3.916
10193SOL    HW231479   3.849   3.611   3.762
10194SOL     OW31480   3.073   0.465   3.430
10194SOL    HW131481   3.145   0.453   3.362
10194SOL    HW231482   3.041   0.375   3.460
10195SOL     OW31483   5.317   0.178   2.190
10195SOL    HW131484   5.372   0.159   2.109
10195SOL    HW231485   5.265   0.262   2.176
10196SOL     OW31486   5.209   3.677   4.428
10196SOL    HW131487   5.306   3.667   4.449
10196SOL    HW231488   5.165   3.587   4.429
10197SOL     OW31489   5.184   1.639   2.571
10197SOL    HW131490   5.191   1.656   2.669
10197SOL    HW231491   5.107   1.578   2.553
10198SOL     OW31492   2.678   0.893   1.785
10198SOL    HW131493   2.716   0.876   1.876
10198SOL    HW231494   2.669   0.806   1.736
10199SOL     OW31495   0.993   2.438   0.880
10199SOL    HW131496   1.064   2.509   0.885
10199SOL    HW231497   0.903   2.481   0.890
10200SOL     OW31498   5.930   5.370   5.305
10200SOL    HW131499   5.961   5.341   5.214
10200SOL    HW231500   5.968   5.308   5.374
10201SOL     OW31501   1.823   5.192   3.417
10201SOL    HW131502   1.816   5.166   3.513
10201SOL    HW231503   1.731   5.195   3.377
10202SOL     OW31504   0.517   2.391   3.130
10202SOL    HW131505   0.605   2.435   3.149
10202SOL    HW231506   0.451   2.417   3.201
10203SOL     OW31507   0.998   3.380   1.809
10203SOL    HW131508   1.025   3.308   1.873
10203SOL    HW231509   1.077   3.406   1.753
10204SOL     OW31510   2.953   4.826   3.871
10204SOL    HW131511   3.036   4.862   3.915
10204SOL    HW231512   2.885   4.805   3.941
10205SOL     OW31513   4.581   0.472   1.262
10205SOL    HW131514   4.609   0.415   1.339
10205SOL    HW231515   4.580   0.568   1.291
10206SOL     OW31516   5.264   0.203   6.111
10206SOL    HW131517   5.337   0.265   6.141
10206SOL    HW231518   5.187   0.256   6.077
10207SOL     OW31519   3.846   1.329   3.131
10207SOL    HW131520   3.806   1.263   3.067
10207SOL    HW231521   3.939   1.299   3.155
10208SOL     OW31522   6.651   4.109   5.335
10208SOL    HW131523   6.748   4.088   5.346
10208SOL    HW231524   6.617   4.155   5.417
10209SOL     OW31525   5.203   6.754   6.599
10209SOL    HW131526   5.150   6.734   6.516
10209SOL    HW231527   5.300   6.749   6.579
10210SOL     OW31528   5.520   6.016   0.739
10210SOL    HW131529   5.526   6.115   0.753
10210SOL    HW231530   5.610   5.981   0.711
10211SOL     OW31531   3.469   5.709   4.997
10211SOL    HW131532   3.502   5.745   5.084
10211SOL    HW231533   3.378   5.746   4.977
10212SOL     OW31534   6.039   6.051   5.696
10212SOL    HW131535   6.007   6.003   5.615
10212SOL    HW231536   5.984   6.024   5.775
10213SOL     OW31537   4.874   0.579   4.391
10213SOL    HW131538   4.943   0.618   4.329
10213SOL    HW231539   4.784   0.613   4.365
10214SOL     OW31540   0.251   1.331   1.373
10214SOL    HW131541   0.259   1.414   1.317
10214SOL    HW231542   0.333   1.276   1.364
10215SOL     OW31543   3.804   2.673   6.700
10215SOL    HW131544   3.794   2.604   6.772
10215SOL    HW231545   3.902   2.690   6.683
10216SOL     OW31546   4.808   0.031   2.463
10216SOL    HW131547   4.889   0.058   2.411
10216SOL    HW231548   4.809   6.951   2.476
10217SOL     OW31549   3.300   2.063   5.829
10217SOL    HW131550   3.333   2.154   5.803
10217SOL    HW231551   3.356   1.994   5.783
10218SOL     OW31552   2.762   2.360   0.019
10218SOL    HW131553   2.695   2.296   0.056
10218SOL    HW231554   2.808   2.319   6.961
10219SOL     OW31555   0.604   4.604   7.019
10219SOL    HW131556   0.559   4.649   0.076
10219SOL    HW231557   0.703   4.621   0.004
10220SOL     OW31558   4.225   2.934   0.289
10220SOL    HW131559   4.140   2.882   0.295
10220SOL    HW231560   4.205   3.026   0.256
10221SOL     OW31561   3.418   1.355   4.550
10221SOL    HW131562   3.400   1.452   4.568
10221SOL    HW231563   3.332   1.306   4.540
10222SOL     OW31564   1.845   5.232   5.757
10222SOL    HW131565   1.829   5.208   5.661
10222SOL    HW231566   1.781   5.183   5.816
10223SOL     OW31567   6.883   4.420   0.957
10223SOL    HW131568   6.955   4.426   0.887
10223SOL    HW231569   6.894   4.335   1.009
10224SOL     OW31570   2.454   0.301   5.156
10224SOL    HW131571   2.544   0.282   5.116
10224SOL    HW231572   2.393   0.334   5.084
10225SOL     OW31573   4.646   5.848   4.059
10225SOL    HW131574   4.660   5.758   4.102
10225SOL    HW231575   4.703   5.916   4.105
10226SOL     OW31576   0.174   2.814   7.014
10226SOL    HW131577   0.170   2.726   0.042
10226SOL    HW231578   0.088   2.863   0.009
10227SOL     OW31579   5.856   5.963   6.185
10227SOL    HW131580   5.768   5.960   6.138
10227SOL    HW231581   5.923   6.008   6.126
10228SOL     OW31582   1.445   4.099   2.884
10228SOL    HW131583   1.361   4.127   2.838
10228SOL    HW231584   1.442   4.001   2.904
10229SOL     OW31585   1.841   1.617   1.877
10229SOL    HW131586   1.756   1.618   1.929
10229SOL    HW231587   1.845   1.697   1.818
10230SOL     OW31588   6.119   6.512   4.746
10230SOL    HW131589   6.023   6.495   4.767
10230SOL    HW231590   6.156   6.579   4.811
10231SOL     OW31591   4.813   6.948   4.447
10231SOL    HW131592   4.826   6.911   4.540
10231SOL    HW231593   4.791   0.025   4.453
10232SOL     OW31594   4.081   2.083   3.626
10232SOL    HW131595   4.071   2.084   3.726
10232SOL    HW231596   4.021   2.012   3.588
10233SOL     OW31597   5.043   1.046   5.440
10233SOL    HW131598   5.002   1.109   5.506
10233SOL    HW231599   4.971   0.994   5.394
10234SOL     OW31600   4.423   6.080   1.911
10234SOL    HW131601   4.469   6.054   1.996
10234SOL    HW231602   4.489   6.081   1.836
10235SOL     OW31603   4.859   1.373   6.887
10235SOL    HW131604   4.770   1.347   6.849
10235SOL    HW231605   4.849   1.459   6.938
10236SOL     OW31606   1.892   6.051   2.024
10236SOL    HW131607   1.848   6.052   2.113
10236SOL    HW231608   1.977   5.998   2.029
10237SOL     OW31609   5.804   2.953   3.559
10237SOL    HW131610   5.734   2.910   3.616
10237SOL    HW231611   5.803   2.912   3.468
10238SOL     OW31612   4.447   5.952   4.786
10238SOL    HW131613   4.461   5.858   4.817
10238SOL    HW231614   4.443   6.013   4.864
10239SOL     OW31615   6.444   3.486   4.236
10239SOL    HW131616   6.511   3.560   4.242
10239SOL    HW231617   6.390   3.484   4.320
10240SOL     OW31618   5.661   3.715   3.946
10240SOL    HW131619   5.644   3.731   4.043
10240SOL    HW231620   5.621   3.789   3.892
10241SOL     OW31621   1.436   1.402   3.200
10241SOL    HW131622   1.509   1.374   3.138
10241SOL    HW231623   1.466   1.481   3.254
10242SOL     OW31624   0.885   6.134   6.479
10242SOL    HW131625   0.979   6.126   6.447
10242SOL    HW231626   0.880   6.201   6.553
10243SOL     OW31627   0.950   6.289   2.487
10243SOL    HW131628   0.993   6.377   2.511
10243SOL    HW231629   0.869   6.306   2.432
10244SOL     OW31630   1.570   5.849   0.058
10244SOL    HW131631   1.569   5.850   6.978
10244SOL    HW231632   1.477   5.835   0.092
10245SOL     OW31633   1.914   2.503   0.064
10245SOL    HW131634   2.003   2.549   0.058
10245SOL    HW231635   1.925   2.414   0.108
10246SOL     OW31636   3.364   3.794   3.999
10246SOL    HW131637   3.385   3.850   3.919
10246SOL    HW231638   3.443   3.793   4.060
10247SOL     OW31639   0.944   6.117   5.685
10247SOL    HW131640   1.014   6.074   5.742
10247SOL    HW231641   0.864   6.140   5.741
10248SOL     OW31642   4.305   0.912   2.885
10248SOL    HW131643   4.320   0.939   2.790
10248SOL    HW231644   4.362   0.969   2.945
10249SOL     OW31645   5.115   0.947   6.834
10249SOL    HW131646   5.050   0.932   6.759
10249SOL    HW231647   5.098   1.036   6.876
10250SOL     OW31648   4.877   0.338   0.539
10250SOL    HW131649   4.790   0.293   0.555
10250SOL    HW231650   4.946   0.270   0.512
10251SOL     OW31651   3.812   4.456   6.986
10251SOL    HW131652   3.746   4.484   6.916
10251SOL    HW231653   3.892   4.516   6.982
10252SOL     OW31654   6.270   5.197   2.017
10252SOL    HW131655   6.239   5.253   1.941
10252SOL    HW231656   6.222   5.109   2.015
10253SOL     OW31657   4.002   4.964   6.701
10253SOL    HW131658   4.075   4.973   6.768
10253SOL    HW231659   3.916   4.999   6.739
10254SOL     OW31660   2.218   1.526   4.364
10254SOL    HW131661   2.216   1.454   4.433
10254SOL    HW231662   2.174   1.608   4.400
10255SOL     OW31663   2.997   5.362   2.626
10255SOL    HW131664   2.908   5.336   2.662
10255SOL    HW231665   3.033   5.439   2.678
10256SOL     OW31666   6.076   6.367   0.043
10256SOL    HW131667   6.000   6.314   0.006
10256SOL    HW231668   6.068   6.462   0.012
10257SOL     OW31669   2.302   6.684   6.478
10257SOL    HW131670   2.372   6.731   6.424
10257SOL    HW231671   2.330   6.589   6.492
10258SOL     OW31672   4.385   0.539   3.261
10258SOL    HW131673   4.377   0.605   3.336
10258SOL    HW231674   4.438   0.580   3.187
10259SOL     OW31675   0.995   3.417   4.014
10259SOL    HW131676   0.991   3.339   4.075
10259SOL    HW231677   1.088   3.454   4.012
10260SOL     OW31678   0.173   6.329   1.434
10260SOL    HW131679   0.172   6.428   1.419
10260SOL    HW231680   0.252   6.289   1.386
10261SOL     OW31681   2.151   0.059   1.345
10261SOL    HW131682   2.245   0.092   1.346
10261SOL    HW231683   2.138   7.011   1.417
10262SOL     OW31684   1.030   5.553   4.956
10262SOL    HW131685   0.935   5.523   4.956
10262SOL    HW231686   1.090   5.474   4.939
10263SOL     OW31687   6.621   2.076   5.667
10263SOL    HW131688   6.603   1.978   5.659
10263SOL    HW231689   6.719   2.092   5.663
10264SOL     OW31690   0.497   6.954   0.122
10264SOL    HW131691   0.424   6.935   0.189
10264SOL    HW231692   0.585   6.956   0.169
10265SOL     OW31693   4.124   2.258   2.042
10265SOL    HW131694   4.064   2.263   2.122
10265SOL    HW231695   4.072   2.228   1.963
10266SOL     OW31696   4.085   3.980   6.381
10266SOL    HW131697   4.100   4.058   6.320
10266SOL    HW231698   4.130   3.997   6.468
10267SOL     OW31699   0.020   1.740   6.535
10267SOL    HW131700   0.032   1.669   6.605
10267SOL    HW231701   0.108   1.760   6.492
10268SOL     OW31702   6.407   5.017   1.766
10268SOL    HW131703   6.314   5.000   1.732
10268SOL    HW231704   6.423   4.963   1.848
10269SOL     OW31705   3.005   2.516   6.144
10269SOL    HW131706   3.066   2.577   6.194
10269SOL    HW231707   3.039   2.503   6.051
10270SOL     OW31708   2.965   6.655   1.000
10270SOL    HW131709   3.036   6.591   0.972
10270SOL    HW231710   2.939   6.712   0.922
10271SOL     OW31711   3.094   5.027   0.492
10271SOL    HW131712   3.009   5.073   0.516
10271SOL    HW231713   3.145   5.083   0.427
10272SOL     OW31714   1.066   1.279   5.242
10272SOL    HW131715   0.967   1.296   5.248
10272SOL    HW231716   1.112   1.362   5.211
10273SOL     OW31717   3.894   6.453   3.813
10273SOL    HW131718   3.919   6.368   3.765
10273SOL    HW231719   3.929   6.531   3.762
10274SOL     OW31720   2.020   5.916   6.232
10274SOL    HW131721   2.118   5.922   6.246
10274SOL    HW231722   1.998   5.936   6.136
10275SOL     OW31723   0.813   6.619   2.136
10275SOL    HW131724   0.846   6.540   2.188
10275SOL    HW231725   0.714   6.629   2.149
10276SOL     OW31726   6.893   6.626   0.295
10276SOL    HW131727   6.894   6.526   0.304
10276SOL    HW231728   6.980   6.663   0.329
10277SOL     OW31729   0.917   5.983   2.364
10277SOL    HW131730   0.972   5.908   2.326
10277SOL    HW231731   0.929   5.986   2.463
10278SOL     OW31732   6.543   0.197   6.501
10278SOL    HW131733   6.580   0.110   6.467
10278SOL    HW231734   6.473   0.230   6.438
10279SOL     OW31735   3.717   5.889   3.414
10279SOL    HW131736   3.775   5.808   3.407
10279SOL    HW231737   3.639   5.869   3.474
10280SOL     OW31738   3.329   2.597   6.454
10280SOL    HW131739   3.231   2.598   6.472
10280SOL    HW231740   3.372   2.675   6.498
10281SOL     OW31741   4.052   6.879   4.245
10281SOL    HW131742   3.993   6.904   4.169
10281SOL    HW231743   4.073   6.781   4.241
10282SOL     OW31744   1.052   2.678   5.044
10282SOL    HW131745   1.070   2.684   4.946
10282SOL    HW231746   1.120   2.619   5.087
10283SOL     OW31747   1.258   3.566   5.629
10283SOL    HW131748   1.303   3.653   5.611
10283SOL    HW231749   1.262   3.544   5.726
10284SOL     OW31750   5.533   3.074   6.864
10284SOL    HW131751   5.619   3.109   6.827
10284SOL    HW231752   5.553   3.006   6.935
10285SOL     OW31753   5.876   0.219   0.688
10285SOL    HW131754   5.917   0.238   0.599
10285SOL    HW231755   5.786   0.179   0.675
10286SOL     OW31756   4.296   0.615   4.175
10286SOL    HW131757   4.201   0.626   4.145
10286SOL    HW231758   4.303   0.642   4.271
10287SOL     OW31759   1.495   4.924   1.309
10287SOL    HW131760   1.495   4.847   1.372
10287SOL    HW231761   1.569   4.913   1.242
10288SOL     OW31762   5.011   6.254   4.052
10288SOL    HW131763   5.069   6.311   4.109
10288SOL    HW231764   4.930   6.306   4.024
10289SOL     OW31765   2.781   1.452   1.471
10289SOL    HW131766   2.727   1.536   1.469
10289SOL    HW231767   2.719   1.374   1.485
10290SOL     OW31768   3.066   3.556   2.085
10290SOL    HW131769   3.058   3.647   2.126
10290SOL    HW231770   3.002   3.493   2.129
10291SOL     OW31771   4.487   0.289   5.517
10291SOL    HW131772   4.519   0.195   5.503
10291SOL    HW231773   4.566   0.351   5.515
10292SOL     OW31774   0.041   0.595   5.007
10292SOL    HW131775   0.117   0.645   5.050
10292SOL    HW231776   0.021   0.634   4.918
10293SOL     OW31777   2.957   5.728   3.071
10293SOL    HW131778   2.893   5.666   3.116
10293SOL    HW231779   2.910   5.812   3.046
10294SOL     OW31780   6.156   1.789   3.055
10294SOL    HW131781   6.241   1.816   3.009
10294SOL    HW231782   6.158   1.691   3.073
10295SOL     OW31783   1.788   4.338   4.962
10295SOL    HW131784   1.864   4.283   4.996
10295SOL    HW231785   1.757   4.301   4.875
10296SOL     OW31786   6.707   2.650   0.846
10296SOL    HW131787   6.754   2.728   0.805
10296SOL    HW231788   6.670   2.676   0.935
10297SOL     OW31789   2.530   5.612   4.639
10297SOL    HW131790   2.470   5.600   4.560
10297SOL    HW231791   2.498   5.689   4.694
10298SOL     OW31792   5.712   3.803   3.158
10298SOL    HW131793   5.633   3.747   3.182
10298SOL    HW231794   5.776   3.749   3.104
10299SOL     OW31795   4.848   3.894   2.141
10299SOL    HW131796   4.882   3.937   2.225
10299SOL    HW231797   4.802   3.963   2.085
10300SOL     OW31798   1.838   5.420   2.250
10300SOL    HW131799   1.918   5.428   2.310
10300SOL    HW231800   1.868   5.400   2.157
10301SOL     OW31801   5.158   1.405   1.205
10301SOL    HW131802   5.175   1.379   1.300
10301SOL    HW231803   5.185   1.501   1.192
10302SOL     OW31804   1.386   5.289   3.576
10302SOL    HW131805   1.405   5.356   3.648
10302SOL    HW231806   1.355   5.336   3.494
10303SOL     OW31807   3.721   3.232   1.219
10303SOL    HW131808   3.740   3.150   1.274
10303SOL    HW231809   3.622   3.249   1.218
10304SOL     OW31810   6.229   6.630   4.008
10304SOL    HW131811   6.322   6.663   3.996
10304SOL    HW231812   6.168   6.677   3.944
10305SOL     OW31813   2.153   5.262   1.200
10305SOL    HW131814   2.172   5.208   1.118
10305SOL    HW231815   2.110   5.348   1.174
10306SOL     OW31816   4.297   4.776   0.231
10306SOL    HW131817   4.339   4.832   0.303
10306SOL    HW231818   4.252   4.697   0.273
10307SOL     OW31819   3.211   0.893   5.337
10307SOL    HW131820   3.241   0.869   5.430
10307SOL    HW231821   3.113   0.875   5.328
10308SOL     OW31822   2.845   5.188   3.892
10308SOL    HW131823   2.886   5.223   3.808
10308SOL    HW231824   2.759   5.141   3.870
10309SOL     OW31825   0.317   6.175   3.371
10309SOL    HW131826   0.243   6.144   3.312
10309SOL    HW231827   0.404   6.142   3.335
10310SOL     OW31828   2.911   3.298   4.322
10310SOL    HW131829   2.894   3.330   4.415
10310SOL    HW231830   2.911   3.376   4.259
10311SOL     OW31831   0.701   6.512   1.162
10311SOL    HW131832   0.668   6.418   1.173
10311SOL    HW231833   0.676   6.566   1.243
10312SOL     OW31834   2.416   4.388   0.639
10312SOL    HW131835   2.389   4.406   0.734
10312SOL    HW231836   2.392   4.467   0.583
10313SOL     OW31837   6.362   6.202   3.874
10313SOL    HW131838   6.291   6.213   3.943
10313SOL    HW231839   6.351   6.115   3.826
10314SOL     OW31840   6.726   4.890   5.720
10314SOL    HW131841   6.684   4.838   5.646
10314SOL    HW231842   6.682   4.866   5.807
10315SOL     OW31843   5.212   6.124   5.295
10315SOL    HW131844   5.140   6.103   5.229
10315SOL    HW231845   5.171   6.150   5.383
10316SOL     OW31846   0.285   3.678   2.809
10316SOL    HW131847   0.196   3.682   2.764
10316SOL    HW231848   0.298   3.588   2.851
10317SOL     OW31849   4.225   4.495   0.367
10317SOL    HW131850   4.290   4.522   0.439
10317SOL    HW231851   4.224   4.396   0.360
10318SOL     OW31852   6.367   5.760   2.097
10318SOL    HW131853   6.403   5.785   2.007
10318SOL    HW231854   6.352   5.661   2.100
10319SOL     OW31855   5.076   5.902   4.628
10319SOL    HW131856   5.019   5.933   4.552
10319SOL    HW231857   5.024   5.907   4.714
10320SOL     OW31858   4.255   6.213   1.738
10320SOL    HW131859   4.286   6.308   1.732
10320SOL    HW231860   4.309   6.164   1.806
10321SOL     OW31861   3.539   0.283   3.997
10321SOL    HW131862   3.548   0.377   3.964
10321SOL    HW231863   3.571   0.220   3.927
10322SOL     OW31864   0.313   2.242   0.121
10322SOL    HW131865   0.245   2.309   0.090
10322SOL    HW231866   0.402   2.286   0.128
10323SOL     OW31867   6.766   1.961   5.090
10323SOL    HW131868   6.809   1.948   5.001
10323SOL    HW231869   6.830   1.934   5.162
10324SOL     OW31870   3.355   3.087   3.752
10324SOL    HW131871   3.393   3.179   3.766
10324SOL    HW231872   3.308   3.084   3.664
10325SOL     OW31873   0.377   3.640   3.136
10325SOL    HW131874   0.363   3.610   3.231
10325SOL    HW231875   0.353   3.737   3.128
10326SOL     OW31876   4.881   1.644   0.943
10326SOL    HW131877   4.893   1.550   0.911
10326SOL    HW231878   4.853   1.703   0.867
10327SOL     OW31879   6.918   0.677   3.391
10327SOL    HW131880   6.923   0.764   3.342
10327SOL    HW231881   6.824   0.663   3.424
10328SOL     OW31882   6.341   3.249   2.421
10328SOL    HW131883   6.250   3.228   2.387
10328SOL    HW231884   6.350   3.216   2.515
10329SOL     OW31885   3.697   6.686   3.131
10329SOL    HW131886   3.603   6.672   3.102
10329SOL    HW231887   3.748   6.600   3.123
10330SOL     OW31888   3.465   4.406   1.008
10330SOL    HW131889   3.497   4.377   1.098
10330SOL    HW231890   3.390   4.347   0.979
10331SOL     OW31891   5.076   0.628   4.188
10331SOL    HW131892   5.165   0.653   4.228
10331SOL    HW231893   5.076   0.531   4.167
10332SOL     OW31894   0.387   1.544   0.101
10332SOL    HW131895   0.294   1.531   0.067
10332SOL    HW231896   0.391   1.522   0.199
10333SOL     OW31897   5.128   4.465   5.469
10333SOL    HW131898   5.192   4.445   5.394
10333SOL    HW231899   5.034   4.446   5.439
10334SOL     OW31900   0.970   5.095   4.769
10334SOL    HW131901   1.041   5.155   4.807
10334SOL    HW231902   0.984   5.002   4.801
10335SOL     OW31903   2.634   5.385   1.731
10335SOL    HW131904   2.637   5.396   1.632
10335SOL    HW231905   2.728   5.381   1.767
10336SOL     OW31906   4.615   6.222   2.957
10336SOL    HW131907   4.690   6.156   2.959
10336SOL    HW231908   4.652   6.315   2.957
10337SOL     OW31909   0.975   4.959   5.109
10337SOL    HW131910   0.901   4.984   5.171
10337SOL    HW231911   0.943   4.891   5.043
10338SOL     OW31912   3.388   4.936   3.032
10338SOL    HW131913   3.452   4.916   3.106
10338SOL    HW231914   3.433   4.921   2.944
10339SOL     OW31915   3.095   5.647   0.147
10339SOL    HW131916   3.125   5.677   0.056
10339SOL    HW231917   2.997   5.631   0.146
10340SOL     OW31918   2.002   6.592   0.256
10340SOL    HW131919   2.083   6.588   0.314
10340SOL    HW231920   2.018   6.655   0.180
10341SOL     OW31921   0.736   2.300   2.414
10341SOL    HW131922   0.731   2.399   2.422
10341SOL    HW231923   0.783   2.275   2.330
10342SOL     OW31924   3.118   6.382   3.491
10342SOL    HW131925   3.198   6.428   3.452
10342SOL    HW231926   3.040   6.392   3.430
10343SOL     OW31927   2.231   2.937   3.502
10343SOL    HW131928   2.220   2.989   3.417
10343SOL    HW231929   2.181   2.982   3.576
10344SOL     OW31930   4.199   3.898   0.573
10344SOL    HW131931   4.119   3.906   0.632
10344SOL    HW231932   4.274   3.952   0.610
10345SOL     OW31933   1.886   1.679   5.247
10345SOL    HW131934   1.985   1.668   5.254
10345SOL    HW231935   1.856   1.649   5.156
10346SOL     OW31936   5.890   4.758   0.714
10346SOL    HW131937   5.841   4.795   0.793
10346SOL    HW231938   5.949   4.829   0.676
10347SOL     OW31939   4.981   0.589   2.096
10347SOL    HW131940   4.946   0.563   2.006
10347SOL    HW231941   5.018   0.508   2.141
10348SOL     OW31942   6.682   4.810   5.993
10348SOL    HW131943   6.672   4.730   5.933
10348SOL    HW231944   6.761   4.798   6.053
10349SOL     OW31945   6.736   1.984   0.983
10349SOL    HW131946   6.807   2.028   0.926
10349SOL    HW231947   6.655   1.968   0.928
10350SOL     OW31948   2.210   4.632   4.928
10350SOL    HW131949   2.218   4.729   4.905
10350SOL    HW231950   2.179   4.623   5.023
10351SOL     OW31951   4.222   4.846   4.281
10351SOL    HW131952   4.319   4.866   4.266
10351SOL    HW231953   4.176   4.841   4.192
10352SOL     OW31954   6.303   1.023   6.969
10352SOL    HW131955   6.274   1.055   6.879
10352SOL    HW231956   6.395   1.057   6.989
10353SOL     OW31957   6.205   2.324   3.800
10353SOL    HW131958   6.252   2.343   3.885
10353SOL    HW231959   6.125   2.384   3.792
10354SOL     OW31960   6.419   2.797   1.421
10354SOL    HW131961   6.383   2.704   1.430
10354SOL    HW231962   6.382   2.839   1.338
10355SOL     OW31963   0.803   1.503   0.786
10355SOL    HW131964   0.841   1.571   0.849
10355SOL    HW231965   0.713   1.534   0.755
10356SOL     OW31966   5.753   2.959   5.696
10356SOL    HW131967   5.660   2.924   5.687
10356SOL    HW231968   5.751   3.052   5.733
10357SOL     OW31969   1.775   0.493   6.123
10357SOL    HW131970   1.789   0.568   6.058
10357SOL    HW231971   1.677   0.476   6.133
10358SOL     OW31972   0.290   3.201   2.970
10358SOL    HW131973   0.250   3.152   3.048
10358SOL    HW231974   0.345   3.139   2.915
10359SOL     OW31975   6.458   1.916   2.261
10359SOL    HW131976   6.481   2.012   2.246
10359SOL    HW231977   6.456   1.897   2.359
10360SOL     OW31978   5.746   4.137   1.682
10360SOL    HW131979   5.670   4.102   1.737
10360SOL    HW231980   5.775   4.067   1.617
10361SOL     OW31981   6.157   2.313   2.442
10361SOL    HW131982   6.089   2.352   2.381
10361SOL    HW231983   6.235   2.279   2.389
10362SOL     OW31984   1.578   6.117   1.552
10362SOL    HW131985   1.587   6.163   1.463
10362SOL    HW231986   1.638   6.161   1.618
10363SOL     OW31987   5.433   4.256   6.571
10363SOL    HW131988   5.366   4.328   6.589
10363SOL    HW231989   5.464   4.217   6.657
10364SOL     OW31990   5.747   4.965   2.535
10364SOL    HW131991   5.815   4.974   2.608
10364SOL    HW231992   5.671   4.908   2.568
10365SOL     OW31993   5.883   5.137   0.794
10365SOL    HW131994   5.949   5.063   0.782
10365SOL    HW231995   5.799   5.115   0.746
10366SOL     OW31996   3.421   6.043   3.757
10366SOL    HW131997   3.376   6.113   3.702
10366SOL    HW231998   3.357   6.010   3.827
10367SOL     OW31999   5.226   6.206   1.805
10367SOL    HW132000   5.299   6.243   1.749
10367SOL    HW232001   5.161   6.279   1.827
10368SOL     OW32002   2.012   6.325   1.466
10368SOL    HW132003   2.044   6.241   1.424
10368SOL    HW232004   2.090   6.374   1.506
10369SOL     OW32005   2.671   0.146   6.276
10369SOL    HW132006   2.582   0.120   6.313
10369SOL    HW232007   2.743   0.093   6.321
10370SOL     OW32008   1.715   1.125   5.335
10370SOL    HW132009   1.789   1.129   5.402
10370SOL    HW232010   1.728   1.045   5.276
10371SOL     OW32011   4.526   5.430   2.756
10371SOL    HW132012   4.428   5.446   2.745
10371SOL    HW232013   4.550   5.342   2.715
10372SOL     OW32014   2.431   6.824   0.971
10372SOL    HW132015   2.424   6.874   0.885
10372SOL    HW232016   2.527   6.811   0.994
10373SOL     OW32017   6.441   1.719   6.386
10373SOL    HW132018   6.537   1.719   6.416
10373SOL    HW232019   6.436   1.682   6.294
10374SOL     OW32020   3.421   5.119   3.562
10374SOL    HW132021   3.329   5.125   3.600
10374SOL    HW232022   3.475   5.197   3.595
10375SOL     OW32023   2.810   5.124   0.482
10375SOL    HW132024   2.767   5.163   0.400
10375SOL    HW232025   2.851   5.197   0.537
10376SOL     OW32026   2.283   5.140   4.388
10376SOL    HW132027   2.364   5.151   4.331
10376SOL    HW232028   2.305   5.163   4.483
10377SOL     OW32029   1.855   0.976   2.502
10377SOL    HW132030   1.802   0.984   2.586
10377SOL    HW232031   1.877   1.068   2.468
10378SOL     OW32032   0.290   5.740   3.875
10378SOL    HW132033   0.367   5.764   3.815
10378SOL    HW232034   0.204   5.770   3.832
10379SOL     OW32035   1.934   0.279   4.289
10379SOL    HW132036   1.950   0.330   4.373
10379SOL    HW232037   1.947   0.340   4.210
10380SOL     OW32038   2.973   2.275   4.186
10380SOL    HW132039   2.904   2.203   4.174
10380SOL    HW232040   3.005   2.305   4.096
10381SOL     OW32041   4.019   6.474   2.145
10381SOL    HW132042   4.068   6.551   2.104
10381SOL    HW232043   4.060   6.388   2.115
10382SOL     OW32044   3.842   5.493   1.335
10382SOL    HW132045   3.828   5.446   1.248
10382SOL    HW232046   3.900   5.436   1.394
10383SOL     OW32047   0.996   4.913   0.090
10383SOL    HW132048   1.076   4.922   0.149
10383SOL    HW232049   1.027   4.894   7.016
10384SOL     OW32050   5.003   5.690   0.999
10384SOL    HW132051   5.010   5.738   1.086
10384SOL    HW232052   4.911   5.700   0.962
10385SOL     OW32053   4.396   4.540   0.607
10385SOL    HW132054   4.310   4.582   0.634
10385SOL    HW232055   4.472   4.594   0.644
10386SOL     OW32056   6.970   0.966   0.873
10386SOL    HW132057   0.028   0.961   0.809
10386SOL    HW232058   6.976   1.051   0.925
10387SOL     OW32059   5.419   3.387   1.759
10387SOL    HW132060   5.418   3.450   1.681
10387SOL    HW232061   5.513   3.368   1.786
10388SOL     OW32062   1.975   6.297   5.767
10388SOL    HW132063   2.038   6.298   5.845
10388SOL    HW232064   1.884   6.326   5.796
10389SOL     OW32065   0.599   4.087   6.794
10389SOL    HW132066   0.585   4.120   6.888
10389SOL    HW232067   0.606   4.166   6.732
10390SOL     OW32068   2.538   2.477   2.085
10390SOL    HW132069   2.593   2.395   2.069
10390SOL    HW232070   2.522   2.487   2.183
10391SOL     OW32071   5.429   6.812   3.899
10391SOL    HW132072   5.330   6.820   3.901
10391SOL    HW232073   5.455   6.731   3.848
10392SOL     OW32074   6.595   3.477   4.537
10392SOL    HW132075   6.662   3.440   4.473
10392SOL    HW232076   6.637   3.484   4.628
10393SOL     OW32077   1.553   3.404   3.665
10393SOL    HW132078   1.575   3.499   3.644
10393SOL    HW232079   1.638   3.355   3.687
10394SOL     OW32080   3.178   0.524   4.278
10394SOL    HW132081   3.122   0.604   4.256
10394SOL    HW232082   3.170   0.456   4.205
10395SOL     OW32083   1.292   0.422   1.160
10395SOL    HW132084   1.195   0.403   1.169
10395SOL    HW232085   1.322   0.400   1.067
10396SOL     OW32086   3.262   2.094   4.535
10396SOL    HW132087   3.289   2.121   4.628
10396SOL    HW232088   3.337   2.115   4.472
10397SOL     OW32089   4.426   2.004   3.832
10397SOL    HW132090   4.358   1.932   3.846
10397SOL    HW232091   4.514   1.972   3.866
10398SOL     OW32092   6.104   3.035   1.488
10398SOL    HW132093   6.013   2.994   1.492
10398SOL    HW232094   6.165   2.977   1.434
10399SOL     OW32095   1.126   3.852   1.746
10399SOL    HW132096   1.046   3.808   1.704
10399SOL    HW232097   1.162   3.921   1.684
10400SOL     OW32098   3.308   5.861   0.784
10400SOL    HW132099   3.382   5.928   0.789
10400SOL    HW232100   3.226   5.904   0.748
10401SOL     OW32101   0.611   1.581   5.993
10401SOL    HW132102   0.651   1.497   5.956
10401SOL    HW232103   0.567   1.632   5.919
10402SOL     OW32104   0.145   2.685   5.147
10402SOL    HW132105   0.177   2.758   5.207
10402SOL    HW232106   0.065   2.641   5.187
10403SOL     OW32107   3.553   0.746   1.454
10403SOL    HW132108   3.555   0.846   1.453
10403SOL    HW232109   3.603   0.713   1.534
10404SOL     OW32110   0.045   6.542   6.533
10404SOL    HW132111   6.968   6.552   6.553
10404SOL    HW232112   0.080   6.459   6.577
10405SOL     OW32113   0.357   2.557   6.456
10405SOL    HW132114   0.368   2.655   6.469
10405SOL    HW232115   0.262   2.532   6.470
10406SOL     OW32116   2.677   5.040   1.516
10406SOL    HW132117   2.640   5.000   1.601
10406SOL    HW232118   2.628   5.003   1.438
10407SOL     OW32119   2.614   6.864   0.012
10407SOL    HW132120   2.553   6.935   6.997
10407SOL    HW232121   2.614   6.865   0.112
10408SOL     OW32122   4.090   1.665   6.792
10408SOL    HW132123   4.005   1.707   6.822
10408SOL    HW232124   4.091   1.660   6.692
10409SOL     OW32125   6.062   4.744   1.260
10409SOL    HW132126   6.032   4.812   1.327
10409SOL    HW232127   6.009   4.660   1.272
10410SOL     OW32128   5.597   0.476   0.797
10410SOL    HW132129   5.605   0.388   0.751
10410SOL    HW232130   5.500   0.497   0.811
10411SOL     OW32131   2.533   5.380   3.232
10411SOL    HW132132   2.513   5.382   3.134
10411SOL    HW232133   2.456   5.340   3.282
10412SOL     OW32134   6.336   0.606   0.818
10412SOL    HW132135   6.340   0.653   0.730
10412SOL    HW232136   6.275   0.526   0.810
10413SOL     OW32137   0.291   2.865   1.536
10413SOL    HW132138   0.219   2.882   1.603
10413SOL    HW232139   0.341   2.951   1.518
10414SOL     OW32140   4.640   2.702   4.421
10414SOL    HW132141   4.631   2.767   4.346
10414SOL    HW232142   4.725   2.720   4.472
10415SOL     OW32143   0.482   6.680   6.147
10415SOL    HW132144   0.406   6.677   6.212
10415SOL    HW232145   0.448   6.714   6.059
10416SOL     OW32146   5.575   2.473   4.417
10416SOL    HW132147   5.584   2.385   4.371
10416SOL    HW232148   5.488   2.478   4.464
10417SOL     OW32149   2.415   4.412   3.943
10417SOL    HW132150   2.442   4.387   4.036
10417SOL    HW232151   2.394   4.330   3.891
10418SOL     OW32152   0.724   4.768   5.536
10418SOL    HW132153   0.660   4.833   5.495
10418SOL    HW232154   0.708   4.762   5.634
10419SOL     OW32155   1.192   1.016   0.745
10419SOL    HW132156   1.240   1.096   0.709
10419SOL    HW232157   1.259   0.953   0.786
10420SOL     OW32158   0.076   3.404   3.868
10420SOL    HW132159   0.140   3.468   3.910
10420SOL    HW232160   0.095   3.397   3.770
10421SOL     OW32161   0.324   0.756   2.852
10421SOL    HW132162   0.296   0.749   2.948
10421SOL    HW232163   0.270   0.826   2.806
10422SOL     OW32164   6.050   3.156   6.167
10422SOL    HW132165   6.064   3.143   6.069
10422SOL    HW232166   6.099   3.238   6.197
10423SOL     OW32167   5.503   4.479   3.282
10423SOL    HW132168   5.448   4.477   3.366
10423SOL    HW232169   5.587   4.427   3.297
10424SOL     OW32170   4.974   1.853   6.586
10424SOL    HW132171   5.008   1.900   6.504
10424SOL    HW232172   4.976   1.917   6.664
10425SOL     OW32173   2.113   6.668   2.262
10425SOL    HW132174   2.046   6.603   2.299
10425SOL    HW232175   2.126   6.650   2.165
10426SOL     OW32176   6.715   4.076   6.733
10426SOL    HW132177   6.670   4.089   6.821
10426SOL    HW232178   6.812   4.054   6.747
10427SOL     OW32179   4.842   1.513   0.156
10427SOL    HW132180   4.899   1.556   0.086
10427SOL    HW232181   4.899   1.488   0.235
10428SOL     OW32182   4.706   0.836   3.974
10428SOL    HW132183   4.607   0.824   3.961
10428SOL    HW232184   4.723   0.922   4.021
10429SOL     OW32185   6.301   5.932   1.781
10429SOL    HW132186   6.265   6.023   1.802
10429SOL    HW232187   6.304   5.919   1.682
10430SOL     OW32188   3.912   6.495   2.674
10430SOL    HW132189   3.900   6.494   2.575
10430SOL    HW232190   3.850   6.562   2.714
10431SOL     OW32191   2.955   0.862   4.756
10431SOL    HW132192   3.050   0.845   4.784
10431SOL    HW232193   2.904   0.776   4.756
10432SOL     OW32194   5.969   0.490   5.406
10432SOL    HW132195   5.944   0.396   5.380
10432SOL    HW232196   5.990   0.543   5.324
10433SOL     OW32197   2.583   6.628   0.568
10433SOL    HW132198   2.507   6.693   0.569
10433SOL    HW232199   2.590   6.583   0.657
10434SOL     OW32200   1.915   1.314   3.635
10434SOL    HW132201   1.992   1.283   3.580
10434SOL    HW232202   1.891   1.243   3.702
10435SOL     OW32203   5.125   6.525   6.911
10435SOL    HW132204   5.166   6.465   6.980
10435SOL    HW232205   5.158   6.618   6.923
10436SOL     OW32206   1.127   6.001   3.042
10436SOL    HW132207   1.059   6.069   3.015
10436SOL    HW232208   1.140   6.003   3.141
10437SOL     OW32209   6.803   4.948   6.343
10437SOL    HW132210   6.818   4.876   6.275
10437SOL    HW232211   6.844   5.033   6.310
10438SOL     OW32212   3.465   5.925   6.545
10438SOL    HW132213   3.373   5.955   6.522
10438SOL    HW232214   3.487   5.842   6.494
10439SOL     OW32215   4.006   6.858   5.893
10439SOL    HW132216   4.019   6.955   5.874
10439SOL    HW232217   4.015   6.806   5.808
10440SOL     OW32218   2.085   5.509   0.599
10440SOL    HW132219   2.115   5.546   0.511
10440SOL    HW232220   2.144   5.545   0.671
10441SOL     OW32221   5.091   1.632   6.555
10441SOL    HW132222   5.042   1.554   6.594
10441SOL    HW232223   5.045   1.717   6.579
10442SOL     OW32224   4.346   5.246   5.677
10442SOL    HW132225   4.297   5.273   5.594
10442SOL    HW232226   4.316   5.155   5.706
10443SOL     OW32227   6.182   2.995   5.120
10443SOL    HW132228   6.258   3.057   5.100
10443SOL    HW232229   6.195   2.908   5.072
10444SOL     OW32230   3.959   5.398   4.020
10444SOL    HW132231   4.030   5.431   3.958
10444SOL    HW232232   3.880   5.367   3.967
10445SOL     OW32233   6.231   5.990   4.729
10445SOL    HW132234   6.251   5.929   4.805
10445SOL    HW232235   6.315   6.011   4.679
10446SOL     OW32236   1.136   5.341   6.393
10446SOL    HW132237   1.159   5.290   6.476
10446SOL    HW232238   1.093   5.427   6.418
10447SOL     OW32239   6.004   2.459   1.569
10447SOL    HW132240   6.008   2.451   1.469
10447SOL    HW232241   5.919   2.419   1.602
10448SOL     OW32242   3.596   3.912   2.481
10448SOL    HW132243   3.564   3.979   2.548
10448SOL    HW232244   3.616   3.959   2.395
10449SOL     OW32245   2.040   5.186   3.919
10449SOL    HW132246   1.969   5.256   3.921
10449SOL    HW232247   2.041   5.138   4.007
10450SOL     OW32248   0.276   2.775   1.179
10450SOL    HW132249   0.327   2.819   1.253
10450SOL    HW232250   0.213   2.707   1.217
10451SOL     OW32251   2.404   4.372   3.035
10451SOL    HW132252   2.393   4.292   3.095
10451SOL    HW232253   2.325   4.379   2.974
10452SOL     OW32254   1.271   3.180   4.907
10452SOL    HW132255   1.350   3.150   4.853
10452SOL    HW232256   1.187   3.155   4.859
10453SOL     OW32257   4.902   0.059   1.661
10453SOL    HW132258   4.954   0.049   1.576
10453SOL    HW232259   4.936   7.015   1.729
10454SOL     OW32260   4.915   3.624   2.234
10454SOL    HW132261   4.913   3.708   2.178
10454SOL    HW232262   4.932   3.546   2.175
10455SOL     OW32263   6.917   4.716   3.371
10455SOL    HW132264   6.858   4.796   3.381
10455SOL    HW232265   7.004   4.732   3.419
10456SOL     OW32266   4.121   5.783   0.928
10456SOL    HW132267   4.208   5.738   0.907
10456SOL    HW232268   4.075   5.733   1.002
10457SOL     OW32269   3.739   4.143   4.282
10457SOL    HW132270   3.673   4.075   4.313
10457SOL    HW232271   3.740   4.221   4.344
10458SOL     OW32272   0.186   0.095   1.306
10458SOL    HW132273   0.106   0.046   1.341
10458SOL    HW232274   0.263   0.032   1.298
10459SOL     OW32275   6.454   5.308   2.515
10459SOL    HW132276   6.388   5.233   2.524
10459SOL    HW232277   6.521   5.284   2.445
10460SOL     OW32278   1.845   5.756   2.316
10460SOL    HW132279   1.879   5.704   2.237
10460SOL    HW232280   1.908   5.746   2.393
10461SOL     OW32281   2.674   1.883   6.604
10461SOL    HW132282   2.636   1.882   6.697
10461SOL    HW232283   2.602   1.862   6.538
10462SOL     OW32284   6.607   0.179   0.981
10462SOL    HW132285   6.541   0.152   0.910
10462SOL    HW232286   6.615   0.279   0.982
10463SOL     OW32287   2.820   3.873   0.893
10463SOL    HW132288   2.745   3.896   0.831
10463SOL    HW232289   2.816   3.934   0.973
10464SOL     OW32290   5.534   0.459   1.718
10464SOL    HW132291   5.591   0.480   1.638
10464SOL    HW232292   5.590   0.465   1.801
10465SOL     OW32293   6.198   4.861   5.884
10465SOL    HW132294   6.267   4.894   5.948
10465SOL    HW232295   6.136   4.798   5.931
10466SOL     OW32296   4.963   5.883   5.852
10466SOL    HW132297   5.008   5.794   5.865
10466SOL    HW232298   4.889   5.874   5.785
10467SOL     OW32299   3.716   0.595   4.245
10467SOL    HW132300   3.679   0.592   4.338
10467SOL    HW232301   3.716   0.690   4.212
10468SOL     OW32302   3.709   6.016   2.870
10468SOL    HW132303   3.809   6.020   2.874
10468SOL    HW232304   3.681   5.963   2.790
10469SOL     OW32305   1.202   4.769   0.475
10469SOL    HW132306   1.194   4.683   0.425
10469SOL    HW232307   1.299   4.789   0.491
10470SOL     OW32308   2.974   1.819   4.308
10470SOL    HW132309   2.935   1.898   4.355
10470SOL    HW232310   2.907   1.781   4.244
10471SOL     OW32311   3.870   3.689   0.331
10471SOL    HW132312   3.877   3.784   0.361
10471SOL    HW232313   3.962   3.655   0.310
10472SOL     OW32314   4.329   1.234   2.681
10472SOL    HW132315   4.425   1.225   2.657
10472SOL    HW232316   4.273   1.231   2.598
10473SOL     OW32317   4.799   5.838   0.652
10473SOL    HW132318   4.749   5.796   0.728
10473SOL    HW232319   4.849   5.918   0.686
10474SOL     OW32320   4.166   7.017   4.440
10474SOL    HW132321   4.120   6.971   4.365
10474SOL    HW232322   4.262   6.991   4.442
10475SOL     OW32323   3.979   6.147   1.547
10475SOL    HW132324   3.947   6.207   1.620
10475SOL    HW232325   4.077   6.128   1.560
10476SOL     OW32326   0.104   4.778   0.817
10476SOL    HW132327   0.131   4.824   0.733
10476SOL    HW232328   0.178   4.784   0.883
10477SOL     OW32329   5.536   4.564   5.157
10477SOL    HW132330   5.622   4.526   5.124
10477SOL    HW232331   5.527   4.659   5.126
10478SOL     OW32332   0.633   6.627   1.412
10478SOL    HW132333   0.637   6.547   1.471
10478SOL    HW232334   0.690   6.700   1.451
10479SOL     OW32335   1.816   4.888   3.647
10479SOL    HW132336   1.742   4.928   3.593
10479SOL    HW232337   1.777   4.840   3.725
10480SOL     OW32338   6.036   0.064   2.300
10480SOL    HW132339   6.082   0.149   2.276
10480SOL    HW232340   5.939   0.070   2.276
10481SOL     OW32341   2.510   0.794   4.858
10481SOL    HW132342   2.558   0.880   4.877
10481SOL    HW232343   2.459   0.766   4.940
10482SOL     OW32344   0.924   5.344   6.207
10482SOL    HW132345   1.010   5.347   6.257
10482SOL    HW232346   0.927   5.408   6.131
10483SOL     OW32347   6.985   5.409   0.842
10483SOL    HW132348   6.928   5.342   0.891
10483SOL    HW232349   6.945   5.500   0.851
10484SOL     OW32350   6.383   2.013   1.530
10484SOL    HW132351   6.304   2.039   1.586
10484SOL    HW232352   6.398   1.915   1.538
10485SOL     OW32353   3.391   3.910   3.757
10485SOL    HW132354   3.321   3.977   3.733
10485SOL    HW232355   3.480   3.942   3.725
10486SOL     OW32356   5.909   5.915   5.479
10486SOL    HW132357   5.892   5.829   5.431
10486SOL    HW232358   5.926   5.987   5.413
10487SOL     OW32359   4.788   2.018   1.964
10487SOL    HW132360   4.782   2.117   1.974
10487SOL    HW232361   4.857   1.996   1.895
10488SOL     OW32362   6.500   2.319   5.444
10488SOL    HW132363   6.499   2.286   5.349
10488SOL    HW232364   6.542   2.410   5.447
10489SOL     OW32365   6.082   4.127   4.476
10489SOL    HW132366   6.017   4.181   4.529
10489SOL    HW232367   6.127   4.060   4.536
10490SOL     OW32368   5.850   6.511   6.710
10490SOL    HW132369   5.753   6.504   6.687
10490SOL    HW232370   5.868   6.602   6.749
10491SOL     OW32371   1.985   2.544   5.399
10491SOL    HW132372   2.018   2.461   5.354
10491SOL    HW232373   2.051   2.573   5.468
10492SOL     OW32374   3.788   6.833   6.673
10492SOL    HW132375   3.846   6.755   6.649
10492SOL    HW232376   3.844   6.914   6.685
10493SOL     OW32377   3.614   5.648   1.671
10493SOL    HW132378   3.526   5.606   1.646
10493SOL    HW232379   3.684   5.577   1.676
10494SOL     OW32380   1.523   4.348   4.679
10494SOL    HW132381   1.599   4.318   4.622
10494SOL    HW232382   1.455   4.275   4.685
10495SOL     OW32383   6.535   6.389   0.869
10495SOL    HW132384   6.517   6.291   0.879
10495SOL    HW232385   6.606   6.417   0.933
10496SOL     OW32386   0.641   3.197   6.052
10496SOL    HW132387   0.597   3.108   6.054
10496SOL    HW232388   0.616   3.245   5.967
10497SOL     OW32389   2.328   0.082   1.723
10497SOL    HW132390   2.421   0.118   1.709
10497SOL    HW232391   2.264   0.132   1.664
10498SOL     OW32392   4.627   4.395   6.917
10498SOL    HW132393   4.536   4.376   6.881
10498SOL    HW232394   4.692   4.329   6.881
10499SOL     OW32395   6.092   4.236   2.534
10499SOL    HW132396   6.117   4.263   2.627
10499SOL    HW232397   6.118   4.309   2.471
10500SOL     OW32398   0.702   3.395   5.414
10500SOL    HW132399   0.770   3.343   5.363
10500SOL    HW232400   0.747   3.455   5.479
10501SOL     OW32401   3.603   4.892   3.222
10501SOL    HW132402   3.690   4.874   3.177
10501SOL    HW232403   3.619   4.930   3.313
10502SOL     OW32404   3.442   3.497   2.296
10502SOL    HW132405   3.418   3.455   2.384
10502SOL    HW232406   3.423   3.596   2.301
10503SOL     OW32407   6.880   2.291   6.305
10503SOL    HW132408   6.963   2.250   6.343
10503SOL    HW232409   6.865   2.256   6.213
10504SOL     OW32410   1.046   3.066   5.991
10504SOL    HW132411   1.001   3.138   5.939
10504SOL    HW232412   1.010   3.065   6.084
10505SOL     OW32413   5.861   6.869   0.920
10505SOL    HW132414   5.920   6.947   0.904
10505SOL    HW232415   5.823   6.836   0.834
10506SOL     OW32416   1.165   3.143   6.404
10506SOL    HW132417   1.212   3.164   6.318
10506SOL    HW232418   1.230   3.105   6.469
10507SOL     OW32419   1.268   5.278   5.755
10507SOL    HW132420   1.288   5.276   5.853
10507SOL    HW232421   1.300   5.194   5.713
10508SOL     OW32422   1.832   5.138   5.479
10508SOL    HW132423   1.752   5.095   5.438
10508SOL    HW232424   1.884   5.187   5.409
10509SOL     OW32425   4.539   2.360   2.138
10509SOL    HW132426   4.540   2.460   2.127
10509SOL    HW232427   4.521   2.338   2.234
10510SOL     OW32428   5.756   6.117   3.703
10510SOL    HW132429   5.746   6.199   3.647
10510SOL    HW232430   5.801   6.140   3.789
10511SOL     OW32431   4.812   1.579   1.363
10511SOL    HW132432   4.823   1.505   1.296
10511SOL    HW232433   4.723   1.621   1.352
10512SOL     OW32434   4.783   1.033   5.025
10512SOL    HW132435   4.724   1.019   5.104
10512SOL    HW232436   4.727   1.065   4.948
10513SOL     OW32437   4.151   2.900   0.889
10513SOL    HW132438   4.228   2.849   0.850
10513SOL    HW232439   4.183   2.990   0.918
10514SOL     OW32440   1.435   3.217   1.769
10514SOL    HW132441   1.412   3.270   1.851
10514SOL    HW232442   1.502   3.268   1.715
10515SOL     OW32443   2.279   2.857   4.862
10515SOL    HW132444   2.188   2.847   4.902
10515SOL    HW232445   2.345   2.876   4.935
10516SOL     OW32446   4.429   2.147   1.599
10516SOL    HW132447   4.349   2.169   1.655
10516SOL    HW232448   4.402   2.147   1.502
10517SOL     OW32449   0.970   2.581   2.395
10517SOL    HW132450   0.986   2.511   2.325
10517SOL    HW232451   0.874   2.580   2.422
10518SOL     OW32452   0.635   5.261   2.829
10518SOL    HW132453   0.583   5.273   2.914
10518SOL    HW232454   0.732   5.278   2.848
10519SOL     OW32455   3.877   6.947   0.874
10519SOL    HW132456   3.936   6.962   0.794
10519SOL    HW232457   3.906   7.007   0.948
10520SOL     OW32458   0.999   2.866   5.825
10520SOL    HW132459   0.984   2.950   5.877
10520SOL    HW232460   1.090   2.867   5.785
10521SOL     OW32461   6.379   2.967   2.800
10521SOL    HW132462   6.371   2.867   2.799
10521SOL    HW232463   6.452   2.995   2.737
10522SOL     OW32464   5.587   2.078   3.701
10522SOL    HW132465   5.540   2.166   3.696
10522SOL    HW232466   5.606   2.045   3.609
10523SOL     OW32467   1.312   4.317   3.303
10523SOL    HW132468   1.266   4.237   3.264
10523SOL    HW232469   1.343   4.376   3.228
10524SOL     OW32470   6.602   6.332   5.190
10524SOL    HW132471   6.548   6.299   5.113
10524SOL    HW232472   6.698   6.343   5.162
10525SOL     OW32473   5.016   1.310   3.574
10525SOL    HW132474   4.971   1.252   3.642
10525SOL    HW232475   5.115   1.307   3.588
10526SOL     OW32476   0.792   4.695   6.733
10526SOL    HW132477   0.848   4.730   6.808
10526SOL    HW232478   0.699   4.732   6.741
10527SOL     OW32479   0.674   6.918   5.868
10527SOL    HW132480   0.768   6.887   5.885
10527SOL    HW232481   0.667   6.955   5.775
10528SOL     OW32482   1.283   3.818   5.512
10528SOL    HW132483   1.201   3.813   5.455
10528SOL    HW232484   1.364   3.823   5.454
10529SOL     OW32485   0.193   5.672   0.700
10529SOL    HW132486   0.269   5.690   0.638
10529SOL    HW232487   0.175   5.574   0.702
10530SOL     OW32488   6.977   6.207   1.509
10530SOL    HW132489   0.041   6.247   1.471
10530SOL    HW232490   6.935   6.271   1.572
10531SOL     OW32491   2.934   3.231   5.070
10531SOL    HW132492   2.901   3.174   5.145
10531SOL    HW232493   2.933   3.327   5.098
10532SOL     OW32494   5.356   6.122   6.900
10532SOL    HW132495   5.267   6.128   6.945
10532SOL    HW232496   5.352   6.055   6.826
10533SOL     OW32497   3.925   0.354   2.873
10533SOL    HW132498   3.874   0.277   2.833
10533SOL    HW232499   4.022   0.344   2.852
10534SOL     OW32500   1.450   5.807   4.607
10534SOL    HW132501   1.468   5.711   4.586
10534SOL    HW232502   1.479   5.864   4.530
10535SOL     OW32503   3.615   2.105   2.730
10535SOL    HW132504   3.647   2.026   2.678
10535SOL    HW232505   3.693   2.165   2.750
10536SOL     OW32506   4.842   3.072   4.919
10536SOL    HW132507   4.820   3.140   4.849
10536SOL    HW232508   4.833   3.113   5.009
10537SOL     OW32509   3.414   6.949   3.953
10537SOL    HW132510   3.463   6.961   4.040
10537SOL    HW232511   3.478   6.958   3.877
10538SOL     OW32512   6.997   3.597   2.993
10538SOL    HW132513   0.009   3.635   2.906
10538SOL    HW232514   0.045   3.613   3.063
10539SOL     OW32515   6.887   6.990   3.632
10539SOL    HW132516   6.889   6.890   3.634
10539SOL    HW232517   6.944   0.006   3.706
10540SOL     OW32518   1.616   4.297   6.578
10540SOL    HW132519   1.583   4.361   6.648
10540SOL    HW232520   1.542   4.278   6.514
10541SOL     OW32521   3.284   3.455   5.220
10541SOL    HW132522   3.279   3.474   5.318
10541SOL    HW232523   3.271   3.357   5.205
10542SOL     OW32524   4.967   6.999   3.560
10542SOL    HW132525   5.041   0.041   3.534
10542SOL    HW232526   4.913   0.021   3.633
10543SOL     OW32527   1.322   3.455   4.351
10543SOL    HW132528   1.322   3.492   4.443
10543SOL    HW232529   1.364   3.520   4.288
10544SOL     OW32530   2.120   1.451   3.004
10544SOL    HW132531   2.169   1.536   3.022
10544SOL    HW232532   2.111   1.399   3.089
10545SOL     OW32533   2.306   2.729   2.434
10545SOL    HW132534   2.223   2.717   2.378
10545SOL    HW232535   2.281   2.771   2.521
10546SOL     OW32536   3.090   6.791   6.423
10546SOL    HW132537   3.097   6.887   6.451
10546SOL    HW232538   3.071   6.735   6.503
10547SOL     OW32539   4.552   6.742   5.293
10547SOL    HW132540   4.460   6.760   5.259
10547SOL    HW232541   4.618   6.765   5.221
10548SOL     OW32542   6.716   6.284   2.929
10548SOL    HW132543   6.723   6.383   2.925
10548SOL    HW232544   6.623   6.258   2.954
10549SOL     OW32545   6.644   0.281   1.757
10549SOL    HW132546   6.724   0.310   1.810
10549SOL    HW232547   6.649   0.318   1.665
10550SOL     OW32548   4.798   5.977   3.322
10550SOL    HW132549   4.787   5.885   3.283
10550SOL    HW232550   4.893   6.006   3.311
10551SOL     OW32551   3.117   0.339   5.325
10551SOL    HW132552   3.089   0.261   5.380
10551SOL    HW232553   3.063   0.419   5.351
10552SOL     OW32554   2.825   0.466   3.768
10552SOL    HW132555   2.841   0.481   3.671
10552SOL    HW232556   2.869   0.537   3.822
10553SOL     OW32557   6.609   5.577   1.273
10553SOL    HW132558   6.571   5.619   1.356
10553SOL    HW232559   6.703   5.547   1.292
10554SOL     OW32560   5.786   6.201   2.561
10554SOL    HW132561   5.884   6.191   2.575
10554SOL    HW232562   5.739   6.116   2.587
10555SOL     OW32563   3.436   3.284   1.174
10555SOL    HW132564   3.445   3.383   1.160
10555SOL    HW232565   3.423   3.239   1.086
10556SOL     OW32566   2.169   1.528   2.271
10556SOL    HW132567   2.226   1.609   2.265
10556SOL    HW232568   2.074   1.551   2.247
10557SOL     OW32569   2.753   4.780   3.147
10557SOL    HW132570   2.711   4.699   3.107
10557SOL    HW232571   2.821   4.816   3.083
10558SOL     OW32572   3.350   5.211   5.419
10558SOL    HW132573   3.310   5.252   5.337
10558SOL    HW232574   3.321   5.263   5.500
10559SOL     OW32575   4.252   6.462   1.406
10559SOL    HW132576   4.157   6.432   1.398
10559SOL    HW232577   4.289   6.479   1.314
10560SOL     OW32578   5.662   6.669   2.754
10560SOL    HW132579   5.660   6.696   2.658
10560SOL    HW232580   5.740   6.712   2.800
10561SOL     OW32581   6.492   4.644   0.291
10561SOL    HW132582   6.543   4.718   0.335
10561SOL    HW232583   6.556   4.579   0.250
10562SOL     OW32584   4.603   5.735   2.014
10562SOL    HW132585   4.591   5.823   2.060
10562SOL    HW232586   4.693   5.698   2.036
10563SOL     OW32587   0.212   6.727   2.163
10563SOL    HW132588   0.175   6.783   2.236
10563SOL    HW232589   0.137   6.687   2.110
10564SOL     OW32590   5.136   4.249   3.575
10564SOL    HW132591   5.164   4.168   3.525
10564SOL    HW232592   5.101   4.222   3.665
10565SOL     OW32593   0.879   0.885   6.022
10565SOL    HW132594   0.844   0.804   5.974
10565SOL    HW232595   0.874   0.869   6.121
10566SOL     OW32596   3.774   2.521   0.139
10566SOL    HW132597   3.861   2.561   0.169
10566SOL    HW232598   3.700   2.585   0.159
10567SOL     OW32599   2.343   2.246   6.340
10567SOL    HW132600   2.386   2.165   6.300
10567SOL    HW232601   2.277   2.218   6.409
10568SOL     OW32602   4.349   2.453   6.108
10568SOL    HW132603   4.404   2.392   6.051
10568SOL    HW232604   4.383   2.547   6.098
10569SOL     OW32605   5.716   0.474   0.307
10569SOL    HW132606   5.749   0.479   0.401
10569SOL    HW232607   5.631   0.526   0.299
10570SOL     OW32608   1.160   4.066   3.231
10570SOL    HW132609   1.092   4.020   3.173
10570SOL    HW232610   1.248   4.019   3.222
10571SOL     OW32611   6.526   4.252   5.545
10571SOL    HW132612   6.555   4.236   5.639
10571SOL    HW232613   6.544   4.347   5.521
10572SOL     OW32614   6.198   4.175   1.026
10572SOL    HW132615   6.183   4.192   1.124
10572SOL    HW232616   6.268   4.238   0.992
10573SOL     OW32617   6.324   2.387   2.938
10573SOL    HW132618   6.269   2.469   2.953
10573SOL    HW232619   6.267   2.314   2.901
10574SOL     OW32620   6.054   3.203   2.441
10574SOL    HW132621   6.098   3.138   2.503
10574SOL    HW232622   5.980   3.250   2.489
10575SOL     OW32623   6.082   6.423   2.000
10575SOL    HW132624   6.013   6.435   2.071
10575SOL    HW232625   6.151   6.358   2.030
10576SOL     OW32626   1.747   4.315   4.458
10576SOL    HW132627   1.775   4.219   4.450
10576SOL    HW232628   1.663   4.329   4.405
10577SOL     OW32629   3.544   4.065   0.607
10577SOL    HW132630   3.466   4.004   0.589
10577SOL    HW232631   3.559   4.123   0.527
10578SOL     OW32632   0.428   3.645   3.914
10578SOL    HW132633   0.454   3.738   3.890
10578SOL    HW232634   0.498   3.581   3.883
10579SOL     OW32635   0.625   3.466   6.411
10579SOL    HW132636   0.710   3.500   6.451
10579SOL    HW232637   0.560   3.444   6.483
10580SOL     OW32638   6.057   6.974   0.187
10580SOL    HW132639   6.034   6.984   0.284
10580SOL    HW232640   6.135   0.013   0.165
10581SOL     OW32641   4.279   0.363   2.808
10581SOL    HW132642   4.263   0.372   2.709
10581SOL    HW232643   4.271   0.452   2.851
10582SOL     OW32644   6.314   3.843   6.232
10582SOL    HW132645   6.374   3.782   6.181
10582SOL    HW232646   6.293   3.802   6.321
10583SOL     OW32647   3.064   1.782   4.904
10583SOL    HW132648   3.137   1.814   4.964
10583SOL    HW232649   2.998   1.729   4.957
10584SOL     OW32650   0.930   6.770   3.834
10584SOL    HW132651   0.946   6.671   3.832
10584SOL    HW232652   0.907   6.802   3.743
10585SOL     OW32653   1.439   0.853   5.165
10585SOL    HW132654   1.438   0.949   5.137
10585SOL    HW232655   1.365   0.836   5.230
10586SOL     OW32656   4.009   4.253   5.253
10586SOL    HW132657   4.024   4.242   5.351
10586SOL    HW232658   4.083   4.307   5.213
10587SOL     OW32659   1.888   4.719   5.912
10587SOL    HW132660   1.986   4.707   5.929
10587SOL    HW232661   1.868   4.700   5.816
10588SOL     OW32662   1.371   3.819   3.499
10588SOL    HW132663   1.360   3.874   3.416
10588SOL    HW232664   1.281   3.795   3.535
10589SOL     OW32665   5.728   6.359   4.176
10589SOL    HW132666   5.812   6.413   4.183
10589SOL    HW232667   5.654   6.416   4.140
10590SOL     OW32668   0.801   5.158   2.192
10590SOL    HW132669   0.736   5.112   2.252
10590SOL    HW232670   0.815   5.103   2.110
10591SOL     OW32671   6.771   3.323   1.553
10591SOL    HW132672   6.711   3.370   1.619
10591SOL    HW232673   6.721   3.247   1.512
10592SOL     OW32674   6.776   1.089   4.715
10592SOL    HW132675   6.741   1.176   4.750
10592SOL    HW232676   6.873   1.082   4.736
10593SOL     OW32677   3.298   5.188   2.993
10593SOL    HW132678   3.331   5.097   3.017
10593SOL    HW232679   3.212   5.180   2.943
10594SOL     OW32680   3.290   5.445   3.819
10594SOL    HW132681   3.284   5.430   3.720
10594SOL    HW232682   3.255   5.536   3.842
10595SOL     OW32683   4.883   6.988   0.647
10595SOL    HW132684   4.861   6.937   0.564
10595SOL    HW232685   4.807   6.980   0.712
10596SOL     OW32686   5.207   3.341   0.114
10596SOL    HW132687   5.278   3.361   0.182
10596SOL    HW232688   5.241   3.274   0.049
10597SOL     OW32689   1.884   6.840   4.682
10597SOL    HW132690   1.830   6.788   4.615
10597SOL    HW232691   1.945   6.778   4.731
10598SOL     OW32692   2.945   1.172   6.023
10598SOL    HW132693   2.995   1.204   5.943
10598SOL    HW232694   2.916   1.251   6.078
10599SOL     OW32695   0.207   2.213   0.373
10599SOL    HW132696   0.261   2.233   0.455
10599SOL    HW232697   0.266   2.214   0.293
10600SOL     OW32698   3.553   1.926   1.657
10600SOL    HW132699   3.508   1.999   1.709
10600SOL    HW232700   3.510   1.838   1.679
10601SOL     OW32701   2.333   0.559   5.493
10601SOL    HW132702   2.425   0.525   5.512
10601SOL    HW232703   2.319   0.646   5.540
10602SOL     OW32704   7.012   6.931   1.436
10602SOL    HW132705   6.937   6.982   1.479
10602SOL    HW232706   0.038   6.874   1.505
10603SOL     OW32707   5.314   0.466   2.704
10603SOL    HW132708   5.401   0.474   2.753
10603SOL    HW232709   5.279   0.373   2.714
10604SOL     OW32710   4.942   0.257   4.754
10604SOL    HW132711   4.992   0.178   4.789
10604SOL    HW232712   4.949   0.260   4.654
10605SOL     OW32713   2.796   1.981   1.503
10605SOL    HW132714   2.839   2.070   1.519
10605SOL    HW232715   2.867   1.913   1.482
10606SOL     OW32716   6.438   0.756   0.243
10606SOL    HW132717   6.360   0.812   0.215
10606SOL    HW232718   6.498   0.810   0.302
10607SOL     OW32719   3.142   4.375   6.909
10607SOL    HW132720   3.208   4.423   6.967
10607SOL    HW232721   3.154   4.276   6.919
10608SOL     OW32722   5.813   4.053   4.193
10608SOL    HW132723   5.836   3.960   4.222
10608SOL    HW232724   5.897   4.103   4.172
10609SOL     OW32725   5.289   0.749   6.391
10609SOL    HW132726   5.338   0.779   6.473
10609SOL    HW232727   5.231   0.671   6.414
10610SOL     OW32728   0.115   1.156   3.715
10610SOL    HW132729   0.100   1.108   3.629
10610SOL    HW232730   0.199   1.209   3.709
10611SOL     OW32731   3.923   5.657   4.895
10611SOL    HW132732   3.905   5.560   4.915
10611SOL    HW232733   4.020   5.670   4.878
10612SOL     OW32734   6.048   2.281   3.252
10612SOL    HW132735   6.009   2.204   3.302
10612SOL    HW232736   5.977   2.349   3.234
10613SOL     OW32737   4.155   6.243   4.569
10613SOL    HW132738   4.172   6.340   4.582
10613SOL    HW232739   4.062   6.230   4.533
10614SOL     OW32740   4.013   1.795   6.042
10614SOL    HW132741   3.996   1.790   5.944
10614SOL    HW232742   3.977   1.882   6.077
10615SOL     OW32743   2.380   1.490   5.289
10615SOL    HW132744   2.376   1.530   5.381
10615SOL    HW232745   2.353   1.558   5.222
10616SOL     OW32746   1.937   6.013   6.935
10616SOL    HW132747   1.868   6.008   7.008
10616SOL    HW232748   1.896   5.986   6.848
10617SOL     OW32749   2.045   2.955   1.146
10617SOL    HW132750   2.042   3.052   1.170
10617SOL    HW232751   2.090   2.904   1.219
10618SOL     OW32752   1.162   5.150   3.566
10618SOL    HW132753   1.247   5.198   3.545
10618SOL    HW232754   1.096   5.214   3.604
10619SOL     OW32755   1.091   2.497   2.717
10619SOL    HW132756   1.034   2.443   2.654
10619SOL    HW232757   1.141   2.567   2.665
10620SOL     OW32758   3.485   0.689   5.846
10620SOL    HW132759   3.530   0.775   5.823
10620SOL    HW232760   3.430   0.701   5.929
10621SOL     OW32761   0.862   3.861   2.979
10621SOL    HW132762   0.851   3.768   3.012
10621SOL    HW232763   0.958   3.879   2.959
10622SOL     OW32764   4.258   1.815   6.934
10622SOL    HW132765   4.193   1.755   6.887
10622SOL    HW232766   4.272   1.898   6.881
10623SOL     OW32767   4.954   6.785   5.807
10623SOL    HW132768   4.989   6.793   5.713
10623SOL    HW232769   4.926   6.691   5.824
10624SOL     OW32770   1.083   2.114   0.297
10624SOL    HW132771   1.002   2.166   0.325
10624SOL    HW232772   1.078   2.021   0.333
10625SOL     OW32773   5.748   5.096   0.309
10625SOL    HW132774   5.701   5.184   0.299
10625SOL    HW232775   5.845   5.108   0.288
10626SOL     OW32776   5.656   3.266   1.048
10626SOL    HW132777   5.577   3.219   1.088
10626SOL    HW232778   5.634   3.362   1.031
10627SOL     OW32779   5.549   5.400   5.485
10627SOL    HW132780   5.569   5.495   5.462
10627SOL    HW232781   5.539   5.391   5.584
10628SOL     OW32782   3.540   6.890   0.210
10628SOL    HW132783   3.557   6.944   0.293
10628SOL    HW232784   3.468   6.934   0.156
10629SOL     OW32785   3.714   5.649   4.496
10629SOL    HW132786   3.650   5.694   4.433
10629SOL    HW232787   3.674   5.646   4.588
10630SOL     OW32788   3.906   1.530   1.562
10630SOL    HW132789   3.975   1.491   1.502
10630SOL    HW232790   3.824   1.473   1.561
10631SOL     OW32791   3.683   5.895   0.952
10631SOL    HW132792   3.688   5.803   0.990
10631SOL    HW232793   3.757   5.951   0.990
10632SOL     OW32794   5.103   5.950   3.622
10632SOL    HW132795   5.183   5.995   3.662
10632SOL    HW232796   5.020   6.000   3.647
10633SOL     OW32797   1.866   3.176   0.967
10633SOL    HW132798   1.782   3.132   0.999
10633SOL    HW232799   1.924   3.109   0.921
10634SOL     OW32800   0.166   4.059   0.022
10634SOL    HW132801   0.230   3.983   0.032
10634SOL    HW232802   0.216   4.145   0.017
10635SOL     OW32803   2.274   5.018   6.398
10635SOL    HW132804   2.218   4.936   6.384
10635SOL    HW232805   2.350   4.997   6.460
10636SOL     OW32806   6.469   2.146   0.206
10636SOL    HW132807   6.481   2.159   0.305
10636SOL    HW232808   6.558   2.124   0.165
10637SOL     OW32809   2.482   0.400   6.953
10637SOL    HW132810   2.505   0.361   6.864
10637SOL    HW232811   2.513   0.495   6.957
10638SOL     OW32812   5.704   5.289   1.465
10638SOL    HW132813   5.653   5.228   1.525
10638SOL    HW232814   5.684   5.384   1.489
10639SOL     OW32815   0.668   5.503   1.904
10639SOL    HW132816   0.640   5.482   1.998
10639SOL    HW232817   0.707   5.422   1.861
10640SOL     OW32818   4.381   6.671   3.637
10640SOL    HW132819   4.366   6.579   3.674
10640SOL    HW232820   4.444   6.721   3.695
10641SOL     OW32821   1.199   1.448   3.592
10641SOL    HW132822   1.238   1.379   3.531
10641SOL    HW232823   1.133   1.504   3.542
10642SOL     OW32824   6.903   3.003   6.105
10642SOL    HW132825   6.935   2.956   6.187
10642SOL    HW232826   6.812   3.041   6.122
10643SOL     OW32827   2.446   4.924   5.975
10643SOL    HW132828   2.489   4.918   6.065
10643SOL    HW232829   2.361   4.975   5.982
10644SOL     OW32830   6.499   3.111   3.011
10644SOL    HW132831   6.447   3.071   2.936
10644SOL    HW232832   6.437   3.134   3.086
10645SOL     OW32833   2.442   2.179   2.983
10645SOL    HW132834   2.404   2.086   2.987
10645SOL    HW232835   2.538   2.174   2.957
10646SOL     OW32836   5.624   0.875   3.234
10646SOL    HW132837   5.660   0.951   3.287
10646SOL    HW232838   5.604   0.798   3.294
10647SOL     OW32839   3.415   5.480   5.133
10647SOL    HW132840   3.438   5.568   5.092
10647SOL    HW232841   3.498   5.439   5.171
10648SOL     OW32842   4.560   4.483   5.831
10648SOL    HW132843   4.523   4.488   5.924
10648SOL    HW232844   4.539   4.568   5.782
10649SOL     OW32845   6.136   3.299   2.834
10649SOL    HW132846   6.167   3.391   2.858
10649SOL    HW232847   6.067   3.305   2.762
10650SOL     OW32848   1.009   0.214   3.774
10650SOL    HW132849   0.949   0.187   3.698
10650SOL    HW232850   1.030   0.311   3.767
10651SOL     OW32851   3.382   6.293   5.755
10651SOL    HW132852   3.442   6.213   5.767
10651SOL    HW232853   3.432   6.376   5.779
10652SOL     OW32854   2.189   0.553   0.381
10652SOL    HW132855   2.102   0.577   0.339
10652SOL    HW232856   2.263   0.599   0.332
10653SOL     OW32857   4.121   6.068   4.794
10653SOL    HW132858   4.132   5.972   4.771
10653SOL    HW232859   4.141   6.125   4.714
10654SOL     OW32860   6.037   1.425   4.282
10654SOL    HW132861   6.045   1.444   4.380
10654SOL    HW232862   6.117   1.462   4.234
10655SOL     OW32863   0.145   4.499   1.952
10655SOL    HW132864   0.092   4.417   1.928
10655SOL    HW232865   0.235   4.493   1.910
10656SOL     OW32866   6.057   2.549   3.963
10656SOL    HW132867   6.033   2.473   4.024
10656SOL    HW232868   6.013   2.633   3.996
10657SOL     OW32869   4.817   6.490   4.234
10657SOL    HW132870   4.772   6.402   4.251
10657SOL    HW232871   4.760   6.544   4.172
10658SOL     OW32872   0.970   2.825   5.309
10658SOL    HW132873   0.976   2.798   5.213
10658SOL    HW232874   0.996   2.920   5.319
10659SOL     OW32875   0.729   5.601   0.516
10659SOL    HW132876   0.741   5.573   0.612
10659SOL    HW232877   0.783   5.540   0.457
10660SOL     OW32878   5.490   3.150   5.526
10660SOL    HW132879   5.403   3.201   5.525
10660SOL    HW232880   5.493   3.092   5.607
10661SOL     OW32881   2.787   4.818   5.905
10661SOL    HW132882   2.763   4.915   5.903
10661SOL    HW232883   2.794   4.784   5.811
10662SOL     OW32884   2.653   1.211   1.535
10662SOL    HW132885   2.577   1.169   1.485
10662SOL    HW232886   2.659   1.171   1.627
10663SOL     OW32887   0.952   1.804   3.343
10663SOL    HW132888   0.908   1.883   3.300
10663SOL    HW232889   0.941   1.810   3.443
10664SOL     OW32890   0.491   5.514   4.992
10664SOL    HW132891   0.437   5.444   5.040
10664SOL    HW232892   0.560   5.469   4.936
10665SOL     OW32893   2.963   2.822   7.012
10665SOL    HW132894   2.934   2.836   6.917
10665SOL    HW232895   2.990   2.727   0.005
10666SOL     OW32896   3.968   3.955   1.941
10666SOL    HW132897   3.952   3.945   2.039
10666SOL    HW232898   4.016   3.875   1.906
10667SOL     OW32899   5.029   2.516   3.695
10667SOL    HW132900   4.934   2.495   3.671
10667SOL    HW232901   5.030   2.583   3.769
10668SOL     OW32902   3.515   2.935   5.377
10668SOL    HW132903   3.445   3.008   5.383
10668SOL    HW232904   3.518   2.900   5.284
10669SOL     OW32905   5.721   1.477   1.527
10669SOL    HW132906   5.771   1.481   1.440
10669SOL    HW232907   5.783   1.448   1.600
10670SOL     OW32908   4.855   3.553   4.479
10670SOL    HW132909   4.853   3.531   4.576
10670SOL    HW232910   4.874   3.651   4.467
10671SOL     OW32911   1.836   3.137   4.628
10671SOL    HW132912   1.834   3.041   4.657
10671SOL    HW232913   1.930   3.170   4.629
10672SOL     OW32914   5.802   3.240   1.516
10672SOL    HW132915   5.866   3.218   1.589
10672SOL    HW232916   5.783   3.339   1.517
10673SOL     OW32917   1.954   1.294   1.121
10673SOL    HW132918   1.873   1.241   1.098
10673SOL    HW232919   2.007   1.312   1.038
10674SOL     OW32920   4.048   3.736   3.442
10674SOL    HW132921   4.106   3.804   3.487
10674SOL    HW232922   3.967   3.720   3.499
10675SOL     OW32923   3.765   6.764   5.322
10675SOL    HW132924   3.722   6.812   5.245
10675SOL    HW232925   3.703   6.695   5.357
10676SOL     OW32926   1.621   0.376   5.390
10676SOL    HW132927   1.677   0.454   5.362
10676SOL    HW232928   1.662   0.291   5.355
10677SOL     OW32929   0.090   1.526   0.750
10677SOL    HW132930   0.177   1.481   0.732
10677SOL    HW232931   0.017   1.457   0.753
10678SOL     OW32932   4.166   5.629   3.365
10678SOL    HW132933   4.225   5.658   3.290
10678SOL    HW232934   4.166   5.699   3.437
10679SOL     OW32935   4.175   3.276   6.634
10679SOL    HW132936   4.218   3.203   6.687
10679SOL    HW232937   4.086   3.244   6.599
10680SOL     OW32938   4.293   1.440   4.429
10680SOL    HW132939   4.375   1.384   4.444
10680SOL    HW232940   4.288   1.466   4.332
10681SOL     OW32941   1.513   2.889   5.380
10681SOL    HW132942   1.512   2.883   5.280
10681SOL    HW232943   1.477   2.804   5.419
10682SOL     OW32944   5.309   3.435   6.069
10682SOL    HW132945   5.277   3.498   6.140
10682SOL    HW232946   5.409   3.438   6.066
10683SOL     OW32947   2.862   0.626   3.384
10683SOL    HW132948   2.799   0.550   3.375
10683SOL    HW232949   2.956   0.592   3.393
10684SOL     OW32950   4.383   4.552   2.018
10684SOL    HW132951   4.378   4.453   2.031
10684SOL    HW232952   4.457   4.573   1.953
10685SOL     OW32953   0.792   5.976   1.149
10685SOL    HW132954   0.804   6.062   1.099
10685SOL    HW232955   0.695   5.961   1.166
10686SOL     OW32956   2.742   1.461   6.425
10686SOL    HW132957   2.699   1.493   6.341
10686SOL    HW232958   2.807   1.530   6.457
10687SOL     OW32959   0.612   4.062   3.156
10687SOL    HW132960   0.603   3.995   3.082
10687SOL    HW232961   0.696   4.115   3.141
10688SOL     OW32962   5.035   2.155   2.196
10688SOL    HW132963   5.058   2.132   2.101
10688SOL    HW232964   5.034   2.255   2.206
10689SOL     OW32965   0.023   0.265   2.942
10689SOL    HW132966   0.058   0.185   2.990
10689SOL    HW232967   6.954   0.243   2.900
10690SOL     OW32968   0.099   7.014   4.166
10690SOL    HW132969   0.036   0.007   4.242
10690SOL    HW232970   0.193   0.013   4.196
10691SOL     OW32971   3.209   0.447   3.128
10691SOL    HW132972   3.239   0.505   3.051
10691SOL    HW232973   3.129   0.394   3.100
10692SOL     OW32974   2.207   0.571   3.838
10692SOL    HW132975   2.276   0.532   3.899
10692SOL    HW232976   2.181   0.503   3.769
10693SOL     OW32977   1.642   5.544   0.697
10693SOL    HW132978   1.551   5.547   0.656
10693SOL    HW232979   1.649   5.617   0.765
10694SOL     OW32980   4.037   6.704   5.207
10694SOL    HW132981   4.106   6.770   5.236
10694SOL    HW232982   3.957   6.710   5.267
10695SOL     OW32983   6.457   4.245   1.823
10695SOL    HW132984   6.370   4.275   1.783
10695SOL    HW232985   6.531   4.265   1.760
10696SOL     OW32986   6.616   4.947   4.368
10696SOL    HW132987   6.681   4.948   4.292
10696SOL    HW232988   6.661   4.913   4.451
10697SOL     OW32989   1.357   5.342   5.435
10697SOL    HW132990   1.337   5.255   5.480
10697SOL    HW232991   1.360   5.414   5.504
10698SOL     OW32992   4.638   2.922   0.072
10698SOL    HW132993   4.700   2.915   7.013
10698SOL    HW232994   4.643   3.015   0.110
10699SOL     OW32995   3.393   3.200   0.448
10699SOL    HW132996   3.391   3.298   0.431
10699SOL    HW232997   3.485   3.165   0.430
10700SOL     OW32998   4.968   1.050   1.107
10700SOL    HW132999   4.876   1.082   1.129
10700SOL    HW233000   4.972   0.950   1.119
10701SOL     OW33001   2.811   0.853   6.196
10701SOL    HW133002   2.849   0.781   6.254
10701SOL    HW233003   2.725   0.885   6.234
10702SOL     OW33004   5.353   2.334   1.875
10702SOL    HW133005   5.427   2.341   1.809
10702SOL    HW233006   5.304   2.248   1.861
10703SOL     OW33007   1.555   2.602   6.455
10703SOL    HW133008   1.549   2.638   6.362
10703SOL    HW233009   1.636   2.544   6.463
10704SOL     OW33010   6.111   6.814   1.763
10704SOL    HW133011   6.159   6.902   1.758
10704SOL    HW233012   6.175   6.742   1.786
10705SOL     OW33013   5.929   4.516   1.329
10705SOL    HW133014   5.898   4.437   1.277
10705SOL    HW233015   5.939   4.491   1.426
10706SOL     OW33016   4.762   0.282   1.732
10706SOL    HW133017   4.827   0.206   1.734
10706SOL    HW233018   4.683   0.259   1.788
10707SOL     OW33019   5.488   0.521   4.162
10707SOL    HW133020   5.434   0.584   4.105
10707SOL    HW233021   5.578   0.507   4.119
10708SOL     OW33022   4.223   1.923   2.112
10708SOL    HW133023   4.184   1.932   2.204
10708SOL    HW233024   4.303   1.982   2.103
10709SOL     OW33025   6.225   5.386   3.843
10709SOL    HW133026   6.324   5.401   3.851
10709SOL    HW233027   6.185   5.459   3.788
10710SOL     OW33028   5.373   1.203   3.130
10710SOL    HW133029   5.453   1.248   3.170
10710SOL    HW233030   5.316   1.271   3.085
10711SOL     OW33031   3.902   6.699   1.806
10711SOL    HW133032   3.881   6.713   1.709
10711SOL    HW233033   3.985   6.749   1.830
10712SOL     OW33034   4.720   6.457   2.953
10712SOL    HW133035   4.687   6.548   2.929
10712SOL    HW233036   4.769   6.461   3.040
10713SOL     OW33037   1.576   3.978   1.030
10713SOL    HW133038   1.675   3.969   1.019
10713SOL    HW233039   1.535   4.002   0.942
10714SOL     OW33040   4.124   3.260   4.326
10714SOL    HW133041   4.052   3.280   4.260
10714SOL    HW233042   4.211   3.295   4.291
10715SOL     OW33043   6.099   0.958   2.158
10715SOL    HW133044   6.175   0.933   2.217
10715SOL    HW233045   6.025   0.891   2.169
10716SOL     OW33046   6.061   2.659   3.687
10716SOL    HW133047   6.090   2.596   3.615
10716SOL    HW233048   6.082   2.620   3.777
10717SOL     OW33049   1.437   2.433   6.867
10717SOL    HW133050   1.380   2.409   6.788
10717SOL    HW233051   1.395   2.401   6.951
10718SOL     OW33052   1.349   5.075   5.565
10718SOL    HW133053   1.298   5.022   5.498
10718SOL    HW233054   1.423   5.019   5.603
10719SOL     OW33055   6.246   5.442   4.598
10719SOL    HW133056   6.161   5.488   4.574
10719SOL    HW233057   6.323   5.497   4.566
10720SOL     OW33058   5.892   5.554   4.053
10720SOL    HW133059   5.973   5.579   4.107
10720SOL    HW233060   5.882   5.455   4.053
10721SOL     OW33061   5.093   3.852   5.161
10721SOL    HW133062   5.183   3.815   5.137
10721SOL    HW233063   5.104   3.933   5.218
10722SOL     OW33064   0.166   4.092   6.121
10722SOL    HW133065   0.196   4.123   6.031
10722SOL    HW233066   0.163   3.992   6.123
10723SOL     OW33067   0.080   0.240   0.285
10723SOL    HW133068   0.042   0.237   0.377
10723SOL    HW233069   0.179   0.245   0.290
10724SOL     OW33070   6.518   6.429   0.459
10724SOL    HW133071   6.566   6.365   0.520
10724SOL    HW233072   6.579   6.505   0.436
10725SOL     OW33073   2.773   5.448   5.617
10725SOL    HW133074   2.699   5.420   5.557
10725SOL    HW233075   2.800   5.542   5.595
10726SOL     OW33076   4.464   0.524   3.563
10726SOL    HW133077   4.431   0.438   3.603
10726SOL    HW233078   4.386   0.578   3.533
10727SOL     OW33079   1.290   5.935   6.083
10727SOL    HW133080   1.246   5.902   6.167
10727SOL    HW233081   1.353   6.009   6.105
10728SOL     OW33082   6.671   5.525   0.873
10728SOL    HW133083   6.650   5.439   0.919
10728SOL    HW233084   6.590   5.584   0.874
10729SOL     OW33085   6.876   2.439   1.240
10729SOL    HW133086   6.927   2.404   1.319
10729SOL    HW233087   6.828   2.364   1.195
10730SOL     OW33088   4.196   0.395   1.407
10730SOL    HW133089   4.229   0.334   1.335
10730SOL    HW233090   4.274   0.443   1.448
10731SOL     OW33091   4.363   1.304   0.807
10731SOL    HW133092   4.436   1.353   0.759
10731SOL    HW233093   4.300   1.370   0.848
10732SOL     OW33094   6.959   5.432   5.069
10732SOL    HW133095   6.872   5.404   5.028
10732SOL    HW233096   6.960   5.406   5.166
10733SOL     OW33097   5.944   2.173   6.886
10733SOL    HW133098   5.887   2.143   6.963
10733SOL    HW233099   5.935   2.272   6.874
10734SOL     OW33100   1.181   1.821   1.678
10734SOL    HW133101   1.155   1.807   1.583
10734SOL    HW233102   1.099   1.837   1.733
10735SOL     OW33103   0.487   3.621   2.150
10735SOL    HW133104   0.417   3.671   2.202
10735SOL    HW233105   0.447   3.536   2.114
10736SOL     OW33106   2.715   6.590   3.976
10736SOL    HW133107   2.708   6.625   3.883
10736SOL    HW233108   2.667   6.501   3.982
10737SOL     OW33109   0.143   2.588   1.772
10737SOL    HW133110   0.075   2.652   1.735
10737SOL    HW233111   0.136   2.500   1.724
10738SOL     OW33112   4.264   0.608   2.927
10738SOL    HW133113   4.190   0.594   2.993
10738SOL    HW233114   4.297   0.702   2.932
10739SOL     OW33115   2.315   2.439   1.908
10739SOL    HW133116   2.374   2.459   1.985
10739SOL    HW233117   2.296   2.341   1.904
10740SOL     OW33118   5.010   4.722   4.531
10740SOL    HW133119   5.084   4.663   4.563
10740SOL    HW233120   5.046   4.812   4.510
10741SOL     OW33121   3.491   0.460   2.249
10741SOL    HW133122   3.496   0.435   2.346
10741SOL    HW233123   3.551   0.400   2.196
10742SOL     OW33124   5.709   5.317   0.923
10742SOL    HW133125   5.733   5.331   1.019
10742SOL    HW233126   5.768   5.247   0.883
10743SOL     OW33127   2.419   2.383   3.646
10743SOL    HW133128   2.465   2.423   3.725
10743SOL    HW233129   2.326   2.421   3.639
10744SOL     OW33130   3.603   2.494   1.085
10744SOL    HW133131   3.600   2.492   0.985
10744SOL    HW233132   3.623   2.588   1.115
10745SOL     OW33133   6.961   5.914   6.001
10745SOL    HW133134   6.950   5.841   5.934
10745SOL    HW233135   0.016   5.974   5.973
10746SOL     OW33136   0.593   4.004   4.984
10746SOL    HW133137   0.586   3.915   5.030
10746SOL    HW233138   0.531   4.069   5.028
10747SOL     OW33139   3.285   0.987   4.521
10747SOL    HW133140   3.255   1.077   4.493
10747SOL    HW233141   3.263   0.973   4.618
10748SOL     OW33142   5.317   1.442   2.352
10748SOL    HW133143   5.368   1.527   2.364
10748SOL    HW233144   5.289   1.406   2.441
10749SOL     OW33145   1.836   6.434   4.606
10749SOL    HW133146   1.882   6.377   4.537
10749SOL    HW233147   1.860   6.401   4.697
10750SOL     OW33148   3.975   0.755   4.957
10750SOL    HW133149   3.903   0.784   4.894
10750SOL    HW233150   3.977   0.655   4.962
10751SOL     OW33151   2.032   5.016   4.425
10751SOL    HW133152   2.125   5.048   4.408
10751SOL    HW233153   2.016   4.931   4.374
10752SOL     OW33154   5.286   4.469   5.243
10752SOL    HW133155   5.375   4.488   5.200
10752SOL    HW233156   5.215   4.469   5.172
10753SOL     OW33157   0.526   3.086   4.038
10753SOL    HW133158   0.447   3.027   4.053
10753SOL    HW233159   0.605   3.051   4.088
10754SOL     OW33160   1.066   0.359   2.974
10754SOL    HW133161   1.036   0.374   3.068
10754SOL    HW233162   1.048   0.440   2.919
10755SOL     OW33163   6.246   6.531   1.497
10755SOL    HW133164   6.282   6.543   1.590
10755SOL    HW233165   6.147   6.541   1.498
10756SOL     OW33166   6.383   6.316   4.981
10756SOL    HW133167   6.311   6.286   4.918
10756SOL    HW233168   6.343   6.338   5.070
10757SOL     OW33169   2.137   2.828   0.494
10757SOL    HW133170   2.231   2.845   0.523
10757SOL    HW233171   2.113   2.733   0.511
10758SOL     OW33172   0.699   6.217   3.565
10758SOL    HW133173   0.746   6.180   3.485
10758SOL    HW233174   0.605   6.183   3.567
10759SOL     OW33175   0.705   2.689   0.318
10759SOL    HW133176   0.729   2.785   0.298
10759SOL    HW233177   0.738   2.631   0.245
10760SOL     OW33178   6.073   1.462   3.323
10760SOL    HW133179   6.040   1.387   3.381
10760SOL    HW233180   6.160   1.496   3.360
10761SOL     OW33181   2.462   5.054   5.645
10761SOL    HW133182   2.434   5.031   5.551
10761SOL    HW233183   2.447   4.974   5.704
10762SOL     OW33184   3.128   0.469   4.716
10762SOL    HW133185   3.059   0.409   4.674
10762SOL    HW233186   3.140   0.550   4.659
10763SOL     OW33187   3.860   0.670   3.261
10763SOL    HW133188   3.864   0.698   3.357
10763SOL    HW233189   3.840   0.750   3.204
10764SOL     OW33190   4.881   1.168   4.144
10764SOL    HW133191   4.959   1.188   4.203
10764SOL    HW233192   4.875   1.069   4.129
10765SOL     OW33193   5.044   3.501   1.324
10765SOL    HW133194   4.982   3.440   1.373
10765SOL    HW233195   4.993   3.581   1.291
10766SOL     OW33196   2.912   3.390   1.188
10766SOL    HW133197   2.933   3.473   1.240
10766SOL    HW233198   2.957   3.395   1.099
10767SOL     OW33199   2.009   0.585   1.845
10767SOL    HW133200   2.076   0.535   1.901
10767SOL    HW233201   1.924   0.595   1.896
10768SOL     OW33202   6.788   5.099   0.762
10768SOL    HW133203   6.791   5.150   0.848
10768SOL    HW233204   6.824   5.007   0.776
10769SOL     OW33205   2.272   3.524   6.079
10769SOL    HW133206   2.201   3.526   6.150
10769SOL    HW233207   2.340   3.594   6.099
10770SOL     OW33208   4.478   5.675   3.546
10770SOL    HW133209   4.408   5.693   3.615
10770SOL    HW233210   4.539   5.754   3.539
10771SOL     OW33211   3.013   0.214   3.749
10771SOL    HW133212   3.000   0.293   3.810
10771SOL    HW233213   3.095   0.229   3.694
10772SOL     OW33214   6.117   5.903   3.919
10772SOL    HW133215   6.039   5.876   3.976
10772SOL    HW233216   6.186   5.831   3.920
10773SOL     OW33217   5.351   4.826   4.192
10773SOL    HW133218   5.346   4.896   4.121
10773SOL    HW233219   5.440   4.831   4.238
10774SOL     OW33220   1.567   1.076   3.914
10774SOL    HW133221   1.475   1.117   3.914
10774SOL    HW233222   1.609   1.088   3.824
10775SOL     OW33223   0.444   4.473   1.875
10775SOL    HW133224   0.542   4.489   1.863
10775SOL    HW233225   0.422   4.380   1.847
10776SOL     OW33226   2.083   0.292   6.764
10776SOL    HW133227   2.009   0.226   6.757
10776SOL    HW233228   2.130   0.299   6.676
10777SOL     OW33229   3.292   6.054   1.469
10777SOL    HW133230   3.341   6.140   1.487
10777SOL    HW233231   3.347   5.977   1.499
10778SOL     OW33232   5.592   6.657   3.658
10778SOL    HW133233   5.653   6.616   3.726
10778SOL    HW233234   5.597   6.757   3.665
10779SOL     OW33235   5.481   2.819   3.595
10779SOL    HW133236   5.444   2.912   3.602
10779SOL    HW233237   5.418   2.762   3.542
10780SOL     OW33238   0.749   1.143   3.183
10780SOL    HW133239   0.846   1.165   3.167
10780SOL    HW233240   0.698   1.228   3.198
10781SOL     OW33241   3.062   0.104   4.196
10781SOL    HW133242   3.064   0.025   4.134
10781SOL    HW233243   3.146   0.105   4.251
10782SOL     OW33244   6.071   6.066   4.393
10782SOL    HW133245   6.150   6.058   4.453
10782SOL    HW233246   6.041   6.162   4.389
10783SOL     OW33247   6.542   2.243   3.099
10783SOL    HW133248   6.522   2.311   3.029
10783SOL    HW233249   6.591   2.166   3.059
10784SOL     OW33250   2.567   1.657   3.740
10784SOL    HW133251   2.483   1.614   3.771
10784SOL    HW233252   2.578   1.641   3.641
10785SOL     OW33253   0.469   3.829   6.719
10785SOL    HW133254   0.539   3.893   6.751
10785SOL    HW233255   0.424   3.868   6.638
10786SOL     OW33256   6.452   5.617   2.898
10786SOL    HW133257   6.521   5.690   2.897
10786SOL    HW233258   6.365   5.655   2.928
10787SOL     OW33259   0.900   1.512   5.060
10787SOL    HW133260   0.968   1.567   5.108
10787SOL    HW233261   0.926   1.501   4.964
10788SOL     OW33262   0.031   4.105   6.454
10788SOL    HW133263   6.964   4.122   6.500
10788SOL    HW233264   0.045   4.006   6.445
10789SOL     OW33265   0.020   2.355   0.136
10789SOL    HW133266   0.012   2.333   0.039
10789SOL    HW233267   7.007   2.277   0.190
10790SOL     OW33268   6.937   6.976   2.139
10790SOL    HW133269   7.015   6.963   2.200
10790SOL    HW233270   6.957   6.935   2.050
10791SOL     OW33271   6.162   6.312   2.437
10791SOL    HW133272   6.258   6.308   2.465
10791SOL    HW233273   6.131   6.220   2.411
10792SOL     OW33274   3.908   3.733   4.950
10792SOL    HW133275   3.875   3.810   4.895
10792SOL    HW233276   3.987   3.691   4.905
10793SOL     OW33277   5.670   3.328   5.165
10793SOL    HW133278   5.687   3.269   5.086
10793SOL    HW233279   5.717   3.290   5.245
10794SOL     OW33280   3.417   3.319   3.833
10794SOL    HW133281   3.449   3.413   3.821
10794SOL    HW233282   3.361   3.312   3.915
10795SOL     OW33283   1.212   4.216   2.821
10795SOL    HW133284   1.173   4.199   2.731
10795SOL    HW233285   1.181   4.304   2.856
10796SOL     OW33286   1.141   6.399   5.111
10796SOL    HW133287   1.184   6.398   5.201
10796SOL    HW233288   1.159   6.312   5.065
10797SOL     OW33289   3.700   3.290   0.600
10797SOL    HW133290   3.760   3.227   0.651
10797SOL    HW233291   3.606   3.258   0.607
10798SOL     OW33292   1.301   1.409   1.198
10798SOL    HW133293   1.203   1.403   1.214
10798SOL    HW233294   1.319   1.416   1.100
10799SOL     OW33295   3.995   1.144   2.262
10799SOL    HW133296   3.898   1.167   2.269
10799SOL    HW233297   4.009   1.049   2.289
10800SOL     OW33298   1.084   6.561   0.160
10800SOL    HW133299   1.074   6.629   0.088
10800SOL    HW233300   1.158   6.588   0.222
10801SOL     OW33301   1.383   0.855   0.839
10801SOL    HW133302   1.420   0.852   0.746
10801SOL    HW233303   1.361   0.762   0.869
10802SOL     OW33304   6.204   0.081   3.330
10802SOL    HW133305   6.286   0.097   3.275
10802SOL    HW233306   6.159   7.017   3.300
10803SOL     OW33307   1.613   5.336   6.812
10803SOL    HW133308   1.554   5.257   6.827
10803SOL    HW233309   1.642   5.339   6.716
10804SOL     OW33310   0.414   3.320   3.895
10804SOL    HW133311   0.479   3.247   3.918
10804SOL    HW233312   0.372   3.354   3.980
10805SOL     OW33313   6.350   0.810   5.660
10805SOL    HW133314   6.298   0.846   5.583
10805SOL    HW233315   6.410   0.736   5.629
10806SOL     OW33316   1.707   4.669   6.860
10806SOL    HW133317   1.758   4.583   6.851
10806SOL    HW233318   1.768   4.740   6.895
10807SOL     OW33319   2.578   6.063   3.969
10807SOL    HW133320   2.588   6.092   4.064
10807SOL    HW233321   2.560   5.965   3.967
10808SOL     OW33322   0.330   1.958   6.104
10808SOL    HW133323   0.333   2.022   6.180
10808SOL    HW233324   0.420   1.954   6.060
10809SOL     OW33325   2.302   5.429   4.490
10809SOL    HW133326   2.332   5.372   4.566
10809SOL    HW233327   2.357   5.409   4.409
10810SOL     OW33328   0.296   0.021   4.496
10810SOL    HW133329   0.237   0.100   4.512
10810SOL    HW233330   0.308   6.991   4.582
10811SOL     OW33331   4.954   5.148   5.079
10811SOL    HW133332   4.987   5.242   5.089
10811SOL    HW233333   4.895   5.142   4.998
10812SOL     OW33334   0.128   2.700   6.541
10812SOL    HW133335   0.109   2.781   6.596
10812SOL    HW233336   0.178   2.726   6.459
10813SOL     OW33337   0.325   3.816   6.205
10813SOL    HW133338   0.406   3.824   6.147
10813SOL    HW233339   0.342   3.861   6.293
10814SOL     OW33340   2.327   0.475   0.955
10814SOL    HW133341   2.365   0.544   1.017
10814SOL    HW233342   2.274   0.409   1.007
10815SOL     OW33343   4.743   0.845   4.485
10815SOL    HW133344   4.708   0.820   4.395
10815SOL    HW233345   4.787   0.935   4.480
10816SOL     OW33346   3.554   3.051   3.191
10816SOL    HW133347   3.579   3.102   3.109
10816SOL    HW233348   3.464   3.008   3.178
10817SOL     OW33349   2.175   0.033   3.372
10817SOL    HW133350   2.243   0.021   3.300
10817SOL    HW233351   2.138   6.964   3.399
10818SOL     OW33352   4.279   4.974   5.739
10818SOL    HW133353   4.224   4.934   5.666
10818SOL    HW233354   4.359   4.916   5.756
10819SOL     OW33355   6.971   5.818   6.258
10819SOL    HW133356   7.014   5.869   6.332
10819SOL    HW233357   6.955   5.879   6.180
10820SOL     OW33358   2.162   4.426   5.853
10820SOL    HW133359   2.231   4.368   5.811
10820SOL    HW233360   2.104   4.466   5.781
10821SOL     OW33361   4.751   5.138   3.193
10821SOL    HW133362   4.797   5.078   3.258
10821SOL    HW233363   4.676   5.089   3.149
10822SOL     OW33364   5.926   2.967   0.999
10822SOL    HW133365   5.906   3.013   1.085
10822SOL    HW233366   5.870   2.885   0.991
10823SOL     OW33367   6.435   6.559   2.960
10823SOL    HW133368   6.395   6.483   2.910
10823SOL    HW233369   6.458   6.530   3.053
10824SOL     OW33370   1.193   1.612   4.065
10824SOL    HW133371   1.248   1.632   3.984
10824SOL    HW233372   1.109   1.664   4.063
10825SOL     OW33373   1.650   1.921   0.777
10825SOL    HW133374   1.556   1.923   0.741
10825SOL    HW233375   1.661   1.842   0.836
10826SOL     OW33376   1.178   2.524   2.970
10826SOL    HW133377   1.272   2.490   2.961
10826SOL    HW233378   1.130   2.515   2.883
10827SOL     OW33379   0.093   3.140   4.957
10827SOL    HW133380   0.039   3.056   4.953
10827SOL    HW233381   0.120   3.167   4.864
10828SOL     OW33382   6.388   4.359   6.114
10828SOL    HW133383   6.428   4.314   6.034
10828SOL    HW233384   6.329   4.295   6.163
10829SOL     OW33385   4.115   3.395   5.622
10829SOL    HW133386   4.197   3.379   5.678
10829SOL    HW233387   4.034   3.361   5.670
10830SOL     OW33388   4.676   1.003   3.644
10830SOL    HW133389   4.663   0.905   3.631
10830SOL    HW233390   4.772   1.021   3.664
10831SOL     OW33391   3.844   0.790   2.877
10831SOL    HW133392   3.831   0.828   2.786
10831SOL    HW233393   3.795   0.703   2.885
10832SOL     OW33394   6.788   3.527   0.025
10832SOL    HW133395   6.829   3.467   0.093
10832SOL    HW233396   6.841   3.611   0.018
10833SOL     OW33397   0.787   1.153   0.776
10833SOL    HW133398   0.770   1.096   0.856
10833SOL    HW233399   0.848   1.228   0.800
10834SOL     OW33400   6.719   6.551   0.695
10834SOL    HW133401   6.815   6.546   0.723
10834SOL    HW233402   6.676   6.461   0.705
10835SOL     OW33403   6.911   2.379   5.703
10835SOL    HW133404   6.915   2.406   5.607
10835SOL    HW233405   6.928   2.280   5.710
10836SOL     OW33406   0.022   1.827   3.644
10836SOL    HW133407   0.107   1.874   3.669
10836SOL    HW233408   0.037   1.728   3.643
10837SOL     OW33409   6.913   4.250   2.684
10837SOL    HW133410   6.983   4.282   2.748
10837SOL    HW233411   6.844   4.198   2.734
10838SOL     OW33412   6.319   5.724   3.927
10838SOL    HW133413   6.293   5.696   3.834
10838SOL    HW233414   6.336   5.642   3.982
10839SOL     OW33415   4.555   3.429   0.756
10839SOL    HW133416   4.645   3.445   0.715
10839SOL    HW233417   4.485   3.476   0.703
10840SOL     OW33418   3.015   0.552   1.070
10840SOL    HW133419   2.922   0.515   1.077
10840SOL    HW233420   3.021   0.612   0.990
10841SOL     OW33421   1.170   5.243   4.583
10841SOL    HW133422   1.100   5.275   4.646
10841SOL    HW233423   1.258   5.240   4.629
10842SOL     OW33424   5.271   4.152   0.608
10842SOL    HW133425   5.288   4.084   0.680
10842SOL    HW233426   5.191   4.126   0.555
10843SOL     OW33427   2.232   2.339   1.514
10843SOL    HW133428   2.153   2.397   1.527
10843SOL    HW233429   2.316   2.391   1.532
10844SOL     OW33430   0.768   5.380   5.222
10844SOL    HW133431   0.808   5.471   5.234
10844SOL    HW233432   0.723   5.375   5.133
10845SOL     OW33433   4.267   6.542   5.125
10845SOL    HW133434   4.193   6.484   5.090
10845SOL    HW233435   4.239   6.638   5.117
10846SOL     OW33436   5.124   0.181   0.470
10846SOL    HW133437   5.123   0.170   0.371
10846SOL    HW233438   5.151   0.095   0.513
10847SOL     OW33439   1.765   1.644   6.934
10847SOL    HW133440   1.861   1.622   6.953
10847SOL    HW233441   1.743   1.732   6.976
10848SOL     OW33442   1.825   4.310   1.455
10848SOL    HW133443   1.780   4.343   1.538
10848SOL    HW233444   1.907   4.365   1.438
10849SOL     OW33445   2.392   6.027   3.761
10849SOL    HW133446   2.324   5.963   3.797
10849SOL    HW233447   2.450   6.060   3.836
10850SOL     OW33448   3.591   6.497   0.044
10850SOL    HW133449   3.570   6.405   0.075
10850SOL    HW233450   3.509   6.539   0.005
10851SOL     OW33451   2.181   4.774   1.414
10851SOL    HW133452   2.191   4.873   1.403
10851SOL    HW233453   2.084   4.751   1.416
10852SOL     OW33454   1.928   1.585   1.164
10852SOL    HW133455   1.936   1.485   1.163
10852SOL    HW233456   2.000   1.623   1.222
10853SOL     OW33457   2.815   1.830   6.259
10853SOL    HW133458   2.833   1.803   6.354
10853SOL    HW233459   2.797   1.928   6.256
10854SOL     OW33460   4.250   5.955   5.578
10854SOL    HW133461   4.342   5.992   5.593
10854SOL    HW233462   4.202   5.949   5.666
10855SOL     OW33463   3.462   1.136   0.313
10855SOL    HW133464   3.450   1.128   0.412
10855SOL    HW233465   3.527   1.066   0.282
10856SOL     OW33466   0.046   1.034   0.228
10856SOL    HW133467   0.112   1.106   0.207
10856SOL    HW233468   0.009   0.996   0.143
10857SOL     OW33469   5.928   2.253   2.593
10857SOL    HW133470   6.015   2.261   2.544
10857SOL    HW233471   5.925   2.165   2.639
10858SOL     OW33472   2.787   6.126   1.406
10858SOL    HW133473   2.886   6.126   1.393
10858SOL    HW233474   2.755   6.220   1.416
10859SOL     OW33475   1.223   5.424   3.417
10859SOL    HW133476   1.223   5.486   3.496
10859SOL    HW233477   1.129   5.403   3.391
10860SOL     OW33478   6.596   2.640   3.398
10860SOL    HW133479   6.642   2.647   3.486
10860SOL    HW233480   6.498   2.627   3.413
10861SOL     OW33481   3.908   3.030   4.122
10861SOL    HW133482   3.830   3.012   4.063
10861SOL    HW233483   3.931   2.948   4.173
10862SOL     OW33484   1.617   0.533   4.691
10862SOL    HW133485   1.539   0.487   4.647
10862SOL    HW233486   1.640   0.615   4.639
10863SOL     OW33487   2.783   5.620   4.566
10863SOL    HW133488   2.841   5.693   4.606
10863SOL    HW233489   2.690   5.631   4.600
10864SOL     OW33490   3.335   6.207   2.624
10864SOL    HW133491   3.277   6.134   2.659
10864SOL    HW233492   3.398   6.236   2.696
10865SOL     OW33493   6.354   1.997   6.349
10865SOL    HW133494   6.400   1.908   6.341
10865SOL    HW233495   6.420   2.066   6.376
10866SOL     OW33496   5.490   4.827   0.534
10866SOL    HW133497   5.477   4.733   0.501
10866SOL    HW233498   5.503   4.826   0.633
10867SOL     OW33499   3.625   3.078   0.379
10867SOL    HW133500   3.693   3.142   0.414
10867SOL    HW233501   3.651   2.985   0.405
10868SOL     OW33502   3.192   1.799   2.824
10868SOL    HW133503   3.215   1.839   2.912
10868SOL    HW233504   3.170   1.872   2.759
10869NA      NA33505   6.437   2.227   5.657
10870NA      NA33506   4.214   4.595   5.283
10871NA      NA33507   2.214   3.624   1.405
10872NA      NA33508   4.888   3.879   5.038
10873NA      NA33509   4.231   2.369   5.268
10874NA      NA33510   3.724   4.709   1.660
10875NA      NA33511   6.599   5.780   5.742
10876NA      NA33512   3.880   3.641   5.180
10877NA      NA33513   4.616   6.646   0.039
10878NA      NA33514   3.533   6.991   5.115
10879NA      NA33515   6.428   4.905   2.560
10880NA      NA33516   2.138   0.839   3.097
10881NA      NA33517   3.453   4.646   0.967
10882NA      NA33518   3.601   3.575   2.957
   7.01980   7.01980   7.01980
